<event>
 6    0  0.8610502E+002  0.1144824E+03  0.7546771E-02  0.1252487E+00
         21   -1    0    0  505  501  0.00000000000E+00  0.00000000000E+00  0.19229062733E+04  0.19229062733E+04  0.00000000000E+00 0.  1.
         21   -1    0    0  504  502 -0.00000000000E+00 -0.00000000000E+00 -0.91494077827E+02  0.91494077827E+02  0.00000000000E+00 0. -1.
         21    1    1    2  503  506  0.67860709534E+02  0.22077449267E+02  0.21566532561E+02  0.74549346015E+02  0.00000000000E+00 0. -1.
         21    1    1    2  504  501 -0.44225885178E+02 -0.92970680331E+02  0.11717315370E+04  0.11762458379E+04  0.00000000000E+00 0.  1.
         21    1    1    2  505  503 -0.70322879652E+02  0.34907732448E+02  0.68425679642E+03  0.68874612205E+03  0.00000000000E+00 0.  1.
         21    1    1    2  506  502  0.46688055296E+02  0.35985498616E+02 -0.46142670454E+02  0.74859045243E+02  0.00000000000E+00 0. -1.
<scales pt_clust_3="14000.00000" pt_clust_4="114.48242" pt_clust_5="76.73634" pt_clust_6="58.94685"></scales>
<clustering>
<clus scale="   58.947">  2  6  1 -1</clus>
<clus scale="   76.736">  1  5  2 -1</clus>
<clus scale="  114.482">  1  4  2 -1</clus>
<clus scale="   76.736">  1  3  2 -1</clus>
</clustering>
</event>
<event>
 6    0  0.8610502E+002  0.7488633E+02  0.7546771E-02  0.1344223E+00
         21   -1    0    0  503  501  0.00000000000E+00  0.00000000000E+00  0.18113655517E+03  0.18113655517E+03  0.00000000000E+00 0.  1.
         21   -1    0    0  505  502 -0.00000000000E+00 -0.00000000000E+00 -0.30020852733E+03  0.30020852733E+03  0.00000000000E+00 0.  1.
         21    1    1    2  503  502  0.48875686992E+02  0.57111325880E+02  0.12713525367E+03  0.14769532507E+03  0.00000000000E+00 0.  1.
         21    1    1    2  504  506  0.40988712475E+02 -0.74377568622E+02 -0.61337004099E+02  0.10475841415E+03  0.00000000000E+00 0.  1.
         21    1    1    2  505  504 -0.20459116137E+02  0.51924376850E+02 -0.94893881031E+02  0.11008889590E+03  0.00000000000E+00 0.  1.
         21    1    1    2  506  501 -0.69405283330E+02 -0.34658134108E+02 -0.89976340699E+02  0.11880244736E+03  0.00000000000E+00 0.  1.
<scales pt_clust_3="14000.00000" pt_clust_4="61.74791" pt_clust_5="55.80964" pt_clust_6="74.88633"></scales>
<clustering>
<clus scale="   55.810">  2  5  1 -1</clus>
<clus scale="   61.748">  2  4  1 -1</clus>
<clus scale="   74.886">  2  6  1 -1</clus>
<clus scale="   74.886">  1  3  2 -1</clus>
</clustering>
</event>
<event>
 6    0  0.8610502E+002  0.1074715E+03  0.7546771E-02  0.1265325E+00
         21   -1    0    0  505  501  0.00000000000E+00  0.00000000000E+00  0.27244377370E+04  0.27244377370E+04  0.00000000000E+00 0.  1.
         21   -1    0    0  504  502 -0.00000000000E+00 -0.00000000000E+00 -0.11058337237E+03  0.11058337237E+03  0.00000000000E+00 0. -1.
         21    1    1    2  503  501 -0.69435631102E+02 -0.84056118189E+02  0.26622725263E+04  0.26645040331E+04  0.00000000000E+00 0.  1.
         21    1    1    2  504  506  0.37999101005E+02  0.16198418226E+02  0.17634120970E+02  0.44914169842E+02  0.00000000000E+00 0. -1.
         21    1    1    2  505  502  0.44188208137E+02  0.99206649109E+01 -0.41404982804E+02  0.61362773174E+02  0.00000000000E+00 0. -1.
         21    1    1    2  506  503 -0.12751678039E+02  0.57937035052E+02 -0.24647299906E+02  0.64240133220E+02  0.00000000000E+00 0. -1.
<scales pt_clust_3="107.47149" pt_clust_4="41.30763" pt_clust_5="14000.00000" pt_clust_6="65.52975"></scales>
<clustering>
<clus scale="   41.308">  2  4  1 -1</clus>
<clus scale="   65.530">  2  6  1 -1</clus>
<clus scale="  107.471">  1  3  2 -1</clus>
<clus scale="  107.471">  1  3  2 -1</clus>
</clustering>
</event>
<event>
 6    0  0.8610502E+002  0.1703761E+03  0.7546771E-02  0.1177456E+00
         21   -1    0    0  505  501  0.00000000000E+00  0.00000000000E+00  0.41310637851E+03  0.41310637851E+03  0.00000000000E+00 0. -1.
         21   -1    0    0  506  502 -0.00000000000E+00 -0.00000000000E+00 -0.94442038680E+02  0.94442038680E+02  0.00000000000E+00 0. -1.
         21    1    1    2  503  502 -0.23400525893E+02  0.25801054928E+02 -0.10944884270E+02  0.36511224837E+02  0.00000000000E+00 0. -1.
         21    1    1    2  504  503 -0.89041792712E+02 -0.32758001743E+02  0.69971696901E+02  0.11788793787E+03  0.00000000000E+00 0. -1.
         21    1    1    2  505  504 -0.63054711419E+02  0.98565735616E+01  0.72052926971E+02  0.96253171166E+02  0.00000000000E+00 0.  1.
         21    1    1    2  506  501  0.17549703002E+03 -0.28996267457E+01  0.18758460023E+03  0.25689608332E+03  0.00000000000E+00 0. -1.
<scales pt_clust_3="34.83216" pt_clust_4="37.30322" pt_clust_5="37.30322" pt_clust_6="164.31805"></scales>
<clustering>
<clus scale="   34.832">  2  3  1 -1</clus>
<clus scale="   37.303">  4  5 -1 -1</clus>
<clus scale="  164.318">  1  6  2 -1</clus>
<clus scale="  164.318">  1  3  2 -1</clus>
</clustering>
</event>
<event>
 6    0  0.8610502E+002  0.1062933E+03  0.7546771E-02  0.1267592E+00
         21   -1    0    0  502  501  0.00000000000E+00  0.00000000000E+00  0.89755289427E+03  0.89755289427E+03  0.00000000000E+00 0. -1.
         21   -1    0    0  505  502 -0.00000000000E+00 -0.00000000000E+00 -0.13386264027E+03  0.13386264027E+03  0.00000000000E+00 0. -1.
         21    1    1    2  503  504  0.59974022574E+01 -0.94384711413E+02  0.30091540195E+03  0.31542752212E+03  0.00000000000E+00 0. -1.
         21    1    1    2  504  506 -0.48842478074E+02  0.29240178671E+02  0.28380447193E+03  0.28945734401E+03  0.00000000000E+00 0. -1.
         21    1    1    2  505  503  0.57345744865E+02  0.93108530739E+01 -0.11399199176E+03  0.12794295848E+03  0.00000000000E+00 0. -1.
         21    1    1    2  506  501 -0.14500669049E+02  0.55833679668E+02  0.29296237187E+03  0.29858770993E+03  0.00000000000E+00 0. -1.
<scales pt_clust_3="97.01126" pt_clust_4="43.15344" pt_clust_5="58.09670" pt_clust_6="43.15344"></scales>
<clustering>
<clus scale="   43.153">  4  6 -1 -1</clus>
<clus scale="   58.097">  2  5  1 -1</clus>
<clus scale="   97.011">  2  3  1 -1</clus>
<clus scale="  106.293">  1  3  2 -1</clus>
</clustering>
</event>
<event>
 6    0  0.8610502E+002  0.1455453E+03  0.7546771E-02  0.1206056E+00
         21   -1    0    0  503  501  0.00000000000E+00  0.00000000000E+00  0.18418424947E+03  0.18418424947E+03  0.00000000000E+00 0.  1.
         21   -1    0    0  505  502 -0.00000000000E+00 -0.00000000000E+00 -0.38174098009E+03  0.38174098009E+03  0.00000000000E+00 0.  1.
         21    1    1    2  503  506 -0.68868785422E+02 -0.44526089886E+02  0.74838749645E+02  0.11102396469E+03  0.00000000000E+00 0.  1.
         21    1    1    2  504  501  0.28334372861E+02  0.56304276613E+02 -0.35557001866E+02  0.72369251979E+02  0.00000000000E+00 0. -1.
         21    1    1    2  505  504  0.19866335009E+02  0.11674582966E+03 -0.72980837888E+01  0.11864873382E+03  0.00000000000E+00 0.  1.
         21    1    1    2  506  502  0.20668077553E+02 -0.12852401639E+03 -0.22954039461E+03  0.26388327907E+03  0.00000000000E+00 0.  1.
<scales pt_clust_3="82.00904" pt_clust_4="35.60412" pt_clust_5="35.60412" pt_clust_6="137.11954"></scales>
<clustering>
<clus scale="   35.604">  4  5 -1 -1</clus>
<clus scale="   82.009">  1  3  2 -1</clus>
<clus scale="  137.120">  2  6  1 -1</clus>
<clus scale="   82.009">  1  3  2 -1</clus>
</clustering>
</event>
<event>
 6    0  0.8610502E+002  0.1191292E+03  0.7546771E-02  0.1244540E+00
         21   -1    0    0  503  501  0.00000000000E+00  0.00000000000E+00  0.11589193719E+03  0.11589193719E+03  0.00000000000E+00 0. -1.
         21   -1    0    0  506  502 -0.00000000000E+00 -0.00000000000E+00 -0.15572176036E+03  0.15572176036E+03  0.00000000000E+00 0. -1.
         21    1    1    2  503  504  0.11602821322E+01  0.66246883983E+02 -0.27088262881E+02  0.71580513256E+02  0.00000000000E+00 0. -1.
         21    1    1    2  504  505  0.21632109473E+02  0.40968624241E+02  0.39164729050E+01  0.46494247951E+02  0.00000000000E+00 0. -1.
         21    1    1    2  505  502 -0.32038812304E+02  0.11059629533E+02 -0.60489448457E+01  0.34429502364E+02  0.00000000000E+00 0.  1.
         21    1    1    2  506  501  0.92464206986E+01 -0.11827513776E+03 -0.10609088341E+02  0.11910943398E+03  0.00000000000E+00 0. -1.
<scales pt_clust_3="31.17648" pt_clust_4="31.17648" pt_clust_5="33.89397" pt_clust_6="113.14468"></scales>
<clustering>
<clus scale="   31.176">  3  4 -1 -1</clus>
<clus scale="   33.894">  2  5  1 -1</clus>
<clus scale="  113.145">  1  6  2 -1</clus>
<clus scale="  113.145">  1  3  2 -1</clus>
</clustering>
</event>
<event>
 6    0  0.8610502E+002  0.1271147E+03  0.7546771E-02  0.1231801E+00
         21   -1    0    0  503  501  0.00000000000E+00  0.00000000000E+00  0.13339558947E+04  0.13339558947E+04  0.00000000000E+00 0.  1.
         21   -1    0    0  505  502 -0.00000000000E+00 -0.00000000000E+00 -0.73655461524E+02  0.73655461524E+02  0.00000000000E+00 0.  1.
         21    1    1    2  503  506  0.14060050363E+03  0.30984743550E+02  0.88340709212E+03  0.89506237010E+03  0.00000000000E+00 0.  1.
         21    1    1    2  504  502 -0.44077491371E+02 -0.81892659942E+01  0.12929747990E+03  0.13684928802E+03  0.00000000000E+00 0. -1.
         21    1    1    2  505  501 -0.63789940225E+02  0.22892152985E+02 -0.42640687176E+02  0.80071439010E+02  0.00000000000E+00 0.  1.
         21    1    1    2  506  504 -0.32733072032E+02 -0.45687630541E+02  0.29023654828E+03  0.29562825904E+03  0.00000000000E+00 0.  1.
<scales pt_clust_3="118.03685" pt_clust_4="42.13282" pt_clust_5="67.77320" pt_clust_6="42.13282"></scales>
<clustering>
<clus scale="   42.133">  4  6 -1 -1</clus>
<clus scale="   67.773">  2  5  1 -1</clus>
<clus scale="  118.037">  1  3  2 -1</clus>
<clus scale="  118.037">  1  3  2 -1</clus>
</clustering>
</event>
<event>
 6    0  0.8610502E+002  0.1058511E+03  0.7546771E-02  0.1268452E+00
         21   -1    0    0  505  501  0.00000000000E+00  0.00000000000E+00  0.86723158173E+02  0.86723158173E+02  0.00000000000E+00 0.  1.
         21   -1    0    0  503  502 -0.00000000000E+00 -0.00000000000E+00 -0.42917934408E+03  0.42917934408E+03  0.00000000000E+00 0.  1.
         21    1    1    2  503  504 -0.30185297871E+02 -0.38189702948E+02 -0.14439522789E+03  0.15237974753E+03  0.00000000000E+00 0.  1.
         21    1    1    2  504  506  0.10047932174E+03 -0.28041098500E+02 -0.65783627231E+02  0.12332835406E+03  0.00000000000E+00 0.  1.
         21    1    1    2  505  502 -0.10962215208E+03 -0.91129207045E+01 -0.10187887417E+03  0.14993120606E+03  0.00000000000E+00 0.  1.
         21    1    1    2  506  501  0.39328128210E+02  0.75343722152E+02 -0.30398456622E+02  0.90263194611E+02  0.00000000000E+00 0.  1.
<scales pt_clust_3="48.67860" pt_clust_4="14000.00000" pt_clust_5="105.85105" pt_clust_6="74.74077"></scales>
<clustering>
<clus scale="   48.679">  2  3  1 -1</clus>
<clus scale="   74.741">  1  6  2 -1</clus>
<clus scale="  105.851">  1  5  2 -1</clus>
<clus scale="   74.741">  1  3  2 -1</clus>
</clustering>
</event>
<event>
 6    0  0.8610502E+002  0.1661229E+03  0.7546771E-02  0.1181952E+00
         21   -1    0    0  503  501  0.00000000000E+00  0.00000000000E+00  0.55665214836E+03  0.55665214836E+03  0.00000000000E+00 0.  1.
         21   -1    0    0  504  502 -0.00000000000E+00 -0.00000000000E+00 -0.48068357732E+03  0.48068357732E+03  0.00000000000E+00 0. -1.
         21    1    1    2  503  505 -0.36834167429E+01 -0.14335833502E+03  0.42694883995E+03  0.45038926687E+03  0.00000000000E+00 0.  1.
         21    1    1    2  504  506 -0.29278175342E+02 -0.68676616412E+02  0.43310829476E+02  0.86310585347E+02  0.00000000000E+00 0.  1.
         21    1    1    2  505  502  0.75285149045E+01  0.16679491736E+03 -0.41299580451E+03  0.44546914319E+03  0.00000000000E+00 0. -1.
         21    1    1    2  506  501  0.25433077181E+02  0.45240034069E+02  0.18704706119E+02  0.55166730268E+02  0.00000000000E+00 0. -1.
<scales pt_clust_3="14000.00000" pt_clust_4="68.22730" pt_clust_5="166.12292" pt_clust_6="51.89896"></scales>
<clustering>
<clus scale="   51.899">  1  6  2 -1</clus>
<clus scale="   68.227">  1  4  2 -1</clus>
<clus scale="  166.123">  2  5  1 -1</clus>
<clus scale="   51.899">  1  3  2 -1</clus>
</clustering>
</event>
<event>
 6    0  0.8610502E+002  0.1303277E+03  0.7546771E-02  0.1226970E+00
         21   -1    0    0  505  501  0.00000000000E+00  0.00000000000E+00  0.93073620544E+03  0.93073620544E+03  0.00000000000E+00 0.  1.
         21   -1    0    0  504  502 -0.00000000000E+00 -0.00000000000E+00 -0.10890954303E+03  0.10890954303E+03  0.00000000000E+00 0.  1.
         21    1    1    2  503  501  0.58567414717E+02 -0.53342757816E+01  0.27145800369E+03  0.27775536778E+03  0.00000000000E+00 0.  1.
         21    1    1    2  504  506 -0.12159881268E+03 -0.63417419258E+02 -0.45168619228E+02  0.14438921177E+03  0.00000000000E+00 0.  1.
         21    1    1    2  505  502  0.15432317879E+02 -0.29350272499E+02  0.31138721059E+03  0.31314787218E+03  0.00000000000E+00 0.  1.
         21    1    1    2  506  503  0.47599080088E+02  0.98101967539E+02  0.28415006735E+03  0.30435329674E+03  0.00000000000E+00 0.  1.
<scales pt_clust_3="67.94872" pt_clust_4="130.32774" pt_clust_5="33.16014" pt_clust_6="14000.00000"></scales>
<clustering>
<clus scale="   33.160">  1  5  2 -1</clus>
<clus scale="   67.949">  1  3  2 -1</clus>
<clus scale="  130.328">  2  4  1 -1</clus>
<clus scale="   33.160">  1  3  2 -1</clus>
</clustering>
</event>
<event>
 6    0  0.8610502E+002  0.8582566E+02  0.7546771E-02  0.1313287E+00
         21   -1    0    0  506  501  0.00000000000E+00  0.00000000000E+00  0.31397747814E+03  0.31397747814E+03  0.00000000000E+00 0. -1.
         21   -1    0    0  505  502 -0.00000000000E+00 -0.00000000000E+00 -0.86966160841E+02  0.86966160841E+02  0.00000000000E+00 0.  1.
         21    1    1    2  503  502  0.76016144210E+02  0.27805385859E+02  0.65568801458E+02  0.10416746799E+03  0.00000000000E+00 0.  1.
         21    1    1    2  504  501 -0.31773498632E+02  0.70741903946E+02  0.40553628969E+02  0.87513250492E+02  0.00000000000E+00 0. -1.
         21    1    1    2  505  504 -0.65271434168E+02 -0.64460140444E+02  0.11110259481E+02  0.92406210236E+02  0.00000000000E+00 0.  1.
         21    1    1    2  506  503  0.21028788589E+02 -0.34087149360E+02  0.10977862739E+03  0.11685671026E+03  0.00000000000E+00 0.  1.
<scales pt_clust_3="85.82566" pt_clust_4="64.89894" pt_clust_5="14000.00000" pt_clust_6="40.05176"></scales>
<clustering>
<clus scale="   40.052">  1  6  2 -1</clus>
<clus scale="   64.899">  1  4  2 -1</clus>
<clus scale="   85.826">  1  3  2 -1</clus>
<clus scale="   40.052">  1  3  2 -1</clus>
</clustering>
</event>
<event>
 6    0  0.8610502E+002  0.1807502E+03  0.7546771E-02  0.1167079E+00
         21   -1    0    0  506  501  0.00000000000E+00  0.00000000000E+00  0.67706905072E+02  0.67706905072E+02  0.00000000000E+00 0.  1.
         21   -1    0    0  503  502 -0.00000000000E+00 -0.00000000000E+00 -0.18078724005E+04  0.18078724005E+04  0.00000000000E+00 0.  1.
         21    1    1    2  503  501  0.14265875771E+03 -0.78020315879E+02 -0.16758618747E+04  0.16837314851E+04  0.00000000000E+00 0.  1.
         21    1    1    2  504  505 -0.68391871189E+02  0.25905313724E+02 -0.10044778079E+02  0.73820260705E+02  0.00000000000E+00 0.  1.
         21    1    1    2  505  502 -0.55105948056E+02  0.96202099296E+01 -0.41636758670E+02  0.69734020555E+02  0.00000000000E+00 0. -1.
         21    1    1    2  506  504 -0.19160938463E+02  0.42494792225E+02 -0.12622084025E+02  0.48293539259E+02  0.00000000000E+00 0.  1.
<scales pt_clust_3="162.59979" pt_clust_4="39.31643" pt_clust_5="32.99242" pt_clust_6="39.31643"></scales>
<clustering>
<clus scale="   32.992">  4  5 -1 -1</clus>
<clus scale="   39.316">  4  6 -1 -1</clus>
<clus scale="  162.600">  2  3  1 -1</clus>
<clus scale="  180.750">  1  3  2 -1</clus>
</clustering>
</event>
<event>
 6    0  0.8610502E+002  0.1238055E+03  0.7546771E-02  0.1236948E+00
         21   -1    0    0  505  501  0.00000000000E+00  0.00000000000E+00  0.26998406738E+03  0.26998406738E+03  0.00000000000E+00 0.  1.
         21   -1    0    0  506  502 -0.00000000000E+00 -0.00000000000E+00 -0.17586491836E+03  0.17586491836E+03  0.00000000000E+00 0.  1.
         21    1    1    2  503  502  0.11663723561E+03  0.71074037839E+01 -0.68186587548E+02  0.13529290684E+03  0.00000000000E+00 0.  1.
         21    1    1    2  504  501 -0.32313198701E+02 -0.83194735001E+01  0.79549226949E+02  0.86263758079E+02  0.00000000000E+00 0. -1.
         21    1    1    2  505  503  0.56970106193E+02  0.10748056535E+02  0.55139074097E+02  0.80008944569E+02  0.00000000000E+00 0.  1.
         21    1    1    2  506  504 -0.14129414310E+03 -0.95359868186E+01  0.27617435530E+02  0.14428337626E+03  0.00000000000E+00 0.  1.
<scales pt_clust_3="14000.00000" pt_clust_4="33.36700" pt_clust_5="45.95531" pt_clust_6="123.80546"></scales>
<clustering>
<clus scale="   33.367">  1  4  2 -1</clus>
<clus scale="   45.955">  1  5  2 -1</clus>
<clus scale="  123.805">  1  6  2 -1</clus>
<clus scale="   33.367">  1  3  2 -1</clus>
</clustering>
</event>
<event>
 6    0  0.8610502E+002  0.1300646E+03  0.7546771E-02  0.1227360E+00
         21   -1    0    0  504  501  0.00000000000E+00  0.00000000000E+00  0.58867013582E+02  0.58867013582E+02  0.00000000000E+00 0. -1.
         21   -1    0    0  503  502 -0.00000000000E+00 -0.00000000000E+00 -0.90167031841E+03  0.90167031841E+03  0.00000000000E+00 0.  1.
         21    1    1    2  503  506 -0.15376115154E+02 -0.50184017504E+02 -0.63102703194E+03  0.63320610828E+03  0.00000000000E+00 0.  1.
         21    1    1    2  504  505 -0.21274238225E+02  0.54595361077E+02 -0.17755549636E+02  0.61225045579E+02  0.00000000000E+00 0. -1.
         21    1    1    2  505  502  0.35695221465E+02  0.83513482277E+02 -0.73048178629E+02  0.11655336528E+03  0.00000000000E+00 0. -1.
         21    1    1    2  506  501  0.95513191460E+00 -0.87924825851E+02 -0.12097254462E+03  0.14955281285E+03  0.00000000000E+00 0.  1.
<scales pt_clust_3="52.48677" pt_clust_4="51.29146" pt_clust_5="51.29146" pt_clust_6="113.30915"></scales>
<clustering>
<clus scale="   51.291">  4  5 -1 -1</clus>
<clus scale="   52.487">  2  3  1 -1</clus>
<clus scale="  113.309">  2  6  1 -1</clus>
<clus scale="  130.065">  1  3  2 -1</clus>
</clustering>
</event>
<event>
 6    0  0.8610502E+002  0.1134162E+03  0.7546771E-02  0.1254371E+00
         21   -1    0    0  503  501  0.00000000000E+00  0.00000000000E+00  0.36584356052E+03  0.36584356052E+03  0.00000000000E+00 0. -1.
         21   -1    0    0  504  502 -0.00000000000E+00 -0.00000000000E+00 -0.25485945376E+03  0.25485945376E+03  0.00000000000E+00 0. -1.
         21    1    1    2  503  506  0.46417122176E+01  0.11521887685E+03  0.28816000063E+03  0.31037577392E+03  0.00000000000E+00 0. -1.
         21    1    1    2  504  501  0.36585565652E+02 -0.29081439752E+02 -0.11024607291E+01  0.46748787918E+02  0.00000000000E+00 0. -1.
         21    1    1    2  505  502  0.44421247715E+02  0.42081533693E+01 -0.11810517443E+03  0.12625287335E+03  0.00000000000E+00 0. -1.
         21    1    1    2  506  505 -0.85648525585E+02 -0.90345590471E+02 -0.57968258715E+02  0.13732557908E+03  0.00000000000E+00 0. -1.
<scales pt_clust_3="113.41618" pt_clust_4="52.82952" pt_clust_5="44.62013" pt_clust_6="14000.00000"></scales>
<clustering>
<clus scale="   44.620">  2  5  1 -1</clus>
<clus scale="   52.830">  2  4  1 -1</clus>
<clus scale="  113.416">  1  3  2 -1</clus>
<clus scale="  113.416">  1  3  2 -1</clus>
</clustering>
</event>
<event>
 6    0  0.8610502E+002  0.2449861E+03  0.7546771E-02  0.1116515E+00
         21   -1    0    0  505  501  0.00000000000E+00  0.00000000000E+00  0.68246789990E+03  0.68246789990E+03  0.00000000000E+00 0.  1.
         21   -1    0    0  504  502 -0.00000000000E+00 -0.00000000000E+00 -0.49769957814E+03  0.49769957814E+03  0.00000000000E+00 0.  1.
         21    1    1    2  503  506  0.17806678501E+02  0.45663650399E+02  0.71559255116E+02  0.86735078024E+02  0.00000000000E+00 0.  1.
         21    1    1    2  504  501  0.35664420291E+02 -0.19096119089E+03 -0.42524325244E+03  0.46751465330E+03  0.00000000000E+00 0.  1.
         21    1    1    2  505  503 -0.60911714801E+02  0.17994667167E+03  0.55513983644E+03  0.58674635035E+03  0.00000000000E+00 0.  1.
         21    1    1    2  506  502  0.74406160091E+01 -0.34649131176E+02 -0.16687517351E+02  0.39171396365E+02  0.00000000000E+00 0. -1.
<scales pt_clust_3="45.54150" pt_clust_4="227.92708" pt_clust_5="45.54150" pt_clust_6="35.43903"></scales>
<clustering>
<clus scale="   35.439">  2  6  1 -1</clus>
<clus scale="   45.542">  3  5 -1 -1</clus>
<clus scale="  227.927">  2  4  1 -1</clus>
<clus scale="  244.986">  1  3  2 -1</clus>
</clustering>
</event>
<event>
 6    0  0.8610502E+002  0.1176502E+03  0.7546771E-02  0.1247025E+00
         21   -1    0    0  506  501  0.00000000000E+00  0.00000000000E+00  0.28981303644E+03  0.28981303644E+03  0.00000000000E+00 0. -1.
         21   -1    0    0  504  502 -0.00000000000E+00 -0.00000000000E+00 -0.34753469870E+03  0.34753469870E+03  0.00000000000E+00 0. -1.
         21    1    1    2  503  502 -0.10143276825E+03  0.38585025120E+01  0.23509858217E+02  0.10419312813E+03  0.00000000000E+00 0. -1.
         21    1    1    2  504  505  0.47089892818E+02 -0.78518922276E+02 -0.21139656017E+03  0.23037184032E+03  0.00000000000E+00 0. -1.
         21    1    1    2  505  501 -0.74719187087E+02 -0.60976870570E+01  0.13054116876E+03  0.15053615993E+03  0.00000000000E+00 0. -1.
         21    1    1    2  506  503  0.12906206252E+03  0.80758106821E+02 -0.37612906783E+00  0.15224660677E+03  0.00000000000E+00 0. -1.
<scales pt_clust_3="14000.00000" pt_clust_4="89.54877" pt_clust_5="74.96758" pt_clust_6="117.65020"></scales>
<clustering>
<clus scale="   74.968">  1  5  2 -1</clus>
<clus scale="   89.549">  2  4  1 -1</clus>
<clus scale="  117.650">  1  6  2 -1</clus>
<clus scale="   74.968">  1  3  2 -1</clus>
</clustering>
</event>
<event>
 6    0  0.8610502E+002  0.1587827E+03  0.7546771E-02  0.1190078E+00
         21   -1    0    0  503  501  0.00000000000E+00  0.00000000000E+00  0.18501972966E+03  0.18501972966E+03  0.00000000000E+00 0. -1.
         21   -1    0    0  504  502 -0.00000000000E+00 -0.00000000000E+00 -0.46920744365E+03  0.46920744365E+03  0.00000000000E+00 0.  1.
         21    1    1    2  503  506  0.10656047384E+03  0.26833682192E+02  0.78935320595E+02  0.13529954147E+03  0.00000000000E+00 0. -1.
         21    1    1    2  504  501 -0.31708819734E+02  0.25965560779E+02 -0.46979937823E+02  0.62343998535E+02  0.00000000000E+00 0.  1.
         21    1    1    2  505  502 -0.11894392151E+03 -0.27209611016E+02 -0.36568037929E+03  0.38549988222E+03  0.00000000000E+00 0.  1.
         21    1    1    2  506  505  0.44092267409E+02 -0.25589631955E+02  0.49537282522E+02  0.71083751086E+02  0.00000000000E+00 0. -1.
<scales pt_clust_3="39.66377" pt_clust_4="40.98365" pt_clust_5="147.71897" pt_clust_6="39.66377"></scales>
<clustering>
<clus scale="   39.664">  3  6 -1 -1</clus>
<clus scale="   40.984">  2  4  1 -1</clus>
<clus scale="  147.719">  2  5  1 -1</clus>
<clus scale="  158.783">  1  3  2 -1</clus>
</clustering>
</event>
<event>
 6    0  0.8610502E+002  0.1282367E+03  0.7546771E-02  0.1230096E+00
         21   -1    0    0  505  501  0.00000000000E+00  0.00000000000E+00  0.38099497607E+03  0.38099497607E+03  0.00000000000E+00 0. -1.
         21   -1    0    0  503  502 -0.00000000000E+00 -0.00000000000E+00 -0.20899709021E+03  0.20899709021E+03  0.00000000000E+00 0. -1.
         21    1    1    2  503  501  0.41144967288E+02 -0.11607718343E+03 -0.16821437792E+03  0.20847757141E+03  0.00000000000E+00 0. -1.
         21    1    1    2  504  502  0.17015024105E+02  0.55787853013E+02  0.99269719396E+02  0.11513588831E+03  0.00000000000E+00 0. -1.
         21    1    1    2  505  506 -0.52941392948E+02  0.11187468374E+02  0.70168433848E+02  0.88609026880E+02  0.00000000000E+00 0.  1.
         21    1    1    2  506  504 -0.52185984450E+01  0.49101862040E+02  0.17077411053E+03  0.17776957966E+03  0.00000000000E+00 0. -1.
<scales pt_clust_3="121.30835" pt_clust_4="38.25875" pt_clust_5="54.11054" pt_clust_6="38.25875"></scales>
<clustering>
<clus scale="   38.259">  4  6 -1 -1</clus>
<clus scale="   54.111">  1  5  2 -1</clus>
<clus scale="  121.308">  2  3  1 -1</clus>
<clus scale="   54.111">  1  3  2 -1</clus>
</clustering>
</event>
<event>
 6    0  0.8610502E+002  0.2888592E+03  0.7546771E-02  0.1090946E+00
         21   -1    0    0  503  501  0.00000000000E+00  0.00000000000E+00  0.21767080905E+03  0.21767080905E+03  0.00000000000E+00 0. -1.
         21   -1    0    0  505  502 -0.00000000000E+00 -0.00000000000E+00 -0.19741191265E+04  0.19741191265E+04  0.00000000000E+00 0.  1.
         21    1    1    2  503  506 -0.61111223756E+02 -0.12545217715E+03 -0.12347749682E+03  0.18633175425E+03  0.00000000000E+00 0.  1.
         21    1    1    2  504  502  0.13227742388E+02  0.28854177748E+02 -0.14364399898E+04  0.14367906532E+04  0.00000000000E+00 0.  1.
         21    1    1    2  505  501  0.11106381006E+03  0.25370920099E+03  0.37834191870E+02  0.27952630404E+03  0.00000000000E+00 0. -1.
         21    1    1    2  506  504 -0.63180328692E+02 -0.15711120159E+03 -0.23436502265E+03  0.28914122405E+03  0.00000000000E+00 0.  1.
<scales pt_clust_3="48.11995" pt_clust_4="31.74172" pt_clust_5="284.08942" pt_clust_6="48.11995"></scales>
<clustering>
<clus scale="   31.742">  2  4  1 -1</clus>
<clus scale="   48.120">  3  6 -1 -1</clus>
<clus scale="  284.089">  1  5  2 -1</clus>
<clus scale="  284.089">  1  3  2 -1</clus>
</clustering>
</event>
<event>
 6    0  0.8610502E+002  0.1571153E+03  0.7546771E-02  0.1191993E+00
         21   -1    0    0  506  501  0.00000000000E+00  0.00000000000E+00  0.11422498638E+03  0.11422498638E+03  0.00000000000E+00 0.  1.
         21   -1    0    0  503  502 -0.00000000000E+00 -0.00000000000E+00 -0.14502839604E+04  0.14502839604E+04  0.00000000000E+00 0. -1.
         21    1    1    2  503  504  0.45424442833E+02 -0.51599777818E+02 -0.12786848276E+03  0.14517667154E+03  0.00000000000E+00 0. -1.
         21    1    1    2  504  505 -0.28785572015E+02  0.33486793626E+02  0.28663675178E+02  0.52645804945E+02  0.00000000000E+00 0. -1.
         21    1    1    2  505  501  0.13342255942E+02  0.11072759506E+03  0.13684211311E+02  0.11236491330E+03  0.00000000000E+00 0.  1.
         21    1    1    2  506  502 -0.29981126761E+02 -0.92614610867E+02 -0.12505383778E+04  0.12543215570E+04  0.00000000000E+00 0. -1.
<scales pt_clust_3="68.74531" pt_clust_4="41.73368" pt_clust_5="41.73368" pt_clust_6="142.42998"></scales>
<clustering>
<clus scale="   41.734">  4  5 -1 -1</clus>
<clus scale="   68.745">  2  3  1 -1</clus>
<clus scale="  142.430">  2  6  1 -1</clus>
<clus scale="  157.115">  1  3  2 -1</clus>
</clustering>
</event>
<event>
 6    0  0.8610502E+002  0.1410840E+03  0.7546771E-02  0.1211878E+00
         21   -1    0    0  504  501  0.00000000000E+00  0.00000000000E+00  0.21201065625E+03  0.21201065625E+03  0.00000000000E+00 0. -1.
         21   -1    0    0  506  502 -0.00000000000E+00 -0.00000000000E+00 -0.12328555572E+04  0.12328555572E+04  0.00000000000E+00 0. -1.
         21    1    1    2  503  502  0.41954816182E+01 -0.12961054406E+03 -0.11819844113E+04  0.11890768032E+04  0.00000000000E+00 0. -1.
         21    1    1    2  504  503  0.49380739680E+02  0.28430583061E+01  0.30957635255E+02  0.58351654754E+02  0.00000000000E+00 0. -1.
         21    1    1    2  505  501 -0.21639814777E+02  0.46043041643E+02  0.86264634340E+02  0.10014904096E+03  0.00000000000E+00 0. -1.
         21    1    1    2  506  505 -0.31936406522E+02  0.80724444113E+02  0.43917240809E+02  0.97288714552E+02  0.00000000000E+00 0. -1.
<scales pt_clust_3="129.65630" pt_clust_4="49.46252" pt_clust_5="42.58108" pt_clust_6="42.58108"></scales>
<clustering>
<clus scale="   42.581">  5  6 -1 -1</clus>
<clus scale="   49.463">  1  4  2 -1</clus>
<clus scale="  129.656">  2  3  1 -1</clus>
<clus scale="   49.463">  1  3  2 -1</clus>
</clustering>
</event>
<event>
 6    0  0.8610502E+002  0.6751264E+02  0.7546771E-02  0.1368762E+00
         21   -1    0    0  504  501  0.00000000000E+00  0.00000000000E+00  0.13880061239E+03  0.13880061239E+03  0.00000000000E+00 0.  1.
         21   -1    0    0  503  502 -0.00000000000E+00 -0.00000000000E+00 -0.46064498306E+03  0.46064498306E+03  0.00000000000E+00 0. -1.
         21    1    1    2  503  505 -0.73687851132E+02  0.55830528553E+02 -0.70867233239E+02  0.11648653171E+03  0.00000000000E+00 0.  1.
         21    1    1    2  504  502  0.41754634686E+02 -0.49076487745E+02 -0.33868702287E+03  0.34476202028E+03  0.00000000000E+00 0. -1.
         21    1    1    2  505  506  0.24441956094E+02 -0.51882599791E+02  0.66375497244E+02  0.87720693187E+02  0.00000000000E+00 0.  1.
         21    1    1    2  506  501  0.74912603518E+01  0.45128558983E+02  0.21334388199E+02  0.50476350278E+02  0.00000000000E+00 0.  1.
<scales pt_clust_3="67.51264" pt_clust_4="14000.00000" pt_clust_5="35.07629" pt_clust_6="45.74610"></scales>
<clustering>
<clus scale="   45.746">  1  6  2 -1</clus>
<clus scale="   35.076">  1  5  2 -1</clus>
<clus scale="   67.513">  1  3  2 -1</clus>
<clus scale="   45.746">  1  3  2 -1</clus>
</clustering>
</event>
<event>
 6    0  0.8610502E+002  0.1086623E+03  0.7546771E-02  0.1263067E+00
         21   -1    0    0  505  501  0.00000000000E+00  0.00000000000E+00  0.20572870661E+03  0.20572870661E+03  0.00000000000E+00 0.  1.
         21   -1    0    0  506  502 -0.00000000000E+00 -0.00000000000E+00 -0.12549454177E+03  0.12549454177E+03  0.00000000000E+00 0.  1.
         21    1    1    2  503  504  0.11537510220E+02  0.96847269050E+02  0.21629493310E+02  0.99901664878E+02  0.00000000000E+00 0.  1.
         21    1    1    2  504  502 -0.34929444426E+02  0.10709615269E+02 -0.14430320850E+02  0.39280989129E+02  0.00000000000E+00 0.  1.
         21    1    1    2  505  503 -0.33493869730E+02  0.10815848588E+02  0.46057367578E+02  0.57966395424E+02  0.00000000000E+00 0.  1.
         21    1    1    2  506  501  0.56885803936E+02 -0.11837273291E+03  0.26977624804E+02  0.13407419895E+03  0.00000000000E+00 0.  1.
<scales pt_clust_3="14000.00000" pt_clust_4="39.37916" pt_clust_5="35.19690" pt_clust_6="108.66228"></scales>
<clustering>
<clus scale="   35.197">  1  5  2 -1</clus>
<clus scale="   39.379">  2  4  1 -1</clus>
<clus scale="  108.662">  2  6  1 -1</clus>
<clus scale="   35.197">  1  3  2 -1</clus>
</clustering>
</event>
<event>
 6    0  0.8610502E+002  0.1755089E+03  0.7546771E-02  0.1172222E+00
         21   -1    0    0  506  501  0.00000000000E+00  0.00000000000E+00  0.46814161547E+02  0.46814161547E+02  0.00000000000E+00 0. -1.
         21   -1    0    0  503  502 -0.00000000000E+00 -0.00000000000E+00 -0.10116835654E+04  0.10116835654E+04  0.00000000000E+00 0.  1.
         21    1    1    2  503  505 -0.15709819102E+03 -0.33992346067E+02 -0.55860524677E+03  0.58127028389E+03  0.00000000000E+00 0.  1.
         21    1    1    2  504  501  0.70168005280E+02  0.26275366170E+02 -0.58086478821E+02  0.94804972729E+02  0.00000000000E+00 0. -1.
         21    1    1    2  505  504  0.96196226778E+02 -0.22959848066E+02 -0.13779003907E+03  0.16960826494E+03  0.00000000000E+00 0. -1.
         21    1    1    2  506  502 -0.92660410419E+01  0.30676827964E+02 -0.21038763916E+03  0.21281420536E+03  0.00000000000E+00 0.  1.
<scales pt_clust_3="164.14836" pt_clust_4="54.98930" pt_clust_5="54.98930" pt_clust_6="32.04571"></scales>
<clustering>
<clus scale="   32.046">  2  6  1 -1</clus>
<clus scale="   54.989">  4  5 -1 -1</clus>
<clus scale="  164.148">  2  3  1 -1</clus>
<clus scale="  175.509">  1  3  2 -1</clus>
</clustering>
</event>
<event>
 6    0  0.8610502E+002  0.7574219E+02  0.7546771E-02  0.1341588E+00
         21   -1    0    0  505  501  0.00000000000E+00  0.00000000000E+00  0.16998245014E+03  0.16998245014E+03  0.00000000000E+00 0.  1.
         21   -1    0    0  506  502 -0.00000000000E+00 -0.00000000000E+00 -0.12580924064E+04  0.12580924064E+04  0.00000000000E+00 0. -1.
         21    1    1    2  503  504  0.13505959327E+02  0.53489992381E+02 -0.63932435386E+03  0.64170025686E+03  0.00000000000E+00 0. -1.
         21    1    1    2  504  501 -0.53789775662E+02 -0.53886166370E+02  0.15246390690E+03  0.17041802076E+03  0.00000000000E+00 0.  1.
         21    1    1    2  505  502 -0.19143122010E+02  0.48440947924E+02 -0.16378981755E+03  0.17187230402E+03  0.00000000000E+00 0.  1.
         21    1    1    2  506  503  0.59426938345E+02 -0.48044773936E+02 -0.43745969173E+03  0.44408427488E+03  0.00000000000E+00 0. -1.
<scales pt_clust_3="14000.00000" pt_clust_4="75.74219" pt_clust_5="52.08632" pt_clust_6="59.00552"></scales>
<clustering>
<clus scale="   52.086">  2  5  1 -1</clus>
<clus scale="   59.006">  2  6  1 -1</clus>
<clus scale="   75.742">  1  4  2 -1</clus>
<clus scale="   75.742">  1  3  2 -1</clus>
</clustering>
</event>
<event>
 6    0  0.8610502E+002  0.1687750E+03  0.7546771E-02  0.1179131E+00
         21   -1    0    0  506  501  0.00000000000E+00  0.00000000000E+00  0.63231283139E+03  0.63231283139E+03  0.00000000000E+00 0. -1.
         21   -1    0    0  503  502 -0.00000000000E+00 -0.00000000000E+00 -0.61670974198E+03  0.61670974198E+03  0.00000000000E+00 0. -1.
         21    1    1    2  503  504  0.16872103913E+02  0.47854962630E+02 -0.17793751047E+03  0.18503114054E+03  0.00000000000E+00 0. -1.
         21    1    1    2  504  501 -0.49262761759E+02  0.10653235850E+03 -0.37464519872E+03  0.39260029040E+03  0.00000000000E+00 0. -1.
         21    1    1    2  505  502 -0.35373298902E+02 -0.17541192412E+03  0.11505633897E+03  0.21274062738E+03  0.00000000000E+00 0. -1.
         21    1    1    2  506  505  0.67763956749E+02  0.21024602992E+02  0.45312945962E+03  0.45865051504E+03  0.00000000000E+00 0. -1.
<scales pt_clust_3="38.48453" pt_clust_4="38.48453" pt_clust_5="158.30096" pt_clust_6="70.95060"></scales>
<clustering>
<clus scale="   38.485">  3  4 -1 -1</clus>
<clus scale="   70.951">  1  6  2 -1</clus>
<clus scale="  158.301">  1  5  2 -1</clus>
<clus scale="   70.951">  1  3  2 -1</clus>
</clustering>
</event>
<event>
 6    0  0.8610502E+002  0.7001337E+02  0.7546771E-02  0.1360048E+00
         21   -1    0    0  505  501  0.00000000000E+00  0.00000000000E+00  0.65625344669E+02  0.65625344669E+02  0.00000000000E+00 0. -1.
         21   -1    0    0  504  502 -0.00000000000E+00 -0.00000000000E+00 -0.44859095103E+03  0.44859095103E+03  0.00000000000E+00 0. -1.
         21    1    1    2  503  506  0.66148969768E+02 -0.69817253040E+02 -0.10958638513E+03  0.14580572975E+03  0.00000000000E+00 0. -1.
         21    1    1    2  504  501 -0.33919945544E+02 -0.38642352113E+02 -0.96932581473E+02  0.10972565531E+03  0.00000000000E+00 0. -1.
         21    1    1    2  505  503 -0.54329318689E+02  0.34154288951E+02  0.19181055068E+01  0.64201786982E+02  0.00000000000E+00 0. -1.
         21    1    1    2  506  502  0.22100294465E+02  0.74305316202E+02 -0.17836474527E+03  0.19448312365E+03  0.00000000000E+00 0. -1.
<scales pt_clust_3="70.01337" pt_clust_4="51.41784" pt_clust_5="14000.00000" pt_clust_6="53.57429"></scales>
<clustering>
<clus scale="   51.418">  2  4  1 -1</clus>
<clus scale="   53.574">  2  6  1 -1</clus>
<clus scale="   70.013">  2  3  1 -1</clus>
<clus scale="   70.013">  1  3  2 -1</clus>
</clustering>
</event>
<event>
 6    0  0.8610502E+002  0.9643193E+02  0.7546771E-02  0.1287983E+00
         21   -1    0    0  503  501  0.00000000000E+00  0.00000000000E+00  0.69685531462E+03  0.69685531462E+03  0.00000000000E+00 0. -1.
         21   -1    0    0  504  502 -0.00000000000E+00 -0.00000000000E+00 -0.61104778186E+03  0.61104778186E+03  0.00000000000E+00 0.  1.
         21    1    1    2  503  506 -0.55162815223E+02 -0.12152396960E+02  0.10294328545E+03  0.11742204629E+03  0.00000000000E+00 0. -1.
         21    1    1    2  504  501 -0.10305553893E+03  0.65646504982E+02  0.51851671262E+03  0.53271895873E+03  0.00000000000E+00 0. -1.
         21    1    1    2  505  502  0.81759425697E+02 -0.50756754871E+02 -0.56697996220E+03  0.57508880131E+03  0.00000000000E+00 0.  1.
         21    1    1    2  506  505  0.76458928457E+02 -0.27373531506E+01  0.31327496885E+02  0.82673290150E+02  0.00000000000E+00 0.  1.
<scales pt_clust_3="56.48555" pt_clust_4="96.43193" pt_clust_5="14000.00000" pt_clust_6="71.20725"></scales>
<clustering>
<clus scale="   56.486">  1  3  2 -1</clus>
<clus scale="   71.207">  1  6  2 -1</clus>
<clus scale="   96.432">  1  4  2 -1</clus>
<clus scale="   56.486">  1  3  2 -1</clus>
</clustering>
</event>
<event>
 6    0  0.8610502E+002  0.2694395E+03  0.7546771E-02  0.1101601E+00
         21   -1    0    0  505  501  0.00000000000E+00  0.00000000000E+00  0.61954019251E+03  0.61954019251E+03  0.00000000000E+00 0. -1.
         21   -1    0    0  504  502 -0.00000000000E+00 -0.00000000000E+00 -0.27705200950E+03  0.27705200950E+03  0.00000000000E+00 0. -1.
         21    1    1    2  503  501  0.22581737224E+03  0.13033923862E+03  0.47021786619E+03  0.53766778257E+03  0.00000000000E+00 0. -1.
         21    1    1    2  504  503  0.34808490051E+02 -0.25157313745E+02 -0.41021719819E+02  0.59391101282E+02  0.00000000000E+00 0. -1.
         21    1    1    2  505  506 -0.96406155988E+02 -0.23856504840E+02 -0.65935525748E+01  0.99532681422E+02  0.00000000000E+00 0. -1.
         21    1    1    2  506  502 -0.16421970630E+03 -0.81325420032E+02 -0.80114410785E+02  0.20000063674E+03  0.00000000000E+00 0. -1.
<scales pt_clust_3="263.40993" pt_clust_4="42.94789" pt_clust_5="41.72774" pt_clust_6="41.72774"></scales>
<clustering>
<clus scale="   41.728">  5  6 -1 -1</clus>
<clus scale="   42.948">  2  4  1 -1</clus>
<clus scale="  263.410">  1  3  2 -1</clus>
<clus scale="  263.410">  1  3  2 -1</clus>
</clustering>
</event>
<event>
 6    0  0.8610502E+002  0.2792763E+03  0.7546771E-02  0.1096085E+00
         21   -1    0    0  503  501  0.00000000000E+00  0.00000000000E+00  0.10132680537E+04  0.10132680537E+04  0.00000000000E+00 0. -1.
         21   -1    0    0  506  502 -0.00000000000E+00 -0.00000000000E+00 -0.68434553555E+03  0.68434553555E+03  0.00000000000E+00 0.  1.
         21    1    1    2  503  504 -0.33517226237E+02  0.20678499687E+02  0.34260573108E+03  0.34486184447E+03  0.00000000000E+00 0. -1.
         21    1    1    2  504  502  0.14828297121E+03  0.22458709305E+03 -0.62472456080E+03  0.68022641729E+03  0.00000000000E+00 0.  1.
         21    1    1    2  505  501 -0.28983962610E+02 -0.38636612793E+02  0.55199662316E+02  0.73347533405E+02  0.00000000000E+00 0.  1.
         21    1    1    2  506  505 -0.85781782358E+02 -0.20662897994E+03  0.55584168553E+03  0.59917779407E+03  0.00000000000E+00 0. -1.
<scales pt_clust_3="39.38280" pt_clust_4="269.07778" pt_clust_5="34.74653" pt_clust_6="34.74653"></scales>
<clustering>
<clus scale="   34.747">  5  6 -1 -1</clus>
<clus scale="   39.383">  1  3  2 -1</clus>
<clus scale="  269.078">  2  4  1 -1</clus>
<clus scale="   39.383">  1  3  2 -1</clus>
</clustering>
</event>
<event>
 6    0  0.8610502E+002  0.1228575E+03  0.7546771E-02  0.1238456E+00
         21   -1    0    0  503  501  0.00000000000E+00  0.00000000000E+00  0.12548654661E+03  0.12548654661E+03  0.00000000000E+00 0. -1.
         21   -1    0    0  501  502 -0.00000000000E+00 -0.00000000000E+00 -0.45002229281E+03  0.45002229281E+03  0.00000000000E+00 0. -1.
         21    1    1    2  503  506  0.10619229623E+03  0.38127110315E+02  0.76805629713E+02  0.13649023802E+03  0.00000000000E+00 0. -1.
         21    1    1    2  504  502 -0.14679359961E+02  0.27481952814E+02 -0.20447229816E+03  0.20683244923E+03  0.00000000000E+00 0. -1.
         21    1    1    2  505  504 -0.43456234262E+02 -0.53612672034E+02 -0.14432496759E+03  0.15997643316E+03  0.00000000000E+00 0. -1.
         21    1    1    2  506  505 -0.48056702005E+02 -0.11996391096E+02 -0.52544110167E+02  0.72209719015E+02  0.00000000000E+00 0. -1.
<scales pt_clust_3="112.33942" pt_clust_4="31.15672" pt_clust_5="44.84365" pt_clust_6="44.84365"></scales>
<clustering>
<clus scale="   31.157">  2  4  1 -1</clus>
<clus scale="   44.844">  5  6 -1 -1</clus>
<clus scale="  112.339">  1  3  2 -1</clus>
<clus scale="  112.339">  1  3  2 -1</clus>
</clustering>
</event>
<event>
 6    0  0.8610502E+002  0.1068985E+03  0.7546771E-02  0.1266424E+00
         21   -1    0    0  505  501  0.00000000000E+00  0.00000000000E+00  0.67588632879E+02  0.67588632879E+02  0.00000000000E+00 0. -1.
         21   -1    0    0  506  502 -0.00000000000E+00 -0.00000000000E+00 -0.12497960455E+04  0.12497960455E+04  0.00000000000E+00 0. -1.
         21    1    1    2  503  501  0.40378343816E+02  0.11042689244E+03 -0.44774603814E+03  0.46292658586E+03  0.00000000000E+00 0. -1.
         21    1    1    2  504  503 -0.55055729903E+02 -0.15589287873E+00 -0.62130647637E+03  0.62374104826E+03  0.00000000000E+00 0.  1.
         21    1    1    2  505  502 -0.19863411189E+02 -0.10400021889E+03  0.64404406192E+01  0.10607582150E+03  0.00000000000E+00 0. -1.
         21    1    1    2  506  504  0.34540797276E+02 -0.62707806768E+01 -0.11959533877E+03  0.12464122281E+03  0.00000000000E+00 0. -1.
<scales pt_clust_3="14000.00000" pt_clust_4="36.16918" pt_clust_5="106.89854" pt_clust_6="35.10540"></scales>
<clustering>
<clus scale="   35.105">  2  6  1 -1</clus>
<clus scale="   36.169">  2  4  1 -1</clus>
<clus scale="  106.899">  1  5  2 -1</clus>
<clus scale="  106.899">  1  3  2 -1</clus>
</clustering>
</event>
<event>
 6    0  0.8610502E+002  0.1385831E+03  0.7546771E-02  0.1215248E+00
         21   -1    0    0  503  501  0.00000000000E+00  0.00000000000E+00  0.12895654995E+03  0.12895654995E+03  0.00000000000E+00 0. -1.
         21   -1    0    0  504  502 -0.00000000000E+00 -0.00000000000E+00 -0.10605470698E+04  0.10605470698E+04  0.00000000000E+00 0. -1.
         21    1    1    2  503  506 -0.87260147059E+02 -0.73024727009E+02 -0.50450584278E+03  0.51717800555E+03  0.00000000000E+00 0. -1.
         21    1    1    2  504  505 -0.16120175576E+02  0.59166065215E+02 -0.28881588239E+03  0.29525429252E+03  0.00000000000E+00 0. -1.
         21    1    1    2  505  501  0.10998452316E+03  0.63014119840E+02  0.82210390808E+02  0.15108250392E+03  0.00000000000E+00 0. -1.
         21    1    1    2  506  502 -0.66042005245E+01 -0.49155458046E+02 -0.22047918548E+03  0.22598881776E+03  0.00000000000E+00 0. -1.
<scales pt_clust_3="35.89006" pt_clust_4="61.32278" pt_clust_5="127.47610" pt_clust_6="35.89006"></scales>
<clustering>
<clus scale="   35.890">  3  6 -1 -1</clus>
<clus scale="   61.323">  2  4  1 -1</clus>
<clus scale="  127.476">  1  5  2 -1</clus>
<clus scale="  127.476">  1  3  2 -1</clus>
</clustering>
</event>
<event>
 6    0  0.8610502E+002  0.1119140E+03  0.7546771E-02  0.1257066E+00
         21   -1    0    0  503  501  0.00000000000E+00  0.00000000000E+00  0.10583665812E+04  0.10583665812E+04  0.00000000000E+00 0. -1.
         21   -1    0    0  506  502 -0.00000000000E+00 -0.00000000000E+00 -0.16447434731E+03  0.16447434731E+03  0.00000000000E+00 0. -1.
         21    1    1    2  503  504 -0.62880333381E+02 -0.45886709835E+02  0.37136985181E+03  0.37944050034E+03  0.00000000000E+00 0. -1.
         21    1    1    2  504  505 -0.67628601489E+02 -0.19855779093E+02  0.15550014211E+03  0.17072836290E+03  0.00000000000E+00 0. -1.
         21    1    1    2  505  502  0.11713749666E+03  0.13220547679E+02 -0.12839322919E+03  0.17430088155E+03  0.00000000000E+00 0. -1.
         21    1    1    2  506  501  0.13371438207E+02  0.52521941249E+02  0.49541546915E+03  0.49837118370E+03  0.00000000000E+00 0. -1.
<scales pt_clust_3="55.00481" pt_clust_4="14000.00000" pt_clust_5="111.91402" pt_clust_6="54.19732"></scales>
<clustering>
<clus scale="   54.197">  1  6  2 -1</clus>
<clus scale="   55.005">  1  3  2 -1</clus>
<clus scale="  111.914">  2  5  1 -1</clus>
<clus scale="   54.197">  1  3  2 -1</clus>
</clustering>
</event>
<event>
 6    0  0.8610502E+002  0.1264263E+03  0.7546771E-02  0.1232857E+00
         21   -1    0    0  505  501  0.00000000000E+00  0.00000000000E+00  0.86275409432E+03  0.86275409432E+03  0.00000000000E+00 0. -1.
         21   -1    0    0  501  502 -0.00000000000E+00 -0.00000000000E+00 -0.15822793565E+03  0.15822793565E+03  0.00000000000E+00 0. -1.
         21    1    1    2  503  502  0.90638978585E+01  0.52779640732E+02  0.43948930244E+02  0.69277364195E+02  0.00000000000E+00 0. -1.
         21    1    1    2  504  503 -0.68016096382E+02  0.39047325937E+02  0.38215159873E+02  0.87242658568E+02  0.00000000000E+00 0.  1.
         21    1    1    2  505  506 -0.59123771940E+02 -0.11462853292E+03  0.70618951446E+03  0.71787112444E+03  0.00000000000E+00 0. -1.
         21    1    1    2  506  504  0.11807597046E+03  0.22801566253E+02 -0.83827445907E+02  0.14659088277E+03  0.00000000000E+00 0. -1.
<scales pt_clust_3="53.55226" pt_clust_4="81.96774" pt_clust_5="126.42633" pt_clust_6="14000.00000"></scales>
<clustering>
<clus scale="   53.552">  2  3  1 -1</clus>
<clus scale="   81.968">  2  4  1 -1</clus>
<clus scale="  126.426">  1  5  2 -1</clus>
<clus scale="  126.426">  1  3  2 -1</clus>
</clustering>
</event>
<event>
 6    0  0.8610502E+002  0.1474591E+03  0.7546771E-02  0.1203630E+00
         21   -1    0    0  506  501  0.00000000000E+00  0.00000000000E+00  0.16562134528E+04  0.16562134528E+04  0.00000000000E+00 0.  1.
         21   -1    0    0  505  502 -0.00000000000E+00 -0.00000000000E+00 -0.37332016035E+02  0.37332016035E+02  0.00000000000E+00 0. -1.
         21    1    1    2  503  501 -0.21894184294E+02 -0.20652154972E+02  0.60863957034E+03  0.60938328939E+03  0.00000000000E+00 0.  1.
         21    1    1    2  504  503 -0.13479442373E+03 -0.77335947087E+01  0.55679786618E+03  0.57293386088E+03  0.00000000000E+00 0.  1.
         21    1    1    2  505  504  0.16539353508E+02 -0.61422733368E+02  0.78801844814E+02  0.10127207480E+03  0.00000000000E+00 0.  1.
         21    1    1    2  506  502  0.14014925452E+03  0.89808483049E+02  0.37464215542E+03  0.40995624375E+03  0.00000000000E+00 0. -1.
<scales pt_clust_3="30.09762" pt_clust_4="14000.00000" pt_clust_5="64.87573" pt_clust_6="147.45911"></scales>
<clustering>
<clus scale="   30.098">  1  3  2 -1</clus>
<clus scale="   64.876">  2  5  1 -1</clus>
<clus scale="  147.459">  2  6  1 -1</clus>
<clus scale="   30.098">  1  3  2 -1</clus>
</clustering>
</event>
<event>
 6    0  0.8610502E+002  0.2519572E+03  0.7546771E-02  0.1112074E+00
         21   -1    0    0  504  501  0.00000000000E+00  0.00000000000E+00  0.10961894960E+03  0.10961894960E+03  0.00000000000E+00 0. -1.
         21   -1    0    0  506  502 -0.00000000000E+00 -0.00000000000E+00 -0.10153156763E+04  0.10153156763E+04  0.00000000000E+00 0. -1.
         21    1    1    2  503  502  0.21246493756E+02 -0.41340086394E+02 -0.12703815701E+03  0.13527420144E+03  0.00000000000E+00 0.  1.
         21    1    1    2  504  503  0.19541954883E+03 -0.67202561214E+02 -0.43814479090E+03  0.48443352701E+03  0.00000000000E+00 0. -1.
         21    1    1    2  505  501 -0.19139660313E+03  0.14522582713E+03 -0.99356518732E+02  0.25999022745E+03  0.00000000000E+00 0. -1.
         21    1    1    2  506  505 -0.25269439456E+02 -0.36683179521E+02 -0.24115726005E+03  0.24523666998E+03  0.00000000000E+00 0.  1.
<scales pt_clust_3="36.36735" pt_clust_4="36.36735" pt_clust_5="240.00458" pt_clust_6="44.54436"></scales>
<clustering>
<clus scale="   36.367">  3  4 -1 -1</clus>
<clus scale="   44.544">  2  6  1 -1</clus>
<clus scale="  240.005">  1  5  2 -1</clus>
<clus scale="  240.005">  1  3  2 -1</clus>
</clustering>
</event>
<event>
 6    0  0.8610502E+002  0.1150880E+03  0.7546771E-02  0.1251428E+00
         21   -1    0    0  506  501  0.00000000000E+00  0.00000000000E+00  0.40898937718E+03  0.40898937718E+03  0.00000000000E+00 0. -1.
         21   -1    0    0  505  502 -0.00000000000E+00 -0.00000000000E+00 -0.46244593142E+03  0.46244593142E+03  0.00000000000E+00 0.  1.
         21    1    1    2  503  504  0.15125767182E+02  0.62947669862E+02 -0.55271516302E+02  0.85124253231E+02  0.00000000000E+00 0.  1.
         21    1    1    2  504  502 -0.20210557525E+02 -0.44783335063E+02 -0.19505494214E+02  0.52862822847E+02  0.00000000000E+00 0.  1.
         21    1    1    2  505  501  0.11995636118E+03 -0.13211599054E+02 -0.33656464968E+03  0.35754697363E+03  0.00000000000E+00 0.  1.
         21    1    1    2  506  503 -0.11487157083E+03 -0.49527357442E+01  0.35788510596E+03  0.37590125890E+03  0.00000000000E+00 0. -1.
<scales pt_clust_3="56.81107" pt_clust_4="49.13261" pt_clust_5="115.08795" pt_clust_6="14000.00000"></scales>
<clustering>
<clus scale="   49.133">  2  4  1 -1</clus>
<clus scale="   56.811">  2  3  1 -1</clus>
<clus scale="  115.088">  2  5  1 -1</clus>
<clus scale="  115.088">  1  3  2 -1</clus>
</clustering>
</event>
<event>
 6    0  0.8610502E+002  0.2520835E+03  0.7546771E-02  0.1111995E+00
         21   -1    0    0  505  501  0.00000000000E+00  0.00000000000E+00  0.26189736006E+03  0.26189736006E+03  0.00000000000E+00 0.  1.
         21   -1    0    0  504  502 -0.00000000000E+00 -0.00000000000E+00 -0.42673581977E+03  0.42673581977E+03  0.00000000000E+00 0.  1.
         21    1    1    2  503  502  0.28520606683E+02  0.12711902981E+03 -0.19528193034E+03  0.23475030365E+03  0.00000000000E+00 0.  1.
         21    1    1    2  504  506  0.27049216633E+02 -0.19563630164E+02 -0.23661148681E+02  0.40917547611E+02  0.00000000000E+00 0. -1.
         21    1    1    2  505  503 -0.43783754750E+01  0.12210803857E+03 -0.76194912932E+02  0.14399725001E+03  0.00000000000E+00 0.  1.
         21    1    1    2  506  501 -0.51191447841E+02 -0.22966343821E+03  0.13029953224E+03  0.26896807856E+03  0.00000000000E+00 0.  1.
<scales pt_clust_3="81.39352" pt_clust_4="33.38257" pt_clust_5="81.39352" pt_clust_6="237.68265"></scales>
<clustering>
<clus scale="   33.383">  2  4  1 -1</clus>
<clus scale="   81.394">  3  5 -1 -1</clus>
<clus scale="  237.683">  1  6  2 -1</clus>
<clus scale="  237.683">  1  3  2 -1</clus>
</clustering>
</event>
<event>
 6    0  0.8610502E+002  0.2067981E+03  0.7546771E-02  0.1144127E+00
         21   -1    0    0  506  501  0.00000000000E+00  0.00000000000E+00  0.40863686528E+03  0.40863686528E+03  0.00000000000E+00 0. -1.
         21   -1    0    0  503  502 -0.00000000000E+00 -0.00000000000E+00 -0.51772901791E+03  0.51772901791E+03  0.00000000000E+00 0.  1.
         21    1    1    2  503  504 -0.56987205355E+02 -0.31007545022E+02 -0.18773172219E+03  0.19862580129E+03  0.00000000000E+00 0.  1.
         21    1    1    2  504  501 -0.74888232918E+02 -0.23986251382E+03 -0.15996971088E+03  0.29788014597E+03  0.00000000000E+00 0.  1.
         21    1    1    2  505  502  0.54775999505E+02  0.14505131953E+03  0.69622580139E+01  0.15520556838E+03  0.00000000000E+00 0. -1.
         21    1    1    2  506  505  0.77099438767E+02  0.12581873930E+03  0.23164702242E+03  0.27465436755E+03  0.00000000000E+00 0. -1.
<scales pt_clust_3="64.87688" pt_clust_4="206.79811" pt_clust_5="14000.00000" pt_clust_6="143.85393"></scales>
<clustering>
<clus scale="   64.877">  2  3  1 -1</clus>
<clus scale="  143.854">  1  6  2 -1</clus>
<clus scale="  206.798">  1  4  2 -1</clus>
<clus scale="  143.854">  1  3  2 -1</clus>
</clustering>
</event>
<event>
 6    0  0.8610502E+002  0.9169812E+02  0.7546771E-02  0.1298791E+00
         21   -1    0    0  506  501  0.00000000000E+00  0.00000000000E+00  0.26743863473E+03  0.26743863473E+03  0.00000000000E+00 0.  1.
         21   -1    0    0  505  502 -0.00000000000E+00 -0.00000000000E+00 -0.27152424746E+03  0.27152424746E+03  0.00000000000E+00 0.  1.
         21    1    1    2  503  502 -0.68314190591E+02  0.13470115855E+02 -0.15023519514E+03  0.16558649256E+03  0.00000000000E+00 0.  1.
         21    1    1    2  504  501  0.70412267683E+02  0.63703843173E+02  0.20156880095E+03  0.22281393267E+03  0.00000000000E+00 0.  1.
         21    1    1    2  505  504 -0.11371302671E+02  0.29258425581E+02 -0.23005173712E+02  0.38917862344E+02  0.00000000000E+00 0. -1.
         21    1    1    2  506  503  0.92732255782E+01 -0.10643238461E+03 -0.32414044821E+02  0.11164459462E+03  0.00000000000E+00 0.  1.
<scales pt_clust_3="82.52341" pt_clust_4="14000.00000" pt_clust_5="31.39048" pt_clust_6="91.69812"></scales>
<clustering>
<clus scale="   31.390">  2  5  1 -1</clus>
<clus scale="   82.523">  2  3  1 -1</clus>
<clus scale="   91.698">  2  6  1 -1</clus>
<clus scale="   91.698">  1  3  2 -1</clus>
</clustering>
</event>
<event>
 6    0  0.8610502E+002  0.1359907E+03  0.7546771E-02  0.1218828E+00
         21   -1    0    0  503  501  0.00000000000E+00  0.00000000000E+00  0.34633400735E+03  0.34633400735E+03  0.00000000000E+00 0. -1.
         21   -1    0    0  505  502 -0.00000000000E+00 -0.00000000000E+00 -0.10938822392E+03  0.10938822392E+03  0.00000000000E+00 0. -1.
         21    1    1    2  503  502 -0.80334183985E+02  0.65177966477E+02 -0.36068276306E+02  0.10955669302E+03  0.00000000000E+00 0. -1.
         21    1    1    2  504  506  0.43944949161E+02 -0.32907622319E+02  0.13274856775E+03  0.14365323667E+03  0.00000000000E+00 0. -1.
         21    1    1    2  505  504 -0.46332330614E+02 -0.11503793438E+02  0.13294576084E+02  0.49555704786E+02  0.00000000000E+00 0. -1.
         21    1    1    2  506  501  0.82721565438E+02 -0.20766550720E+02  0.12697091591E+03  0.15295659680E+03  0.00000000000E+00 0. -1.
<scales pt_clust_3="129.98316" pt_clust_4="32.07102" pt_clust_5="47.73910" pt_clust_6="32.07102"></scales>
<clustering>
<clus scale="   32.071">  4  6 -1 -1</clus>
<clus scale="   47.739">  2  5  1 -1</clus>
<clus scale="  129.983">  2  3  1 -1</clus>
<clus scale="  135.991">  1  3  2 -1</clus>
</clustering>
</event>
<event>
 6    0  0.8610502E+002  0.1197319E+03  0.7546771E-02  0.1243540E+00
         21   -1    0    0  506  501  0.00000000000E+00  0.00000000000E+00  0.99390317590E+02  0.99390317590E+02  0.00000000000E+00 0.  1.
         21   -1    0    0  504  502 -0.00000000000E+00 -0.00000000000E+00 -0.37629877376E+03  0.37629877376E+03  0.00000000000E+00 0.  1.
         21    1    1    2  503  505  0.98230741443E+01  0.49879464722E+02 -0.34609965412E+02  0.61500434896E+02  0.00000000000E+00 0.  1.
         21    1    1    2  504  501 -0.48442563393E+02 -0.31535889064E+02 -0.88884910250E+02  0.10602698485E+03  0.00000000000E+00 0.  1.
         21    1    1    2  505  502  0.71952338566E+02  0.66808280578E+02 -0.18662193379E+03  0.21087491920E+03  0.00000000000E+00 0.  1.
         21    1    1    2  506  503 -0.33332849318E+02 -0.85151856237E+02  0.33208353278E+02  0.97286752396E+02  0.00000000000E+00 0.  1.
<scales pt_clust_3="50.58227" pt_clust_4="57.80306" pt_clust_5="50.58227" pt_clust_6="96.92362"></scales>
<clustering>
<clus scale="   50.582">  3  5 -1 -1</clus>
<clus scale="   57.803">  2  4  1 -1</clus>
<clus scale="   96.924">  1  6  2 -1</clus>
<clus scale="   96.924">  1  3  2 -1</clus>
</clustering>
</event>
<event>
 6    0  0.8610502E+002  0.1047806E+03  0.7546771E-02  0.1270552E+00
         21   -1    0    0  503  501  0.00000000000E+00  0.00000000000E+00  0.93039007878E+03  0.93039007878E+03  0.00000000000E+00 0.  1.
         21   -1    0    0  505  502 -0.00000000000E+00 -0.00000000000E+00 -0.10285657215E+04  0.10285657215E+04  0.00000000000E+00 0. -1.
         21    1    1    2  503  506 -0.11575653388E+02  0.10480645313E+03  0.91010087334E+03  0.91618883863E+03  0.00000000000E+00 0.  1.
         21    1    1    2  504  501  0.88004028044E+01 -0.70148759711E+02 -0.14849257163E+03  0.16446379360E+03  0.00000000000E+00 0.  1.
         21    1    1    2  505  504 -0.38711131981E+02 -0.15681604861E+02 -0.41946653466E+02  0.59194477845E+02  0.00000000000E+00 0.  1.
         21    1    1    2  506  502  0.41486382565E+02 -0.18976088561E+02 -0.81783729093E+03  0.81910869017E+03  0.00000000000E+00 0. -1.
<scales pt_clust_3="104.78062" pt_clust_4="14000.00000" pt_clust_5="41.76679" pt_clust_6="33.36193"></scales>
<clustering>
<clus scale="   41.767">  2  5  1 -1</clus>
<clus scale="   33.362">  2  6  1 -1</clus>
<clus scale="  104.781">  1  3  2 -1</clus>
<clus scale="  104.781">  1  3  2 -1</clus>
</clustering>
</event>
<event>
 6    0  0.8610502E+002  0.1190021E+03  0.7546771E-02  0.1244752E+00
         21   -1    0    0  505  501  0.00000000000E+00  0.00000000000E+00  0.23842017910E+03  0.23842017910E+03  0.00000000000E+00 0.  1.
         21   -1    0    0  503  502 -0.00000000000E+00 -0.00000000000E+00 -0.11552616936E+04  0.11552616936E+04  0.00000000000E+00 0. -1.
         21    1    1    2  503  501 -0.13183011103E+03  0.52385277312E+02 -0.41777633749E+02  0.14788091876E+03  0.00000000000E+00 0. -1.
         21    1    1    2  504  502  0.23103325028E+02  0.27015056716E+02 -0.98271576926E+03  0.98335845961E+03  0.00000000000E+00 0. -1.
         21    1    1    2  505  506  0.35270180063E+02 -0.24298034633E+01  0.14533200694E+03  0.14957032389E+03  0.00000000000E+00 0.  1.
         21    1    1    2  506  504  0.73456605939E+02 -0.76970530565E+02 -0.37680118394E+02  0.11287217041E+03  0.00000000000E+00 0. -1.
<scales pt_clust_3="14000.00000" pt_clust_4="35.62142" pt_clust_5="35.35378" pt_clust_6="119.00207"></scales>
<clustering>
<clus scale="   35.354">  1  5  2 -1</clus>
<clus scale="   35.621">  2  4  1 -1</clus>
<clus scale="  119.002">  2  6  1 -1</clus>
<clus scale="   35.354">  1  3  2 -1</clus>
</clustering>
</event>
<event>
 6    0  0.8610502E+002  0.8027060E+02  0.7546771E-02  0.1328285E+00
         21   -1    0    0  506  501  0.00000000000E+00  0.00000000000E+00  0.39944736945E+03  0.39944736945E+03  0.00000000000E+00 0.  1.
         21   -1    0    0  503  502 -0.00000000000E+00 -0.00000000000E+00 -0.52796622479E+02  0.52796622479E+02  0.00000000000E+00 0.  1.
         21    1    1    2  503  505 -0.34171820922E+02  0.16762796357E+02  0.18475744538E+02  0.42309074949E+02  0.00000000000E+00 0.  1.
         21    1    1    2  504  501 -0.33813152926E+02  0.88770820772E+01  0.12503000421E+03  0.12982539755E+03  0.00000000000E+00 0.  1.
         21    1    1    2  505  504 -0.61754832092E+01  0.62723622023E+02  0.12730620260E+03  0.14205371721E+03  0.00000000000E+00 0.  1.
         21    1    1    2  506  502  0.74160457057E+02 -0.88363500457E+02  0.75838795620E+02  0.13805580221E+03  0.00000000000E+00 0.  1.
<scales pt_clust_3="41.89759" pt_clust_4="34.95900" pt_clust_5="80.27060" pt_clust_6="14000.00000"></scales>
<clustering>
<clus scale="   34.959">  1  4  2 -1</clus>
<clus scale="   41.898">  2  3  1 -1</clus>
<clus scale="   80.271">  1  5  2 -1</clus>
<clus scale="   34.959">  1  3  2 -1</clus>
</clustering>
</event>
<event>
 6    0  0.8610502E+002  0.7667259E+02  0.7546771E-02  0.1338768E+00
         21   -1    0    0  504  501  0.00000000000E+00  0.00000000000E+00  0.44763903326E+02  0.44763903326E+02  0.00000000000E+00 0.  1.
         21   -1    0    0  505  502 -0.00000000000E+00 -0.00000000000E+00 -0.10188033507E+04  0.10188033507E+04  0.00000000000E+00 0.  1.
         21    1    1    2  503  502 -0.40945736687E+02  0.20176117704E+02 -0.20031538280E+03  0.20545043603E+03  0.00000000000E+00 0.  1.
         21    1    1    2  504  506  0.12983449002E+02  0.40760992430E+02  0.17158325777E+02  0.46091610900E+02  0.00000000000E+00 0.  1.
         21    1    1    2  505  501  0.91393351898E+02  0.13252996955E+01 -0.48287659694E+03  0.49145122756E+03  0.00000000000E+00 0.  1.
         21    1    1    2  506  503 -0.63431064213E+02 -0.62262409829E+02 -0.30800579337E+03  0.32057397951E+03  0.00000000000E+00 0.  1.
<scales pt_clust_3="47.61467" pt_clust_4="42.77883" pt_clust_5="76.67259" pt_clust_6="14000.00000"></scales>
<clustering>
<clus scale="   42.779">  1  4  2 -1</clus>
<clus scale="   47.615">  2  3  1 -1</clus>
<clus scale="   76.673">  2  5  1 -1</clus>
<clus scale="   42.779">  1  3  2 -1</clus>
</clustering>
</event>
<event>
 6    0  0.8610502E+002  0.1219883E+03  0.7546771E-02  0.1239853E+00
         21   -1    0    0  506  501  0.00000000000E+00  0.00000000000E+00  0.50432639438E+03  0.50432639438E+03  0.00000000000E+00 0. -1.
         21   -1    0    0  504  502 -0.00000000000E+00 -0.00000000000E+00 -0.14302844379E+03  0.14302844379E+03  0.00000000000E+00 0. -1.
         21    1    1    2  503  501 -0.10771658606E+03  0.79634762530E+02  0.23314535283E+03  0.26888903634E+03  0.00000000000E+00 0. -1.
         21    1    1    2  504  503  0.91600565251E+02 -0.55399904551E+02  0.10180575188E+03  0.14773024096E+03  0.00000000000E+00 0. -1.
         21    1    1    2  505  502 -0.75343972052E+01 -0.60852734205E+02 -0.88629569968E+02  0.10777301645E+03  0.00000000000E+00 0. -1.
         21    1    1    2  506  505  0.23650418016E+02  0.36617876226E+02  0.11497641584E+03  0.12296254443E+03  0.00000000000E+00 0.  1.
<scales pt_clust_3="121.98826" pt_clust_4="14000.00000" pt_clust_5="60.34440" pt_clust_6="43.59141"></scales>
<clustering>
<clus scale="   43.591">  1  6  2 -1</clus>
<clus scale="   60.344">  2  5  1 -1</clus>
<clus scale="  121.988">  1  3  2 -1</clus>
<clus scale="   43.591">  1  3  2 -1</clus>
</clustering>
</event>
<event>
 6    0  0.8610502E+002  0.8485605E+02  0.7546771E-02  0.1315809E+00
         21   -1    0    0  503  501  0.00000000000E+00  0.00000000000E+00  0.48762640428E+02  0.48762640428E+02  0.00000000000E+00 0. -1.
         21   -1    0    0  506  502 -0.00000000000E+00 -0.00000000000E+00 -0.99405661903E+03  0.99405661903E+03  0.00000000000E+00 0. -1.
         21    1    1    2  503  502 -0.73363387552E+02 -0.16169828360E+02 -0.31436241890E+03  0.32321414016E+03  0.00000000000E+00 0. -1.
         21    1    1    2  504  501  0.64958692695E+02 -0.60509641576E+02 -0.72419751934E+01  0.89070167200E+02  0.00000000000E+00 0. -1.
         21    1    1    2  505  504 -0.13985438362E+02  0.51446619273E+02 -0.47934772407E+03  0.48230341870E+03  0.00000000000E+00 0. -1.
         21    1    1    2  506  505  0.22390133219E+02  0.25232850663E+02 -0.14434186045E+03  0.14823153341E+03  0.00000000000E+00 0. -1.
<scales pt_clust_3="65.28678" pt_clust_4="14000.00000" pt_clust_5="84.85605" pt_clust_6="33.73448"></scales>
<clustering>
<clus scale="   33.734">  2  6  1 -1</clus>
<clus scale="   65.287">  2  3  1 -1</clus>
<clus scale="   84.856">  2  5  1 -1</clus>
<clus scale="   84.856">  1  3  2 -1</clus>
</clustering>
</event>
<event>
 6    0  0.8610502E+002  0.9715878E+02  0.7546771E-02  0.1286387E+00
         21   -1    0    0  505  501  0.00000000000E+00  0.00000000000E+00  0.37365459622E+03  0.37365459622E+03  0.00000000000E+00 0.  1.
         21   -1    0    0  506  502 -0.00000000000E+00 -0.00000000000E+00 -0.31048362774E+03  0.31048362774E+03  0.00000000000E+00 0.  1.
         21    1    1    2  503  501 -0.11151571141E+02 -0.54098144638E+02  0.89418922749E+02  0.10510333267E+03  0.00000000000E+00 0.  1.
         21    1    1    2  504  502  0.91152962963E+02  0.40935504589E+02 -0.12994733351E+03  0.16392342016E+03  0.00000000000E+00 0.  1.
         21    1    1    2  505  504 -0.56466135899E+02 -0.21624859265E+02  0.25294338513E+03  0.26007001965E+03  0.00000000000E+00 0.  1.
         21    1    1    2  506  503 -0.23535255923E+02  0.34787499313E+02 -0.14924400590E+03  0.15504145148E+03  0.00000000000E+00 0.  1.
<scales pt_clust_3="53.80406" pt_clust_4="14000.00000" pt_clust_5="97.15878" pt_clust_6="42.00093"></scales>
<clustering>
<clus scale="   42.001">  2  6  1 -1</clus>
<clus scale="   53.804">  1  3  2 -1</clus>
<clus scale="   97.159">  1  5  2 -1</clus>
<clus scale="   53.804">  1  3  2 -1</clus>
</clustering>
</event>
<event>
 6    0  0.8610502E+002  0.1051669E+03  0.7546771E-02  0.1269791E+00
         21   -1    0    0  505  501  0.00000000000E+00  0.00000000000E+00  0.42633378373E+03  0.42633378373E+03  0.00000000000E+00 0.  1.
         21   -1    0    0  504  502 -0.00000000000E+00 -0.00000000000E+00 -0.14806364021E+04  0.14806364021E+04  0.00000000000E+00 0.  1.
         21    1    1    2  503  502  0.60930293606E+02  0.34787106506E+01 -0.13276337151E+04  0.13290356969E+04  0.00000000000E+00 0.  1.
         21    1    1    2  504  501  0.29372525343E+02 -0.92088948571E+01 -0.40972773651E+02  0.51247606482E+02  0.00000000000E+00 0. -1.
         21    1    1    2  505  506 -0.46983440125E+02  0.97378758007E+02  0.38708047689E+03  0.40189720296E+03  0.00000000000E+00 0.  1.
         21    1    1    2  506  503 -0.43319378824E+02 -0.91648573800E+02 -0.72776606549E+02  0.12478967955E+03  0.00000000000E+00 0.  1.
<scales pt_clust_3="88.27299" pt_clust_4="30.78228" pt_clust_5="105.16690" pt_clust_6="14000.00000"></scales>
<clustering>
<clus scale="   30.782">  2  4  1 -1</clus>
<clus scale="   88.273">  2  3  1 -1</clus>
<clus scale="  105.167">  1  5  2 -1</clus>
<clus scale="  105.167">  1  3  2 -1</clus>
</clustering>
</event>
<event>
 6    0  0.8610502E+002  0.1046846E+03  0.7546771E-02  0.1270742E+00
         21   -1    0    0  505  501  0.00000000000E+00  0.00000000000E+00  0.73850475792E+03  0.73850475792E+03  0.00000000000E+00 0. -1.
         21   -1    0    0  503  502 -0.00000000000E+00 -0.00000000000E+00 -0.37138741584E+02  0.37138741584E+02  0.00000000000E+00 0. -1.
         21    1    1    2  503  506  0.51875824445E+02 -0.36589800148E+02  0.20521690681E+03  0.21481129737E+03  0.00000000000E+00 0. -1.
         21    1    1    2  504  502 -0.71381097468E+02  0.47685661393E+02  0.57317799608E+02  0.10322070301E+03  0.00000000000E+00 0. -1.
         21    1    1    2  505  504 -0.51713641634E+02 -0.23777192950E+02  0.17363020038E+03  0.18272137839E+03  0.00000000000E+00 0. -1.
         21    1    1    2  506  501  0.71218914657E+02  0.12681331706E+02  0.26520110954E+03  0.27489012073E+03  0.00000000000E+00 0. -1.
<scales pt_clust_3="49.48500" pt_clust_4="90.37933" pt_clust_5="56.91797" pt_clust_6="49.48500"></scales>
<clustering>
<clus scale="   49.485">  3  6 -1 -1</clus>
<clus scale="   56.918">  1  5  2 -1</clus>
<clus scale="   90.379">  2  4  1 -1</clus>
<clus scale="   56.918">  1  3  2 -1</clus>
</clustering>
</event>
<event>
 6    0  0.8610502E+002  0.1315379E+03  0.7546771E-02  0.1225191E+00
         21   -1    0    0  502  501  0.00000000000E+00  0.00000000000E+00  0.34967773361E+03  0.34967773361E+03  0.00000000000E+00 0.  1.
         21   -1    0    0  504  502 -0.00000000000E+00 -0.00000000000E+00 -0.23496757338E+03  0.23496757338E+03  0.00000000000E+00 0.  1.
         21    1    1    2  503  501 -0.70942695805E+02  0.38196704948E+01  0.12013111214E+03  0.13956697343E+03  0.00000000000E+00 0.  1.
         21    1    1    2  504  506  0.60294708030E+02 -0.20385040385E+02 -0.17832077040E+03  0.18933911071E+03  0.00000000000E+00 0.  1.
         21    1    1    2  505  503 -0.70909709090E+02  0.50969838347E+02  0.13189701532E+03  0.15818638979E+03  0.00000000000E+00 0.  1.
         21    1    1    2  506  505  0.81557696865E+02 -0.34404468457E+02  0.41002803173E+02  0.97552833049E+02  0.00000000000E+00 0.  1.
<scales pt_clust_3="40.48726" pt_clust_4="63.64748" pt_clust_5="40.48726" pt_clust_6="123.64194"></scales>
<clustering>
<clus scale="   40.487">  3  5 -1 -1</clus>
<clus scale="   63.647">  2  4  1 -1</clus>
<clus scale="  123.642">  2  6  1 -1</clus>
<clus scale="  131.538">  1  3  2 -1</clus>
</clustering>
</event>
<event>
 6    0  0.3374624E+003  0.7301271E+02  0.7546771E-02  0.1350138E+00
         21   -1    0    0  503  501  0.00000000000E+00  0.00000000000E+00  0.80805620801E+03  0.80805620801E+03  0.00000000000E+00 0. -1.
         21   -1    0    0  506  502 -0.00000000000E+00 -0.00000000000E+00 -0.60844935746E+03  0.60844935746E+03  0.00000000000E+00 0.  1.
         21    1    1    2  503  502  0.85889483093E+02  0.69689228150E+02  0.65449174255E+03  0.66377182291E+03  0.00000000000E+00 0. -1.
         21    1    1    2  504  505 -0.68779444142E+02 -0.31801597362E+02  0.91271089569E+02  0.11862700081E+03  0.00000000000E+00 0.  1.
         21    1    1    2  505  501  0.14426251820E+02  0.27859662733E+02  0.35799124273E+02  0.47600996291E+02  0.00000000000E+00 0.  1.
         21    1    1    2  506  504 -0.31536290771E+02 -0.65747293520E+02 -0.58195510584E+03  0.58650574546E+03  0.00000000000E+00 0.  1.
<scales pt_clust_3="14000.00000" pt_clust_4="72.42919" pt_clust_5="31.37320" pt_clust_6="73.01271"></scales>
<clustering>
<clus scale="   31.373">  1  5  2 -1</clus>
<clus scale="   72.429">  1  4  2 -1</clus>
<clus scale="   73.013">  2  6  1 -1</clus>
<clus scale="   31.373">  1  3  2 -1</clus>
</clustering>
</event>
<event>
 6    0  0.8610502E+002  0.1938988E+03  0.7546771E-02  0.1154991E+00
         21   -1    0    0  502  501  0.00000000000E+00  0.00000000000E+00  0.22606714448E+03  0.22606714448E+03  0.00000000000E+00 0.  1.
         21   -1    0    0  505  502 -0.00000000000E+00 -0.00000000000E+00 -0.68699848249E+03  0.68699848249E+03  0.00000000000E+00 0. -1.
         21    1    1    2  503  506 -0.61626295055E+02  0.70527435562E+02 -0.28628632073E+03  0.30121715895E+03  0.00000000000E+00 0. -1.
         21    1    1    2  504  503 -0.85211216309E+02  0.56922436153E+02 -0.22827884556E+03  0.25022459202E+03  0.00000000000E+00 0. -1.
         21    1    1    2  505  504 -0.30763748341E+02 -0.58544842738E+02 -0.97941316805E+02  0.11817955983E+03  0.00000000000E+00 0. -1.
         21    1    1    2  506  501  0.17760125971E+03 -0.68905028977E+02  0.15157514509E+03  0.24344431617E+03  0.00000000000E+00 0.  1.
<scales pt_clust_3="37.09992" pt_clust_4="37.09992" pt_clust_5="66.13552" pt_clust_6="189.97574"></scales>
<clustering>
<clus scale="   37.100">  3  4 -1 -1</clus>
<clus scale="   66.136">  2  5  1 -1</clus>
<clus scale="  189.976">  1  6  2 -1</clus>
<clus scale="  189.976">  1  3  2 -1</clus>
</clustering>
</event>
<event>
 6    0  0.8610502E+002  0.8368474E+02  0.7546771E-02  0.1318908E+00
         21   -1    0    0  504  501  0.00000000000E+00  0.00000000000E+00  0.34616140261E+02  0.34616140261E+02  0.00000000000E+00 0.  1.
         21   -1    0    0  506  502 -0.00000000000E+00 -0.00000000000E+00 -0.20976267308E+04  0.20976267308E+04  0.00000000000E+00 0.  1.
         21    1    1    2  503  502 -0.50037159183E+02  0.47023773340E+02 -0.62605752343E+03  0.62981185699E+03  0.00000000000E+00 0.  1.
         21    1    1    2  504  503 -0.65462322957E+02 -0.20884631188E+02 -0.37955225032E+03  0.38572191313E+03  0.00000000000E+00 0.  1.
         21    1    1    2  505  501 -0.16058957432E+01 -0.30730916037E+02  0.17525183427E+02  0.35413276546E+02  0.00000000000E+00 0.  1.
         21    1    1    2  506  505  0.11710537788E+03  0.45917738852E+01 -0.10749260002E+04  0.10812958244E+04  0.00000000000E+00 0.  1.
<scales pt_clust_3="64.31424" pt_clust_4="14000.00000" pt_clust_5="30.77285" pt_clust_6="83.68474"></scales>
<clustering>
<clus scale="   30.773">  1  5  2 -1</clus>
<clus scale="   64.314">  2  3  1 -1</clus>
<clus scale="   83.685">  2  6  1 -1</clus>
<clus scale="   30.773">  1  3  2 -1</clus>
</clustering>
</event>
<event>
 6    0  0.8610502E+002  0.1426195E+03  0.7546771E-02  0.1209847E+00
         21   -1    0    0  503  501  0.00000000000E+00  0.00000000000E+00  0.10973801593E+04  0.10973801593E+04  0.00000000000E+00 0. -1.
         21   -1    0    0  504  502 -0.00000000000E+00 -0.00000000000E+00 -0.60393525124E+02  0.60393525124E+02  0.00000000000E+00 0. -1.
         21    1    1    2  503  505 -0.10839118359E+02  0.30303958423E+02  0.26818681074E+03  0.27011105463E+03  0.00000000000E+00 0.  1.
         21    1    1    2  504  506  0.75162103951E+02 -0.90792957746E+02  0.25209519834E+03  0.27828886444E+03  0.00000000000E+00 0. -1.
         21    1    1    2  505  502 -0.15584500162E+03  0.55675667136E+02  0.12582257845E+03  0.20789123524E+03  0.00000000000E+00 0. -1.
         21    1    1    2  506  501  0.91522016031E+02  0.48133321860E+01  0.39088204660E+03  0.40148253006E+03  0.00000000000E+00 0. -1.
<scales pt_clust_3="32.18410" pt_clust_4="142.61951" pt_clust_5="14000.00000" pt_clust_6="88.47004"></scales>
<clustering>
<clus scale="   32.184">  1  3  2 -1</clus>
<clus scale="   88.470">  1  6  2 -1</clus>
<clus scale="  142.620">  1  4  2 -1</clus>
<clus scale="   32.184">  1  3  2 -1</clus>
</clustering>
</event>
<event>
 6    0  0.8610502E+002  0.1668843E+03  0.7546771E-02  0.1181137E+00
         21   -1    0    0  503  501  0.00000000000E+00  0.00000000000E+00  0.68691285891E+02  0.68691285891E+02  0.00000000000E+00 0.  1.
         21   -1    0    0  506  502 -0.00000000000E+00 -0.00000000000E+00 -0.16417346774E+04  0.16417346774E+04  0.00000000000E+00 0.  1.
         21    1    1    2  503  504  0.15667342163E+03  0.77700244702E+02 -0.18851847663E+03  0.25714413294E+03  0.00000000000E+00 0.  1.
         21    1    1    2  504  502 -0.18064746142E+02  0.25620773492E+02 -0.83768403703E+02  0.89442185497E+02  0.00000000000E+00 0.  1.
         21    1    1    2  505  501 -0.24836035860E+02  0.22469675840E+02  0.15355009115E+02  0.36844148986E+02  0.00000000000E+00 0.  1.
         21    1    1    2  506  505 -0.11377263962E+03 -0.12579069403E+03 -0.13161115203E+04  0.13269954959E+04  0.00000000000E+00 0.  1.
<scales pt_clust_3="166.88427" pt_clust_4="31.34899" pt_clust_5="33.70336" pt_clust_6="14000.00000"></scales>
<clustering>
<clus scale="   31.349">  2  4  1 -1</clus>
<clus scale="   33.703">  1  5  2 -1</clus>
<clus scale="  166.884">  1  3  2 -1</clus>
<clus scale="   33.703">  1  3  2 -1</clus>
</clustering>
</event>
<event>
 6    0  0.8610502E+002  0.8542487E+02  0.7546771E-02  0.1314325E+00
         21   -1    0    0  506  501  0.00000000000E+00  0.00000000000E+00  0.15350234984E+04  0.15350234984E+04  0.00000000000E+00 0.  1.
         21   -1    0    0  503  502 -0.00000000000E+00 -0.00000000000E+00 -0.27186314670E+02  0.27186314670E+02  0.00000000000E+00 0.  1.
         21    1    1    2  503  501 -0.60170971790E+02  0.75811118188E+02  0.60657187029E+03  0.61424531363E+03  0.00000000000E+00 0.  1.
         21    1    1    2  504  505  0.46460789839E+02 -0.51608106789E+02  0.88938186832E+02  0.11283617663E+03  0.00000000000E+00 0.  1.
         21    1    1    2  505  502  0.38634571635E+02  0.14136154980E+02  0.28683988147E+02  0.50152090475E+02  0.00000000000E+00 0.  1.
         21    1    1    2  506  504 -0.24924389685E+02 -0.38339166379E+02  0.78364313850E+03  0.78497623238E+03  0.00000000000E+00 0.  1.
<scales pt_clust_3="14000.00000" pt_clust_4="85.42487" pt_clust_5="41.13953" pt_clust_6="44.40670"></scales>
<clustering>
<clus scale="   41.140">  2  5  1 -1</clus>
<clus scale="   44.407">  1  6  2 -1</clus>
<clus scale="   85.425">  2  4  1 -1</clus>
<clus scale="   44.407">  1  3  2 -1</clus>
</clustering>
</event>
<event>
 6    0  0.8610502E+002  0.1681504E+03  0.7546771E-02  0.1179791E+00
         21   -1    0    0  504  501  0.00000000000E+00  0.00000000000E+00  0.21032659546E+03  0.21032659546E+03  0.00000000000E+00 0. -1.
         21   -1    0    0  506  502 -0.00000000000E+00 -0.00000000000E+00 -0.37003346938E+03  0.37003346938E+03  0.00000000000E+00 0.  1.
         21    1    1    2  503  505 -0.12632726259E+02  0.87975815636E+02 -0.12704017575E+03  0.15504365890E+03  0.00000000000E+00 0.  1.
         21    1    1    2  504  502  0.10632370884E+02 -0.17784109225E+03  0.84926133588E+00  0.17816066527E+03  0.00000000000E+00 0. -1.
         21    1    1    2  505  501  0.51328773326E+02  0.30940705832E+02  0.86145970205E+02  0.10494331056E+03  0.00000000000E+00 0.  1.
         21    1    1    2  506  503 -0.49328417950E+02  0.58924570783E+02 -0.11966192971E+03  0.14221243012E+03  0.00000000000E+00 0.  1.
<scales pt_clust_3="42.41140" pt_clust_4="161.84626" pt_clust_5="59.93305" pt_clust_6="42.41140"></scales>
<clustering>
<clus scale="   42.411">  3  6 -1 -1</clus>
<clus scale="   59.933">  1  5  2 -1</clus>
<clus scale="  161.846">  1  4  2 -1</clus>
<clus scale="   59.933">  1  3  2 -1</clus>
</clustering>
</event>
<event>
 6    0  0.8610502E+002  0.9655081E+02  0.7546771E-02  0.1287721E+00
         21   -1    0    0  504  501  0.00000000000E+00  0.00000000000E+00  0.20971673814E+04  0.20971673814E+04  0.00000000000E+00 0. -1.
         21   -1    0    0  503  502 -0.00000000000E+00 -0.00000000000E+00 -0.37340379177E+02  0.37340379177E+02  0.00000000000E+00 0. -1.
         21    1    1    2  503  505  0.61024982458E+02  0.86379988446E+02  0.89817935170E+02  0.13875450395E+03  0.00000000000E+00 0. -1.
         21    1    1    2  504  506 -0.45866665943E+02  0.26717374326E+02  0.12147443603E+04  0.12159035447E+04  0.00000000000E+00 0. -1.
         21    1    1    2  505  501  0.56335654459E+02 -0.67738039698E+02  0.56183212171E+03  0.56869805782E+03  0.00000000000E+00 0.  1.
         21    1    1    2  506  502 -0.71493970974E+02 -0.45359323074E+02  0.19343258505E+03  0.21115165411E+03  0.00000000000E+00 0. -1.
<scales pt_clust_3="14000.00000" pt_clust_4="53.08078" pt_clust_5="57.33302" pt_clust_6="96.55081"></scales>
<clustering>
<clus scale="   53.081">  1  4  2 -1</clus>
<clus scale="   57.333">  1  5  2 -1</clus>
<clus scale="   96.551">  1  6  2 -1</clus>
<clus scale="   53.081">  1  3  2 -1</clus>
</clustering>
</event>
<event>
 6    0  0.8610502E+002  0.1482042E+03  0.7546771E-02  0.1202697E+00
         21   -1    0    0  506  501  0.00000000000E+00  0.00000000000E+00  0.14010771112E+04  0.14010771112E+04  0.00000000000E+00 0. -1.
         21   -1    0    0  505  502 -0.00000000000E+00 -0.00000000000E+00 -0.90295636657E+02  0.90295636657E+02  0.00000000000E+00 0.  1.
         21    1    1    2  503  501  0.36352817870E+02  0.14615044598E+01  0.92476755451E+02  0.99376122188E+02  0.00000000000E+00 0.  1.
         21    1    1    2  504  503  0.87087790879E+02 -0.68967739109E+02  0.71751274438E+03  0.72606154746E+03  0.00000000000E+00 0. -1.
         21    1    1    2  505  504 -0.11144346854E+03  0.10315096737E+03 -0.11476843998E+02  0.15228751327E+03  0.00000000000E+00 0.  1.
         21    1    1    2  506  502 -0.11997140211E+02 -0.35644732720E+02  0.51226881873E+03  0.51364756496E+03  0.00000000000E+00 0. -1.
<scales pt_clust_3="36.38218" pt_clust_4="148.20418" pt_clust_5="14000.00000" pt_clust_6="35.14504"></scales>
<clustering>
<clus scale="   36.382">  1  3  2 -1</clus>
<clus scale="   35.145">  1  6  2 -1</clus>
<clus scale="  148.204">  1  4  2 -1</clus>
<clus scale="   36.382">  1  3  2 -1</clus>
</clustering>
</event>
<event>
 6    0  0.8610502E+002  0.1029658E+03  0.7546771E-02  0.1274180E+00
         21   -1    0    0  505  501  0.00000000000E+00  0.00000000000E+00  0.39195250901E+02  0.39195250901E+02  0.00000000000E+00 0.  1.
         21   -1    0    0  506  502 -0.00000000000E+00 -0.00000000000E+00 -0.65321201155E+03  0.65321201155E+03  0.00000000000E+00 0.  1.
         21    1    1    2  503  504  0.81663638156E+01  0.54342768691E+02 -0.10256292394E+03  0.11635711999E+03  0.00000000000E+00 0.  1.
         21    1    1    2  504  501  0.77206498412E+02 -0.63836856887E+02 -0.11785442126E+03  0.15467919157E+03  0.00000000000E+00 0.  1.
         21    1    1    2  505  502 -0.10731249982E+03  0.36783537027E+02 -0.26892196035E+03  0.29186987164E+03  0.00000000000E+00 0.  1.
         21    1    1    2  506  503  0.21939637589E+02 -0.27289448832E+02 -0.12467745510E+03  0.12950107924E+03  0.00000000000E+00 0.  1.
<scales pt_clust_3="50.30285" pt_clust_4="14000.00000" pt_clust_5="102.96577" pt_clust_6="35.01516"></scales>
<clustering>
<clus scale="   35.015">  2  6  1 -1</clus>
<clus scale="   50.303">  2  3  1 -1</clus>
<clus scale="  102.966">  2  5  1 -1</clus>
<clus scale="  102.966">  1  3  2 -1</clus>
</clustering>
</event>
<event>
 6    0  0.8610502E+002  0.1141201E+03  0.7546771E-02  0.1253125E+00
         21   -1    0    0  506  501  0.00000000000E+00  0.00000000000E+00  0.21676861835E+02  0.21676861835E+02  0.00000000000E+00 0.  1.
         21   -1    0    0  505  502 -0.00000000000E+00 -0.00000000000E+00 -0.14853501898E+04  0.14853501898E+04  0.00000000000E+00 0.  1.
         21    1    1    2  503  504  0.35892897354E+02  0.52437769303E+02 -0.35577836071E+03  0.36140871833E+03  0.00000000000E+00 0.  1.
         21    1    1    2  504  502  0.69113437673E+02  0.10961967855E+02 -0.30277774102E+03  0.31075905854E+03  0.00000000000E+00 0.  1.
         21    1    1    2  505  501 -0.71529965555E+02 -0.56640279055E+02 -0.79358504380E+03  0.79881279342E+03  0.00000000000E+00 0.  1.
         21    1    1    2  506  503 -0.33476369473E+02 -0.67594581028E+01 -0.11532182441E+02  0.36046481365E+02  0.00000000000E+00 0.  1.
<scales pt_clust_3="54.82007" pt_clust_4="54.82007" pt_clust_5="99.77916" pt_clust_6="34.15198"></scales>
<clustering>
<clus scale="   34.152">  1  6  2 -1</clus>
<clus scale="   54.820">  3  4 -1 -1</clus>
<clus scale="   99.779">  2  5  1 -1</clus>
<clus scale="   34.152">  1  3  2 -1</clus>
</clustering>
</event>
<event>
 6    0  0.8610502E+002  0.1121160E+03  0.7546771E-02  0.1256701E+00
         21   -1    0    0  504  501  0.00000000000E+00  0.00000000000E+00  0.21121485791E+03  0.21121485791E+03  0.00000000000E+00 0. -1.
         21   -1    0    0  505  502 -0.00000000000E+00 -0.00000000000E+00 -0.28219254809E+03  0.28219254809E+03  0.00000000000E+00 0.  1.
         21    1    1    2  503  501 -0.41122172798E+02 -0.45447394486E+01  0.45343630166E+02  0.61381858468E+02  0.00000000000E+00 0.  1.
         21    1    1    2  504  506  0.36776110227E+01 -0.66264422592E+02  0.84393998354E+02  0.10736314769E+03  0.00000000000E+00 0. -1.
         21    1    1    2  505  503  0.87058444276E+01  0.10606157378E+03 -0.24128796803E+03  0.26371335324E+03  0.00000000000E+00 0.  1.
         21    1    1    2  506  502  0.28738717348E+02 -0.35252411736E+02  0.40572649333E+02  0.60949046604E+02  0.00000000000E+00 0. -1.
<scales pt_clust_3="41.37255" pt_clust_4="30.48264" pt_clust_5="105.89687" pt_clust_6="30.48264"></scales>
<clustering>
<clus scale="   30.483">  4  6 -1 -1</clus>
<clus scale="   41.373">  1  3  2 -1</clus>
<clus scale="  105.897">  2  5  1 -1</clus>
<clus scale="   41.373">  1  3  2 -1</clus>
</clustering>
</event>
<event>
 6    0  0.8610502E+002  0.1437227E+03  0.7546771E-02  0.1208406E+00
         21   -1    0    0  504  501  0.00000000000E+00  0.00000000000E+00  0.11701442026E+04  0.11701442026E+04  0.00000000000E+00 0. -1.
         21   -1    0    0  503  502 -0.00000000000E+00 -0.00000000000E+00 -0.39892321274E+03  0.39892321274E+03  0.00000000000E+00 0.  1.
         21    1    1    2  503  506  0.11579792505E+03  0.21137941146E+02  0.93020081280E+03  0.93761907197E+03  0.00000000000E+00 0. -1.
         21    1    1    2  504  505 -0.13093295610E+03 -0.44225450996E+02  0.11893103132E+03  0.18232915214E+03  0.00000000000E+00 0. -1.
         21    1    1    2  505  502 -0.21721494489E+02  0.33169206195E+02 -0.35810175496E+03  0.36029000328E+03  0.00000000000E+00 0.  1.
         21    1    1    2  506  501  0.36856525544E+02 -0.10081696345E+02  0.80190900729E+02  0.88829187974E+02  0.00000000000E+00 0. -1.
<scales pt_clust_3="143.72269" pt_clust_4="14000.00000" pt_clust_5="39.61986" pt_clust_6="38.21052"></scales>
<clustering>
<clus scale="   38.211">  1  6  2 -1</clus>
<clus scale="   39.620">  2  5  1 -1</clus>
<clus scale="  143.723">  1  3  2 -1</clus>
<clus scale="   38.211">  1  3  2 -1</clus>
</clustering>
</event>
<event>
 6    0  0.8610502E+002  0.1539736E+03  0.7546771E-02  0.1195674E+00
         21   -1    0    0  503  501  0.00000000000E+00  0.00000000000E+00  0.97493735563E+03  0.97493735563E+03  0.00000000000E+00 0.  1.
         21   -1    0    0  506  502 -0.00000000000E+00 -0.00000000000E+00 -0.69478677229E+02  0.69478677229E+02  0.00000000000E+00 0.  1.
         21    1    1    2  503  504  0.12531827696E+03  0.76121549091E+02  0.79635286541E+03  0.80973887583E+03  0.00000000000E+00 0.  1.
         21    1    1    2  504  505 -0.30411197628E+02 -0.32869602188E+02  0.19777269625E+02  0.48952957857E+02  0.00000000000E+00 0.  1.
         21    1    1    2  505  502 -0.85005961126E+02 -0.13749837272E+02  0.11618617268E+03  0.14461776577E+03  0.00000000000E+00 0.  1.
         21    1    1    2  506  501 -0.99011182104E+01 -0.29502109631E+02 -0.26857629323E+02  0.41106433405E+02  0.00000000000E+00 0.  1.
<scales pt_clust_3="142.19281" pt_clust_4="46.22278" pt_clust_5="46.22278" pt_clust_6="31.11923"></scales>
<clustering>
<clus scale="   31.119">  2  6  1 -1</clus>
<clus scale="   46.223">  4  5 -1 -1</clus>
<clus scale="  142.193">  1  3  2 -1</clus>
<clus scale="  142.193">  1  3  2 -1</clus>
</clustering>
</event>
<event>
 6    0  0.8610502E+002  0.7356574E+02  0.7546771E-02  0.1348371E+00
         21   -1    0    0  506  501  0.00000000000E+00  0.00000000000E+00  0.16892028825E+03  0.16892028825E+03  0.00000000000E+00 0. -1.
         21   -1    0    0  503  502 -0.00000000000E+00 -0.00000000000E+00 -0.21361384108E+03  0.21361384108E+03  0.00000000000E+00 0.  1.
         21    1    1    2  503  505 -0.64487746521E+02  0.63059346748E+02 -0.54956619532E+02  0.10561903566E+03  0.00000000000E+00 0.  1.
         21    1    1    2  504  502  0.73109712681E+01 -0.52600000615E+02 -0.80954401602E+01  0.53719144790E+02  0.00000000000E+00 0.  1.
         21    1    1    2  505  501  0.80399491161E+02  0.41632059843E+02 -0.72452966151E+02  0.11596007455E+03  0.00000000000E+00 0.  1.
         21    1    1    2  506  504 -0.23222715908E+02 -0.52091405976E+02  0.90811473020E+02  0.10723587433E+03  0.00000000000E+00 0. -1.
<scales pt_clust_3="73.56574" pt_clust_4="53.10565" pt_clust_5="14000.00000" pt_clust_6="59.07247"></scales>
<clustering>
<clus scale="   53.106">  2  4  1 -1</clus>
<clus scale="   59.072">  1  6  2 -1</clus>
<clus scale="   73.566">  2  3  1 -1</clus>
<clus scale="   59.072">  1  3  2 -1</clus>
</clustering>
</event>
<event>
 6    0  0.8610502E+002  0.7159297E+02  0.7546771E-02  0.1354758E+00
         21   -1    0    0  504  501  0.00000000000E+00  0.00000000000E+00  0.16965477923E+04  0.16965477923E+04  0.00000000000E+00 0. -1.
         21   -1    0    0  503  502 -0.00000000000E+00 -0.00000000000E+00 -0.88563310030E+03  0.88563310030E+03  0.00000000000E+00 0.  1.
         21    1    1    2  503  501 -0.16777635110E+02  0.89775345362E+02  0.14802566295E+03  0.17393302897E+03  0.00000000000E+00 0. -1.
         21    1    1    2  504  506  0.26267146295E+02  0.28775725516E+02  0.14478910534E+04  0.14484151711E+04  0.00000000000E+00 0. -1.
         21    1    1    2  505  502 -0.33077262184E+02 -0.63488735762E+02 -0.86049140989E+03  0.86346418069E+03  0.00000000000E+00 0.  1.
         21    1    1    2  506  505  0.23587750999E+02 -0.55062335116E+02  0.75489385505E+02  0.96368511816E+02  0.00000000000E+00 0.  1.
<scales pt_clust_3="14000.00000" pt_clust_4="38.96159" pt_clust_5="71.59297" pt_clust_6="55.69860"></scales>
<clustering>
<clus scale="   38.962">  1  4  2 -1</clus>
<clus scale="   55.699">  1  6  2 -1</clus>
<clus scale="   71.593">  2  5  1 -1</clus>
<clus scale="   38.962">  1  3  2 -1</clus>
</clustering>
</event>
<event>
 6    0  0.8610502E+002  0.8399790E+02  0.7546771E-02  0.1318074E+00
         21   -1    0    0  504  501  0.00000000000E+00  0.00000000000E+00  0.48478667566E+03  0.48478667566E+03  0.00000000000E+00 0. -1.
         21   -1    0    0  506  502 -0.00000000000E+00 -0.00000000000E+00 -0.23584970143E+04  0.23584970143E+04  0.00000000000E+00 0.  1.
         21    1    1    2  503  502 -0.62458557009E+02 -0.39151661341E+02 -0.21949888836E+04  0.21962263370E+04  0.00000000000E+00 0.  1.
         21    1    1    2  504  505  0.20683840388E+02 -0.30663181019E+02  0.15775123034E+02  0.40210775050E+02  0.00000000000E+00 0. -1.
         21    1    1    2  505  503  0.11465967942E+03 -0.22350301082E+02 -0.11877681642E+03  0.16659624894E+03  0.00000000000E+00 0.  1.
         21    1    1    2  506  501 -0.72884962802E+02  0.92165143443E+02  0.42428023840E+03  0.44025032898E+03  0.00000000000E+00 0. -1.
<scales pt_clust_3="73.71349" pt_clust_4="36.98719" pt_clust_5="14000.00000" pt_clust_6="83.99790"></scales>
<clustering>
<clus scale="   36.987">  1  4  2 -1</clus>
<clus scale="   73.713">  2  3  1 -1</clus>
<clus scale="   83.998">  1  6  2 -1</clus>
<clus scale="   36.987">  1  3  2 -1</clus>
</clustering>
</event>
<event>
 6    0  0.8610502E+002  0.1549792E+03  0.7546771E-02  0.1194485E+00
         21   -1    0    0  503  501  0.00000000000E+00  0.00000000000E+00  0.41861974957E+03  0.41861974957E+03  0.00000000000E+00 0. -1.
         21   -1    0    0  504  502 -0.00000000000E+00 -0.00000000000E+00 -0.67227548254E+03  0.67227548254E+03  0.00000000000E+00 0.  1.
         21    1    1    2  503  505  0.12137927976E+03  0.88749095907E+02  0.29178692797E+03  0.32825134106E+03  0.00000000000E+00 0. -1.
         21    1    1    2  504  501 -0.23780427511E+03 -0.15691235646E+03 -0.47242721075E+03  0.55168816403E+03  0.00000000000E+00 0.  1.
         21    1    1    2  505  506  0.14193042874E+03  0.19915984583E+02 -0.51476399980E+02  0.15228497234E+03  0.00000000000E+00 0. -1.
         21    1    1    2  506  502 -0.25505433385E+02  0.48247275971E+02 -0.21539050213E+02  0.58670754681E+02  0.00000000000E+00 0.  1.
<scales pt_clust_3="14000.00000" pt_clust_4="154.97921" pt_clust_5="140.57441" pt_clust_6="54.57405"></scales>
<clustering>
<clus scale="   54.574">  2  6  1 -1</clus>
<clus scale="  140.574">  2  5  1 -1</clus>
<clus scale="  154.979">  2  4  1 -1</clus>
<clus scale="  154.979">  1  3  2 -1</clus>
</clustering>
</event>
<event>
 6    0  0.8610502E+002  0.9522122E+02  0.7546771E-02  0.1290679E+00
         21   -1    0    0  505  501  0.00000000000E+00  0.00000000000E+00  0.44013392856E+03  0.44013392856E+03  0.00000000000E+00 0.  1.
         21   -1    0    0  503  502 -0.00000000000E+00 -0.00000000000E+00 -0.57277227554E+02  0.57277227554E+02  0.00000000000E+00 0.  1.
         21    1    1    2  503  504  0.28559810286E+02 -0.37973100953E+02  0.20218749103E+02  0.51637360262E+02  0.00000000000E+00 0.  1.
         21    1    1    2  504  501  0.81063930193E+02 -0.16835350804E+02  0.28365495220E+03  0.29549098416E+03  0.00000000000E+00 0.  1.
         21    1    1    2  505  506 -0.51781681535E+02  0.45411406465E+02  0.36884117391E+02  0.78127949515E+02  0.00000000000E+00 0.  1.
         21    1    1    2  506  502 -0.57842058943E+02  0.93970452918E+01  0.42098882310E+02  0.72154862170E+02  0.00000000000E+00 0.  1.
<scales pt_clust_3="47.51441" pt_clust_4="87.98751" pt_clust_5="33.57981" pt_clust_6="33.57981"></scales>
<clustering>
<clus scale="   33.580">  5  6 -1 -1</clus>
<clus scale="   47.514">  2  3  1 -1</clus>
<clus scale="   87.988">  1  4  2 -1</clus>
<clus scale="   87.988">  1  3  2 -1</clus>
</clustering>
</event>
<event>
 6    0  0.8610502E+002  0.1947097E+03  0.7546771E-02  0.1154281E+00
         21   -1    0    0  503  501  0.00000000000E+00  0.00000000000E+00  0.11624781677E+03  0.11624781677E+03  0.00000000000E+00 0. -1.
         21   -1    0    0  504  502 -0.00000000000E+00 -0.00000000000E+00 -0.14398563632E+04  0.14398563632E+04  0.00000000000E+00 0.  1.
         21    1    1    2  503  506  0.16394012604E+03  0.60940237161E+02 -0.90394557514E+02  0.19687877859E+03  0.00000000000E+00 0. -1.
         21    1    1    2  504  505 -0.86008430956E+02 -0.47119713049E+02 -0.10884613761E+04  0.10928704794E+04  0.00000000000E+00 0.  1.
         21    1    1    2  505  501 -0.14956485524E+03  0.15777601041E+01 -0.86780369762E+02  0.17292474613E+03  0.00000000000E+00 0. -1.
         21    1    1    2  506  502  0.71633160158E+02 -0.15398284215E+02 -0.57972243086E+02  0.93430175850E+02  0.00000000000E+00 0. -1.
<scales pt_clust_3="44.36197" pt_clust_4="98.06996" pt_clust_5="182.24741" pt_clust_6="44.36197"></scales>
<clustering>
<clus scale="   44.362">  3  6 -1 -1</clus>
<clus scale="   98.070">  2  4  1 -1</clus>
<clus scale="  182.247">  1  5  2 -1</clus>
<clus scale="  182.247">  1  3  2 -1</clus>
</clustering>
</event>
<event>
 6    0  0.8610502E+002  0.1377912E+03  0.7546771E-02  0.1216332E+00
         21   -1    0    0  503  501  0.00000000000E+00  0.00000000000E+00  0.63026077365E+02  0.63026077365E+02  0.00000000000E+00 0.  1.
         21   -1    0    0  506  502 -0.00000000000E+00 -0.00000000000E+00 -0.10902831308E+04  0.10902831308E+04  0.00000000000E+00 0.  1.
         21    1    1    2  503  505  0.11665378572E+03  0.46525493409E+02 -0.14972892222E+03  0.19542639896E+03  0.00000000000E+00 0.  1.
         21    1    1    2  504  501 -0.64576102549E+02 -0.28378325621E+02 -0.26729200288E+02  0.75431111178E+02  0.00000000000E+00 0. -1.
         21    1    1    2  505  502 -0.19052488075E+02  0.41262276465E+02 -0.78984829171E+03  0.79115478680E+03  0.00000000000E+00 0.  1.
         21    1    1    2  506  504 -0.33025195098E+02 -0.59409444253E+02 -0.60950639194E+02  0.91296911207E+02  0.00000000000E+00 0.  1.
<scales pt_clust_3="126.91982" pt_clust_4="50.04100" pt_clust_5="45.44857" pt_clust_6="50.04100"></scales>
<clustering>
<clus scale="   45.449">  2  5  1 -1</clus>
<clus scale="   50.041">  4  6 -1 -1</clus>
<clus scale="  126.920">  2  3  1 -1</clus>
<clus scale="  137.791">  1  3  2 -1</clus>
</clustering>
</event>
<event>
 6    0  0.8610502E+002  0.1423504E+03  0.7546771E-02  0.1210201E+00
         21   -1    0    0  506  501  0.00000000000E+00  0.00000000000E+00  0.94466670902E+03  0.94466670902E+03  0.00000000000E+00 0. -1.
         21   -1    0    0  505  502 -0.00000000000E+00 -0.00000000000E+00 -0.29131145279E+03  0.29131145279E+03  0.00000000000E+00 0. -1.
         21    1    1    2  503  501 -0.43792471306E+02  0.76283860049E+01  0.80881350388E+02  0.92291742083E+02  0.00000000000E+00 0.  1.
         21    1    1    2  504  502  0.10428162276E+02  0.13839873113E+03 -0.21918609012E+03  0.25943303076E+03  0.00000000000E+00 0. -1.
         21    1    1    2  505  503 -0.22180122144E+02  0.11603051580E+03  0.16681318685E+03  0.20440566950E+03  0.00000000000E+00 0. -1.
         21    1    1    2  506  504  0.55544431173E+02 -0.26205763293E+03  0.62484680911E+03  0.67984771947E+03  0.00000000000E+00 0. -1.
<scales pt_clust_3="44.45192" pt_clust_4="142.35044" pt_clust_5="121.86312" pt_clust_6="14000.00000"></scales>
<clustering>
<clus scale="   44.452">  1  3  2 -1</clus>
<clus scale="  121.863">  1  5  2 -1</clus>
<clus scale="  142.350">  2  4  1 -1</clus>
<clus scale="   44.452">  1  3  2 -1</clus>
</clustering>
</event>
<event>
 6    0  0.8610502E+002  0.1230581E+03  0.7546771E-02  0.1238136E+00
         21   -1    0    0  503  501  0.00000000000E+00  0.00000000000E+00  0.15148050339E+02  0.15148050339E+02  0.00000000000E+00 0.  1.
         21   -1    0    0  504  502 -0.00000000000E+00 -0.00000000000E+00 -0.18940771487E+04  0.18940771487E+04  0.00000000000E+00 0.  1.
         21    1    1    2  503  505 -0.51659250776E+02 -0.18527442534E+02 -0.17806917962E+03  0.18633458361E+03  0.00000000000E+00 0. -1.
         21    1    1    2  504  506  0.10294699811E+03 -0.24020441928E+00 -0.59454521129E+03  0.60339220279E+03  0.00000000000E+00 0.  1.
         21    1    1    2  505  502 -0.99990229655E+02 -0.17506116728E+00 -0.93655863019E+03  0.94188117322E+03  0.00000000000E+00 0.  1.
         21    1    1    2  506  501  0.48702482322E+02  0.18942708121E+02 -0.16975607727E+03  0.17761723944E+03  0.00000000000E+00 0.  1.
<scales pt_clust_3="54.88118" pt_clust_4="35.42276" pt_clust_5="112.56707" pt_clust_6="35.42276"></scales>
<clustering>
<clus scale="   35.423">  4  6 -1 -1</clus>
<clus scale="   54.881">  1  3  2 -1</clus>
<clus scale="  112.567">  2  5  1 -1</clus>
<clus scale="   54.881">  1  3  2 -1</clus>
</clustering>
</event>
<event>
 6    0  0.8610502E+002  0.5406685E+02  0.7546771E-02  0.1424564E+00
         21   -1    0    0  506  501  0.00000000000E+00  0.00000000000E+00  0.54274743834E+02  0.54274743834E+02  0.00000000000E+00 0.  1.
         21   -1    0    0  505  502 -0.00000000000E+00 -0.00000000000E+00 -0.15755278334E+04  0.15755278334E+04  0.00000000000E+00 0.  1.
         21    1    1    2  503  504 -0.80127125651E+01 -0.85452613636E+02 -0.10124352260E+03  0.13272755406E+03  0.00000000000E+00 0.  1.
         21    1    1    2  504  501  0.42371826304E+02 -0.24157328446E+02 -0.17665745180E+02  0.51875107082E+02  0.00000000000E+00 0.  1.
         21    1    1    2  505  503  0.16317542263E+00  0.53042560308E+02 -0.13707650851E+04  0.13717909674E+04  0.00000000000E+00 0.  1.
         21    1    1    2  506  502 -0.34522289162E+02  0.56567381774E+02 -0.31578736683E+02  0.73408948639E+02  0.00000000000E+00 0.  1.
<scales pt_clust_3="54.06685" pt_clust_4="48.77446" pt_clust_5="14000.00000" pt_clust_6="44.28164"></scales>
<clustering>
<clus scale="   48.774">  1  4  2 -1</clus>
<clus scale="   44.282">  1  6  2 -1</clus>
<clus scale="   54.067">  1  3  2 -1</clus>
<clus scale="   48.774">  1  3  2 -1</clus>
</clustering>
</event>
<event>
 6    0  0.8610502E+002  0.6881959E+02  0.7546771E-02  0.1364154E+00
         21   -1    0    0  506  501  0.00000000000E+00  0.00000000000E+00  0.65538460172E+03  0.65538460172E+03  0.00000000000E+00 0.  1.
         21   -1    0    0  504  502 -0.00000000000E+00 -0.00000000000E+00 -0.87648935870E+02  0.87648935870E+02  0.00000000000E+00 0. -1.
         21    1    1    2  503  501 -0.19506054358E+02  0.33858690736E+02  0.73548263136E+02  0.83284116765E+02  0.00000000000E+00 0.  1.
         21    1    1    2  504  503 -0.68697967013E+02 -0.17582458371E+02  0.20840282829E+02  0.73911236646E+02  0.00000000000E+00 0. -1.
         21    1    1    2  505  502  0.76366258408E+01  0.48135968102E+02 -0.39491139664E+02  0.62729096847E+02  0.00000000000E+00 0. -1.
         21    1    1    2  506  505  0.80567395531E+02 -0.64412200467E+02  0.51283825955E+03  0.52310908733E+03  0.00000000000E+00 0.  1.
<scales pt_clust_3="39.07553" pt_clust_4="68.81959" pt_clust_5="49.35232" pt_clust_6="14000.00000"></scales>
<clustering>
<clus scale="   39.076">  1  3  2 -1</clus>
<clus scale="   49.352">  2  5  1 -1</clus>
<clus scale="   68.820">  2  4  1 -1</clus>
<clus scale="   39.076">  1  3  2 -1</clus>
</clustering>
</event>
<event>
 6    0  0.8610502E+002  0.1477161E+03  0.7546771E-02  0.1203308E+00
         21   -1    0    0  503  501  0.00000000000E+00  0.00000000000E+00  0.16936809507E+04  0.16936809507E+04  0.00000000000E+00 0.  1.
         21   -1    0    0  504  502 -0.00000000000E+00 -0.00000000000E+00 -0.30657996885E+03  0.30657996885E+03  0.00000000000E+00 0. -1.
         21    1    1    2  503  505  0.59603398022E+02  0.13940157637E+03  0.15968962541E+04  0.16040769966E+04  0.00000000000E+00 0.  1.
         21    1    1    2  504  506 -0.74466289606E+02 -0.10381316813E+03 -0.19944554105E+03  0.23685634045E+03  0.00000000000E+00 0. -1.
         21    1    1    2  505  502  0.48546403484E+02  0.47588047044E+02  0.54914942385E+01  0.68202140887E+02  0.00000000000E+00 0.  1.
         21    1    1    2  506  501 -0.33683511899E+02 -0.83176455282E+02 -0.15841225458E+02  0.91125441624E+02  0.00000000000E+00 0. -1.
<scales pt_clust_3="147.71607" pt_clust_4="75.25569" pt_clust_5="67.98070" pt_clust_6="14000.00000"></scales>
<clustering>
<clus scale="   67.981">  2  5  1 -1</clus>
<clus scale="   75.256">  2  4  1 -1</clus>
<clus scale="  147.716">  1  3  2 -1</clus>
<clus scale="  147.716">  1  3  2 -1</clus>
</clustering>
</event>
<event>
 6    0  0.8610502E+002  0.6865114E+02  0.7546771E-02  0.1364741E+00
         21   -1    0    0  505  501  0.00000000000E+00  0.00000000000E+00  0.17405701981E+03  0.17405701981E+03  0.00000000000E+00 0.  1.
         21   -1    0    0  503  502 -0.00000000000E+00 -0.00000000000E+00 -0.38760511398E+03  0.38760511398E+03  0.00000000000E+00 0.  1.
         21    1    1    2  503  501  0.28853496688E+02 -0.31066458805E+02 -0.31235489521E+02  0.52662177504E+02  0.00000000000E+00 0.  1.
         21    1    1    2  504  506 -0.14996991230E+03  0.74635953013E+01 -0.21099426955E+03  0.25896961527E+03  0.00000000000E+00 0.  1.
         21    1    1    2  505  504  0.64119504055E+02  0.15546297404E+02  0.12297451273E+03  0.13955546906E+03  0.00000000000E+00 0.  1.
         21    1    1    2  506  502  0.56996911555E+02  0.80565660995E+01 -0.94292847819E+02  0.11047487196E+03  0.00000000000E+00 0.  1.
<scales pt_clust_3="42.39869" pt_clust_4="68.65114" pt_clust_5="14000.00000" pt_clust_6="65.55336"></scales>
<clustering>
<clus scale="   42.399">  2  3  1 -1</clus>
<clus scale="   65.553">  2  6  1 -1</clus>
<clus scale="   68.651">  2  4  1 -1</clus>
<clus scale="   68.651">  1  3  2 -1</clus>
</clustering>
</event>
<event>
 6    0  0.8610502E+002  0.1863483E+03  0.7546771E-02  0.1161797E+00
         21   -1    0    0  504  501  0.00000000000E+00  0.00000000000E+00  0.30369137836E+03  0.30369137836E+03  0.00000000000E+00 0. -1.
         21   -1    0    0  506  502 -0.00000000000E+00 -0.00000000000E+00 -0.50742104924E+03  0.50742104924E+03  0.00000000000E+00 0. -1.
         21    1    1    2  503  502  0.48791413094E+02 -0.16416050528E+03  0.77075742845E+02  0.18780293826E+03  0.00000000000E+00 0. -1.
         21    1    1    2  504  503  0.87181681659E+02 -0.32532274705E+02  0.71300705920E+02  0.11722962586E+03  0.00000000000E+00 0.  1.
         21    1    1    2  505  501  0.21009546540E+02  0.81719681321E+02  0.19509578296E+02  0.86603296740E+02  0.00000000000E+00 0. -1.
         21    1    1    2  506  505 -0.15698264129E+03  0.11497309866E+03 -0.37161569794E+03  0.41947656674E+03  0.00000000000E+00 0. -1.
<scales pt_clust_3="14000.00000" pt_clust_4="95.10047" pt_clust_5="84.37717" pt_clust_6="186.34826"></scales>
<clustering>
<clus scale="   84.377">  1  5  2 -1</clus>
<clus scale="   95.100">  1  4  2 -1</clus>
<clus scale="  186.348">  2  6  1 -1</clus>
<clus scale="   84.377">  1  3  2 -1</clus>
</clustering>
</event>
<event>
 6    0  0.8610502E+002  0.1231872E+03  0.7546771E-02  0.1237930E+00
         21   -1    0    0  505  501  0.00000000000E+00  0.00000000000E+00  0.48099775190E+03  0.48099775190E+03  0.00000000000E+00 0. -1.
         21   -1    0    0  504  502 -0.00000000000E+00 -0.00000000000E+00 -0.40826324289E+03  0.40826324289E+03  0.00000000000E+00 0.  1.
         21    1    1    2  503  502  0.19118574725E+02 -0.43662814755E+02 -0.30167519319E+02  0.56409578209E+02  0.00000000000E+00 0.  1.
         21    1    1    2  504  506 -0.69728264727E+02  0.58032296485E+01 -0.13643847228E+03  0.15333350936E+03  0.00000000000E+00 0.  1.
         21    1    1    2  505  503  0.22101587078E+01  0.15047929805E+03 -0.18462261444E+03  0.23818986903E+03  0.00000000000E+00 0.  1.
         21    1    1    2  506  501  0.48399531294E+02 -0.11261971294E+03  0.42396311504E+03  0.44132803819E+03  0.00000000000E+00 0. -1.
<scales pt_clust_3="47.66510" pt_clust_4="63.19929" pt_clust_5="123.18715" pt_clust_6="14000.00000"></scales>
<clustering>
<clus scale="   47.665">  2  3  1 -1</clus>
<clus scale="   63.199">  2  4  1 -1</clus>
<clus scale="  123.187">  2  5  1 -1</clus>
<clus scale="  123.187">  1  3  2 -1</clus>
</clustering>
</event>
<event>
 6    0  0.8610502E+002  0.1321186E+03  0.7546771E-02  0.1224346E+00
         21   -1    0    0  503  501  0.00000000000E+00  0.00000000000E+00  0.28898410399E+04  0.28898410399E+04  0.00000000000E+00 0. -1.
         21   -1    0    0  504  502 -0.00000000000E+00 -0.00000000000E+00 -0.67127753074E+02  0.67127753074E+02  0.00000000000E+00 0. -1.
         21    1    1    2  503  502 -0.66128545857E+02 -0.12063272974E+03  0.29476644368E+02  0.14069155136E+03  0.00000000000E+00 0. -1.
         21    1    1    2  504  506 -0.36025105592E+02 -0.13811938748E+02  0.73890255063E+02  0.83356749446E+02  0.00000000000E+00 0. -1.
         21    1    1    2  505  501  0.92810067739E+02  0.94015522049E+02  0.26406675264E+04  0.26439700475E+04  0.00000000000E+00 0. -1.
         21    1    1    2  506  505  0.93435837103E+01  0.40429146440E+02  0.78678860945E+02  0.88950444620E+02  0.00000000000E+00 0.  1.
<scales pt_clust_3="14000.00000" pt_clust_4="38.58209" pt_clust_5="132.11856" pt_clust_6="39.80659"></scales>
<clustering>
<clus scale="   38.582">  2  4  1 -1</clus>
<clus scale="   39.807">  2  6  1 -1</clus>
<clus scale="  132.119">  1  5  2 -1</clus>
<clus scale="  132.119">  1  3  2 -1</clus>
</clustering>
</event>
<event>
 6    0  0.8610502E+002  0.3260532E+03  0.7546771E-02  0.1072897E+00
         21   -1    0    0  502  501  0.00000000000E+00  0.00000000000E+00  0.33995978283E+03  0.33995978283E+03  0.00000000000E+00 0. -1.
         21   -1    0    0  506  502 -0.00000000000E+00 -0.00000000000E+00 -0.77092655596E+03  0.77092655596E+03  0.00000000000E+00 0. -1.
         21    1    1    2  503  501 -0.29654785574E+03  0.97336568314E+01  0.22897910263E+03  0.37478901299E+03  0.00000000000E+00 0. -1.
         21    1    1    2  504  503  0.10494570892E+03 -0.25680162807E+00 -0.11422478864E+03  0.15511598920E+03  0.00000000000E+00 0.  1.
         21    1    1    2  505  504  0.55567620318E+02  0.15570845290E+02 -0.11625996877E+03  0.12979442203E+03  0.00000000000E+00 0. -1.
         21    1    1    2  506  505  0.13603452650E+03 -0.25047700493E+02 -0.42946111835E+03  0.45118691456E+03  0.00000000000E+00 0. -1.
<scales pt_clust_3="296.70756" pt_clust_4="106.42137" pt_clust_5="33.58836" pt_clust_6="106.42137"></scales>
<clustering>
<clus scale="   33.588">  4  5 -1 -1</clus>
<clus scale="  106.421">  4  6 -1 -1</clus>
<clus scale="  296.708">  1  3  2 -1</clus>
<clus scale="  296.708">  1  3  2 -1</clus>
</clustering>
</event>
<event>
 6    0  0.8610502E+002  0.6969588E+02  0.7546771E-02  0.1361130E+00
         21   -1    0    0  503  501  0.00000000000E+00  0.00000000000E+00  0.42046220136E+03  0.42046220136E+03  0.00000000000E+00 0. -1.
         21   -1    0    0  504  502 -0.00000000000E+00 -0.00000000000E+00 -0.14811814962E+03  0.14811814962E+03  0.00000000000E+00 0.  1.
         21    1    1    2  503  502 -0.44561381614E+02 -0.52890803783E+02  0.35492328208E+03  0.36159879703E+03  0.00000000000E+00 0. -1.
         21    1    1    2  504  505  0.35308598708E+02 -0.39116951944E+01 -0.84572637573E+00  0.35534683833E+02  0.00000000000E+00 0.  1.
         21    1    1    2  505  506  0.49542003453E+01 -0.46553647461E+02 -0.31681226929E+02  0.56528632857E+02  0.00000000000E+00 0. -1.
         21    1    1    2  506  501  0.42985825615E+01  0.10335614644E+03 -0.50052277023E+02  0.11491823726E+03  0.00000000000E+00 0.  1.
<scales pt_clust_3="69.69588" pt_clust_4="35.52462" pt_clust_5="50.78976" pt_clust_6="14000.00000"></scales>
<clustering>
<clus scale="   35.525">  2  4  1 -1</clus>
<clus scale="   50.790">  2  5  1 -1</clus>
<clus scale="   69.696">  1  3  2 -1</clus>
<clus scale="   69.696">  1  3  2 -1</clus>
</clustering>
</event>
<event>
 6    0  0.8610502E+002  0.2099238E+03  0.7546771E-02  0.1141626E+00
         21   -1    0    0  506  501  0.00000000000E+00  0.00000000000E+00  0.49353207293E+03  0.49353207293E+03  0.00000000000E+00 0. -1.
         21   -1    0    0  504  502 -0.00000000000E+00 -0.00000000000E+00 -0.10306469815E+03  0.10306469815E+03  0.00000000000E+00 0. -1.
         21    1    1    2  503  505 -0.67245661463E+02  0.63021751573E+02  0.18438495702E+03  0.20613474363E+03  0.00000000000E+00 0. -1.
         21    1    1    2  504  501  0.16952107553E+03 -0.75467592937E+02  0.10645556014E+03  0.21392881741E+03  0.00000000000E+00 0. -1.
         21    1    1    2  505  502 -0.93328961226E+02  0.50319039866E+02  0.64487841195E+02  0.12410069475E+03  0.00000000000E+00 0. -1.
         21    1    1    2  506  503 -0.89464528386E+01 -0.37873198502E+02  0.35139016424E+02  0.52432515278E+02  0.00000000000E+00 0. -1.
<scales pt_clust_3="83.21511" pt_clust_4="188.62816" pt_clust_5="83.21511" pt_clust_6="38.91553"></scales>
<clustering>
<clus scale="   38.916">  1  6  2 -1</clus>
<clus scale="   83.215">  3  5 -1 -1</clus>
<clus scale="  188.628">  2  4  1 -1</clus>
<clus scale="   38.916">  1  3  2 -1</clus>
</clustering>
</event>
<event>
 6    0  0.8610502E+002  0.6706347E+02  0.7546771E-02  0.1370373E+00
         21   -1    0    0  505  501  0.00000000000E+00  0.00000000000E+00  0.36631821346E+03  0.36631821346E+03  0.00000000000E+00 0. -1.
         21   -1    0    0  503  502 -0.00000000000E+00 -0.00000000000E+00 -0.40950847902E+03  0.40950847902E+03  0.00000000000E+00 0. -1.
         21    1    1    2  503  506 -0.50651757582E+02  0.59029638414E+02 -0.34452367442E+02  0.85070937339E+02  0.00000000000E+00 0. -1.
         21    1    1    2  504  502 -0.51017588067E+02 -0.20909497167E+02 -0.20570583243E+03  0.21296687738E+03  0.00000000000E+00 0. -1.
         21    1    1    2  505  504  0.42390250171E+02 -0.52001203891E+02 -0.12941748845E+03  0.14577360815E+03  0.00000000000E+00 0. -1.
         21    1    1    2  506  501  0.59279095478E+02  0.13881062644E+02  0.32638542277E+03  0.33201526961E+03  0.00000000000E+00 0. -1.
<scales pt_clust_3="14000.00000" pt_clust_4="55.13621" pt_clust_5="67.06347" pt_clust_6="60.11718"></scales>
<clustering>
<clus scale="   55.136">  2  4  1 -1</clus>
<clus scale="   60.117">  1  6  2 -1</clus>
<clus scale="   67.063">  2  5  1 -1</clus>
<clus scale="   60.117">  1  3  2 -1</clus>
</clustering>
</event>
<event>
 6    0  0.8610502E+002  0.9277809E+02  0.7546771E-02  0.1296260E+00
         21   -1    0    0  504  501  0.00000000000E+00  0.00000000000E+00  0.88136721595E+02  0.88136721595E+02  0.00000000000E+00 0. -1.
         21   -1    0    0  503  502 -0.00000000000E+00 -0.00000000000E+00 -0.38425402934E+03  0.38425402934E+03  0.00000000000E+00 0. -1.
         21    1    1    2  503  506  0.37644761254E+02  0.41238057013E+01 -0.11898624515E+03  0.12486737107E+03  0.00000000000E+00 0. -1.
         21    1    1    2  504  505  0.11825464031E+03 -0.18136881957E+02 -0.61414637453E+02  0.13447997671E+03  0.00000000000E+00 0. -1.
         21    1    1    2  505  502 -0.92784388116E+02 -0.28162801312E+02 -0.91614711423E+02  0.13339918068E+03  0.00000000000E+00 0. -1.
         21    1    1    2  506  501 -0.63115013446E+02  0.42175877568E+02 -0.24101713721E+02  0.79644222484E+02  0.00000000000E+00 0. -1.
<scales pt_clust_3="37.86996" pt_clust_4="92.77809" pt_clust_5="14000.00000" pt_clust_6="70.33863"></scales>
<clustering>
<clus scale="   37.870">  2  3  1 -1</clus>
<clus scale="   70.339">  1  6  2 -1</clus>
<clus scale="   92.778">  1  4  2 -1</clus>
<clus scale="   70.339">  1  3  2 -1</clus>
</clustering>
</event>
<event>
 6    0  0.8610502E+002  0.8754669E+02  0.7546771E-02  0.1308904E+00
         21   -1    0    0  503  501  0.00000000000E+00  0.00000000000E+00  0.13003303548E+03  0.13003303548E+03  0.00000000000E+00 0. -1.
         21   -1    0    0  506  502 -0.00000000000E+00 -0.00000000000E+00 -0.17566027320E+04  0.17566027320E+04  0.00000000000E+00 0. -1.
         21    1    1    2  503  504 -0.81713490184E+02  0.58118063489E+01  0.84955978555E+02  0.11801859965E+03  0.00000000000E+00 0. -1.
         21    1    1    2  504  502  0.22120926222E+02 -0.26219333260E+02 -0.19575636711E+03  0.19873938734E+03  0.00000000000E+00 0.  1.
         21    1    1    2  505  501  0.39936466677E+02  0.77615073403E+02 -0.45629470907E+02  0.98494007966E+02  0.00000000000E+00 0. -1.
         21    1    1    2  506  505  0.19656097285E+02 -0.57207546492E+02 -0.14701398371E+04  0.14713837725E+04  0.00000000000E+00 0. -1.
<scales pt_clust_3="81.66668" pt_clust_4="34.30436" pt_clust_5="87.54669" pt_clust_6="14000.00000"></scales>
<clustering>
<clus scale="   34.304">  2  4  1 -1</clus>
<clus scale="   81.667">  1  3  2 -1</clus>
<clus scale="   87.547">  1  5  2 -1</clus>
<clus scale="   81.667">  1  3  2 -1</clus>
</clustering>
</event>
<event>
 6    0  0.8610502E+002  0.8355958E+02  0.7546771E-02  0.1319243E+00
         21   -1    0    0  505  501  0.00000000000E+00  0.00000000000E+00  0.13989324712E+03  0.13989324712E+03  0.00000000000E+00 0.  1.
         21   -1    0    0  503  502 -0.00000000000E+00 -0.00000000000E+00 -0.17218742823E+04  0.17218742823E+04  0.00000000000E+00 0.  1.
         21    1    1    2  503  504 -0.45204762048E+02  0.10151079318E+03 -0.12127698305E+04  0.12178499798E+04  0.00000000000E+00 0.  1.
         21    1    1    2  504  506 -0.45219177356E+01 -0.57194157617E+02 -0.19000900825E+03  0.19848184456E+03  0.00000000000E+00 0.  1.
         21    1    1    2  505  502  0.41694172705E+02  0.42785550416E+00 -0.30698687975E+03  0.30980563493E+03  0.00000000000E+00 0.  1.
         21    1    1    2  506  501  0.80325070777E+01 -0.44744491065E+02  0.12778468325E+03  0.13563007013E+03  0.00000000000E+00 0.  1.
<scales pt_clust_3="14000.00000" pt_clust_4="83.55958" pt_clust_5="41.69637" pt_clust_6="45.47919"></scales>
<clustering>
<clus scale="   41.696">  2  5  1 -1</clus>
<clus scale="   45.479">  1  6  2 -1</clus>
<clus scale="   83.560">  1  4  2 -1</clus>
<clus scale="   45.479">  1  3  2 -1</clus>
</clustering>
</event>
<event>
 6    0  0.8610502E+002  0.8928195E+02  0.7546771E-02  0.1304600E+00
         21   -1    0    0  506  501  0.00000000000E+00  0.00000000000E+00  0.26890147492E+04  0.26890147492E+04  0.00000000000E+00 0.  1.
         21   -1    0    0  504  502 -0.00000000000E+00 -0.00000000000E+00 -0.38214806301E+02  0.38214806301E+02  0.00000000000E+00 0.  1.
         21    1    1    2  503  502  0.19552041173E+01  0.73998881118E+02  0.73363747263E+03  0.73736259633E+03  0.00000000000E+00 0.  1.
         21    1    1    2  504  505 -0.42189316780E+02 -0.66301873196E+02  0.10570597511E+02  0.79294478820E+02  0.00000000000E+00 0.  1.
         21    1    1    2  505  501  0.61667210948E+01 -0.52630235467E+02  0.13703300548E+04  0.13713542318E+04  0.00000000000E+00 0.  1.
         21    1    1    2  506  503  0.34067391567E+02  0.44933227545E+02  0.53626181802E+03  0.53921824855E+03  0.00000000000E+00 0.  1.
<scales pt_clust_3="34.60401" pt_clust_4="79.99559" pt_clust_5="52.99028" pt_clust_6="34.60401"></scales>
<clustering>
<clus scale="   34.604">  3  6 -1 -1</clus>
<clus scale="   52.990">  1  5  2 -1</clus>
<clus scale="   79.996">  2  4  1 -1</clus>
<clus scale="   52.990">  1  3  2 -1</clus>
</clustering>
</event>
<event>
 6    0  0.8610502E+002  0.1226569E+03  0.7546771E-02  0.1238777E+00
         21   -1    0    0  505  501  0.00000000000E+00  0.00000000000E+00  0.12731112959E+04  0.12731112959E+04  0.00000000000E+00 0.  1.
         21   -1    0    0  504  502 -0.00000000000E+00 -0.00000000000E+00 -0.13972858451E+03  0.13972858451E+03  0.00000000000E+00 0.  1.
         21    1    1    2  503  502  0.43492723417E+02 -0.13937254316E+03  0.45054519845E+02  0.15279473989E+03  0.00000000000E+00 0.  1.
         21    1    1    2  504  506 -0.16363575241E+02  0.11259659128E+03 -0.41922861738E+02  0.12125710412E+03  0.00000000000E+00 0.  1.
         21    1    1    2  505  503 -0.36197984530E+02 -0.42016120303E+01  0.10683995913E+04  0.10690208765E+04  0.00000000000E+00 0.  1.
         21    1    1    2  506  501  0.90688363543E+01  0.30977563913E+02  0.61851462009E+02  0.69767159978E+02  0.00000000000E+00 0.  1.
<scales pt_clust_3="122.65690" pt_clust_4="14000.00000" pt_clust_5="36.50649" pt_clust_6="32.27775"></scales>
<clustering>
<clus scale="   32.278">  1  6  2 -1</clus>
<clus scale="   36.506">  1  5  2 -1</clus>
<clus scale="  122.657">  1  3  2 -1</clus>
<clus scale="   32.278">  1  3  2 -1</clus>
</clustering>
</event>
<event>
 6    0  0.8610502E+002  0.2428888E+03  0.7546771E-02  0.1117883E+00
         21   -1    0    0  506  501  0.00000000000E+00  0.00000000000E+00  0.27488040227E+03  0.27488040227E+03  0.00000000000E+00 0. -1.
         21   -1    0    0  505  502 -0.00000000000E+00 -0.00000000000E+00 -0.20963730816E+04  0.20963730816E+04  0.00000000000E+00 0.  1.
         21    1    1    2  503  501  0.48882298617E+02 -0.25711248401E+02  0.24345698778E+03  0.24964345037E+03  0.00000000000E+00 0. -1.
         21    1    1    2  504  503  0.16017169124E+03 -0.20614422650E+02 -0.52547509290E+03  0.54973084173E+03  0.00000000000E+00 0.  1.
         21    1    1    2  505  504  0.36691732061E+02 -0.35114746932E+02 -0.14656025757E+03  0.15511040504E+03  0.00000000000E+00 0.  1.
         21    1    1    2  506  502 -0.24574572191E+03  0.81440417984E+02 -0.13929143166E+04  0.14167687867E+04  0.00000000000E+00 0.  1.
<scales pt_clust_3="55.23176" pt_clust_4="32.25747" pt_clust_5="32.25747" pt_clust_6="235.97937"></scales>
<clustering>
<clus scale="   32.257">  4  5 -1 -1</clus>
<clus scale="   55.232">  1  3  2 -1</clus>
<clus scale="  235.979">  2  6  1 -1</clus>
<clus scale="   55.232">  1  3  2 -1</clus>
</clustering>
</event>
<event>
 6    0  0.8610502E+002  0.9634560E+02  0.7546771E-02  0.1288174E+00
         21   -1    0    0  505  501  0.00000000000E+00  0.00000000000E+00  0.44982341312E+02  0.44982341312E+02  0.00000000000E+00 0. -1.
         21   -1    0    0  504  502 -0.00000000000E+00 -0.00000000000E+00 -0.94414963580E+03  0.94414963580E+03  0.00000000000E+00 0. -1.
         21    1    1    2  503  502  0.43543330512E+02 -0.61454512027E+02 -0.31343403997E+03  0.32235628751E+03  0.00000000000E+00 0. -1.
         21    1    1    2  504  501 -0.48961859319E+01 -0.50690549048E+02  0.32802760668E+01  0.51031995949E+02  0.00000000000E+00 0. -1.
         21    1    1    2  505  506  0.32463764947E+02 -0.52182396359E+01 -0.52399025618E+02  0.61861005045E+02  0.00000000000E+00 0.  1.
         21    1    1    2  506  503 -0.71110909527E+02  0.11736330071E+03 -0.53661450496E+03  0.55388268861E+03  0.00000000000E+00 0. -1.
<scales pt_clust_3="96.34560" pt_clust_4="56.81590" pt_clust_5="32.88048" pt_clust_6="14000.00000"></scales>
<clustering>
<clus scale="   32.880">  1  5  2 -1</clus>
<clus scale="   56.816">  1  4  2 -1</clus>
<clus scale="   96.346">  2  3  1 -1</clus>
<clus scale="   32.880">  1  3  2 -1</clus>
</clustering>
</event>
<event>
 6    0  0.8610502E+002  0.1037396E+03  0.7546771E-02  0.1272623E+00
         21   -1    0    0  506  501  0.00000000000E+00  0.00000000000E+00  0.74912268829E+02  0.74912268829E+02  0.00000000000E+00 0. -1.
         21   -1    0    0  503  502 -0.00000000000E+00 -0.00000000000E+00 -0.54000472754E+03  0.54000472754E+03  0.00000000000E+00 0. -1.
         21    1    1    2  503  505 -0.71129943938E+02  0.43913352913E+02 -0.10708347407E+03  0.13584815755E+03  0.00000000000E+00 0.  1.
         21    1    1    2  504  502  0.26220784670E+02 -0.10713675308E+03 -0.32053831456E+03  0.33898469657E+03  0.00000000000E+00 0. -1.
         21    1    1    2  505  501  0.28333106498E+02 -0.25550871180E+02  0.79877945489E+01  0.38979697326E+02  0.00000000000E+00 0. -1.
         21    1    1    2  506  504  0.16576052770E+02  0.88774271345E+02 -0.45458464630E+02  0.10110444493E+03  0.00000000000E+00 0. -1.
<scales pt_clust_3="73.12267" pt_clust_4="14000.00000" pt_clust_5="38.15248" pt_clust_6="103.73960"></scales>
<clustering>
<clus scale="   38.152">  1  5  2 -1</clus>
<clus scale="   73.123">  1  3  2 -1</clus>
<clus scale="  103.740">  1  6  2 -1</clus>
<clus scale="   38.152">  1  3  2 -1</clus>
</clustering>
</event>
<event>
 6    0  0.8610502E+002  0.1090177E+03  0.7546771E-02  0.1262400E+00
         21   -1    0    0  506  501  0.00000000000E+00  0.00000000000E+00  0.27554959484E+03  0.27554959484E+03  0.00000000000E+00 0. -1.
         21   -1    0    0  501  502 -0.00000000000E+00 -0.00000000000E+00 -0.66682907385E+03  0.66682907385E+03  0.00000000000E+00 0. -1.
         21    1    1    2  503  502  0.34420506619E+02  0.16804558477E+02 -0.48064004019E+03  0.48216388572E+03  0.00000000000E+00 0. -1.
         21    1    1    2  504  503 -0.59749899672E+02 -0.33392150711E+02 -0.15265788220E+02  0.70129384211E+02  0.00000000000E+00 0. -1.
         21    1    1    2  505  504 -0.42232742391E+02 -0.72337564362E+02 -0.11583673275E+03  0.14294920917E+03  0.00000000000E+00 0. -1.
         21    1    1    2  506  505  0.67562135444E+02  0.88925156596E+02  0.22046308214E+03  0.24713618959E+03  0.00000000000E+00 0. -1.
<scales pt_clust_3="38.30358" pt_clust_4="59.64323" pt_clust_5="14000.00000" pt_clust_6="109.01773"></scales>
<clustering>
<clus scale="   38.304">  2  3  1 -1</clus>
<clus scale="   59.643">  2  4  1 -1</clus>
<clus scale="  109.018">  1  6  2 -1</clus>
<clus scale="  109.018">  1  3  2 -1</clus>
</clustering>
</event>
<event>
 6    0  0.8610502E+002  0.9313850E+02  0.7546771E-02  0.1295425E+00
         21   -1    0    0  503  501  0.00000000000E+00  0.00000000000E+00  0.53399000973E+02  0.53399000973E+02  0.00000000000E+00 0. -1.
         21   -1    0    0  506  502 -0.00000000000E+00 -0.00000000000E+00 -0.21414096235E+04  0.21414096235E+04  0.00000000000E+00 0. -1.
         21    1    1    2  503  504  0.14889528356E+02 -0.34417818707E+02  0.36001022186E+02  0.51984208156E+02  0.00000000000E+00 0. -1.
         21    1    1    2  504  505 -0.95037882473E+02  0.82022851655E+02 -0.55569054581E+03  0.56969459362E+03  0.00000000000E+00 0. -1.
         21    1    1    2  505  502  0.51508924651E+02 -0.31066267250E+02 -0.14152061265E+04  0.14164839084E+04  0.00000000000E+00 0. -1.
         21    1    1    2  506  501  0.28639429466E+02 -0.16538765698E+02 -0.15311497242E+03  0.15664591431E+03  0.00000000000E+00 0.  1.
<scales pt_clust_3="37.60735" pt_clust_4="14000.00000" pt_clust_5="93.13850" pt_clust_6="33.07186"></scales>
<clustering>
<clus scale="   33.072">  2  6  1 -1</clus>
<clus scale="   37.607">  1  3  2 -1</clus>
<clus scale="   93.138">  2  5  1 -1</clus>
<clus scale="   37.607">  1  3  2 -1</clus>
</clustering>
</event>
<event>
 6    0  0.8610502E+002  0.9986205E+02  0.7546771E-02  0.1280586E+00
         21   -1    0    0  506  501  0.00000000000E+00  0.00000000000E+00  0.21251204720E+04  0.21251204720E+04  0.00000000000E+00 0.  1.
         21   -1    0    0  505  502 -0.00000000000E+00 -0.00000000000E+00 -0.39623391540E+02  0.39623391540E+02  0.00000000000E+00 0. -1.
         21    1    1    2  503  502  0.15025981820E+01  0.31869509131E+02  0.63867832975E+02  0.71393441593E+02  0.00000000000E+00 0. -1.
         21    1    1    2  504  503 -0.48479389621E+02  0.63407703714E+01  0.35797382594E+02  0.60596280311E+02  0.00000000000E+00 0. -1.
         21    1    1    2  505  501  0.20620780896E+02 -0.10042457219E+03  0.19563519027E+04  0.19590362627E+04  0.00000000000E+00 0.  1.
         21    1    1    2  506  504  0.26356010542E+02  0.62214292686E+02  0.29479962185E+02  0.73717878948E+02  0.00000000000E+00 0. -1.
<scales pt_clust_3="31.90491" pt_clust_4="51.00514" pt_clust_5="99.86205" pt_clust_6="14000.00000"></scales>
<clustering>
<clus scale="   31.905">  2  3  1 -1</clus>
<clus scale="   51.005">  2  4  1 -1</clus>
<clus scale="   99.862">  1  5  2 -1</clus>
<clus scale="   99.862">  1  3  2 -1</clus>
</clustering>
</event>
<event>
 6    0  0.8610502E+002  0.7275279E+02  0.7546771E-02  0.1350975E+00
         21   -1    0    0  506  501  0.00000000000E+00  0.00000000000E+00  0.50471713076E+03  0.50471713076E+03  0.00000000000E+00 0.  1.
         21   -1    0    0  503  502 -0.00000000000E+00 -0.00000000000E+00 -0.22453361856E+03  0.22453361856E+03  0.00000000000E+00 0.  1.
         21    1    1    2  503  505 -0.95259980038E+02  0.13504953407E+01  0.79242045876E+01  0.95598538968E+02  0.00000000000E+00 0. -1.
         21    1    1    2  504  502  0.66014755025E+02 -0.22054973327E+02 -0.13129799198E+03  0.14860529071E+03  0.00000000000E+00 0.  1.
         21    1    1    2  505  501 -0.17553016731E+02 -0.56932435429E+02  0.38863638643E+03  0.39317636177E+03  0.00000000000E+00 0.  1.
         21    1    1    2  506  504  0.46798241743E+02  0.77636913415E+02  0.14920913160E+02  0.91870557876E+02  0.00000000000E+00 0. -1.
<scales pt_clust_3="72.75279" pt_clust_4="14000.00000" pt_clust_5="59.57693" pt_clust_6="63.87958"></scales>
<clustering>
<clus scale="   59.577">  1  5  2 -1</clus>
<clus scale="   63.880">  1  6  2 -1</clus>
<clus scale="   72.753">  1  3  2 -1</clus>
<clus scale="   59.577">  1  3  2 -1</clus>
</clustering>
</event>
<event>
 6    0  0.8610502E+002  0.2788674E+03  0.7546771E-02  0.1096309E+00
         21   -1    0    0  506  501  0.00000000000E+00  0.00000000000E+00  0.27373988608E+04  0.27373988608E+04  0.00000000000E+00 0. -1.
         21   -1    0    0  505  502 -0.00000000000E+00 -0.00000000000E+00 -0.38546236947E+03  0.38546236947E+03  0.00000000000E+00 0. -1.
         21    1    1    2  503  502 -0.20610247252E+02  0.29819534965E+02  0.30727552971E+02  0.47520200640E+02  0.00000000000E+00 0. -1.
         21    1    1    2  504  501  0.28932906814E+03 -0.75553044923E+01  0.11993730739E+04  0.12338006981E+04  0.00000000000E+00 0. -1.
         21    1    1    2  505  504 -0.37205088324E+01  0.59638527904E+02 -0.34427556074E+03  0.34942274958E+03  0.00000000000E+00 0. -1.
         21    1    1    2  506  503 -0.26499831205E+03 -0.81902758377E+02  0.14661114252E+04  0.14921175819E+04  0.00000000000E+00 0. -1.
<scales pt_clust_3="36.24896" pt_clust_4="278.86736" pt_clust_5="89.97362" pt_clust_6="14000.00000"></scales>
<clustering>
<clus scale="   36.249">  2  3  1 -1</clus>
<clus scale="   89.974">  2  5  1 -1</clus>
<clus scale="  278.867">  2  4  1 -1</clus>
<clus scale="  278.867">  1  3  2 -1</clus>
</clustering>
</event>
<event>
 6    0  0.8610502E+002  0.1407412E+03  0.7546771E-02  0.1212335E+00
         21   -1    0    0  503  501  0.00000000000E+00  0.00000000000E+00  0.30704749120E+03  0.30704749120E+03  0.00000000000E+00 0. -1.
         21   -1    0    0  506  502 -0.00000000000E+00 -0.00000000000E+00 -0.43665733679E+03  0.43665733679E+03  0.00000000000E+00 0.  1.
         21    1    1    2  503  502 -0.43641711811E+02  0.87487337079E+01 -0.50953144978E+02  0.67656206918E+02  0.00000000000E+00 0.  1.
         21    1    1    2  504  501  0.27404262381E+02 -0.12590039882E+03  0.27225552226E+03  0.30120586552E+03  0.00000000000E+00 0. -1.
         21    1    1    2  505  504 -0.68165652532E+01  0.67564910620E+02 -0.12340150309E+03  0.14085245356E+03  0.00000000000E+00 0.  1.
         21    1    1    2  506  505  0.23054014683E+02  0.49586754489E+02 -0.22751071978E+03  0.23399030199E+03  0.00000000000E+00 0.  1.
<scales pt_clust_3="44.50999" pt_clust_4="128.17395" pt_clust_5="50.14234" pt_clust_6="50.14234"></scales>
<clustering>
<clus scale="   44.510">  2  3  1 -1</clus>
<clus scale="   50.142">  5  6 -1 -1</clus>
<clus scale="  128.174">  1  4  2 -1</clus>
<clus scale="  128.174">  1  3  2 -1</clus>
</clustering>
</event>
<event>
 6    0  0.8610502E+002  0.8873052E+02  0.7546771E-02  0.1305955E+00
         21   -1    0    0  504  501  0.00000000000E+00  0.00000000000E+00  0.62307454070E+03  0.62307454070E+03  0.00000000000E+00 0.  1.
         21   -1    0    0  505  502 -0.00000000000E+00 -0.00000000000E+00 -0.76446104403E+03  0.76446104403E+03  0.00000000000E+00 0.  1.
         21    1    1    2  503  501 -0.10216046705E+02 -0.28513979915E+02  0.12078816956E+02  0.32608472517E+02  0.00000000000E+00 0.  1.
         21    1    1    2  504  506 -0.60763275144E+02 -0.47493773323E+02  0.48374654547E+03  0.48985564645E+03  0.00000000000E+00 0.  1.
         21    1    1    2  505  503  0.91595931861E+02  0.79574672310E+01  0.93369450132E+02  0.13103812513E+03  0.00000000000E+00 0.  1.
         21    1    1    2  506  502 -0.20616610013E+02  0.68050286007E+02 -0.73058131589E+03  0.73403334063E+03  0.00000000000E+00 0.  1.
<scales pt_clust_3="30.28885" pt_clust_4="88.73052" pt_clust_5="14000.00000" pt_clust_6="71.03488"></scales>
<clustering>
<clus scale="   30.289">  1  3  2 -1</clus>
<clus scale="   71.035">  2  6  1 -1</clus>
<clus scale="   88.731">  1  4  2 -1</clus>
<clus scale="   30.289">  1  3  2 -1</clus>
</clustering>
</event>
<event>
 6    0  0.8610502E+002  0.1088663E+03  0.7546771E-02  0.1262684E+00
         21   -1    0    0  505  501  0.00000000000E+00  0.00000000000E+00  0.46807665794E+02  0.46807665794E+02  0.00000000000E+00 0.  1.
         21   -1    0    0  503  502 -0.00000000000E+00 -0.00000000000E+00 -0.86934453258E+03  0.86934453258E+03  0.00000000000E+00 0. -1.
         21    1    1    2  503  506 -0.28973125449E+02 -0.11803930192E+03 -0.59805743155E+03  0.61028305747E+03  0.00000000000E+00 0. -1.
         21    1    1    2  504  502  0.21419397811E+02  0.84102486358E+02 -0.16619805003E+03  0.18749349495E+03  0.00000000000E+00 0.  1.
         21    1    1    2  505  504 -0.10014887999E+02  0.61929228298E+02 -0.16058315860E+02  0.64756442209E+02  0.00000000000E+00 0.  1.
         21    1    1    2  506  501  0.17568615637E+02 -0.27992412732E+02 -0.42223069338E+02  0.53619203745E+02  0.00000000000E+00 0.  1.
<scales pt_clust_3="14000.00000" pt_clust_4="108.86625" pt_clust_5="45.35111" pt_clust_6="33.04892"></scales>
<clustering>
<clus scale="   33.049">  1  6  2 -1</clus>
<clus scale="   45.351">  1  5  2 -1</clus>
<clus scale="  108.866">  1  4  2 -1</clus>
<clus scale="   33.049">  1  3  2 -1</clus>
</clustering>
</event>
<event>
 6    0  0.8610502E+002  0.1253495E+03  0.7546771E-02  0.1234524E+00
         21   -1    0    0  504  501  0.00000000000E+00  0.00000000000E+00  0.18540367663E+03  0.18540367663E+03  0.00000000000E+00 0.  1.
         21   -1    0    0  506  502 -0.00000000000E+00 -0.00000000000E+00 -0.16849484757E+04  0.16849484757E+04  0.00000000000E+00 0. -1.
         21    1    1    2  503  505  0.35892856986E+01 -0.93365320979E+02 -0.21201527515E+03  0.23169040341E+03  0.00000000000E+00 0.  1.
         21    1    1    2  504  503 -0.11148256672E+03  0.75442192021E+02  0.11789049432E+03  0.17893589822E+03  0.00000000000E+00 0.  1.
         21    1    1    2  505  502  0.41421203176E+02 -0.14637327397E+02 -0.13811231816E+04  0.13818216999E+04  0.00000000000E+00 0. -1.
         21    1    1    2  506  501  0.66472077846E+02  0.32560456355E+02 -0.24296836645E+02  0.77904150866E+02  0.00000000000E+00 0. -1.
<scales pt_clust_3="125.34950" pt_clust_4="14000.00000" pt_clust_5="43.93139" pt_clust_6="79.37367"></scales>
<clustering>
<clus scale="   43.931">  2  5  1 -1</clus>
<clus scale="   79.374">  2  6  1 -1</clus>
<clus scale="  125.349">  2  3  1 -1</clus>
<clus scale="  125.349">  1  3  2 -1</clus>
</clustering>
</event>
<event>
 6    0  0.8610502E+002  0.1187745E+03  0.7546771E-02  0.1245132E+00
         21   -1    0    0  504  501  0.00000000000E+00  0.00000000000E+00  0.11625577892E+04  0.11625577892E+04  0.00000000000E+00 0. -1.
         21   -1    0    0  506  502 -0.00000000000E+00 -0.00000000000E+00 -0.45103286020E+03  0.45103286020E+03  0.00000000000E+00 0. -1.
         21    1    1    2  503  502  0.35798497085E+02 -0.18999714097E+02 -0.13492110964E+03  0.14087663878E+03  0.00000000000E+00 0. -1.
         21    1    1    2  504  505  0.43416644194E+00  0.12048591316E+03  0.11396924454E+04  0.11460435916E+04  0.00000000000E+00 0. -1.
         21    1    1    2  505  503 -0.19326567485E+02 -0.71039044141E+02 -0.72964947261E+02  0.10365300542E+03  0.00000000000E+00 0. -1.
         21    1    1    2  506  501 -0.16906096042E+02 -0.30447154926E+02 -0.22028145954E+03  0.22301741354E+03  0.00000000000E+00 0. -1.
<scales pt_clust_3="45.26279" pt_clust_4="14000.00000" pt_clust_5="118.77454" pt_clust_6="34.82593"></scales>
<clustering>
<clus scale="   34.826">  2  6  1 -1</clus>
<clus scale="   45.263">  2  3  1 -1</clus>
<clus scale="  118.775">  2  5  1 -1</clus>
<clus scale="  118.775">  1  3  2 -1</clus>
</clustering>
</event>
<event>
 6    0  0.8610502E+002  0.1526257E+03  0.7546771E-02  0.1197283E+00
         21   -1    0    0  503  501  0.00000000000E+00  0.00000000000E+00  0.39396899090E+03  0.39396899090E+03  0.00000000000E+00 0.  1.
         21   -1    0    0  504  502 -0.00000000000E+00 -0.00000000000E+00 -0.69534566701E+03  0.69534566701E+03  0.00000000000E+00 0.  1.
         21    1    1    2  503  502  0.10542770642E+03  0.10736446114E+03  0.36421292525E+03  0.39407256149E+03  0.00000000000E+00 0.  1.
         21    1    1    2  504  506 -0.14859446579E+02 -0.42986128033E+02 -0.42801132364E+03  0.43042107699E+03  0.00000000000E+00 0.  1.
         21    1    1    2  505  501 -0.43316348775E+02 -0.17517464175E+02 -0.66664612375E+02  0.81408464950E+02  0.00000000000E+00 0.  1.
         21    1    1    2  506  505 -0.47251911067E+02 -0.46860868936E+02 -0.17091366535E+03  0.18341255448E+03  0.00000000000E+00 0.  1.
<scales pt_clust_3="148.17235" pt_clust_4="45.48198" pt_clust_5="30.66785" pt_clust_6="30.66785"></scales>
<clustering>
<clus scale="   30.668">  5  6 -1 -1</clus>
<clus scale="   45.482">  2  4  1 -1</clus>
<clus scale="  148.172">  1  3  2 -1</clus>
<clus scale="  148.172">  1  3  2 -1</clus>
</clustering>
</event>
<event>
 6    0  0.8610502E+002  0.9907008E+02  0.7546771E-02  0.1282264E+00
         21   -1    0    0  505  501  0.00000000000E+00  0.00000000000E+00  0.11408621843E+04  0.11408621843E+04  0.00000000000E+00 0. -1.
         21   -1    0    0  506  502 -0.00000000000E+00 -0.00000000000E+00 -0.31822042749E+03  0.31822042749E+03  0.00000000000E+00 0. -1.
         21    1    1    2  503  501 -0.71390239203E+02 -0.40002699537E+02  0.69490574197E+02  0.10735791599E+03  0.00000000000E+00 0. -1.
         21    1    1    2  504  502  0.13836169183E+03 -0.40397612287E+00  0.43277876200E+03  0.45435842438E+03  0.00000000000E+00 0. -1.
         21    1    1    2  505  504 -0.38905915296E+02 -0.12044447781E+02  0.60511094394E+03  0.60648000251E+03  0.00000000000E+00 0. -1.
         21    1    1    2  506  503 -0.28065537334E+02  0.52451123441E+02 -0.28473852336E+03  0.29088626888E+03  0.00000000000E+00 0. -1.
<scales pt_clust_3="14000.00000" pt_clust_4="99.07008" pt_clust_5="40.72762" pt_clust_6="59.53265"></scales>
<clustering>
<clus scale="   40.728">  1  5  2 -1</clus>
<clus scale="   59.533">  2  6  1 -1</clus>
<clus scale="   99.070">  1  4  2 -1</clus>
<clus scale="   40.728">  1  3  2 -1</clus>
</clustering>
</event>
<event>
 6    0  0.8610502E+002  0.6728290E+02  0.7546771E-02  0.1369584E+00
         21   -1    0    0  505  501  0.00000000000E+00  0.00000000000E+00  0.62513081459E+02  0.62513081459E+02  0.00000000000E+00 0. -1.
         21   -1    0    0  504  502 -0.00000000000E+00 -0.00000000000E+00 -0.47417246776E+03  0.47417246776E+03  0.00000000000E+00 0. -1.
         21    1    1    2  503  502  0.50794696912E+02 -0.21645420690E+02 -0.17886970624E+03  0.18719774914E+03  0.00000000000E+00 0. -1.
         21    1    1    2  504  506 -0.61093706479E+02  0.77705950701E+02 -0.18132756794E+03  0.20651959384E+03  0.00000000000E+00 0. -1.
         21    1    1    2  505  503 -0.46832665443E+02 -0.53905962251E+02 -0.94743225738E+01  0.72034117659E+02  0.00000000000E+00 0. -1.
         21    1    1    2  506  501  0.57131675010E+02 -0.21545677591E+01 -0.41987789546E+02  0.70934088580E+02  0.00000000000E+00 0. -1.
<scales pt_clust_3="55.21436" pt_clust_4="62.57410" pt_clust_5="14000.00000" pt_clust_6="67.28290"></scales>
<clustering>
<clus scale="   55.214">  2  3  1 -1</clus>
<clus scale="   67.283">  1  6  2 -1</clus>
<clus scale="   62.574">  2  4  1 -1</clus>
<clus scale="   67.283">  1  3  2 -1</clus>
</clustering>
</event>
<event>
 6    0  0.8610502E+002  0.8393695E+02  0.7546771E-02  0.1318236E+00
         21   -1    0    0  506  501  0.00000000000E+00  0.00000000000E+00  0.77601420195E+02  0.77601420195E+02  0.00000000000E+00 0. -1.
         21   -1    0    0  503  502 -0.00000000000E+00 -0.00000000000E+00 -0.49656490746E+03  0.49656490746E+03  0.00000000000E+00 0. -1.
         21    1    1    2  503  504  0.45231109131E+02 -0.13784520239E+02 -0.32473194458E+03  0.32815652067E+03  0.00000000000E+00 0. -1.
         21    1    1    2  504  501  0.16840034224E+02  0.36813435522E+02 -0.33443756526E+02  0.52510005125E+02  0.00000000000E+00 0.  1.
         21    1    1    2  505  502  0.39670361075E+02 -0.53818983560E+02 -0.55798359462E+02  0.87084312353E+02  0.00000000000E+00 0. -1.
         21    1    1    2  506  505 -0.10174150443E+03  0.30790068277E+02 -0.49894267017E+01  0.10641548951E+03  0.00000000000E+00 0. -1.
<scales pt_clust_3="47.43094" pt_clust_4="40.48229" pt_clust_5="83.93695" pt_clust_6="14000.00000"></scales>
<clustering>
<clus scale="   40.482">  1  4  2 -1</clus>
<clus scale="   47.431">  2  3  1 -1</clus>
<clus scale="   83.937">  2  5  1 -1</clus>
<clus scale="   40.482">  1  3  2 -1</clus>
</clustering>
</event>
<event>
 6    0  0.8610502E+002  0.7768138E+02  0.7546771E-02  0.1335763E+00
         21   -1    0    0  505  501  0.00000000000E+00  0.00000000000E+00  0.60418239442E+03  0.60418239442E+03  0.00000000000E+00 0. -1.
         21   -1    0    0  503  502 -0.00000000000E+00 -0.00000000000E+00 -0.20335103725E+03  0.20335103725E+03  0.00000000000E+00 0. -1.
         21    1    1    2  503  504  0.27696381683E+01  0.48094895803E+02 -0.18740981835E+02  0.51691530235E+02  0.00000000000E+00 0.  1.
         21    1    1    2  504  501  0.11133823686E+03  0.21076460343E+01 -0.12842739213E+03  0.16998305859E+03  0.00000000000E+00 0. -1.
         21    1    1    2  505  506 -0.74536151118E+02 -0.19736426727E+02  0.52542544273E+03  0.53105278479E+03  0.00000000000E+00 0. -1.
         21    1    1    2  506  502 -0.39571723913E+02 -0.30466115111E+02  0.22574288403E+02  0.54806058062E+02  0.00000000000E+00 0. -1.
<scales pt_clust_3="48.17458" pt_clust_4="77.68138" pt_clust_5="14000.00000" pt_clust_6="47.04809"></scales>
<clustering>
<clus scale="   48.175">  2  3  1 -1</clus>
<clus scale="   47.048">  2  6  1 -1</clus>
<clus scale="   77.681">  2  4  1 -1</clus>
<clus scale="   77.681">  1  3  2 -1</clus>
</clustering>
</event>
<event>
 6    0  0.8610502E+002  0.1294550E+03  0.7546771E-02  0.1228267E+00
         21   -1    0    0  503  501  0.00000000000E+00  0.00000000000E+00  0.72356429128E+03  0.72356429128E+03  0.00000000000E+00 0. -1.
         21   -1    0    0  506  502 -0.00000000000E+00 -0.00000000000E+00 -0.28513890762E+03  0.28513890762E+03  0.00000000000E+00 0. -1.
         21    1    1    2  503  502  0.50314273271E+02  0.10189270854E+03  0.24734291166E+03  0.27219876212E+03  0.00000000000E+00 0. -1.
         21    1    1    2  504  505  0.19239463931E+02 -0.43882031250E+02  0.14478783065E+03  0.15251001785E+03  0.00000000000E+00 0. -1.
         21    1    1    2  505  501 -0.33771133512E+02 -0.81049458437E+02  0.30727143124E+03  0.31957039386E+03  0.00000000000E+00 0. -1.
         21    1    1    2  506  504 -0.35782603690E+02  0.23038781146E+02 -0.26097678990E+03  0.26442402506E+03  0.00000000000E+00 0. -1.
<scales pt_clust_3="118.63942" pt_clust_4="38.26577" pt_clust_5="38.26577" pt_clust_6="42.55796"></scales>
<clustering>
<clus scale="   38.266">  4  5 -1 -1</clus>
<clus scale="   42.558">  2  6  1 -1</clus>
<clus scale="  118.639">  2  3  1 -1</clus>
<clus scale="  129.455">  1  3  2 -1</clus>
</clustering>
</event>
<event>
 6    0  0.8610502E+002  0.9623217E+02  0.7546771E-02  0.1288425E+00
         21   -1    0    0  505  501  0.00000000000E+00  0.00000000000E+00  0.42731181308E+02  0.42731181308E+02  0.00000000000E+00 0.  1.
         21   -1    0    0  506  502 -0.00000000000E+00 -0.00000000000E+00 -0.74369206146E+03  0.74369206146E+03  0.00000000000E+00 0.  1.
         21    1    1    2  503  501  0.46239056612E+02 -0.41039078470E+02 -0.16752560139E+03  0.17856954790E+03  0.00000000000E+00 0.  1.
         21    1    1    2  504  502 -0.63020856271E+02 -0.63167468636E+02 -0.26642789462E+03  0.28097256174E+03  0.00000000000E+00 0.  1.
         21    1    1    2  505  504 -0.34344463350E+02  0.79313253664E+01  0.33182982269E+01  0.35404225567E+02  0.00000000000E+00 0.  1.
         21    1    1    2  506  503  0.51126263009E+02  0.96275221739E+02 -0.27032568237E+03  0.29147690756E+03  0.00000000000E+00 0.  1.
<scales pt_clust_3="54.65652" pt_clust_4="96.23217" pt_clust_5="35.24838" pt_clust_6="14000.00000"></scales>
<clustering>
<clus scale="   35.248">  1  5  2 -1</clus>
<clus scale="   54.657">  1  3  2 -1</clus>
<clus scale="   96.232">  2  4  1 -1</clus>
<clus scale="   35.248">  1  3  2 -1</clus>
</clustering>
</event>
<event>
 6    0  0.8610502E+002  0.1325830E+03  0.7546771E-02  0.1223673E+00
         21   -1    0    0  506  501  0.00000000000E+00  0.00000000000E+00  0.66874620785E+03  0.66874620785E+03  0.00000000000E+00 0.  1.
         21   -1    0    0  503  502 -0.00000000000E+00 -0.00000000000E+00 -0.22559730854E+03  0.22559730854E+03  0.00000000000E+00 0.  1.
         21    1    1    2  503  505 -0.27801414106E+02  0.93891827742E+02  0.92023474264E+02  0.13437601631E+03  0.00000000000E+00 0.  1.
         21    1    1    2  504  502 -0.48180009260E+02 -0.13778790372E+03 -0.14767685241E+03  0.20764217404E+03  0.00000000000E+00 0.  1.
         21    1    1    2  505  501  0.21027550507E+02  0.25450904613E+02  0.49296067001E+03  0.49406490323E+03  0.00000000000E+00 0.  1.
         21    1    1    2  506  504  0.54953872859E+02  0.18445171366E+02  0.58416074508E+01  0.58260422814E+02  0.00000000000E+00 0.  1.
<scales pt_clust_3="14000.00000" pt_clust_4="132.58295" pt_clust_5="33.01373" pt_clust_6="63.17477"></scales>
<clustering>
<clus scale="   33.014">  1  5  2 -1</clus>
<clus scale="   63.175">  1  6  2 -1</clus>
<clus scale="  132.583">  2  4  1 -1</clus>
<clus scale="   33.014">  1  3  2 -1</clus>
</clustering>
</event>
<event>
 6    0  0.8610502E+002  0.9176185E+02  0.7546771E-02  0.1298640E+00
         21   -1    0    0  504  501  0.00000000000E+00  0.00000000000E+00  0.89683236949E+03  0.89683236949E+03  0.00000000000E+00 0. -1.
         21   -1    0    0  503  502 -0.00000000000E+00 -0.00000000000E+00 -0.11581700265E+03  0.11581700265E+03  0.00000000000E+00 0. -1.
         21    1    1    2  503  505 -0.48004633647E+02  0.43258448191E+02 -0.48188007125E+02  0.80609070347E+02  0.00000000000E+00 0. -1.
         21    1    1    2  504  502  0.72331458148E+02  0.94329730028E+02  0.75225304693E+03  0.76158688567E+03  0.00000000000E+00 0. -1.
         21    1    1    2  505  506 -0.16316733845E+02 -0.10480170536E+03  0.25775904929E+02  0.10915141100E+03  0.00000000000E+00 0. -1.
         21    1    1    2  506  501 -0.80100906549E+01 -0.32786472861E+02  0.51174422104E+02  0.61302005128E+02  0.00000000000E+00 0.  1.
<scales pt_clust_3="64.31400" pt_clust_4="14000.00000" pt_clust_5="91.76185" pt_clust_6="33.75077"></scales>
<clustering>
<clus scale="   33.751">  1  6  2 -1</clus>
<clus scale="   64.314">  2  3  1 -1</clus>
<clus scale="   91.762">  2  5  1 -1</clus>
<clus scale="   33.751">  1  3  2 -1</clus>
</clustering>
</event>
<event>
 6    0  0.8610502E+002  0.1195412E+03  0.7546771E-02  0.1243856E+00
         21   -1    0    0  505  501  0.00000000000E+00  0.00000000000E+00  0.12836761695E+03  0.12836761695E+03  0.00000000000E+00 0. -1.
         21   -1    0    0  501  502 -0.00000000000E+00 -0.00000000000E+00 -0.44734376992E+03  0.44734376992E+03  0.00000000000E+00 0. -1.
         21    1    1    2  503  504  0.36536800612E+02  0.85680547152E+02 -0.79865706200E+02  0.12269729005E+03  0.00000000000E+00 0. -1.
         21    1    1    2  504  506 -0.19811697166E+02 -0.65900077281E+02 -0.13115515400E+03  0.14811143761E+03  0.00000000000E+00 0. -1.
         21    1    1    2  505  503  0.38488642976E+01  0.34546960032E+02  0.91119604383E+02  0.97524809699E+02  0.00000000000E+00 0. -1.
         21    1    1    2  506  502 -0.20573967744E+02 -0.54327429903E+02 -0.19907489715E+03  0.20737784951E+03  0.00000000000E+00 0. -1.
<scales pt_clust_3="114.25856" pt_clust_4="32.29035" pt_clust_5="34.76070" pt_clust_6="32.29035"></scales>
<clustering>
<clus scale="   32.290">  4  6 -1 -1</clus>
<clus scale="   34.761">  1  5  2 -1</clus>
<clus scale="  114.259">  1  3  2 -1</clus>
<clus scale="   34.761">  1  3  2 -1</clus>
</clustering>
</event>
<event>
 6    0  0.8610502E+002  0.1152288E+03  0.7546771E-02  0.1251182E+00
         21   -1    0    0  503  501  0.00000000000E+00  0.00000000000E+00  0.38287867407E+03  0.38287867407E+03  0.00000000000E+00 0. -1.
         21   -1    0    0  501  502 -0.00000000000E+00 -0.00000000000E+00 -0.49566955288E+03  0.49566955288E+03  0.00000000000E+00 0. -1.
         21    1    1    2  503  504 -0.54087672390E+02  0.51309585901E+02  0.13246203669E+03  0.15200112195E+03  0.00000000000E+00 0. -1.
         21    1    1    2  504  506 -0.76033190445E+02 -0.32260612220E+02  0.17884037342E+03  0.19699155392E+03  0.00000000000E+00 0. -1.
         21    1    1    2  505  502  0.14847964037E+02  0.35965917799E+02 -0.39710568495E+03  0.39900743639E+03  0.00000000000E+00 0. -1.
         21    1    1    2  506  505  0.11527289880E+03 -0.55014891479E+02 -0.26987603972E+02  0.13054811469E+03  0.00000000000E+00 0. -1.
<scales pt_clust_3="76.03915" pt_clust_4="14000.00000" pt_clust_5="38.91027" pt_clust_6="115.22884"></scales>
<clustering>
<clus scale="   38.910">  2  5  1 -1</clus>
<clus scale="   76.039">  1  3  2 -1</clus>
<clus scale="  115.229">  2  6  1 -1</clus>
<clus scale="   76.039">  1  3  2 -1</clus>
</clustering>
</event>
<event>
 6    0  0.8610502E+002  0.1420415E+03  0.7546771E-02  0.1210608E+00
         21   -1    0    0  505  501  0.00000000000E+00  0.00000000000E+00  0.12912313659E+03  0.12912313659E+03  0.00000000000E+00 0.  1.
         21   -1    0    0  503  502 -0.00000000000E+00 -0.00000000000E+00 -0.79599480717E+03  0.79599480717E+03  0.00000000000E+00 0.  1.
         21    1    1    2  503  506  0.14724105157E+03  0.22515735330E+02 -0.51778698437E+03  0.53878590069E+03  0.00000000000E+00 0.  1.
         21    1    1    2  504  502 -0.21011288630E+02 -0.41372456816E+02 -0.83126063064E+02  0.95200298284E+02  0.00000000000E+00 0.  1.
         21    1    1    2  505  504 -0.18063883714E+03 -0.24394311378E+02 -0.10605856370E+03  0.21088833738E+03  0.00000000000E+00 0.  1.
         21    1    1    2  506  501  0.54409074193E+02  0.43251032864E+02  0.40099940550E+02  0.80243407395E+02  0.00000000000E+00 0.  1.
<scales pt_clust_3="142.04149" pt_clust_4="46.40210" pt_clust_5="14000.00000" pt_clust_6="68.30946"></scales>
<clustering>
<clus scale="   46.402">  2  4  1 -1</clus>
<clus scale="   68.309">  1  6  2 -1</clus>
<clus scale="  142.041">  2  3  1 -1</clus>
<clus scale="   68.309">  1  3  2 -1</clus>
</clustering>
</event>
<event>
 6    0  0.8610502E+002  0.1163139E+03  0.7546771E-02  0.1249305E+00
         21   -1    0    0  506  501  0.00000000000E+00  0.00000000000E+00  0.13873576386E+03  0.13873576386E+03  0.00000000000E+00 0. -1.
         21   -1    0    0  505  502 -0.00000000000E+00 -0.00000000000E+00 -0.38384799198E+03  0.38384799198E+03  0.00000000000E+00 0. -1.
         21    1    1    2  503  501 -0.99872701281E+02 -0.60255697998E+02  0.34128242315E+02  0.12153206378E+03  0.00000000000E+00 0. -1.
         21    1    1    2  504  502  0.40734391236E+02 -0.39227332798E+01 -0.49848738008E+01  0.41225325136E+02  0.00000000000E+00 0. -1.
         21    1    1    2  505  503 -0.20560384862E+02 -0.24263323531E+02 -0.23096768650E+03  0.23314697189E+03  0.00000000000E+00 0.  1.
         21    1    1    2  506  504  0.79698694908E+02  0.88441754809E+02 -0.43287910139E+02  0.12667939504E+03  0.00000000000E+00 0. -1.
<scales pt_clust_3="116.31391" pt_clust_4="38.36823" pt_clust_5="31.80312" pt_clust_6="14000.00000"></scales>
<clustering>
<clus scale="   31.803">  2  5  1 -1</clus>
<clus scale="   38.368">  2  4  1 -1</clus>
<clus scale="  116.314">  1  3  2 -1</clus>
<clus scale="  116.314">  1  3  2 -1</clus>
</clustering>
</event>
<event>
 6    0  0.8610502E+002  0.1770414E+03  0.7546771E-02  0.1170698E+00
         21   -1    0    0  506  501  0.00000000000E+00  0.00000000000E+00  0.17437387496E+03  0.17437387496E+03  0.00000000000E+00 0. -1.
         21   -1    0    0  503  502 -0.00000000000E+00 -0.00000000000E+00 -0.36803039389E+03  0.36803039389E+03  0.00000000000E+00 0.  1.
         21    1    1    2  503  504 -0.12538579937E+03 -0.74428812235E+02  0.88866360664E+01  0.14608291849E+03  0.00000000000E+00 0. -1.
         21    1    1    2  504  501 -0.30094696477E+02 -0.92759500965E+01  0.64302677257E+02  0.71600058022E+02  0.00000000000E+00 0. -1.
         21    1    1    2  505  502  0.99517387729E+02  0.65470033747E+02 -0.21719734173E+03  0.24771903647E+03  0.00000000000E+00 0.  1.
         21    1    1    2  506  505  0.55963108121E+02  0.18234728584E+02 -0.49648490523E+02  0.77002255865E+02  0.00000000000E+00 0. -1.
<scales pt_clust_3="168.18771" pt_clust_4="31.49181" pt_clust_5="38.20304" pt_clust_6="38.20304"></scales>
<clustering>
<clus scale="   31.492">  1  4  2 -1</clus>
<clus scale="   38.203">  5  6 -1 -1</clus>
<clus scale="  168.188">  1  3  2 -1</clus>
<clus scale="   31.492">  1  3  2 -1</clus>
</clustering>
</event>
<event>
 6    0  0.8610502E+002  0.9506735E+02  0.7546771E-02  0.1291024E+00
         21   -1    0    0  504  501  0.00000000000E+00  0.00000000000E+00  0.25801695982E+04  0.25801695982E+04  0.00000000000E+00 0.  1.
         21   -1    0    0  506  502 -0.00000000000E+00 -0.00000000000E+00 -0.21230039311E+03  0.21230039311E+03  0.00000000000E+00 0.  1.
         21    1    1    2  503  505  0.85672222297E+02  0.96593884170E+02  0.16252097224E+04  0.16303302579E+04  0.00000000000E+00 0.  1.
         21    1    1    2  504  502 -0.39537940550E+01 -0.41184150993E+02  0.49418708523E+03  0.49591596263E+03  0.00000000000E+00 0.  1.
         21    1    1    2  505  501 -0.37236460211E+02  0.28379624956E+02  0.44528603859E+03  0.44774056466E+03  0.00000000000E+00 0. -1.
         21    1    1    2  506  503 -0.44481968030E+02 -0.83789358133E+02 -0.19681364113E+03  0.21848320610E+03  0.00000000000E+00 0.  1.
<scales pt_clust_3="14000.00000" pt_clust_4="41.37350" pt_clust_5="42.81275" pt_clust_6="95.06735"></scales>
<clustering>
<clus scale="   41.374">  1  4  2 -1</clus>
<clus scale="   42.813">  1  5  2 -1</clus>
<clus scale="   95.067">  2  6  1 -1</clus>
<clus scale="   41.374">  1  3  2 -1</clus>
</clustering>
</event>
<event>
 6    0  0.8610502E+002  0.1090885E+03  0.7546771E-02  0.1262267E+00
         21   -1    0    0  503  501  0.00000000000E+00  0.00000000000E+00  0.92970148333E+02  0.92970148333E+02  0.00000000000E+00 0. -1.
         21   -1    0    0  505  502 -0.00000000000E+00 -0.00000000000E+00 -0.97453566706E+03  0.97453566706E+03  0.00000000000E+00 0.  1.
         21    1    1    2  503  502 -0.50902654965E+02 -0.84404696937E+01 -0.51883645236E+03  0.52139580562E+03  0.00000000000E+00 0.  1.
         21    1    1    2  504  501  0.50458444532E+02  0.10959220718E+03  0.38392768602E+02  0.12661165500E+03  0.00000000000E+00 0. -1.
         21    1    1    2  505  506 -0.31215070614E+02 -0.32411012322E+02 -0.18890812043E+03  0.19419354345E+03  0.00000000000E+00 0.  1.
         21    1    1    2  506  504  0.31659281047E+02 -0.68740725167E+02 -0.21221371453E+03  0.22530481133E+03  0.00000000000E+00 0. -1.
<scales pt_clust_3="77.65448" pt_clust_4="14000.00000" pt_clust_5="44.99838" pt_clust_6="109.08854"></scales>
<clustering>
<clus scale="   44.998">  2  5  1 -1</clus>
<clus scale="   77.654">  2  3  1 -1</clus>
<clus scale="  109.089">  2  6  1 -1</clus>
<clus scale="  109.089">  1  3  2 -1</clus>
</clustering>
</event>
<event>
 6    0  0.8610502E+002  0.8254889E+02  0.7546771E-02  0.1321970E+00
         21   -1    0    0  503  501  0.00000000000E+00  0.00000000000E+00  0.36151555947E+03  0.36151555947E+03  0.00000000000E+00 0.  1.
         21   -1    0    0  506  502 -0.00000000000E+00 -0.00000000000E+00 -0.70550557135E+02  0.70550557135E+02  0.00000000000E+00 0.  1.
         21    1    1    2  503  504  0.70616998542E+02  0.25466718427E+01  0.15350719150E+03  0.16899024784E+03  0.00000000000E+00 0.  1.
         21    1    1    2  504  502 -0.45605282548E+00 -0.92222040736E+02  0.72929252774E+02  0.11757460904E+03  0.00000000000E+00 0.  1.
         21    1    1    2  505  501 -0.75451526822E+02  0.56799537782E+02  0.60017551574E+02  0.11189828814E+03  0.00000000000E+00 0.  1.
         21    1    1    2  506  505  0.52905811057E+01  0.32875831112E+02  0.45110064833E+01  0.33602971583E+02  0.00000000000E+00 0.  1.
<scales pt_clust_3="71.69983" pt_clust_4="14000.00000" pt_clust_5="82.54889" pt_clust_6="33.29881"></scales>
<clustering>
<clus scale="   33.299">  2  6  1 -1</clus>
<clus scale="   71.700">  1  3  2 -1</clus>
<clus scale="   82.549">  1  5  2 -1</clus>
<clus scale="   71.700">  1  3  2 -1</clus>
</clustering>
</event>
<event>
 6    0  0.8610502E+002  0.8153517E+02  0.7546771E-02  0.1324750E+00
         21   -1    0    0  506  501  0.00000000000E+00  0.00000000000E+00  0.51493132758E+02  0.51493132758E+02  0.00000000000E+00 0.  1.
         21   -1    0    0  505  502 -0.00000000000E+00 -0.00000000000E+00 -0.85681442086E+03  0.85681442086E+03  0.00000000000E+00 0.  1.
         21    1    1    2  503  504  0.11681086594E+02 -0.52908416614E+02 -0.64489715343E+02  0.84229874259E+02  0.00000000000E+00 0.  1.
         21    1    1    2  504  501  0.28568081603E+02  0.14394071419E+02  0.22280535173E+02  0.38983930357E+02  0.00000000000E+00 0.  1.
         21    1    1    2  505  503 -0.52910940736E+02 -0.51058543514E+02 -0.17139513039E+03  0.18650156363E+03  0.00000000000E+00 0.  1.
         21    1    1    2  506  502  0.12661772539E+02  0.89572888709E+02 -0.59171697754E+03  0.59859218536E+03  0.00000000000E+00 0.  1.
<scales pt_clust_3="52.53527" pt_clust_4="31.98944" pt_clust_5="14000.00000" pt_clust_6="81.53517"></scales>
<clustering>
<clus scale="   31.989">  1  4  2 -1</clus>
<clus scale="   52.535">  1  3  2 -1</clus>
<clus scale="   81.535">  2  6  1 -1</clus>
<clus scale="   31.989">  1  3  2 -1</clus>
</clustering>
</event>
<event>
 6    0  0.8610502E+002  0.7892011E+02  0.7546771E-02  0.1332144E+00
         21   -1    0    0  503  501  0.00000000000E+00  0.00000000000E+00  0.95828196160E+03  0.95828196160E+03  0.00000000000E+00 0. -1.
         21   -1    0    0  504  502 -0.00000000000E+00 -0.00000000000E+00 -0.36222887245E+02  0.36222887245E+02  0.00000000000E+00 0. -1.
         21    1    1    2  503  505  0.68656599252E+02  0.10257249291E+02  0.14740646192E+03  0.16293435733E+03  0.00000000000E+00 0. -1.
         21    1    1    2  504  506 -0.17624633115E+02  0.30427705642E+02  0.57634431999E+02  0.67514448194E+02  0.00000000000E+00 0. -1.
         21    1    1    2  505  502  0.28150113199E+02 -0.70241510808E+02  0.47763128750E+02  0.89485279134E+02  0.00000000000E+00 0. -1.
         21    1    1    2  506  501 -0.79182079336E+02  0.29556555875E+02  0.66925505169E+03  0.67457076418E+03  0.00000000000E+00 0. -1.
<scales pt_clust_3="14000.00000" pt_clust_4="35.16352" pt_clust_5="52.57316" pt_clust_6="78.92011"></scales>
<clustering>
<clus scale="   35.164">  2  4  1 -1</clus>
<clus scale="   52.573">  2  5  1 -1</clus>
<clus scale="   78.920">  1  6  2 -1</clus>
<clus scale="   78.920">  1  3  2 -1</clus>
</clustering>
</event>
<event>
 6    0  0.8610502E+002  0.9425940E+02  0.7546771E-02  0.1292853E+00
         21   -1    0    0  504  501  0.00000000000E+00  0.00000000000E+00  0.65432823064E+02  0.65432823064E+02  0.00000000000E+00 0. -1.
         21   -1    0    0  506  502 -0.00000000000E+00 -0.00000000000E+00 -0.37988318472E+03  0.37988318472E+03  0.00000000000E+00 0. -1.
         21    1    1    2  503  501 -0.29707968599E+02  0.75020212116E+01 -0.89360614601E+01  0.31917031738E+02  0.00000000000E+00 0. -1.
         21    1    1    2  504  502 -0.52720767018E+02 -0.89026995841E+02 -0.25495703296E+03  0.27515154718E+03  0.00000000000E+00 0. -1.
         21    1    1    2  505  503  0.14092474819E+02  0.37991257631E+02  0.37687644921E+01  0.40695664249E+02  0.00000000000E+00 0. -1.
         21    1    1    2  506  505  0.68336260798E+02  0.43533716998E+02 -0.54326031735E+02  0.97551764616E+02  0.00000000000E+00 0. -1.
<scales pt_clust_3="30.64056" pt_clust_4="94.25940" pt_clust_5="41.12476" pt_clust_6="14000.00000"></scales>
<clustering>
<clus scale="   30.641">  1  3  2 -1</clus>
<clus scale="   41.125">  1  5  2 -1</clus>
<clus scale="   94.259">  2  4  1 -1</clus>
<clus scale="   30.641">  1  3  2 -1</clus>
</clustering>
</event>
<event>
 6    0  0.8610502E+002  0.2034018E+03  0.7546771E-02  0.1146900E+00
         21   -1    0    0  504  501  0.00000000000E+00  0.00000000000E+00  0.78795383499E+03  0.78795383499E+03  0.00000000000E+00 0. -1.
         21   -1    0    0  505  502 -0.00000000000E+00 -0.00000000000E+00 -0.91810744707E+03  0.91810744707E+03  0.00000000000E+00 0. -1.
         21    1    1    2  503  502  0.60359101636E+02 -0.76472503807E+01 -0.10204967186E+03  0.11881008845E+03  0.00000000000E+00 0. -1.
         21    1    1    2  504  503  0.74953110853E+02 -0.57757768101E+02 -0.65452214066E+02  0.11505616424E+03  0.00000000000E+00 0. -1.
         21    1    1    2  505  506  0.29852973547E+02 -0.40082844874E+02 -0.70380080124E+03  0.70557310203E+03  0.00000000000E+00 0. -1.
         21    1    1    2  506  501 -0.16516518604E+03  0.10548786336E+03  0.74114907508E+03  0.76662192735E+03  0.00000000000E+00 0. -1.
<scales pt_clust_3="53.36140" pt_clust_4="53.36140" pt_clust_5="49.97834" pt_clust_6="193.19151"></scales>
<clustering>
<clus scale="   49.978">  2  5  1 -1</clus>
<clus scale="   53.361">  3  4 -1 -1</clus>
<clus scale="  193.192">  1  6  2 -1</clus>
<clus scale="  193.192">  1  3  2 -1</clus>
</clustering>
</event>
<event>
 6    0  0.8610502E+002  0.8376367E+02  0.7546771E-02  0.1318698E+00
         21   -1    0    0  503  501  0.00000000000E+00  0.00000000000E+00  0.13774363614E+04  0.13774363614E+04  0.00000000000E+00 0. -1.
         21   -1    0    0  504  502 -0.00000000000E+00 -0.00000000000E+00 -0.35906251819E+02  0.35906251819E+02  0.00000000000E+00 0.  1.
         21    1    1    2  503  506 -0.84777784863E+02 -0.10720912494E+02  0.16929744854E+03  0.18964133740E+03  0.00000000000E+00 0.  1.
         21    1    1    2  504  505 -0.37012586702E+02  0.41795124089E+02  0.11459710220E+03  0.12747258452E+03  0.00000000000E+00 0.  1.
         21    1    1    2  505  501  0.80612119970E+02 -0.25755803251E+02  0.10507367533E+04  0.10541391749E+04  0.00000000000E+00 0. -1.
         21    1    1    2  506  502  0.41178251595E+02 -0.53184083441E+01  0.68988055159E+01  0.42089516383E+02  0.00000000000E+00 0.  1.
<scales pt_clust_3="14000.00000" pt_clust_4="45.84605" pt_clust_5="83.76367" pt_clust_6="41.52028"></scales>
<clustering>
<clus scale="   41.520">  2  6  1 -1</clus>
<clus scale="   45.846">  2  4  1 -1</clus>
<clus scale="   83.764">  1  5  2 -1</clus>
<clus scale="   83.764">  1  3  2 -1</clus>
</clustering>
</event>
<event>
 6    0  0.8610502E+002  0.7700903E+02  0.7546771E-02  0.1337760E+00
         21   -1    0    0  505  501  0.00000000000E+00  0.00000000000E+00  0.83495594580E+03  0.83495594580E+03  0.00000000000E+00 0. -1.
         21   -1    0    0  503  502 -0.00000000000E+00 -0.00000000000E+00 -0.12889440606E+03  0.12889440606E+03  0.00000000000E+00 0. -1.
         21    1    1    2  503  506 -0.34772786596E+02 -0.35140489666E+02 -0.94286497320E+02  0.10646099886E+03  0.00000000000E+00 0. -1.
         21    1    1    2  504  502  0.88485698322E+02  0.65688748646E+02  0.12195778064E+03  0.16437284072E+03  0.00000000000E+00 0. -1.
         21    1    1    2  505  504  0.39749738864E+02 -0.86467515248E+01  0.12771875470E+03  0.13404062203E+03  0.00000000000E+00 0. -1.
         21    1    1    2  506  501 -0.93462650591E+02 -0.21901507456E+02  0.55067150173E+03  0.55897589026E+03  0.00000000000E+00 0. -1.
<scales pt_clust_3="49.24914" pt_clust_4="77.00903" pt_clust_5="40.67933" pt_clust_6="14000.00000"></scales>
<clustering>
<clus scale="   40.679">  1  5  2 -1</clus>
<clus scale="   49.249">  2  3  1 -1</clus>
<clus scale="   77.009">  2  4  1 -1</clus>
<clus scale="   40.679">  1  3  2 -1</clus>
</clustering>
</event>
<event>
 6    0  0.8610502E+002  0.1537360E+03  0.7546771E-02  0.1195956E+00
         21   -1    0    0  503  501  0.00000000000E+00  0.00000000000E+00  0.13658729461E+03  0.13658729461E+03  0.00000000000E+00 0. -1.
         21   -1    0    0  504  502 -0.00000000000E+00 -0.00000000000E+00 -0.97807261469E+03  0.97807261469E+03  0.00000000000E+00 0.  1.
         21    1    1    2  503  506  0.98965349923E+02 -0.97559996631E+02 -0.16035853321E+03  0.21219555274E+03  0.00000000000E+00 0.  1.
         21    1    1    2  504  505 -0.63354183843E+02  0.21739822732E+03 -0.10556361232E+03  0.24983878422E+03  0.00000000000E+00 0. -1.
         21    1    1    2  505  501 -0.31294677503E+02  0.26033207815E+02  0.15691600524E+02  0.43626953551E+02  0.00000000000E+00 0. -1.
         21    1    1    2  506  502 -0.43164885774E+01 -0.14587143851E+03 -0.59125477507E+03  0.60899861880E+03  0.00000000000E+00 0.  1.
<scales pt_clust_3="129.13860" pt_clust_4="14000.00000" pt_clust_5="40.70731" pt_clust_6="153.73599"></scales>
<clustering>
<clus scale="   40.707">  1  5  2 -1</clus>
<clus scale="  129.139">  1  3  2 -1</clus>
<clus scale="  153.736">  2  6  1 -1</clus>
<clus scale="   40.707">  1  3  2 -1</clus>
</clustering>
</event>
<event>
 6    0  0.8610502E+002  0.1209512E+03  0.7546771E-02  0.1241536E+00
         21   -1    0    0  506  501  0.00000000000E+00  0.00000000000E+00  0.61314524141E+03  0.61314524141E+03  0.00000000000E+00 0.  1.
         21   -1    0    0  504  502 -0.00000000000E+00 -0.00000000000E+00 -0.15268853001E+03  0.15268853001E+03  0.00000000000E+00 0.  1.
         21    1    1    2  503  501 -0.33095316810E+02  0.17794206706E+02  0.20768918356E+03  0.21106096454E+03  0.00000000000E+00 0.  1.
         21    1    1    2  504  503 -0.10110835327E+03 -0.52920159852E+02  0.21311012040E+03  0.24174235425E+03  0.00000000000E+00 0.  1.
         21    1    1    2  505  502  0.42819964518E+02 -0.53313993110E+02 -0.10191332178E+03  0.12272838457E+03  0.00000000000E+00 0.  1.
         21    1    1    2  506  505  0.91383705563E+02  0.88439946256E+02  0.14157072922E+03  0.19030206806E+03  0.00000000000E+00 0.  1.
<scales pt_clust_3="37.57571" pt_clust_4="120.95123" pt_clust_5="67.49005" pt_clust_6="14000.00000"></scales>
<clustering>
<clus scale="   37.576">  1  3  2 -1</clus>
<clus scale="   67.490">  2  5  1 -1</clus>
<clus scale="  120.951">  1  4  2 -1</clus>
<clus scale="   37.576">  1  3  2 -1</clus>
</clustering>
</event>
<event>
 6    0  0.8610502E+002  0.1426788E+03  0.7546771E-02  0.1209769E+00
         21   -1    0    0  503  501  0.00000000000E+00  0.00000000000E+00  0.10649960531E+04  0.10649960531E+04  0.00000000000E+00 0. -1.
         21   -1    0    0  506  502 -0.00000000000E+00 -0.00000000000E+00 -0.32695627394E+03  0.32695627394E+03  0.00000000000E+00 0.  1.
         21    1    1    2  503  504 -0.51992385388E+02 -0.10072936525E+03  0.91640625134E+03  0.92339050822E+03  0.00000000000E+00 0. -1.
         21    1    1    2  504  502 -0.20761958892E+02  0.14209102278E+03 -0.28887574867E+03  0.32259900164E+03  0.00000000000E+00 0.  1.
         21    1    1    2  505  501  0.43646699704E+02 -0.75355570898E+01  0.28712739523E+02  0.52784850352E+02  0.00000000000E+00 0. -1.
         21    1    1    2  506  505  0.29107644576E+02 -0.33826100437E+02  0.81796537001E+02  0.93177966864E+02  0.00000000000E+00 0.  1.
<scales pt_clust_3="14000.00000" pt_clust_4="142.67877" pt_clust_5="44.29243" pt_clust_6="47.60622"></scales>
<clustering>
<clus scale="   44.292">  1  5  2 -1</clus>
<clus scale="   47.606">  1  6  2 -1</clus>
<clus scale="  142.679">  2  4  1 -1</clus>
<clus scale="   44.292">  1  3  2 -1</clus>
</clustering>
</event>
<event>
 6    0  0.8610502E+002  0.1291719E+03  0.7546771E-02  0.1228690E+00
         21   -1    0    0  506  501  0.00000000000E+00  0.00000000000E+00  0.40992220181E+03  0.40992220181E+03  0.00000000000E+00 0.  1.
         21   -1    0    0  504  502 -0.00000000000E+00 -0.00000000000E+00 -0.43234344273E+03  0.43234344273E+03  0.00000000000E+00 0. -1.
         21    1    1    2  503  505  0.30493003257E+02  0.59599620572E+02 -0.92326132781E+02  0.11404408277E+03  0.00000000000E+00 0.  1.
         21    1    1    2  504  501 -0.35047401759E+02 -0.63080791711E+02 -0.13347579859E+03  0.15173429231E+03  0.00000000000E+00 0. -1.
         21    1    1    2  505  502 -0.18302738305E+02  0.11637692141E+03 -0.15806161896E+03  0.19713460745E+03  0.00000000000E+00 0. -1.
         21    1    1    2  506  503  0.22857136807E+02 -0.11289575027E+03  0.36144230942E+03  0.37935266200E+03  0.00000000000E+00 0.  1.
<scales pt_clust_3="41.43940" pt_clust_4="72.16306" pt_clust_5="41.43940" pt_clust_6="116.89131"></scales>
<clustering>
<clus scale="   41.439">  3  5 -1 -1</clus>
<clus scale="   72.163">  2  4  1 -1</clus>
<clus scale="  116.891">  1  6  2 -1</clus>
<clus scale="  116.891">  1  3  2 -1</clus>
</clustering>
</event>
<event>
 6    0  0.8610502E+002  0.1550422E+03  0.7546771E-02  0.1194411E+00
         21   -1    0    0  505  501  0.00000000000E+00  0.00000000000E+00  0.59361598347E+03  0.59361598347E+03  0.00000000000E+00 0.  1.
         21   -1    0    0  506  502 -0.00000000000E+00 -0.00000000000E+00 -0.27043071007E+03  0.27043071007E+03  0.00000000000E+00 0.  1.
         21    1    1    2  503  502  0.88825295284E+02 -0.69017638681E+02 -0.17786900144E+03  0.21045367473E+03  0.00000000000E+00 0.  1.
         21    1    1    2  504  503  0.43375211384E+02  0.81682551340E+01 -0.52627425769E+02  0.68686063344E+02  0.00000000000E+00 0.  1.
         21    1    1    2  505  504 -0.80025027630E+02  0.39472583527E+02  0.49703614151E+03  0.50498219361E+03  0.00000000000E+00 0.  1.
         21    1    1    2  506  501 -0.52175479039E+02  0.21376800020E+02  0.56645559106E+02  0.79924761860E+02  0.00000000000E+00 0.  1.
<scales pt_clust_3="37.64027" pt_clust_4="37.64027" pt_clust_5="142.92411" pt_clust_6="56.38482"></scales>
<clustering>
<clus scale="   37.640">  3  4 -1 -1</clus>
<clus scale="   56.385">  1  6  2 -1</clus>
<clus scale="  142.924">  1  5  2 -1</clus>
<clus scale="   56.385">  1  3  2 -1</clus>
</clustering>
</event>
<event>
 6    0  0.8610502E+002  0.8135103E+02  0.7546771E-02  0.1325261E+00
         21   -1    0    0  506  501  0.00000000000E+00  0.00000000000E+00  0.69875887211E+03  0.69875887211E+03  0.00000000000E+00 0. -1.
         21   -1    0    0  504  502 -0.00000000000E+00 -0.00000000000E+00 -0.63862880051E+02  0.63862880051E+02  0.00000000000E+00 0. -1.
         21    1    1    2  503  501 -0.17853738381E+02 -0.28661719308E+02  0.16967358870E+03  0.17300108910E+03  0.00000000000E+00 0. -1.
         21    1    1    2  504  503 -0.91252900252E+02 -0.28866092813E+02  0.98662209393E+02  0.13745753774E+03  0.00000000000E+00 0. -1.
         21    1    1    2  505  502  0.47474996564E+02 -0.26183808152E+02 -0.15358345969E+02  0.56350207621E+02  0.00000000000E+00 0. -1.
         21    1    1    2  506  505  0.61631642070E+02  0.83711620272E+02  0.38191853993E+03  0.39581291770E+03  0.00000000000E+00 0. -1.
<scales pt_clust_3="33.76759" pt_clust_4="81.35103" pt_clust_5="54.16308" pt_clust_6="14000.00000"></scales>
<clustering>
<clus scale="   33.768">  1  3  2 -1</clus>
<clus scale="   54.163">  2  5  1 -1</clus>
<clus scale="   81.351">  2  4  1 -1</clus>
<clus scale="   33.768">  1  3  2 -1</clus>
</clustering>
</event>
<event>
 6    0  0.8610502E+002  0.1113363E+03  0.7546771E-02  0.1258115E+00
         21   -1    0    0  504  501  0.00000000000E+00  0.00000000000E+00  0.20670244998E+04  0.20670244998E+04  0.00000000000E+00 0.  1.
         21   -1    0    0  505  502 -0.00000000000E+00 -0.00000000000E+00 -0.19564497160E+03  0.19564497160E+03  0.00000000000E+00 0. -1.
         21    1    1    2  503  506  0.48148411217E+02  0.12940418489E+02 -0.14870613833E+01  0.49879206940E+02  0.00000000000E+00 0. -1.
         21    1    1    2  504  503 -0.75089045518E+02  0.83851660117E+02  0.20100020593E+04  0.20131511975E+04  0.00000000000E+00 0.  1.
         21    1    1    2  505  501 -0.11300336057E+02 -0.86426626188E+02 -0.42350262169E+02  0.96906160872E+02  0.00000000000E+00 0. -1.
         21    1    1    2  506  502  0.38240970359E+02 -0.10365452418E+02 -0.94785207560E+02  0.10273290607E+03  0.00000000000E+00 0. -1.
<scales pt_clust_3="59.17008" pt_clust_4="14000.00000" pt_clust_5="111.33628" pt_clust_6="39.62088"></scales>
<clustering>
<clus scale="   39.621">  2  6  1 -1</clus>
<clus scale="   59.170">  2  3  1 -1</clus>
<clus scale="  111.336">  2  5  1 -1</clus>
<clus scale="  111.336">  1  3  2 -1</clus>
</clustering>
</event>
<event>
 6    0  0.8610502E+002  0.1977672E+03  0.7546771E-02  0.1151637E+00
         21   -1    0    0  504  501  0.00000000000E+00  0.00000000000E+00  0.47832255820E+03  0.47832255820E+03  0.00000000000E+00 0. -1.
         21   -1    0    0  506  502 -0.00000000000E+00 -0.00000000000E+00 -0.23251541500E+03  0.23251541500E+03  0.00000000000E+00 0.  1.
         21    1    1    2  503  502 -0.26377791645E+02  0.37262570627E+02 -0.52722252092E+02  0.69741830542E+02  0.00000000000E+00 0.  1.
         21    1    1    2  504  503 -0.98541395816E+02  0.14776133138E+03  0.35685165792E+03  0.39860622612E+03  0.00000000000E+00 0. -1.
         21    1    1    2  505  501  0.10054791421E+03 -0.11213973846E+03 -0.84049476884E+01  0.15085041312E+03  0.00000000000E+00 0.  1.
         21    1    1    2  506  505  0.24371273250E+02 -0.72884163546E+02 -0.49917314943E+02  0.91639503419E+02  0.00000000000E+00 0. -1.
<scales pt_clust_3="45.65399" pt_clust_4="183.16835" pt_clust_5="50.34368" pt_clust_6="50.34368"></scales>
<clustering>
<clus scale="   45.654">  2  3  1 -1</clus>
<clus scale="   50.344">  5  6 -1 -1</clus>
<clus scale="  183.168">  1  4  2 -1</clus>
<clus scale="  183.168">  1  3  2 -1</clus>
</clustering>
</event>
<event>
 6    0  0.2523455E+003  0.1758091E+03  0.7546771E-02  0.1171922E+00
         21   -1    0    0  506  501  0.00000000000E+00  0.00000000000E+00  0.70654822171E+03  0.70654822171E+03  0.00000000000E+00 0. -1.
         21   -1    0    0  505  502 -0.00000000000E+00 -0.00000000000E+00 -0.96459585354E+03  0.96459585354E+03  0.00000000000E+00 0.  1.
         21    1    1    2  503  504  0.99480187826E+02  0.11681426087E+02 -0.73307827064E+02  0.12412413542E+03  0.00000000000E+00 0. -1.
         21    1    1    2  504  502  0.89530466839E+02  0.34859317394E+02 -0.84397455273E+03  0.84942564251E+03  0.00000000000E+00 0.  1.
         21    1    1    2  505  501 -0.30983712586E+02 -0.88007266974E+00  0.18533417704E+02  0.36114436799E+02  0.00000000000E+00 0. -1.
         21    1    1    2  506  503 -0.15802694208E+03 -0.45660670811E+02  0.64070133026E+03  0.66147986052E+03  0.00000000000E+00 0. -1.
<scales pt_clust_3="175.80914" pt_clust_4="95.96032" pt_clust_5="30.99621" pt_clust_6="14000.00000"></scales>
<clustering>
<clus scale="   30.996">  1  5  2 -1</clus>
<clus scale="   95.960">  2  4  1 -1</clus>
<clus scale="  175.809">  2  3  1 -1</clus>
<clus scale="   30.996">  1  3  2 -1</clus>
</clustering>
</event>
<event>
 6    0  0.8610502E+002  0.7952925E+02  0.7546771E-02  0.1330393E+00
         21   -1    0    0  503  501  0.00000000000E+00  0.00000000000E+00  0.16353876965E+04  0.16353876965E+04  0.00000000000E+00 0. -1.
         21   -1    0    0  504  502 -0.00000000000E+00 -0.00000000000E+00 -0.27852953919E+02  0.27852953919E+02  0.00000000000E+00 0. -1.
         21    1    1    2  503  505 -0.66231621952E+02 -0.34654553323E+02  0.98047774880E+03  0.98332303019E+03  0.00000000000E+00 0. -1.
         21    1    1    2  504  506  0.30904350604E+02 -0.11214576526E+02  0.10791945309E+02  0.34602192076E+02  0.00000000000E+00 0.  1.
         21    1    1    2  505  502 -0.66766011562E+02 -0.10155598728E+02  0.31863895996E+03  0.32571709087E+03  0.00000000000E+00 0. -1.
         21    1    1    2  506  501  0.10209328291E+03  0.56024728577E+02  0.29762608855E+03  0.31959833732E+03  0.00000000000E+00 0. -1.
<scales pt_clust_3="14000.00000" pt_clust_4="32.87622" pt_clust_5="61.22769" pt_clust_6="79.52925"></scales>
<clustering>
<clus scale="   32.876">  2  4  1 -1</clus>
<clus scale="   61.228">  2  5  1 -1</clus>
<clus scale="   79.529">  2  6  1 -1</clus>
<clus scale="   79.529">  1  3  2 -1</clus>
</clustering>
</event>
<event>
 6    0  0.8610502E+002  0.1772321E+03  0.7546771E-02  0.1170509E+00
         21   -1    0    0  503  501  0.00000000000E+00  0.00000000000E+00  0.86358875902E+03  0.86358875902E+03  0.00000000000E+00 0.  1.
         21   -1    0    0  506  502 -0.00000000000E+00 -0.00000000000E+00 -0.37811827871E+03  0.37811827871E+03  0.00000000000E+00 0. -1.
         21    1    1    2  503  504 -0.11036381788E+03  0.14296193959E+03  0.69415362171E+03  0.71726392562E+03  0.00000000000E+00 0.  1.
         21    1    1    2  504  505  0.56598812531E+02 -0.15915247376E+03  0.84192286544E+02  0.18873599709E+03  0.00000000000E+00 0.  1.
         21    1    1    2  505  502  0.34126941202E+02 -0.11971602464E+02 -0.29870174013E+03  0.30088319484E+03  0.00000000000E+00 0. -1.
         21    1    1    2  506  501  0.19638064146E+02  0.28162136633E+02  0.58263121741E+01  0.34823920180E+02  0.00000000000E+00 0.  1.
<scales pt_clust_3="177.23215" pt_clust_4="14000.00000" pt_clust_5="51.55956" pt_clust_6="34.33307"></scales>
<clustering>
<clus scale="   34.333">  2  6  1 -1</clus>
<clus scale="   51.560">  2  5  1 -1</clus>
<clus scale="  177.232">  1  3  2 -1</clus>
<clus scale="  177.232">  1  3  2 -1</clus>
</clustering>
</event>
<event>
 6    0  0.8610502E+002  0.1355087E+03  0.7546771E-02  0.1219503E+00
         21   -1    0    0  505  501  0.00000000000E+00  0.00000000000E+00  0.29276897017E+02  0.29276897017E+02  0.00000000000E+00 0.  1.
         21   -1    0    0  503  502 -0.00000000000E+00 -0.00000000000E+00 -0.28347352868E+04  0.28347352868E+04  0.00000000000E+00 0.  1.
         21    1    1    2  503  504 -0.19338220914E+02  0.32230746941E+02 -0.39403748073E+02  0.54455883049E+02  0.00000000000E+00 0.  1.
         21    1    1    2  504  501 -0.11964882619E+03  0.19387569196E+02 -0.19650651185E+03  0.23088206653E+03  0.00000000000E+00 0.  1.
         21    1    1    2  505  506  0.64445525117E+02 -0.47360692990E+02 -0.40403836928E+03  0.41187773040E+03  0.00000000000E+00 0.  1.
         21    1    1    2  506  502  0.74541521986E+02 -0.42576231467E+01 -0.21655097605E+04  0.21667965038E+04  0.00000000000E+00 0.  1.
<scales pt_clust_3="34.24727" pt_clust_4="34.24727" pt_clust_5="120.74921" pt_clust_6="74.66302"></scales>
<clustering>
<clus scale="   34.247">  3  4 -1 -1</clus>
<clus scale="   74.663">  2  6  1 -1</clus>
<clus scale="  120.749">  2  5  1 -1</clus>
<clus scale="  135.509">  1  3  2 -1</clus>
</clustering>
</event>
<event>
 6    0  0.8610502E+002  0.1052282E+03  0.7546771E-02  0.1269671E+00
         21   -1    0    0  506  501  0.00000000000E+00  0.00000000000E+00  0.14060820577E+03  0.14060820577E+03  0.00000000000E+00 0. -1.
         21   -1    0    0  504  502 -0.00000000000E+00 -0.00000000000E+00 -0.54570094458E+03  0.54570094458E+03  0.00000000000E+00 0. -1.
         21    1    1    2  503  502  0.91353052958E+02  0.11178814456E+02 -0.27640441970E+03  0.29132413117E+03  0.00000000000E+00 0. -1.
         21    1    1    2  504  501  0.77135700531E+02  0.67311321961E+01 -0.55129531115E+02  0.95049932341E+02  0.00000000000E+00 0. -1.
         21    1    1    2  505  503 -0.96389478258E+02 -0.11330401817E+03 -0.97666343090E+02  0.17795349568E+03  0.00000000000E+00 0. -1.
         21    1    1    2  506  505 -0.72099275231E+02  0.95394071517E+02  0.24107555088E+02  0.12198159116E+03  0.00000000000E+00 0. -1.
<scales pt_clust_3="96.81929" pt_clust_4="77.42883" pt_clust_5="14000.00000" pt_clust_6="105.22820"></scales>
<clustering>
<clus scale="   77.429">  1  4  2 -1</clus>
<clus scale="   96.819">  2  3  1 -1</clus>
<clus scale="  105.228">  1  6  2 -1</clus>
<clus scale="   77.429">  1  3  2 -1</clus>
</clustering>
</event>
<event>
 6    0  0.8610502E+002  0.7262949E+02  0.7546771E-02  0.1351373E+00
         21   -1    0    0  505  501  0.00000000000E+00  0.00000000000E+00  0.12003227357E+04  0.12003227357E+04  0.00000000000E+00 0. -1.
         21   -1    0    0  504  502 -0.00000000000E+00 -0.00000000000E+00 -0.10917750929E+03  0.10917750929E+03  0.00000000000E+00 0.  1.
         21    1    1    2  503  501  0.26785829930E+02  0.61755216071E+02  0.59102841120E+03  0.59484936769E+03  0.00000000000E+00 0. -1.
         21    1    1    2  504  503  0.18099582380E+02 -0.45051646045E+02 -0.89856194837E+02  0.10213413457E+03  0.00000000000E+00 0.  1.
         21    1    1    2  505  506 -0.29495979978E+02 -0.77292178055E+02  0.47009068339E+03  0.47731472242E+03  0.00000000000E+00 0. -1.
         21    1    1    2  506  502 -0.15389432332E+02  0.60588608029E+02  0.11988232666E+03  0.13520202031E+03  0.00000000000E+00 0. -1.
<scales pt_clust_3="72.62949" pt_clust_4="48.55147" pt_clust_5="14000.00000" pt_clust_6="34.75375"></scales>
<clustering>
<clus scale="   48.551">  2  4  1 -1</clus>
<clus scale="   34.754">  2  6  1 -1</clus>
<clus scale="   72.629">  1  3  2 -1</clus>
<clus scale="   72.629">  1  3  2 -1</clus>
</clustering>
</event>
<event>
 6    0  0.8610502E+002  0.9657702E+02  0.7546771E-02  0.1287663E+00
         21   -1    0    0  506  501  0.00000000000E+00  0.00000000000E+00  0.36686228499E+03  0.36686228499E+03  0.00000000000E+00 0.  1.
         21   -1    0    0  505  502 -0.00000000000E+00 -0.00000000000E+00 -0.97639894737E+03  0.97639894737E+03  0.00000000000E+00 0.  1.
         21    1    1    2  503  501 -0.59815517857E+02 -0.12766528601E+03  0.23096522128E+03  0.27059426245E+03  0.00000000000E+00 0.  1.
         21    1    1    2  504  502 -0.43457667195E+02  0.44141951521E+02  0.26440603589E+02  0.67351215582E+02  0.00000000000E+00 0.  1.
         21    1    1    2  505  503  0.92542297763E+02  0.27696977284E+02 -0.92148461671E+03  0.92653391641E+03  0.00000000000E+00 0.  1.
         21    1    1    2  506  504  0.10730887289E+02  0.55826357203E+02  0.54542129458E+02  0.78781837922E+02  0.00000000000E+00 0.  1.
<scales pt_clust_3="96.57702" pt_clust_4="67.38075" pt_clust_5="14000.00000" pt_clust_6="56.84834"></scales>
<clustering>
<clus scale="   56.848">  1  6  2 -1</clus>
<clus scale="   67.381">  1  4  2 -1</clus>
<clus scale="   96.577">  1  3  2 -1</clus>
<clus scale="   56.848">  1  3  2 -1</clus>
</clustering>
</event>
<event>
 6    0  0.8610502E+002  0.1104789E+03  0.7546771E-02  0.1259686E+00
         21   -1    0    0  504  501  0.00000000000E+00  0.00000000000E+00  0.53232112124E+03  0.53232112124E+03  0.00000000000E+00 0. -1.
         21   -1    0    0  503  502 -0.00000000000E+00 -0.00000000000E+00 -0.19868512811E+03  0.19868512811E+03  0.00000000000E+00 0. -1.
         21    1    1    2  503  505 -0.94188993035E+02 -0.14423493485E+02  0.52993200640E+02  0.10903156831E+03  0.00000000000E+00 0. -1.
         21    1    1    2  504  506 -0.52625685728E+02  0.18430707787E+02  0.32381532281E+03  0.32858106621E+03  0.00000000000E+00 0. -1.
         21    1    1    2  505  501  0.35585749455E+02  0.30354226373E+02  0.99087223391E+02  0.10957190544E+03  0.00000000000E+00 0. -1.
         21    1    1    2  506  502  0.11122892931E+03 -0.34361440675E+02 -0.14225975370E+03  0.18382170939E+03  0.00000000000E+00 0. -1.
<scales pt_clust_3="14000.00000" pt_clust_4="48.76603" pt_clust_5="46.77312" pt_clust_6="110.47885"></scales>
<clustering>
<clus scale="   46.773">  1  5  2 -1</clus>
<clus scale="   48.766">  1  4  2 -1</clus>
<clus scale="  110.479">  2  6  1 -1</clus>
<clus scale="   46.773">  1  3  2 -1</clus>
</clustering>
</event>
<event>
 6    0  0.8610502E+002  0.7313772E+02  0.7546771E-02  0.1349737E+00
         21   -1    0    0  506  501  0.00000000000E+00  0.00000000000E+00  0.40283454141E+03  0.40283454141E+03  0.00000000000E+00 0. -1.
         21   -1    0    0  504  502 -0.00000000000E+00 -0.00000000000E+00 -0.16805902701E+03  0.16805902701E+03  0.00000000000E+00 0. -1.
         21    1    1    2  503  501  0.21664807916E+02  0.44822488300E+02  0.11423239069E+03  0.12460922294E+03  0.00000000000E+00 0. -1.
         21    1    1    2  504  503 -0.63815819671E+02  0.22464410025E+02 -0.72748580189E+02  0.99345178431E+02  0.00000000000E+00 0. -1.
         21    1    1    2  505  502  0.43095130131E+02 -0.10124785018E+03 -0.35512522507E+02  0.11562636664E+03  0.00000000000E+00 0. -1.
         21    1    1    2  506  505 -0.94411837655E+00  0.33960951858E+02  0.22880422641E+03  0.23131280041E+03  0.00000000000E+00 0. -1.
<scales pt_clust_3="73.13772" pt_clust_4="68.63426" pt_clust_5="14000.00000" pt_clust_6="33.97407"></scales>
<clustering>
<clus scale="   33.974">  1  6  2 -1</clus>
<clus scale="   68.634">  2  4  1 -1</clus>
<clus scale="   73.138">  1  3  2 -1</clus>
<clus scale="   33.974">  1  3  2 -1</clus>
</clustering>
</event>
<event>
 6    0  0.8610502E+002  0.2054747E+03  0.7546771E-02  0.1145200E+00
         21   -1    0    0  504  501  0.00000000000E+00  0.00000000000E+00  0.15600975751E+04  0.15600975751E+04  0.00000000000E+00 0. -1.
         21   -1    0    0  506  502 -0.00000000000E+00 -0.00000000000E+00 -0.15449264378E+03  0.15449264378E+03  0.00000000000E+00 0. -1.
         21    1    1    2  503  505 -0.14940050351E+03 -0.13192823896E+03  0.40836950081E+03  0.45441304985E+03  0.00000000000E+00 0. -1.
         21    1    1    2  504  503 -0.12597896473E+02  0.31777346689E+02  0.89466565729E+03  0.89531846016E+03  0.00000000000E+00 0. -1.
         21    1    1    2  505  502 -0.13866604461E+02 -0.77503698106E+02 -0.27076436801E+02  0.83260070678E+02  0.00000000000E+00 0.  1.
         21    1    1    2  506  501  0.17586500444E+03  0.17765459038E+03  0.12964621004E+03  0.28159863822E+03  0.00000000000E+00 0. -1.
<scales pt_clust_3="205.47470" pt_clust_4="34.18343" pt_clust_5="77.51065" pt_clust_6="14000.00000"></scales>
<clustering>
<clus scale="   34.183">  1  4  2 -1</clus>
<clus scale="   77.511">  2  5  1 -1</clus>
<clus scale="  205.475">  1  3  2 -1</clus>
<clus scale="   34.183">  1  3  2 -1</clus>
</clustering>
</event>
<event>
 6    0  0.8610502E+002  0.6862646E+02  0.7546771E-02  0.1364827E+00
         21   -1    0    0  504  501  0.00000000000E+00  0.00000000000E+00  0.12996059376E+04  0.12996059376E+04  0.00000000000E+00 0. -1.
         21   -1    0    0  503  502 -0.00000000000E+00 -0.00000000000E+00 -0.11111869009E+03  0.11111869009E+03  0.00000000000E+00 0.  1.
         21    1    1    2  503  506  0.32569520842E+02 -0.67924976015E+01  0.12970133749E+02  0.35709047607E+02  0.00000000000E+00 0.  1.
         21    1    1    2  504  505  0.61841332800E+02 -0.25946881562E+02  0.11546480308E+04  0.11565939936E+04  0.00000000000E+00 0. -1.
         21    1    1    2  505  502  0.26816547448E+02 -0.33697828738E+02 -0.47570467180E+02  0.64168685715E+02  0.00000000000E+00 0.  1.
         21    1    1    2  506  501 -0.12122740109E+03  0.66437207902E+02  0.68439550212E+02  0.15425290079E+03  0.00000000000E+00 0.  1.
<scales pt_clust_3="33.27028" pt_clust_4="14000.00000" pt_clust_5="58.62349" pt_clust_6="68.62646"></scales>
<clustering>
<clus scale="   33.270">  2  3  1 -1</clus>
<clus scale="   58.623">  2  5  1 -1</clus>
<clus scale="   68.626">  2  6  1 -1</clus>
<clus scale="   68.626">  1  3  2 -1</clus>
</clustering>
</event>
<event>
 6    0  0.8610502E+002  0.1312401E+03  0.7546771E-02  0.1225627E+00
         21   -1    0    0  503  501  0.00000000000E+00  0.00000000000E+00  0.12124861253E+04  0.12124861253E+04  0.00000000000E+00 0. -1.
         21   -1    0    0  504  502 -0.00000000000E+00 -0.00000000000E+00 -0.18387185498E+03  0.18387185498E+03  0.00000000000E+00 0. -1.
         21    1    1    2  503  502  0.15640383311E+02 -0.44466606433E+02  0.72424777778E+01  0.47690189370E+02  0.00000000000E+00 0. -1.
         21    1    1    2  504  505  0.14616433556E+02 -0.29939720045E+02 -0.14573750229E+03  0.14949731282E+03  0.00000000000E+00 0. -1.
         21    1    1    2  505  506 -0.14488092631E+03  0.13478141983E+02  0.59914677577E+03  0.61656224506E+03  0.00000000000E+00 0. -1.
         21    1    1    2  506  501  0.11462410944E+03  0.60928184494E+02  0.56796251907E+03  0.58260823303E+03  0.00000000000E+00 0. -1.
<scales pt_clust_3="65.63278" pt_clust_4="33.31707" pt_clust_5="14000.00000" pt_clust_6="131.24015"></scales>
<clustering>
<clus scale="   33.317">  2  4  1 -1</clus>
<clus scale="   65.633">  2  3  1 -1</clus>
<clus scale="  131.240">  1  6  2 -1</clus>
<clus scale="  131.240">  1  3  2 -1</clus>
</clustering>
</event>
<event>
 6    0  0.8610502E+002  0.1276192E+03  0.7546771E-02  0.1231032E+00
         21   -1    0    0  504  501  0.00000000000E+00  0.00000000000E+00  0.67530723773E+03  0.67530723773E+03  0.00000000000E+00 0. -1.
         21   -1    0    0  503  502 -0.00000000000E+00 -0.00000000000E+00 -0.10968866754E+03  0.10968866754E+03  0.00000000000E+00 0. -1.
         21    1    1    2  503  505 -0.41165218523E+02 -0.14930336245E+02 -0.23815087611E+02  0.49846249150E+02  0.00000000000E+00 0. -1.
         21    1    1    2  504  502  0.90520114868E+02  0.53660308568E+02  0.27542500989E+02  0.10877458008E+03  0.00000000000E+00 0. -1.
         21    1    1    2  505  506 -0.80365718935E+02 -0.29964542125E+02  0.26153394731E+02  0.89668961301E+02  0.00000000000E+00 0. -1.
         21    1    1    2  506  501  0.31010822590E+02 -0.87654301973E+01  0.53573776208E+03  0.53670611474E+03  0.00000000000E+00 0. -1.
<scales pt_clust_3="38.31398" pt_clust_4="116.67456" pt_clust_5="38.31398" pt_clust_6="32.22583"></scales>
<clustering>
<clus scale="   32.226">  1  6  2 -1</clus>
<clus scale="   38.314">  3  5 -1 -1</clus>
<clus scale="  116.675">  1  4  2 -1</clus>
<clus scale="   32.226">  1  3  2 -1</clus>
</clustering>
</event>
<event>
 6    0  0.8610502E+002  0.1164356E+03  0.7546771E-02  0.1249096E+00
         21   -1    0    0  505  501  0.00000000000E+00  0.00000000000E+00  0.75476154044E+02  0.75476154044E+02  0.00000000000E+00 0.  1.
         21   -1    0    0  503  502 -0.00000000000E+00 -0.00000000000E+00 -0.45840459965E+03  0.45840459965E+03  0.00000000000E+00 0.  1.
         21    1    1    2  503  506  0.30545457672E+02  0.94907629475E+01 -0.21683857947E+03  0.21918501115E+03  0.00000000000E+00 0.  1.
         21    1    1    2  504  501 -0.23648689526E+02  0.19333626528E+02 -0.77733298943E+01  0.31519427162E+02  0.00000000000E+00 0.  1.
         21    1    1    2  505  502 -0.26842103926E+02 -0.12942127485E+03 -0.92206783255E+02  0.16115972141E+03  0.00000000000E+00 0.  1.
         21    1    1    2  506  504  0.19945335779E+02  0.10059688537E+03 -0.66109752993E+02  0.12201659398E+03  0.00000000000E+00 0.  1.
<scales pt_clust_3="31.67866" pt_clust_4="30.54586" pt_clust_5="116.43561" pt_clust_6="14000.00000"></scales>
<clustering>
<clus scale="   30.546">  1  4  2 -1</clus>
<clus scale="   31.679">  2  3  1 -1</clus>
<clus scale="  116.436">  2  5  1 -1</clus>
<clus scale="   30.546">  1  3  2 -1</clus>
</clustering>
</event>
<event>
 6    0  0.8610502E+002  0.1042659E+03  0.7546771E-02  0.1271573E+00
         21   -1    0    0  506  501  0.00000000000E+00  0.00000000000E+00  0.78719761865E+02  0.78719761865E+02  0.00000000000E+00 0.  1.
         21   -1    0    0  504  502 -0.00000000000E+00 -0.00000000000E+00 -0.66227660130E+03  0.66227660130E+03  0.00000000000E+00 0. -1.
         21    1    1    2  503  505 -0.15347675439E+01  0.77857449935E+02 -0.53932851110E+02  0.94725342178E+02  0.00000000000E+00 0. -1.
         21    1    1    2  504  503 -0.38511571353E+02  0.43020821727E+02 -0.54472016329E+02  0.79379674937E+02  0.00000000000E+00 0. -1.
         21    1    1    2  505  501  0.39813663288E+02 -0.72992385498E+02  0.60014500351E+01  0.83360863285E+02  0.00000000000E+00 0.  1.
         21    1    1    2  506  502  0.23267560917E+00 -0.47885886164E+02 -0.48115342203E+03  0.48353048276E+03  0.00000000000E+00 0. -1.
<scales pt_clust_3="41.70431" pt_clust_4="41.70431" pt_clust_5="92.33473" pt_clust_6="47.88645"></scales>
<clustering>
<clus scale="   41.704">  3  4 -1 -1</clus>
<clus scale="   47.886">  2  6  1 -1</clus>
<clus scale="   92.335">  1  5  2 -1</clus>
<clus scale="   92.335">  1  3  2 -1</clus>
</clustering>
</event>
<event>
 6    0  0.8610502E+002  0.1397371E+03  0.7546771E-02  0.1213683E+00
         21   -1    0    0  504  501  0.00000000000E+00  0.00000000000E+00  0.19585560044E+03  0.19585560044E+03  0.00000000000E+00 0.  1.
         21   -1    0    0  505  502 -0.00000000000E+00 -0.00000000000E+00 -0.15438196786E+03  0.15438196786E+03  0.00000000000E+00 0.  1.
         21    1    1    2  503  501 -0.57035143039E+02  0.45197047947E+02 -0.20913109948E+02  0.75717493701E+02  0.00000000000E+00 0.  1.
         21    1    1    2  504  506  0.30858739380E+01 -0.53610528620E+02  0.19357502280E+02  0.57081733430E+02  0.00000000000E+00 0.  1.
         21    1    1    2  505  503 -0.67027320428E+02 -0.19427897068E+02 -0.27096107331E+02  0.74861898859E+02  0.00000000000E+00 0.  1.
         21    1    1    2  506  502  0.12097658953E+03  0.27841377741E+02  0.70125347576E+02  0.14257644231E+03  0.00000000000E+00 0.  1.
<scales pt_clust_3="63.30729" pt_clust_4="53.69927" pt_clust_5="63.30729" pt_clust_6="123.33996"></scales>
<clustering>
<clus scale="   53.699">  1  4  2 -1</clus>
<clus scale="   63.307">  3  5 -1 -1</clus>
<clus scale="  123.340">  1  6  2 -1</clus>
<clus scale="   53.699">  1  3  2 -1</clus>
</clustering>
</event>
<event>
 6    0  0.8610502E+002  0.8951629E+02  0.7546771E-02  0.1304027E+00
         21   -1    0    0  504  501  0.00000000000E+00  0.00000000000E+00  0.85331833604E+02  0.85331833604E+02  0.00000000000E+00 0.  1.
         21   -1    0    0  503  502 -0.00000000000E+00 -0.00000000000E+00 -0.67154062323E+03  0.67154062323E+03  0.00000000000E+00 0.  1.
         21    1    1    2  503  506  0.11817823599E+02 -0.38769716111E+02 -0.53974891392E+02  0.67498449928E+02  0.00000000000E+00 0. -1.
         21    1    1    2  504  505  0.16534367222E+02  0.79122118659E+02 -0.37365982583E+03  0.38230270781E+03  0.00000000000E+00 0.  1.
         21    1    1    2  505  502 -0.36715498247E+02  0.49712672729E+02 -0.19872126276E+03  0.20810938930E+03  0.00000000000E+00 0.  1.
         21    1    1    2  506  501  0.83633074266E+01 -0.90065075277E+02  0.40147190360E+02  0.98961909791E+02  0.00000000000E+00 0.  1.
<scales pt_clust_3="40.53088" pt_clust_4="89.51629" pt_clust_5="49.28334" pt_clust_6="14000.00000"></scales>
<clustering>
<clus scale="   40.531">  2  3  1 -1</clus>
<clus scale="   49.283">  2  5  1 -1</clus>
<clus scale="   89.516">  2  4  1 -1</clus>
<clus scale="   89.516">  1  3  2 -1</clus>
</clustering>
</event>
<event>
 6    0  0.8610502E+002  0.1403142E+03  0.7546771E-02  0.1212907E+00
         21   -1    0    0  504  501  0.00000000000E+00  0.00000000000E+00  0.79521564404E+02  0.79521564404E+02  0.00000000000E+00 0. -1.
         21   -1    0    0  506  502 -0.00000000000E+00 -0.00000000000E+00 -0.53429334786E+03  0.53429334786E+03  0.00000000000E+00 0. -1.
         21    1    1    2  503  501  0.51762263469E+01 -0.32713648978E+02  0.29044986679E+02  0.44052098700E+02  0.00000000000E+00 0. -1.
         21    1    1    2  504  502 -0.60662707277E+02 -0.10935897280E+03 -0.30853910441E+03  0.33292000231E+03  0.00000000000E+00 0. -1.
         21    1    1    2  505  503  0.16111331474E+02  0.10064977855E+03 -0.10648891902E+03  0.14741045688E+03  0.00000000000E+00 0. -1.
         21    1    1    2  506  505  0.39375149456E+02  0.41422843223E+02 -0.68788746706E+02  0.89432354373E+02  0.00000000000E+00 0. -1.
<scales pt_clust_3="33.12063" pt_clust_4="132.58657" pt_clust_5="35.72274" pt_clust_6="35.72274"></scales>
<clustering>
<clus scale="   33.121">  1  3  2 -1</clus>
<clus scale="   35.723">  5  6 -1 -1</clus>
<clus scale="  132.587">  2  4  1 -1</clus>
<clus scale="   33.121">  1  3  2 -1</clus>
</clustering>
</event>
<event>
 6    0  0.8610502E+002  0.2934260E+03  0.7546771E-02  0.1088574E+00
         21   -1    0    0  505  501  0.00000000000E+00  0.00000000000E+00  0.80393941600E+03  0.80393941600E+03  0.00000000000E+00 0.  1.
         21   -1    0    0  503  502 -0.00000000000E+00 -0.00000000000E+00 -0.30765912612E+04  0.30765912612E+04  0.00000000000E+00 0.  1.
         21    1    1    2  503  506 -0.13974131808E+03 -0.14107020010E+03  0.52028075037E+03  0.55688463486E+03  0.00000000000E+00 0.  1.
         21    1    1    2  504  502  0.18370505612E+00  0.50470476307E+02 -0.27747460600E+04  0.27752050375E+04  0.00000000000E+00 0.  1.
         21    1    1    2  505  504  0.12254105489E+03  0.18669365493E+03 -0.22670056165E+03  0.31822001128E+03  0.00000000000E+00 0.  1.
         21    1    1    2  506  501  0.17016558133E+02 -0.96093931141E+02  0.20851402602E+03  0.23022099361E+03  0.00000000000E+00 0.  1.
<scales pt_clust_3="91.29238" pt_clust_4="50.47081" pt_clust_5="262.70428" pt_clust_6="91.29238"></scales>
<clustering>
<clus scale="   50.471">  2  4  1 -1</clus>
<clus scale="   91.292">  3  6 -1 -1</clus>
<clus scale="  262.704">  2  5  1 -1</clus>
<clus scale="  293.426">  1  3  2 -1</clus>
</clustering>
</event>
<event>
 6    0  0.8610502E+002  0.6187408E+02  0.7546771E-02  0.1390131E+00
         21   -1    0    0  506  501  0.00000000000E+00  0.00000000000E+00  0.15257532296E+03  0.15257532296E+03  0.00000000000E+00 0.  1.
         21   -1    0    0  504  502 -0.00000000000E+00 -0.00000000000E+00 -0.10351798848E+04  0.10351798848E+04  0.00000000000E+00 0. -1.
         21    1    1    2  503  502  0.61059372113E+02  0.61694460340E+01 -0.93866299369E+03  0.94066706369E+03  0.00000000000E+00 0. -1.
         21    1    1    2  504  505 -0.95687002695E+02 -0.48747907487E+02  0.38584022750E+02  0.11410998107E+03  0.00000000000E+00 0.  1.
         21    1    1    2  505  501  0.57412880347E+02  0.11108079562E+02  0.54040637860E+02  0.79624235015E+02  0.00000000000E+00 0.  1.
         21    1    1    2  506  503 -0.22785249765E+02  0.31470381891E+02 -0.36566228724E+02  0.53353927937E+02  0.00000000000E+00 0. -1.
<scales pt_clust_3="14000.00000" pt_clust_4="61.87408" pt_clust_5="53.43500" pt_clust_6="38.85296"></scales>
<clustering>
<clus scale="   38.853">  1  6  2 -1</clus>
<clus scale="   53.435">  1  5  2 -1</clus>
<clus scale="   61.874">  1  4  2 -1</clus>
<clus scale="   38.853">  1  3  2 -1</clus>
</clustering>
</event>
<event>
 6    0  0.8610502E+002  0.1064723E+03  0.7546771E-02  0.1267246E+00
         21   -1    0    0  506  501  0.00000000000E+00  0.00000000000E+00  0.18223377629E+03  0.18223377629E+03  0.00000000000E+00 0.  1.
         21   -1    0    0  503  502 -0.00000000000E+00 -0.00000000000E+00 -0.34215507546E+03  0.34215507546E+03  0.00000000000E+00 0.  1.
         21    1    1    2  503  504  0.47344800111E+02  0.88012413930E+01 -0.66643254011E+02  0.82221136290E+02  0.00000000000E+00 0. -1.
         21    1    1    2  504  501  0.82358748683E+02  0.65384232885E+02  0.12848106264E+03  0.16602844591E+03  0.00000000000E+00 0.  1.
         21    1    1    2  505  502 -0.39222571924E+02 -0.62437452699E+00 -0.10061095904E+03  0.10798780057E+03  0.00000000000E+00 0.  1.
         21    1    1    2  506  505 -0.90480976870E+02 -0.73561099751E+02 -0.12114814876E+03  0.16815146898E+03  0.00000000000E+00 0.  1.
<scales pt_clust_3="36.11132" pt_clust_4="106.47226" pt_clust_5="39.22754" pt_clust_6="14000.00000"></scales>
<clustering>
<clus scale="   39.228">  2  5  1 -1</clus>
<clus scale="   36.111">  2  3  1 -1</clus>
<clus scale="  106.472">  1  4  2 -1</clus>
<clus scale="  106.472">  1  3  2 -1</clus>
</clustering>
</event>
<event>
 6    0  0.8610502E+002  0.1741162E+03  0.7546771E-02  0.1173622E+00
         21   -1    0    0  506  501  0.00000000000E+00  0.00000000000E+00  0.28461471787E+03  0.28461471787E+03  0.00000000000E+00 0.  1.
         21   -1    0    0  505  502 -0.00000000000E+00 -0.00000000000E+00 -0.10897578872E+03  0.10897578872E+03  0.00000000000E+00 0.  1.
         21    1    1    2  503  501  0.37460718304E+02  0.53911580710E+02  0.76748536681E+02  0.10099555353E+03  0.00000000000E+00 0.  1.
         21    1    1    2  504  502 -0.50585044840E+02 -0.83535204303E+02  0.50426819476E+02  0.10990833109E+03  0.00000000000E+00 0.  1.
         21    1    1    2  505  503  0.72103669978E+02  0.69402009298E+02  0.49255592211E+02  0.11154233045E+03  0.00000000000E+00 0.  1.
         21    1    1    2  506  504 -0.58979343442E+02 -0.39778385705E+02 -0.79201921678E+00  0.71144291525E+02  0.00000000000E+00 0.  1.
<scales pt_clust_3="36.98007" pt_clust_4="47.56567" pt_clust_5="171.15873" pt_clust_6="47.56567"></scales>
<clustering>
<clus scale="   36.980">  3  5 -1 -1</clus>
<clus scale="   47.566">  4  6 -1 -1</clus>
<clus scale="  171.159">  1  3  2 -1</clus>
<clus scale="  171.159">  1  3  2 -1</clus>
</clustering>
</event>
<event>
 6    0  0.8610502E+002  0.1848053E+03  0.7546771E-02  0.1163232E+00
         21   -1    0    0  505  501  0.00000000000E+00  0.00000000000E+00  0.33025845760E+03  0.33025845760E+03  0.00000000000E+00 0.  1.
         21   -1    0    0  506  502 -0.00000000000E+00 -0.00000000000E+00 -0.17693595329E+04  0.17693595329E+04  0.00000000000E+00 0.  1.
         21    1    1    2  503  504 -0.99172861555E+02 -0.60990512560E+02 -0.65207352686E+03  0.66238582678E+03  0.00000000000E+00 0.  1.
         21    1    1    2  504  501  0.14912980578E+03  0.10359757922E+03 -0.69013697452E+03  0.71362539262E+03  0.00000000000E+00 0.  1.
         21    1    1    2  505  502  0.92886623066E+01 -0.66851971378E+02  0.30717456369E+03  0.31450227011E+03  0.00000000000E+00 0.  1.
         21    1    1    2  506  503 -0.59245606528E+02  0.24244904721E+02 -0.40406513756E+03  0.40910450094E+03  0.00000000000E+00 0.  1.
<scales pt_clust_3="58.46134" pt_clust_4="167.14363" pt_clust_5="67.49419" pt_clust_6="58.46134"></scales>
<clustering>
<clus scale="   58.461">  3  6 -1 -1</clus>
<clus scale="   67.494">  1  5  2 -1</clus>
<clus scale="  167.144">  1  4  2 -1</clus>
<clus scale="   67.494">  1  3  2 -1</clus>
</clustering>
</event>
<event>
 6    0  0.8610502E+002  0.9754537E+02  0.7546771E-02  0.1285544E+00
         21   -1    0    0  504  501  0.00000000000E+00  0.00000000000E+00  0.17511903043E+04  0.17511903043E+04  0.00000000000E+00 0. -1.
         21   -1    0    0  503  502 -0.00000000000E+00 -0.00000000000E+00 -0.21856535337E+03  0.21856535337E+03  0.00000000000E+00 0.  1.
         21    1    1    2  503  505 -0.10307658739E+03 -0.20780056188E+02 -0.97486047465E+02  0.14338801572E+03  0.00000000000E+00 0.  1.
         21    1    1    2  504  506  0.13031423789E+03  0.14199689649E+02  0.14514828224E+02  0.13188673937E+03  0.00000000000E+00 0.  1.
         21    1    1    2  505  501 -0.52594485808E+02 -0.16875598681E+02  0.16469230800E+04  0.16478490821E+04  0.00000000000E+00 0. -1.
         21    1    1    2  506  502  0.25356835304E+02  0.23455965219E+02 -0.31326909866E+02  0.46631820496E+02  0.00000000000E+00 0.  1.
<scales pt_clust_3="14000.00000" pt_clust_4="97.54537" pt_clust_5="55.15484" pt_clust_6="34.54202"></scales>
<clustering>
<clus scale="   34.542">  2  6  1 -1</clus>
<clus scale="   55.155">  1  5  2 -1</clus>
<clus scale="   97.545">  1  4  2 -1</clus>
<clus scale="   55.155">  1  3  2 -1</clus>
</clustering>
</event>
<event>
 6    0  0.8610502E+002  0.1511540E+03  0.7546771E-02  0.1199062E+00
         21   -1    0    0  505  501  0.00000000000E+00  0.00000000000E+00  0.42781811611E+03  0.42781811611E+03  0.00000000000E+00 0. -1.
         21   -1    0    0  504  502 -0.00000000000E+00 -0.00000000000E+00 -0.45920191152E+03  0.45920191152E+03  0.00000000000E+00 0. -1.
         21    1    1    2  503  501  0.79304852082E+02  0.12187389982E+03  0.28966082996E+03  0.32410785772E+03  0.00000000000E+00 0. -1.
         21    1    1    2  504  503  0.16855676338E+02  0.86395868549E+02 -0.74802565815E+02  0.11551529673E+03  0.00000000000E+00 0. -1.
         21    1    1    2  505  506 -0.96869359261E+02  0.18419671854E+02  0.16934926998E+02  0.10004873226E+03  0.00000000000E+00 0.  1.
         21    1    1    2  506  502  0.70883084060E+00 -0.22668944022E+03 -0.26317698655E+03  0.34734814092E+03  0.00000000000E+00 0. -1.
<scales pt_clust_3="151.15403" pt_clust_4="88.02477" pt_clust_5="99.06801" pt_clust_6="14000.00000"></scales>
<clustering>
<clus scale="   88.025">  2  4  1 -1</clus>
<clus scale="   99.068">  1  5  2 -1</clus>
<clus scale="  151.154">  1  3  2 -1</clus>
<clus scale="   99.068">  1  3  2 -1</clus>
</clustering>
</event>
<event>
 6    0  0.8610502E+002  0.2003910E+03  0.7546771E-02  0.1149410E+00
         21   -1    0    0  506  501  0.00000000000E+00  0.00000000000E+00  0.39948129314E+03  0.39948129314E+03  0.00000000000E+00 0.  1.
         21   -1    0    0  503  502 -0.00000000000E+00 -0.00000000000E+00 -0.11203825317E+04  0.11203825317E+04  0.00000000000E+00 0. -1.
         21    1    1    2  503  504  0.77214659889E+02  0.24291650861E+02 -0.24435507431E+03  0.25741326762E+03  0.00000000000E+00 0. -1.
         21    1    1    2  504  501  0.26430844939E+02 -0.18739830376E+03  0.35706765262E+03  0.40412129660E+03  0.00000000000E+00 0.  1.
         21    1    1    2  505  502 -0.87318140983E+01  0.34319915841E+02 -0.27457273543E+03  0.27684704846E+03  0.00000000000E+00 0. -1.
         21    1    1    2  506  505 -0.94913690730E+02  0.12878673706E+03 -0.55904108141E+03  0.58148221214E+03  0.00000000000E+00 0. -1.
<scales pt_clust_3="80.94559" pt_clust_4="188.90634" pt_clust_5="31.45908" pt_clust_6="31.45908"></scales>
<clustering>
<clus scale="   31.459">  5  6 -1 -1</clus>
<clus scale="   80.946">  2  3  1 -1</clus>
<clus scale="  188.906">  1  4  2 -1</clus>
<clus scale="  188.906">  1  3  2 -1</clus>
</clustering>
</event>
<event>
 6    0  0.8610502E+002  0.1364012E+03  0.7546771E-02  0.1218255E+00
         21   -1    0    0  504  501  0.00000000000E+00  0.00000000000E+00  0.27271315531E+03  0.27271315531E+03  0.00000000000E+00 0. -1.
         21   -1    0    0  505  502 -0.00000000000E+00 -0.00000000000E+00 -0.41940934436E+03  0.41940934436E+03  0.00000000000E+00 0.  1.
         21    1    1    2  503  506  0.25710915711E+02  0.59207098677E+02 -0.12056617726E+03  0.13675794243E+03  0.00000000000E+00 0. -1.
         21    1    1    2  504  502  0.25550361213E+02 -0.16627328142E+02 -0.37557305088E+02  0.48371894368E+02  0.00000000000E+00 0. -1.
         21    1    1    2  505  503 -0.22373474449E+01  0.77237316809E+02 -0.22474987191E+03  0.23766176334E+03  0.00000000000E+00 0.  1.
         21    1    1    2  506  501 -0.49023929480E+02 -0.11981708734E+03  0.23617716520E+03  0.26933089953E+03  0.00000000000E+00 0. -1.
<scales pt_clust_3="40.69656" pt_clust_4="30.48424" pt_clust_5="40.69656" pt_clust_6="129.71671"></scales>
<clustering>
<clus scale="   30.484">  2  4  1 -1</clus>
<clus scale="   40.697">  3  5 -1 -1</clus>
<clus scale="  129.717">  1  6  2 -1</clus>
<clus scale="  129.717">  1  3  2 -1</clus>
</clustering>
</event>
<event>
 6    0  0.8610502E+002  0.8384485E+02  0.7546771E-02  0.1318481E+00
         21   -1    0    0  503  501  0.00000000000E+00  0.00000000000E+00  0.23254963771E+03  0.23254963771E+03  0.00000000000E+00 0. -1.
         21   -1    0    0  506  502 -0.00000000000E+00 -0.00000000000E+00 -0.12935050520E+03  0.12935050520E+03  0.00000000000E+00 0. -1.
         21    1    1    2  503  505 -0.55092083013E+01 -0.10842654164E+03 -0.43700773535E+02  0.11703172184E+03  0.00000000000E+00 0. -1.
         21    1    1    2  504  501  0.46124716763E+02  0.68166704396E+02  0.14380237825E+03  0.16569041335E+03  0.00000000000E+00 0. -1.
         21    1    1    2  505  502 -0.38918925046E+02  0.37837556198E+01  0.13234814228E+02  0.41281470916E+02  0.00000000000E+00 0. -1.
         21    1    1    2  506  504 -0.16965834159E+01  0.36476081626E+02 -0.10137286434E+02  0.37896536812E+02  0.00000000000E+00 0.  1.
<scales pt_clust_3="83.84485" pt_clust_4="14000.00000" pt_clust_5="40.08694" pt_clust_6="36.51552"></scales>
<clustering>
<clus scale="   36.516">  2  6  1 -1</clus>
<clus scale="   40.087">  2  5  1 -1</clus>
<clus scale="   83.845">  2  3  1 -1</clus>
<clus scale="   83.845">  1  3  2 -1</clus>
</clustering>
</event>
<event>
 6    0  0.8610502E+002  0.1693827E+03  0.7546771E-02  0.1178493E+00
         21   -1    0    0  506  501  0.00000000000E+00  0.00000000000E+00  0.57799673399E+03  0.57799673399E+03  0.00000000000E+00 0.  1.
         21   -1    0    0  505  502 -0.00000000000E+00 -0.00000000000E+00 -0.69202465279E+02  0.69202465279E+02  0.00000000000E+00 0.  1.
         21    1    1    2  503  502  0.28683787003E+02  0.11006261996E+03  0.81468350956E+02  0.13990579743E+03  0.00000000000E+00 0.  1.
         21    1    1    2  504  501 -0.31443152822E+02 -0.18843468334E+02  0.13875598312E+03  0.14351644857E+03  0.00000000000E+00 0. -1.
         21    1    1    2  505  504  0.20442726873E+02 -0.15191905703E+03  0.23669235634E+03  0.28199392994E+03  0.00000000000E+00 0.  1.
         21    1    1    2  506  503 -0.17683361053E+02  0.60699905410E+02  0.51877578293E+02  0.81783023327E+02  0.00000000000E+00 0.  1.
<scales pt_clust_3="34.03511" pt_clust_4="36.65717" pt_clust_5="163.11519" pt_clust_6="34.03511"></scales>
<clustering>
<clus scale="   34.035">  3  6 -1 -1</clus>
<clus scale="   36.657">  1  4  2 -1</clus>
<clus scale="  163.115">  1  5  2 -1</clus>
<clus scale="   36.657">  1  3  2 -1</clus>
</clustering>
</event>
<event>
 6    0  0.8610502E+002  0.9291260E+02  0.7546771E-02  0.1295948E+00
         21   -1    0    0  505  501  0.00000000000E+00  0.00000000000E+00  0.13475732133E+03  0.13475732133E+03  0.00000000000E+00 0.  1.
         21   -1    0    0  503  502 -0.00000000000E+00 -0.00000000000E+00 -0.45502683821E+03  0.45502683821E+03  0.00000000000E+00 0.  1.
         21    1    1    2  503  506 -0.79171122663E+02 -0.26097345531E+02 -0.17187651430E+03  0.19102532365E+03  0.00000000000E+00 0.  1.
         21    1    1    2  504  501 -0.30401364256E+02 -0.26552289392E+02  0.98498209649E+02  0.10644794185E+03  0.00000000000E+00 0.  1.
         21    1    1    2  505  502  0.34782248110E+01  0.41596309890E+02 -0.32686957750E+02  0.53016867611E+02  0.00000000000E+00 0.  1.
         21    1    1    2  506  504  0.10609426211E+03  0.11053325033E+02 -0.21420425449E+03  0.23929402643E+03  0.00000000000E+00 0.  1.
<scales pt_clust_3="14000.00000" pt_clust_4="40.36418" pt_clust_5="33.79015" pt_clust_6="92.91260"></scales>
<clustering>
<clus scale="   40.364">  1  4  2 -1</clus>
<clus scale="   33.790">  1  5  2 -1</clus>
<clus scale="   92.913">  1  6  2 -1</clus>
<clus scale="   40.364">  1  3  2 -1</clus>
</clustering>
</event>
<event>
 6    0  0.8610502E+002  0.1220630E+03  0.7546771E-02  0.1239732E+00
         21   -1    0    0  504  501  0.00000000000E+00  0.00000000000E+00  0.22976416452E+03  0.22976416452E+03  0.00000000000E+00 0.  1.
         21   -1    0    0  505  502 -0.00000000000E+00 -0.00000000000E+00 -0.42570021817E+03  0.42570021817E+03  0.00000000000E+00 0.  1.
         21    1    1    2  503  501  0.42222559284E+02 -0.20237704567E+02  0.15006593959E+03  0.15720081241E+03  0.00000000000E+00 0.  1.
         21    1    1    2  504  506  0.25667900570E+02  0.27801946210E+02  0.11743997039E+02  0.39619575959E+02  0.00000000000E+00 0. -1.
         21    1    1    2  505  503 -0.85554976976E+02  0.99413636969E+02 -0.31656520497E+03  0.34266055259E+03  0.00000000000E+00 0.  1.
         21    1    1    2  506  502  0.17664517122E+02 -0.10697787861E+03 -0.41180785301E+02  0.11598344173E+03  0.00000000000E+00 0.  1.
<scales pt_clust_3="61.54926" pt_clust_4="37.83899" pt_clust_5="122.06303" pt_clust_6="14000.00000"></scales>
<clustering>
<clus scale="   37.839">  1  4  2 -1</clus>
<clus scale="   61.549">  1  3  2 -1</clus>
<clus scale="  122.063">  2  5  1 -1</clus>
<clus scale="   37.839">  1  3  2 -1</clus>
</clustering>
</event>
<event>
 6    0  0.8610502E+002  0.1596029E+03  0.7546771E-02  0.1189146E+00
         21   -1    0    0  502  501  0.00000000000E+00  0.00000000000E+00  0.93661182044E+02  0.93661182044E+02  0.00000000000E+00 0.  1.
         21   -1    0    0  505  502 -0.00000000000E+00 -0.00000000000E+00 -0.12864843192E+04  0.12864843192E+04  0.00000000000E+00 0.  1.
         21    1    1    2  503  506  0.49262310795E+02  0.54982694365E+02 -0.12024900978E+03  0.14110172323E+03  0.00000000000E+00 0. -1.
         21    1    1    2  504  503  0.91464453089E+01  0.54058810242E+02 -0.12841391755E+03  0.13962860254E+03  0.00000000000E+00 0.  1.
         21    1    1    2  505  504 -0.76183006230E+02 -0.14910527974E+03 -0.10080914141E+04  0.10219024093E+04  0.00000000000E+00 0.  1.
         21    1    1    2  506  501  0.17774250127E+02  0.40063775133E+02  0.63931204275E+02  0.77512766210E+02  0.00000000000E+00 0.  1.
<scales pt_clust_3="35.26637" pt_clust_4="35.26637" pt_clust_5="154.26752" pt_clust_6="43.82956"></scales>
<clustering>
<clus scale="   35.266">  3  4 -1 -1</clus>
<clus scale="   43.830">  1  6  2 -1</clus>
<clus scale="  154.268">  2  5  1 -1</clus>
<clus scale="   43.830">  1  3  2 -1</clus>
</clustering>
</event>
<event>
 6    0  0.8610502E+002  0.1780103E+03  0.7546771E-02  0.1169743E+00
         21   -1    0    0  503  501  0.00000000000E+00  0.00000000000E+00  0.17307336387E+03  0.17307336387E+03  0.00000000000E+00 0.  1.
         21   -1    0    0  505  502 -0.00000000000E+00 -0.00000000000E+00 -0.54048506340E+03  0.54048506340E+03  0.00000000000E+00 0.  1.
         21    1    1    2  503  506 -0.24860031581E+02 -0.95505490410E+02  0.10240681609E+03  0.14221981525E+03  0.00000000000E+00 0.  1.
         21    1    1    2  504  502  0.11508756990E+02  0.72299256212E+02 -0.19766065361E+03  0.21078275053E+03  0.00000000000E+00 0.  1.
         21    1    1    2  505  501  0.41870771886E+02 -0.88684226437E+02 -0.49769129807E+02  0.10997736057E+03  0.00000000000E+00 0.  1.
         21    1    1    2  506  504 -0.28519497294E+02  0.11189046064E+03 -0.22238873221E+03  0.25057850091E+03  0.00000000000E+00 0.  1.
<scales pt_clust_3="171.72697" pt_clust_4="37.32653" pt_clust_5="98.07168" pt_clust_6="37.32653"></scales>
<clustering>
<clus scale="   37.327">  4  6 -1 -1</clus>
<clus scale="   98.072">  1  5  2 -1</clus>
<clus scale="  171.727">  1  3  2 -1</clus>
<clus scale="   98.072">  1  3  2 -1</clus>
</clustering>
</event>
<event>
 6    0  0.8610502E+002  0.6537782E+02  0.7546771E-02  0.1376556E+00
         21   -1    0    0  505  501  0.00000000000E+00  0.00000000000E+00  0.25882241972E+04  0.25882241972E+04  0.00000000000E+00 0.  1.
         21   -1    0    0  503  502 -0.00000000000E+00 -0.00000000000E+00 -0.21946216008E+02  0.21946216008E+02  0.00000000000E+00 0. -1.
         21    1    1    2  503  504  0.54590124729E+02  0.13556905273E+02  0.31311923574E+02  0.64376299648E+02  0.00000000000E+00 0. -1.
         21    1    1    2  504  501  0.33433196016E+02 -0.42754644167E+02  0.54841287250E+03  0.55109202218E+03  0.00000000000E+00 0. -1.
         21    1    1    2  505  506 -0.94143353471E+02  0.62292518478E+02  0.18695370909E+04  0.18729421409E+04  0.00000000000E+00 0.  1.
         21    1    1    2  506  502  0.61200327263E+01 -0.33094779584E+02  0.11701609420E+03  0.12175995047E+03  0.00000000000E+00 0. -1.
<scales pt_clust_3="14000.00000" pt_clust_4="56.32686" pt_clust_5="65.37782" pt_clust_6="33.65589"></scales>
<clustering>
<clus scale="   33.656">  2  6  1 -1</clus>
<clus scale="   56.327">  1  4  2 -1</clus>
<clus scale="   65.378">  1  5  2 -1</clus>
<clus scale="   56.327">  1  3  2 -1</clus>
</clustering>
</event>
<event>
 6    0  0.8610502E+002  0.8667040E+02  0.7546771E-02  0.1311121E+00
         21   -1    0    0  503  501  0.00000000000E+00  0.00000000000E+00  0.17620213373E+04  0.17620213373E+04  0.00000000000E+00 0. -1.
         21   -1    0    0  505  502 -0.00000000000E+00 -0.00000000000E+00 -0.20067031461E+02  0.20067031461E+02  0.00000000000E+00 0. -1.
         21    1    1    2  503  504  0.10064024147E+03 -0.45757489058E+02  0.43499213754E+03  0.44882108432E+03  0.00000000000E+00 0. -1.
         21    1    1    2  504  502 -0.65437889509E+01 -0.56349145482E+02  0.25110151081E+03  0.25742963330E+03  0.00000000000E+00 0. -1.
         21    1    1    2  505  506 -0.66249417360E+02  0.19269750744E+02  0.14269560059E+03  0.15850029344E+03  0.00000000000E+00 0. -1.
         21    1    1    2  506  501 -0.27847035160E+02  0.82836883796E+02  0.91316505695E+03  0.91733735774E+03  0.00000000000E+00 0. -1.
<scales pt_clust_3="14000.00000" pt_clust_4="56.72784" pt_clust_5="69.66881" pt_clust_6="86.67040"></scales>
<clustering>
<clus scale="   56.728">  2  4  1 -1</clus>
<clus scale="   69.669">  2  5  1 -1</clus>
<clus scale="   86.670">  1  6  2 -1</clus>
<clus scale="   86.670">  1  3  2 -1</clus>
</clustering>
</event>
<event>
 6    0  0.8610502E+002  0.7114447E+02  0.7546771E-02  0.1356244E+00
         21   -1    0    0  505  501  0.00000000000E+00  0.00000000000E+00  0.20440009672E+03  0.20440009672E+03  0.00000000000E+00 0. -1.
         21   -1    0    0  506  502 -0.00000000000E+00 -0.00000000000E+00 -0.36326285942E+03  0.36326285942E+03  0.00000000000E+00 0. -1.
         21    1    1    2  503  501  0.11669920182E+02  0.53842331331E+02  0.16267429711E+03  0.17175014009E+03  0.00000000000E+00 0. -1.
         21    1    1    2  504  503 -0.24864822450E+02 -0.74329189750E+02 -0.10083726766E+03  0.12771547437E+03  0.00000000000E+00 0. -1.
         21    1    1    2  505  502 -0.64895521383E+02 -0.89461688260E+01 -0.12571582351E+03  0.14176011750E+03  0.00000000000E+00 0. -1.
         21    1    1    2  506  504  0.78090423651E+02  0.29433027245E+02 -0.94983968643E+02  0.12643722418E+03  0.00000000000E+00 0. -1.
<scales pt_clust_3="55.09250" pt_clust_4="58.62758" pt_clust_5="14000.00000" pt_clust_6="71.14447"></scales>
<clustering>
<clus scale="   55.093">  1  3  2 -1</clus>
<clus scale="   58.628">  1  4  2 -1</clus>
<clus scale="   71.144">  1  6  2 -1</clus>
<clus scale="   55.093">  1  3  2 -1</clus>
</clustering>
</event>
<event>
 6    0  0.8610502E+002  0.1603463E+03  0.7546771E-02  0.1188306E+00
         21   -1    0    0  505  501  0.00000000000E+00  0.00000000000E+00  0.14225510408E+04  0.14225510408E+04  0.00000000000E+00 0.  1.
         21   -1    0    0  503  502 -0.00000000000E+00 -0.00000000000E+00 -0.20019365055E+03  0.20019365055E+03  0.00000000000E+00 0.  1.
         21    1    1    2  503  506 -0.27368665423E+01 -0.46019703139E+02  0.21872216587E+03  0.22352782681E+03  0.00000000000E+00 0.  1.
         21    1    1    2  504  501 -0.46695951414E+02 -0.17226690198E+02  0.79364970070E+03  0.79520885191E+03  0.00000000000E+00 0.  1.
         21    1    1    2  505  502  0.11079587357E+03  0.10744994692E+03 -0.16238729873E+03  0.22403314818E+03  0.00000000000E+00 0.  1.
         21    1    1    2  506  504 -0.61363055612E+02 -0.44203553586E+02  0.37237282246E+03  0.37997486449E+03  0.00000000000E+00 0.  1.
<scales pt_clust_3="39.60526" pt_clust_4="49.77219" pt_clust_5="152.11099" pt_clust_6="39.60526"></scales>
<clustering>
<clus scale="   39.605">  3  6 -1 -1</clus>
<clus scale="   49.772">  1  4  2 -1</clus>
<clus scale="  152.111">  2  5  1 -1</clus>
<clus scale="   49.772">  1  3  2 -1</clus>
</clustering>
</event>
<event>
 6    0  0.8610502E+002  0.7762102E+02  0.7546771E-02  0.1335941E+00
         21   -1    0    0  505  501  0.00000000000E+00  0.00000000000E+00  0.58116798373E+03  0.58116798373E+03  0.00000000000E+00 0.  1.
         21   -1    0    0  506  502 -0.00000000000E+00 -0.00000000000E+00 -0.19337394254E+03  0.19337394254E+03  0.00000000000E+00 0.  1.
         21    1    1    2  503  504  0.27740350568E+01 -0.57045466824E+02 -0.18024066723E+02  0.59889460984E+02  0.00000000000E+00 0.  1.
         21    1    1    2  504  501 -0.91734609875E+02  0.35789849924E+02  0.40671144836E+03  0.41846189101E+03  0.00000000000E+00 0.  1.
         21    1    1    2  505  502  0.58988033982E+02  0.29566755160E+02  0.13847587451E+03  0.15339279313E+03  0.00000000000E+00 0.  1.
         21    1    1    2  506  503  0.29972540837E+02 -0.83111382599E+01 -0.13936921495E+03  0.14279778114E+03  0.00000000000E+00 0.  1.
<scales pt_clust_3="68.03793" pt_clust_4="14000.00000" pt_clust_5="77.62102" pt_clust_6="31.10351"></scales>
<clustering>
<clus scale="   31.104">  2  6  1 -1</clus>
<clus scale="   68.038">  2  3  1 -1</clus>
<clus scale="   77.621">  2  5  1 -1</clus>
<clus scale="   77.621">  1  3  2 -1</clus>
</clustering>
</event>
<event>
 6    0  0.8610502E+002  0.3593712E+03  0.7546771E-02  0.1058833E+00
         21   -1    0    0  506  501  0.00000000000E+00  0.00000000000E+00  0.25938239006E+03  0.25938239006E+03  0.00000000000E+00 0. -1.
         21   -1    0    0  503  502 -0.00000000000E+00 -0.00000000000E+00 -0.14789585187E+04  0.14789585187E+04  0.00000000000E+00 0.  1.
         21    1    1    2  503  501 -0.66495448116E+02 -0.71806588629E+02 -0.32076190795E+02  0.10298889652E+03  0.00000000000E+00 0.  1.
         21    1    1    2  504  505  0.29661879979E+03  0.23257887710E+03 -0.14883048505E+03  0.40524826926E+03  0.00000000000E+00 0. -1.
         21    1    1    2  505  502 -0.31056884075E+03 -0.17453139838E+03 -0.10809829240E+04  0.11381732275E+04  0.00000000000E+00 0.  1.
         21    1    1    2  506  504  0.80445489072E+02  0.13759109906E+02  0.42313471245E+02  0.91930515424E+02  0.00000000000E+00 0. -1.
<scales pt_clust_3="86.41153" pt_clust_4="14000.00000" pt_clust_5="359.37120" pt_clust_6="81.61366"></scales>
<clustering>
<clus scale="   81.614">  1  6  2 -1</clus>
<clus scale="   86.412">  1  3  2 -1</clus>
<clus scale="  359.371">  2  5  1 -1</clus>
<clus scale="   81.614">  1  3  2 -1</clus>
</clustering>
</event>
<event>
 6    0  0.8610502E+002  0.1273088E+03  0.7546771E-02  0.1231505E+00
         21   -1    0    0  506  501  0.00000000000E+00  0.00000000000E+00  0.79729033050E+02  0.79729033050E+02  0.00000000000E+00 0. -1.
         21   -1    0    0  504  502 -0.00000000000E+00 -0.00000000000E+00 -0.29328026047E+03  0.29328026047E+03  0.00000000000E+00 0.  1.
         21    1    1    2  503  502 -0.37154995033E+02 -0.18665833787E+02 -0.82415975416E+02  0.92310887823E+02  0.00000000000E+00 0.  1.
         21    1    1    2  504  505  0.11078031838E+02  0.32444551731E+02 -0.23956880557E+02  0.41824679944E+02  0.00000000000E+00 0.  1.
         21    1    1    2  505  501 -0.50693754799E+02  0.77012018336E+02 -0.29308375767E+02  0.96745483791E+02  0.00000000000E+00 0. -1.
         21    1    1    2  506  503  0.76770717994E+02 -0.90790736280E+02 -0.77869995676E+02  0.14212824196E+03  0.00000000000E+00 0.  1.
<scales pt_clust_3="41.58013" pt_clust_4="32.34965" pt_clust_5="32.34965" pt_clust_6="115.72883"></scales>
<clustering>
<clus scale="   32.350">  4  5 -1 -1</clus>
<clus scale="   41.580">  2  3  1 -1</clus>
<clus scale="  115.729">  2  6  1 -1</clus>
<clus scale="  127.309">  1  3  2 -1</clus>
</clustering>
</event>
<event>
 6    0  0.8610502E+002  0.1160426E+03  0.7546771E-02  0.1249772E+00
         21   -1    0    0  503  501  0.00000000000E+00  0.00000000000E+00  0.72992947183E+02  0.72992947183E+02  0.00000000000E+00 0. -1.
         21   -1    0    0  504  502 -0.00000000000E+00 -0.00000000000E+00 -0.22372734008E+04  0.22372734008E+04  0.00000000000E+00 0.  1.
         21    1    1    2  503  505 -0.92499808804E+02 -0.71943237945E+02 -0.15803789831E+02  0.11824467805E+03  0.00000000000E+00 0. -1.
         21    1    1    2  504  501  0.84551417609E+02  0.73200815180E+02 -0.24200032317E+03  0.26659230668E+03  0.00000000000E+00 0. -1.
         21    1    1    2  505  506  0.42482116977E+02 -0.15343392177E+02 -0.45614152373E+02  0.64193464178E+02  0.00000000000E+00 0. -1.
         21    1    1    2  506  502 -0.34533725782E+02  0.14085814942E+02 -0.18608621883E+04  0.18612358991E+04  0.00000000000E+00 0.  1.
<scales pt_clust_3="116.04260" pt_clust_4="14000.00000" pt_clust_5="39.73041" pt_clust_6="37.29596"></scales>
<clustering>
<clus scale="   37.296">  2  6  1 -1</clus>
<clus scale="   39.730">  2  5  1 -1</clus>
<clus scale="  116.043">  1  3  2 -1</clus>
<clus scale="  116.043">  1  3  2 -1</clus>
</clustering>
</event>
<event>
 6    0  0.8610502E+002  0.1454686E+03  0.7546771E-02  0.1206154E+00
         21   -1    0    0  505  501  0.00000000000E+00  0.00000000000E+00  0.27325171440E+03  0.27325171440E+03  0.00000000000E+00 0. -1.
         21   -1    0    0  504  502 -0.00000000000E+00 -0.00000000000E+00 -0.71128135051E+03  0.71128135051E+03  0.00000000000E+00 0. -1.
         21    1    1    2  503  502  0.39485213618E+02 -0.18057070782E+02 -0.50946956806E+03  0.51131632154E+03  0.00000000000E+00 0. -1.
         21    1    1    2  504  506  0.10371288573E+03 -0.42877016885E+02 -0.15330787877E+03  0.18999501819E+03  0.00000000000E+00 0. -1.
         21    1    1    2  505  503 -0.24714225050E+02  0.20250550156E+02  0.80996098427E+01  0.32961817017E+02  0.00000000000E+00 0.  1.
         21    1    1    2  506  501 -0.11848387429E+03  0.40683537511E+02  0.21664820087E+03  0.25025990816E+03  0.00000000000E+00 0. -1.
<scales pt_clust_3="43.30532" pt_clust_4="145.46858" pt_clust_5="31.95118" pt_clust_6="14000.00000"></scales>
<clustering>
<clus scale="   31.951">  1  5  2 -1</clus>
<clus scale="   43.305">  2  3  1 -1</clus>
<clus scale="  145.469">  2  4  1 -1</clus>
<clus scale="   31.951">  1  3  2 -1</clus>
</clustering>
</event>
<event>
 6    0  0.8610502E+002  0.1150898E+03  0.7546771E-02  0.1251424E+00
         21   -1    0    0  503  501  0.00000000000E+00  0.00000000000E+00  0.12913355425E+04  0.12913355425E+04  0.00000000000E+00 0.  1.
         21   -1    0    0  506  502 -0.00000000000E+00 -0.00000000000E+00 -0.95870230883E+02  0.95870230883E+02  0.00000000000E+00 0. -1.
         21    1    1    2  503  502  0.66529393506E+02  0.81776312695E+02  0.11951203222E+04  0.11997608553E+04  0.00000000000E+00 0.  1.
         21    1    1    2  504  501 -0.45619792637E+02 -0.71380241903E+02  0.39024061873E+02  0.93269404520E+02  0.00000000000E+00 0. -1.
         21    1    1    2  505  504 -0.18467472669E+02 -0.44696247120E+02 -0.99668038221E+01  0.49377517473E+02  0.00000000000E+00 0. -1.
         21    1    1    2  506  505 -0.24421282001E+01  0.34300176328E+02 -0.28712268579E+02  0.44797996085E+02  0.00000000000E+00 0. -1.
<scales pt_clust_3="106.40856" pt_clust_4="33.13222" pt_clust_5="33.13222" pt_clust_6="34.38700"></scales>
<clustering>
<clus scale="   33.132">  4  5 -1 -1</clus>
<clus scale="   34.387">  2  6  1 -1</clus>
<clus scale="  106.409">  1  3  2 -1</clus>
<clus scale="  106.409">  1  3  2 -1</clus>
</clustering>
</event>
<event>
 6    0  0.8610502E+002  0.7663519E+02  0.7546771E-02  0.1338881E+00
         21   -1    0    0  506  501  0.00000000000E+00  0.00000000000E+00  0.29379616199E+02  0.29379616199E+02  0.00000000000E+00 0.  1.
         21   -1    0    0  503  502 -0.00000000000E+00 -0.00000000000E+00 -0.11327584978E+04  0.11327584978E+04  0.00000000000E+00 0.  1.
         21    1    1    2  503  505  0.19214842136E+01  0.31615690130E+02 -0.10314252802E+03  0.10789636255E+03  0.00000000000E+00 0.  1.
         21    1    1    2  504  502 -0.61548206699E+02 -0.41229573564E+02 -0.63984888565E+03  0.64412316831E+03  0.00000000000E+00 0.  1.
         21    1    1    2  505  501 -0.58156824793E+02  0.89333689290E+01 -0.46932032035E+02  0.75263782667E+02  0.00000000000E+00 0.  1.
         21    1    1    2  506  504  0.11778354728E+03  0.68051450466E+00 -0.31345543587E+03  0.33485480045E+03  0.00000000000E+00 0.  1.
<scales pt_clust_3="31.67403" pt_clust_4="76.63519" pt_clust_5="59.04130" pt_clust_6="14000.00000"></scales>
<clustering>
<clus scale="   31.674">  2  3  1 -1</clus>
<clus scale="   59.041">  1  5  2 -1</clus>
<clus scale="   76.635">  2  4  1 -1</clus>
<clus scale="   59.041">  1  3  2 -1</clus>
</clustering>
</event>
<event>
 6    0  0.8610502E+002  0.9761305E+02  0.7546771E-02  0.1285397E+00
         21   -1    0    0  503  501  0.00000000000E+00  0.00000000000E+00  0.74005972670E+03  0.74005972670E+03  0.00000000000E+00 0.  1.
         21   -1    0    0  506  502 -0.00000000000E+00 -0.00000000000E+00 -0.26874181783E+03  0.26874181783E+03  0.00000000000E+00 0.  1.
         21    1    1    2  503  505  0.41795633552E+02 -0.39868064442E+02  0.62732172972E+03  0.62997530914E+03  0.00000000000E+00 0.  1.
         21    1    1    2  504  501  0.35041219716E+02 -0.17791457731E+02  0.40484437319E+02  0.56421739715E+02  0.00000000000E+00 0. -1.
         21    1    1    2  505  502  0.62600935861E+02  0.86957100362E+01 -0.15728499643E+03  0.16950829669E+03  0.00000000000E+00 0.  1.
         21    1    1    2  506  504 -0.13943778913E+03  0.48963812136E+02 -0.39203261739E+02  0.15289619900E+03  0.00000000000E+00 0.  1.
<scales pt_clust_3="14000.00000" pt_clust_4="39.29915" pt_clust_5="63.48739" pt_clust_6="97.61305"></scales>
<clustering>
<clus scale="   39.299">  1  4  2 -1</clus>
<clus scale="   63.487">  2  5  1 -1</clus>
<clus scale="   97.613">  2  6  1 -1</clus>
<clus scale="   39.299">  1  3  2 -1</clus>
</clustering>
</event>
<event>
 6    0  0.8610502E+002  0.9636601E+02  0.7546771E-02  0.1288129E+00
         21   -1    0    0  504  501  0.00000000000E+00  0.00000000000E+00  0.20774166348E+04  0.20774166348E+04  0.00000000000E+00 0.  1.
         21   -1    0    0  505  502 -0.00000000000E+00 -0.00000000000E+00 -0.21456323359E+03  0.21456323359E+03  0.00000000000E+00 0.  1.
         21    1    1    2  503  501  0.33847449589E+02 -0.57426016055E+02  0.17263681040E+04  0.17276545453E+04  0.00000000000E+00 0.  1.
         21    1    1    2  504  502  0.41347895925E+02 -0.12889157619E+02  0.11164952065E+03  0.11975556080E+03  0.00000000000E+00 0. -1.
         21    1    1    2  505  506 -0.51938063044E+02 -0.35157576779E+02 -0.19218392920E+03  0.20215904690E+03  0.00000000000E+00 0.  1.
         21    1    1    2  506  503 -0.23257282470E+02  0.10547275045E+03  0.21701970570E+03  0.24241071539E+03  0.00000000000E+00 0.  1.
<scales pt_clust_3="14000.00000" pt_clust_4="43.31026" pt_clust_5="62.64993" pt_clust_6="96.36601"></scales>
<clustering>
<clus scale="   43.310">  1  4  2 -1</clus>
<clus scale="   62.650">  2  5  1 -1</clus>
<clus scale="   96.366">  2  6  1 -1</clus>
<clus scale="   43.310">  1  3  2 -1</clus>
</clustering>
</event>
<event>
 6    0  0.8610502E+002  0.9288486E+02  0.7546771E-02  0.1296012E+00
         21   -1    0    0  504  501  0.00000000000E+00  0.00000000000E+00  0.66582604060E+03  0.66582604060E+03  0.00000000000E+00 0.  1.
         21   -1    0    0  505  502 -0.00000000000E+00 -0.00000000000E+00 -0.18346597809E+03  0.18346597809E+03  0.00000000000E+00 0.  1.
         21    1    1    2  503  502 -0.42551096082E+02 -0.83025299507E+02 -0.15640492408E+03  0.18211616186E+03  0.00000000000E+00 0.  1.
         21    1    1    2  504  503  0.42545531374E+02  0.67104544522E+02  0.42834840546E+03  0.43565525200E+03  0.00000000000E+00 0.  1.
         21    1    1    2  505  506  0.36449181375E+02  0.27209237859E+02  0.54415454507E+02  0.70921979224E+02  0.00000000000E+00 0.  1.
         21    1    1    2  506  501 -0.36443616667E+02 -0.11288482874E+02  0.15600112661E+03  0.16059862560E+03  0.00000000000E+00 0.  1.
<scales pt_clust_3="92.88486" pt_clust_4="14000.00000" pt_clust_5="41.07532" pt_clust_6="38.15189"></scales>
<clustering>
<clus scale="   38.152">  1  6  2 -1</clus>
<clus scale="   41.075">  1  5  2 -1</clus>
<clus scale="   92.885">  2  3  1 -1</clus>
<clus scale="   38.152">  1  3  2 -1</clus>
</clustering>
</event>
<event>
 6    0  0.8610502E+002  0.1300393E+03  0.7546771E-02  0.1227397E+00
         21   -1    0    0  506  501  0.00000000000E+00  0.00000000000E+00  0.29120991408E+04  0.29120991408E+04  0.00000000000E+00 0.  1.
         21   -1    0    0  505  502 -0.00000000000E+00 -0.00000000000E+00 -0.28730724541E+03  0.28730724541E+03  0.00000000000E+00 0.  1.
         21    1    1    2  503  504  0.13357699249E+03  0.22252224178E+01  0.89836203343E+02  0.16099163944E+03  0.00000000000E+00 0.  1.
         21    1    1    2  504  502 -0.15904261718E+02  0.10446565865E+03 -0.22292354303E+03  0.24670007178E+03  0.00000000000E+00 0.  1.
         21    1    1    2  505  501 -0.49539070990E+02  0.19354157953E+02  0.24659060639E+04  0.24664795598E+04  0.00000000000E+00 0.  1.
         21    1    1    2  506  503 -0.68133659787E+02 -0.12604503902E+03  0.29197317118E+03  0.32523511518E+03  0.00000000000E+00 0.  1.
<scales pt_clust_3="130.03925" pt_clust_4="106.38538" pt_clust_5="53.18555" pt_clust_6="14000.00000"></scales>
<clustering>
<clus scale="   53.186">  1  5  2 -1</clus>
<clus scale="  106.385">  2  4  1 -1</clus>
<clus scale="  130.039">  2  3  1 -1</clus>
<clus scale="   53.186">  1  3  2 -1</clus>
</clustering>
</event>
<event>
 6    0  0.8610502E+002  0.8143756E+02  0.7546771E-02  0.1325021E+00
         21   -1    0    0  503  501  0.00000000000E+00  0.00000000000E+00  0.41766057757E+03  0.41766057757E+03  0.00000000000E+00 0.  1.
         21   -1    0    0  506  502 -0.00000000000E+00 -0.00000000000E+00 -0.57620348383E+03  0.57620348383E+03  0.00000000000E+00 0.  1.
         21    1    1    2  503  504 -0.71950610021E+02 -0.12762341951E+03  0.14169234960E+02  0.14719169375E+03  0.00000000000E+00 0.  1.
         21    1    1    2  504  502  0.50979267849E+00  0.36309741795E+02 -0.41447846891E+02  0.55105183510E+02  0.00000000000E+00 0. -1.
         21    1    1    2  505  501  0.43664961005E+02  0.63497083973E+02  0.32479759272E+03  0.33381429677E+03  0.00000000000E+00 0.  1.
         21    1    1    2  506  505  0.27775856337E+02  0.27816593744E+02 -0.45606188704E+03  0.45775288737E+03  0.00000000000E+00 0.  1.
<scales pt_clust_3="81.43756" pt_clust_4="36.31332" pt_clust_5="14000.00000" pt_clust_6="65.61851"></scales>
<clustering>
<clus scale="   36.313">  2  4  1 -1</clus>
<clus scale="   65.619">  2  6  1 -1</clus>
<clus scale="   81.438">  2  3  1 -1</clus>
<clus scale="   81.438">  1  3  2 -1</clus>
</clustering>
</event>
<event>
 6    0  0.8610502E+002  0.6288303E+02  0.7546771E-02  0.1386116E+00
         21   -1    0    0  503  501  0.00000000000E+00  0.00000000000E+00  0.20252050675E+03  0.20252050675E+03  0.00000000000E+00 0. -1.
         21   -1    0    0  504  502 -0.00000000000E+00 -0.00000000000E+00 -0.19523037463E+03  0.19523037463E+03  0.00000000000E+00 0. -1.
         21    1    1    2  503  506  0.40878929799E+02 -0.48871203234E+02  0.13189470679E+03  0.14647762657E+03  0.00000000000E+00 0. -1.
         21    1    1    2  504  505 -0.27019474614E+02 -0.40303541698E+02 -0.84807917531E+02  0.97707780436E+02  0.00000000000E+00 0. -1.
         21    1    1    2  505  501 -0.39522242554E+02 -0.69840172129E+01  0.11294137036E+02  0.41693424953E+02  0.00000000000E+00 0. -1.
         21    1    1    2  506  502  0.25662787370E+02  0.96158762145E+02 -0.51090794173E+02  0.11187204942E+03  0.00000000000E+00 0. -1.
<scales pt_clust_3="62.88303" pt_clust_4="49.55275" pt_clust_5="40.13458" pt_clust_6="14000.00000"></scales>
<clustering>
<clus scale="   40.135">  1  5  2 -1</clus>
<clus scale="   49.553">  2  4  1 -1</clus>
<clus scale="   62.883">  1  3  2 -1</clus>
<clus scale="   40.135">  1  3  2 -1</clus>
</clustering>
</event>
<event>
 6    0  0.8610502E+002  0.1840637E+03  0.7546771E-02  0.1163927E+00
         21   -1    0    0  504  501  0.00000000000E+00  0.00000000000E+00  0.10838556789E+04  0.10838556789E+04  0.00000000000E+00 0.  1.
         21   -1    0    0  506  502 -0.00000000000E+00 -0.00000000000E+00 -0.20691700762E+03  0.20691700762E+03  0.00000000000E+00 0. -1.
         21    1    1    2  503  502 -0.56083972804E+02 -0.30645327278E+02  0.13259249274E+03  0.14719143053E+03  0.00000000000E+00 0.  1.
         21    1    1    2  504  503 -0.86570454832E+02 -0.11859066558E+03  0.51977496003E+03  0.54011498654E+03  0.00000000000E+00 0.  1.
         21    1    1    2  505  501  0.13922280968E+03  0.58896579293E+02  0.38816101870E+03  0.41655824830E+03  0.00000000000E+00 0.  1.
         21    1    1    2  506  505  0.34316179566E+01  0.90339413560E+02 -0.16358980019E+03  0.18690802115E+03  0.00000000000E+00 0. -1.
<scales pt_clust_3="42.68138" pt_clust_4="42.68138" pt_clust_5="172.32037" pt_clust_6="90.40457"></scales>
<clustering>
<clus scale="   42.681">  3  4 -1 -1</clus>
<clus scale="   90.405">  2  6  1 -1</clus>
<clus scale="  172.320">  1  5  2 -1</clus>
<clus scale="  172.320">  1  3  2 -1</clus>
</clustering>
</event>
<event>
 6    0  0.8610502E+002  0.1004248E+03  0.7546771E-02  0.1279405E+00
         21   -1    0    0  504  501  0.00000000000E+00  0.00000000000E+00  0.55440510945E+03  0.55440510945E+03  0.00000000000E+00 0. -1.
         21   -1    0    0  505  502 -0.00000000000E+00 -0.00000000000E+00 -0.36681190184E+03  0.36681190184E+03  0.00000000000E+00 0.  1.
         21    1    1    2  503  502  0.20529646762E+02  0.36236986596E+02 -0.64794267075E+02  0.77025207819E+02  0.00000000000E+00 0.  1.
         21    1    1    2  504  506  0.44286334026E+02 -0.76542214758E+02  0.50826941523E+03  0.51590482502E+03  0.00000000000E+00 0. -1.
         21    1    1    2  505  501 -0.69458281090E+02 -0.27328241849E+02 -0.12551016693E+02  0.75688926763E+02  0.00000000000E+00 0. -1.
         21    1    1    2  506  503  0.46423003026E+01  0.67633470010E+02 -0.24333092384E+03  0.25259805169E+03  0.00000000000E+00 0.  1.
<scales pt_clust_3="37.48898" pt_clust_4="88.30334" pt_clust_5="74.64105" pt_clust_6="37.48898"></scales>
<clustering>
<clus scale="   37.489">  3  6 -1 -1</clus>
<clus scale="   74.641">  2  5  1 -1</clus>
<clus scale="   88.303">  1  4  2 -1</clus>
<clus scale="   88.303">  1  3  2 -1</clus>
</clustering>
</event>
<event>
 6    0  0.8610502E+002  0.1255211E+03  0.7546771E-02  0.1234257E+00
         21   -1    0    0  505  501  0.00000000000E+00  0.00000000000E+00  0.37854112774E+03  0.37854112774E+03  0.00000000000E+00 0. -1.
         21   -1    0    0  506  502 -0.00000000000E+00 -0.00000000000E+00 -0.13031303072E+03  0.13031303072E+03  0.00000000000E+00 0. -1.
         21    1    1    2  503  502  0.77644995513E+02 -0.87055805620E+01 -0.50897687448E+02  0.93247557870E+02  0.00000000000E+00 0. -1.
         21    1    1    2  504  503  0.31594803871E+02  0.21065011411E+02 -0.33692492432E+01  0.38122410441E+02  0.00000000000E+00 0. -1.
         21    1    1    2  505  504  0.41304136976E+02  0.48170894826E+02  0.80039604396E+02  0.10214110393E+03  0.00000000000E+00 0. -1.
         21    1    1    2  506  501 -0.15054393636E+03 -0.60530325675E+02  0.22245542932E+03  0.27534308623E+03  0.00000000000E+00 0. -1.
<scales pt_clust_3="32.89982" pt_clust_4="32.89982" pt_clust_5="63.45445" pt_clust_6="116.31199"></scales>
<clustering>
<clus scale="   32.900">  3  4 -1 -1</clus>
<clus scale="   63.454">  1  5  2 -1</clus>
<clus scale="  116.312">  1  6  2 -1</clus>
<clus scale="   63.454">  1  3  2 -1</clus>
</clustering>
</event>
<event>
 6    0  0.8610502E+002  0.2561033E+03  0.7546771E-02  0.1109507E+00
         21   -1    0    0  505  501  0.00000000000E+00  0.00000000000E+00  0.29104690159E+04  0.29104690159E+04  0.00000000000E+00 0. -1.
         21   -1    0    0  503  502 -0.00000000000E+00 -0.00000000000E+00 -0.52197469805E+02  0.52197469805E+02  0.00000000000E+00 0. -1.
         21    1    1    2  503  506 -0.48194693053E+02  0.11181067717E+03  0.41326148506E+03  0.43082410680E+03  0.00000000000E+00 0.  1.
         21    1    1    2  504  502  0.78307208600E+02 -0.51706407973E+02  0.24060112371E+03  0.25825272946E+03  0.00000000000E+00 0. -1.
         21    1    1    2  505  504 -0.16497062368E+03 -0.25292184375E+03  0.93485216501E+03  0.98241199919E+03  0.00000000000E+00 0. -1.
         21    1    1    2  506  501  0.13485810813E+03  0.19281757456E+03  0.12695567723E+04  0.12911776502E+04  0.00000000000E+00 0. -1.
<scales pt_clust_3="106.37695" pt_clust_4="93.83801" pt_clust_5="14000.00000" pt_clust_6="256.10330"></scales>
<clustering>
<clus scale="   93.838">  2  4  1 -1</clus>
<clus scale="  106.377">  2  3  1 -1</clus>
<clus scale="  256.103">  1  6  2 -1</clus>
<clus scale="  256.103">  1  3  2 -1</clus>
</clustering>
</event>
<event>
 6    0  0.8610502E+002  0.1177173E+03  0.7546771E-02  0.1246911E+00
         21   -1    0    0  503  501  0.00000000000E+00  0.00000000000E+00  0.46513526814E+03  0.46513526814E+03  0.00000000000E+00 0. -1.
         21   -1    0    0  504  502 -0.00000000000E+00 -0.00000000000E+00 -0.96324262311E+02  0.96324262311E+02  0.00000000000E+00 0. -1.
         21    1    1    2  503  505 -0.79436801752E+02  0.66480432916E+02  0.20128603258E+03  0.22637561783E+03  0.00000000000E+00 0. -1.
         21    1    1    2  504  506  0.30183743758E+02  0.39960987499E+02  0.21222781385E+02  0.54390673454E+02  0.00000000000E+00 0.  1.
         21    1    1    2  505  502 -0.67580471659E+02  0.16129719242E+02  0.32744000467E+02  0.76807926408E+02  0.00000000000E+00 0.  1.
         21    1    1    2  506  501  0.11683352965E+03 -0.12257113966E+03  0.11355819140E+03  0.20388531277E+03  0.00000000000E+00 0. -1.
<scales pt_clust_3="14000.00000" pt_clust_4="50.07933" pt_clust_5="65.17458" pt_clust_6="117.71734"></scales>
<clustering>
<clus scale="   50.079">  2  4  1 -1</clus>
<clus scale="   65.175">  2  5  1 -1</clus>
<clus scale="  117.717">  2  6  1 -1</clus>
<clus scale="  117.717">  1  3  2 -1</clus>
</clustering>
</event>
<event>
 6    0  0.8610502E+002  0.1176631E+03  0.7546771E-02  0.1247003E+00
         21   -1    0    0  502  501  0.00000000000E+00  0.00000000000E+00  0.59881862279E+03  0.59881862279E+03  0.00000000000E+00 0. -1.
         21   -1    0    0  503  502 -0.00000000000E+00 -0.00000000000E+00 -0.65953930217E+02  0.65953930217E+02  0.00000000000E+00 0. -1.
         21    1    1    2  503  504 -0.11672029889E+02  0.12773245745E+03  0.45731121935E+02  0.13617324437E+03  0.00000000000E+00 0. -1.
         21    1    1    2  504  505 -0.52996470193E+02 -0.81551425457E+02  0.31783976194E+03  0.33238738712E+03  0.00000000000E+00 0. -1.
         21    1    1    2  505  506  0.21703876130E+02 -0.51509915887E+02  0.95793971258E+02  0.11090903752E+03  0.00000000000E+00 0. -1.
         21    1    1    2  506  501  0.42964623952E+02  0.53288838913E+01  0.73499837433E+02  0.85302883993E+02  0.00000000000E+00 0. -1.
<scales pt_clust_3="117.66307" pt_clust_4="14000.00000" pt_clust_5="58.82511" pt_clust_6="43.29383"></scales>
<clustering>
<clus scale="   43.294">  1  6  2 -1</clus>
<clus scale="   58.825">  1  5  2 -1</clus>
<clus scale="  117.663">  2  3  1 -1</clus>
<clus scale="   43.294">  1  3  2 -1</clus>
</clustering>
</event>
<event>
 6    0  0.8610502E+002  0.1207207E+03  0.7546771E-02  0.1241913E+00
         21   -1    0    0  504  501  0.00000000000E+00  0.00000000000E+00  0.68551401471E+02  0.68551401471E+02  0.00000000000E+00 0. -1.
         21   -1    0    0  503  502 -0.00000000000E+00 -0.00000000000E+00 -0.95237670721E+03  0.95237670721E+03  0.00000000000E+00 0. -1.
         21    1    1    2  503  501 -0.11196686982E+03  0.50242784463E+01 -0.10676771708E+03  0.15479395570E+03  0.00000000000E+00 0. -1.
         21    1    1    2  504  505  0.49754372713E+02  0.37461055874E+02  0.18499641253E+01  0.62307709624E+02  0.00000000000E+00 0. -1.
         21    1    1    2  505  506  0.49583978582E+02  0.12820609779E+02 -0.46346054938E+02  0.69071671294E+02  0.00000000000E+00 0. -1.
         21    1    1    2  506  502  0.12628518530E+02 -0.55305944100E+02 -0.73256149785E+03  0.73475477206E+03  0.00000000000E+00 0. -1.
<scales pt_clust_3="108.11659" pt_clust_4="48.70136" pt_clust_5="48.70136" pt_clust_6="56.72942"></scales>
<clustering>
<clus scale="   48.701">  4  5 -1 -1</clus>
<clus scale="   56.729">  2  6  1 -1</clus>
<clus scale="  108.117">  2  3  1 -1</clus>
<clus scale="  120.721">  1  3  2 -1</clus>
</clustering>
</event>
<event>
 6    0  0.8610502E+002  0.1303469E+03  0.7546771E-02  0.1226942E+00
         21   -1    0    0  505  501  0.00000000000E+00  0.00000000000E+00  0.26262523272E+03  0.26262523272E+03  0.00000000000E+00 0. -1.
         21   -1    0    0  504  502 -0.00000000000E+00 -0.00000000000E+00 -0.72330067563E+03  0.72330067563E+03  0.00000000000E+00 0. -1.
         21    1    1    2  503  502 -0.59310793138E+02  0.28303980771E+02 -0.46383797033E+03  0.46847043475E+03  0.00000000000E+00 0. -1.
         21    1    1    2  504  501 -0.10080183654E+03 -0.10186769670E+03  0.18683094309E+03  0.23546515491E+03  0.00000000000E+00 0. -1.
         21    1    1    2  505  506  0.48846641148E+02 -0.16202997697E+02 -0.29316060433E+01  0.51547316126E+02  0.00000000000E+00 0. -1.
         21    1    1    2  506  503  0.11126598853E+03  0.89766713622E+02 -0.18073680962E+03  0.23044300256E+03  0.00000000000E+00 0.  1.
<scales pt_clust_3="65.22198" pt_clust_4="130.34686" pt_clust_5="51.46389" pt_clust_6="14000.00000"></scales>
<clustering>
<clus scale="   51.464">  1  5  2 -1</clus>
<clus scale="   65.222">  2  3  1 -1</clus>
<clus scale="  130.347">  1  4  2 -1</clus>
<clus scale="   51.464">  1  3  2 -1</clus>
</clustering>
</event>
<event>
 6    0  0.8610502E+002  0.6804819E+02  0.7546771E-02  0.1366859E+00
         21   -1    0    0  505  501  0.00000000000E+00  0.00000000000E+00  0.12234133725E+04  0.12234133725E+04  0.00000000000E+00 0. -1.
         21   -1    0    0  503  502 -0.00000000000E+00 -0.00000000000E+00 -0.16252712095E+03  0.16252712095E+03  0.00000000000E+00 0. -1.
         21    1    1    2  503  506  0.85752557871E+02  0.20678110777E+02  0.25422651383E+02  0.91800853210E+02  0.00000000000E+00 0. -1.
         21    1    1    2  504  502 -0.48342793733E+02  0.42643112271E+01 -0.10573636712E+03  0.11634169239E+03  0.00000000000E+00 0. -1.
         21    1    1    2  505  504  0.46530320022E+02 -0.42587085709E+01  0.10539028266E+04  0.10549380907E+04  0.00000000000E+00 0. -1.
         21    1    1    2  506  501 -0.83940084159E+02 -0.20683713433E+02  0.87297140737E+02  0.12285985720E+03  0.00000000000E+00 0. -1.
<scales pt_clust_3="68.04819" pt_clust_4="47.06438" pt_clust_5="46.72480" pt_clust_6="14000.00000"></scales>
<clustering>
<clus scale="   46.725">  1  5  2 -1</clus>
<clus scale="   47.064">  2  4  1 -1</clus>
<clus scale="   68.048">  2  3  1 -1</clus>
<clus scale="   46.725">  1  3  2 -1</clus>
</clustering>
</event>
<event>
 6    0  0.8610502E+002  0.1268997E+03  0.7546771E-02  0.1232130E+00
         21   -1    0    0  504  501  0.00000000000E+00  0.00000000000E+00  0.37081623030E+03  0.37081623030E+03  0.00000000000E+00 0.  1.
         21   -1    0    0  503  502 -0.00000000000E+00 -0.00000000000E+00 -0.15777396418E+03  0.15777396418E+03  0.00000000000E+00 0.  1.
         21    1    1    2  503  505  0.71898104759E+01 -0.49436567080E+02  0.76252121500E+01  0.50535249081E+02  0.00000000000E+00 0.  1.
         21    1    1    2  504  506  0.12580776127E+02  0.10312678747E+03  0.19323109948E+03  0.21938930700E+03  0.00000000000E+00 0.  1.
         21    1    1    2  505  501  0.30432157421E+02 -0.92093495485E+02  0.10718902693E+03  0.14455730908E+03  0.00000000000E+00 0.  1.
         21    1    1    2  506  502 -0.50202744024E+02  0.38403275100E+02 -0.95003072440E+02  0.11410832931E+03  0.00000000000E+00 0.  1.
<scales pt_clust_3="42.04781" pt_clust_4="112.56517" pt_clust_5="42.04781" pt_clust_6="63.20702"></scales>
<clustering>
<clus scale="   42.048">  3  5 -1 -1</clus>
<clus scale="   63.207">  2  6  1 -1</clus>
<clus scale="  112.565">  1  4  2 -1</clus>
<clus scale="  112.565">  1  3  2 -1</clus>
</clustering>
</event>
<event>
 6    0  0.8610502E+002  0.7385915E+02  0.7546771E-02  0.1347441E+00
         21   -1    0    0  506  501  0.00000000000E+00  0.00000000000E+00  0.20667133811E+03  0.20667133811E+03  0.00000000000E+00 0.  1.
         21   -1    0    0  505  502 -0.00000000000E+00 -0.00000000000E+00 -0.16659959257E+03  0.16659959257E+03  0.00000000000E+00 0.  1.
         21    1    1    2  503  502  0.73845448546E+01 -0.75675603895E+02  0.14794889957E+02  0.77461069554E+02  0.00000000000E+00 0.  1.
         21    1    1    2  504  501  0.55374008304E+02  0.30519592731E+02  0.39880887853E+02  0.74754341360E+02  0.00000000000E+00 0.  1.
         21    1    1    2  505  504  0.28459441032E+02  0.51372000788E+02 -0.86632213360E+02  0.10466213566E+03  0.00000000000E+00 0.  1.
         21    1    1    2  506  503 -0.91217994191E+02 -0.62159896242E+01  0.72028181091E+02  0.11639338410E+03  0.00000000000E+00 0.  1.
<scales pt_clust_3="56.62131" pt_clust_4="73.85915" pt_clust_5="58.72838" pt_clust_6="14000.00000"></scales>
<clustering>
<clus scale="   58.728">  2  5  1 -1</clus>
<clus scale="   56.621">  2  3  1 -1</clus>
<clus scale="   73.859">  1  4  2 -1</clus>
<clus scale="   73.859">  1  3  2 -1</clus>
</clustering>
</event>
<event>
 6    0  0.8610502E+002  0.1566825E+03  0.7546771E-02  0.1192494E+00
         21   -1    0    0  505  501  0.00000000000E+00  0.00000000000E+00  0.52220987798E+03  0.52220987798E+03  0.00000000000E+00 0. -1.
         21   -1    0    0  504  502 -0.00000000000E+00 -0.00000000000E+00 -0.11594128029E+03  0.11594128029E+03  0.00000000000E+00 0. -1.
         21    1    1    2  503  502  0.31479522579E+02  0.21951648453E+02  0.18023226634E+02  0.42398961189E+02  0.00000000000E+00 0. -1.
         21    1    1    2  504  501  0.33898285806E+02 -0.14682900125E+02  0.24012741613E+03  0.24295237664E+03  0.00000000000E+00 0. -1.
         21    1    1    2  505  506  0.23589079933E+02 -0.14929052878E+03  0.87144733254E+02  0.17446578808E+03  0.00000000000E+00 0. -1.
         21    1    1    2  506  503 -0.88966888319E+02  0.14202178045E+03  0.60973221665E+02  0.17833403237E+03  0.00000000000E+00 0. -1.
<scales pt_clust_3="40.60768" pt_clust_4="36.94159" pt_clust_5="156.68247" pt_clust_6="14000.00000"></scales>
<clustering>
<clus scale="   36.942">  1  4  2 -1</clus>
<clus scale="   40.608">  2  3  1 -1</clus>
<clus scale="  156.682">  1  5  2 -1</clus>
<clus scale="   36.942">  1  3  2 -1</clus>
</clustering>
</event>
<event>
 6    0  0.8610502E+002  0.1045058E+03  0.7546771E-02  0.1271096E+00
         21   -1    0    0  505  501  0.00000000000E+00  0.00000000000E+00  0.12949426844E+03  0.12949426844E+03  0.00000000000E+00 0.  1.
         21   -1    0    0  504  502 -0.00000000000E+00 -0.00000000000E+00 -0.10431176821E+04  0.10431176821E+04  0.00000000000E+00 0.  1.
         21    1    1    2  503  501 -0.48674155417E+01 -0.47457498426E+02 -0.21762807094E+01  0.47756068605E+02  0.00000000000E+00 0.  1.
         21    1    1    2  504  503 -0.32642653025E+02 -0.65083017411E+02 -0.58794247916E+02  0.93584750573E+02  0.00000000000E+00 0.  1.
         21    1    1    2  505  506 -0.13684380563E+02  0.89013436175E+02  0.65520070074E+02  0.11137115279E+03  0.00000000000E+00 0.  1.
         21    1    1    2  506  502  0.51194449129E+02  0.23527079662E+02 -0.91817295511E+03  0.91989997858E+03  0.00000000000E+00 0.  1.
<scales pt_clust_3="37.85830" pt_clust_4="37.85830" pt_clust_5="93.45593" pt_clust_6="56.34177"></scales>
<clustering>
<clus scale="   37.858">  3  4 -1 -1</clus>
<clus scale="   56.342">  2  6  1 -1</clus>
<clus scale="   93.456">  1  5  2 -1</clus>
<clus scale="   93.456">  1  3  2 -1</clus>
</clustering>
</event>
<event>
 6    0  0.8610502E+002  0.7622318E+02  0.7546771E-02  0.1340125E+00
         21   -1    0    0  502  501  0.00000000000E+00  0.00000000000E+00  0.80269192425E+03  0.80269192425E+03  0.00000000000E+00 0. -1.
         21   -1    0    0  505  502 -0.00000000000E+00 -0.00000000000E+00 -0.33925225795E+03  0.33925225795E+03  0.00000000000E+00 0. -1.
         21    1    1    2  503  501 -0.38692155151E+01  0.51709264262E+02  0.61476604155E+03  0.61694902924E+03  0.00000000000E+00 0. -1.
         21    1    1    2  504  506  0.59491087748E+02 -0.43304870311E+02  0.63666908978E+02  0.97303528266E+02  0.00000000000E+00 0.  1.
         21    1    1    2  505  504 -0.56244948148E+02  0.51709572908E+02 -0.30778587345E+03  0.31712697460E+03  0.00000000000E+00 0. -1.
         21    1    1    2  506  503  0.62307591494E+00 -0.60113966859E+02  0.92792589224E+02  0.11056465009E+03  0.00000000000E+00 0.  1.
<scales pt_clust_3="51.85382" pt_clust_4="76.22318" pt_clust_5="14000.00000" pt_clust_6="32.00722"></scales>
<clustering>
<clus scale="   51.854">  1  3  2 -1</clus>
<clus scale="   32.007">  1  6  2 -1</clus>
<clus scale="   76.223">  1  4  2 -1</clus>
<clus scale="   51.854">  1  3  2 -1</clus>
</clustering>
</event>
<event>
 6    0  0.8610502E+002  0.1352080E+03  0.7546771E-02  0.1219926E+00
         21   -1    0    0  504  501  0.00000000000E+00  0.00000000000E+00  0.63397102451E+03  0.63397102451E+03  0.00000000000E+00 0.  1.
         21   -1    0    0  505  502 -0.00000000000E+00 -0.00000000000E+00 -0.16338670273E+03  0.16338670273E+03  0.00000000000E+00 0.  1.
         21    1    1    2  503  506 -0.21465507749E+03 -0.33099275635E+02  0.15800094628E+03  0.26858269371E+03  0.00000000000E+00 0.  1.
         21    1    1    2  504  502 -0.24730271388E+02  0.35613927858E+02  0.20011040847E+02  0.47753323823E+02  0.00000000000E+00 0. -1.
         21    1    1    2  505  503  0.12066041215E+03 -0.17795858520E+02 -0.39364081212E+02  0.12816067466E+03  0.00000000000E+00 0.  1.
         21    1    1    2  506  501  0.11872493673E+03  0.15281206297E+02  0.33193641587E+03  0.35286103504E+03  0.00000000000E+00 0.  1.
<scales pt_clust_3="135.20804" pt_clust_4="43.35825" pt_clust_5="106.82765" pt_clust_6="14000.00000"></scales>
<clustering>
<clus scale="   43.358">  2  4  1 -1</clus>
<clus scale="  106.828">  2  5  1 -1</clus>
<clus scale="  135.208">  2  3  1 -1</clus>
<clus scale="  135.208">  1  3  2 -1</clus>
</clustering>
</event>
<event>
 6    0  0.8610502E+002  0.1003689E+03  0.7546771E-02  0.1279522E+00
         21   -1    0    0  505  501  0.00000000000E+00  0.00000000000E+00  0.48192292600E+03  0.48192292600E+03  0.00000000000E+00 0.  1.
         21   -1    0    0  506  502 -0.00000000000E+00 -0.00000000000E+00 -0.10597467839E+04  0.10597467839E+04  0.00000000000E+00 0.  1.
         21    1    1    2  503  501 -0.86999071181E+02 -0.49827568896E+02  0.45436534709E+03  0.46529506084E+03  0.00000000000E+00 0.  1.
         21    1    1    2  504  502 -0.30007229962E+02 -0.19632465242E+02 -0.96368407737E+02  0.10282381802E+03  0.00000000000E+00 0.  1.
         21    1    1    2  505  504  0.35342891977E+02 -0.27444839377E+02 -0.20016924994E+02  0.49020572294E+02  0.00000000000E+00 0. -1.
         21    1    1    2  506  503  0.81663409165E+02  0.96904873515E+02 -0.91580387230E+03  0.92453025880E+03  0.00000000000E+00 0.  1.
<scales pt_clust_3="100.36892" pt_clust_4="35.85900" pt_clust_5="44.34509" pt_clust_6="14000.00000"></scales>
<clustering>
<clus scale="   35.859">  2  4  1 -1</clus>
<clus scale="   44.345">  2  5  1 -1</clus>
<clus scale="  100.369">  1  3  2 -1</clus>
<clus scale="  100.369">  1  3  2 -1</clus>
</clustering>
</event>
<event>
 6    0  0.8610502E+002  0.1255942E+03  0.7546771E-02  0.1234144E+00
         21   -1    0    0  503  501  0.00000000000E+00  0.00000000000E+00  0.11103073723E+03  0.11103073723E+03  0.00000000000E+00 0. -1.
         21   -1    0    0  504  502 -0.00000000000E+00 -0.00000000000E+00 -0.32295575493E+03  0.32295575493E+03  0.00000000000E+00 0.  1.
         21    1    1    2  503  506  0.34143882705E+02 -0.38062733887E+01 -0.31933154926E+01  0.34503473841E+02  0.00000000000E+00 0. -1.
         21    1    1    2  504  505 -0.62191750007E+02  0.99819619773E+02 -0.18543938139E+03  0.21958946795E+03  0.00000000000E+00 0.  1.
         21    1    1    2  505  501 -0.31920711864E+02 -0.35174478426E+02  0.48809484853E+02  0.68106839525E+02  0.00000000000E+00 0. -1.
         21    1    1    2  506  502  0.59968579166E+02 -0.60838867958E+02 -0.72101805672E+02  0.11178671085E+03  0.00000000000E+00 0. -1.
<scales pt_clust_3="32.92358" pt_clust_4="114.36161" pt_clust_5="47.49922" pt_clust_6="32.92358"></scales>
<clustering>
<clus scale="   32.924">  3  6 -1 -1</clus>
<clus scale="   47.499">  1  5  2 -1</clus>
<clus scale="  114.362">  2  4  1 -1</clus>
<clus scale="   47.499">  1  3  2 -1</clus>
</clustering>
</event>
<event>
 6    0  0.8610502E+002  0.7916161E+02  0.7546771E-02  0.1331448E+00
         21   -1    0    0  503  501  0.00000000000E+00  0.00000000000E+00  0.28290889748E+03  0.28290889748E+03  0.00000000000E+00 0.  1.
         21   -1    0    0  506  502 -0.00000000000E+00 -0.00000000000E+00 -0.29234873521E+03  0.29234873521E+03  0.00000000000E+00 0. -1.
         21    1    1    2  503  502  0.28453829220E+02 -0.33699504237E+02  0.22524273532E+03  0.22952029713E+03  0.00000000000E+00 0.  1.
         21    1    1    2  504  505  0.79266534697E+02  0.65131347615E+02 -0.76624571984E+02  0.12804921318E+03  0.00000000000E+00 0. -1.
         21    1    1    2  505  501 -0.51706635875E+02 -0.42591480774E+02 -0.22629337045E+02  0.70708537837E+02  0.00000000000E+00 0. -1.
         21    1    1    2  506  504 -0.56013728042E+02  0.11159637396E+02 -0.13542866402E+03  0.14697958455E+03  0.00000000000E+00 0. -1.
<scales pt_clust_3="44.10529" pt_clust_4="14000.00000" pt_clust_5="79.16161" pt_clust_6="53.60356"></scales>
<clustering>
<clus scale="   44.105">  1  3  2 -1</clus>
<clus scale="   53.604">  2  6  1 -1</clus>
<clus scale="   79.162">  1  5  2 -1</clus>
<clus scale="   44.105">  1  3  2 -1</clus>
</clustering>
</event>
<event>
 6    0  0.8610502E+002  0.1097200E+03  0.7546771E-02  0.1261089E+00
         21   -1    0    0  504  501  0.00000000000E+00  0.00000000000E+00  0.95416049481E+03  0.95416049481E+03  0.00000000000E+00 0.  1.
         21   -1    0    0  506  502 -0.00000000000E+00 -0.00000000000E+00 -0.10689071175E+03  0.10689071175E+03  0.00000000000E+00 0. -1.
         21    1    1    2  503  502 -0.21312848740E+02 -0.60600084023E+02 -0.82080342930E+02  0.10422950830E+03  0.00000000000E+00 0. -1.
         21    1    1    2  504  505  0.32610300150E+02  0.35946937622E+02  0.30218210959E+03  0.30605496460E+03  0.00000000000E+00 0.  1.
         21    1    1    2  505  503  0.53250467179E+02  0.72364960769E+02  0.26520682192E+03  0.28001242507E+03  0.00000000000E+00 0.  1.
         21    1    1    2  506  501 -0.64547918589E+02 -0.47711814368E+02  0.36196119448E+03  0.37075430859E+03  0.00000000000E+00 0.  1.
<scales pt_clust_3="64.23868" pt_clust_4="36.31471" pt_clust_5="36.31471" pt_clust_6="97.96541"></scales>
<clustering>
<clus scale="   36.315">  4  5 -1 -1</clus>
<clus scale="   64.239">  2  3  1 -1</clus>
<clus scale="   97.965">  1  6  2 -1</clus>
<clus scale="   97.965">  1  3  2 -1</clus>
</clustering>
</event>
<event>
 6    0  0.8610502E+002  0.1192448E+03  0.7546771E-02  0.1244348E+00
         21   -1    0    0  504  501  0.00000000000E+00  0.00000000000E+00  0.20771708291E+02  0.20771708291E+02  0.00000000000E+00 0.  1.
         21   -1    0    0  505  502 -0.00000000000E+00 -0.00000000000E+00 -0.14974415391E+04  0.14974415391E+04  0.00000000000E+00 0.  1.
         21    1    1    2  503  501 -0.41204521685E+02  0.86981140009E+00 -0.25742041591E+02  0.48592405626E+02  0.00000000000E+00 0.  1.
         21    1    1    2  504  506 -0.61495820987E+00  0.41021826301E+02 -0.14955684839E+03  0.15508197608E+03  0.00000000000E+00 0. -1.
         21    1    1    2  505  503  0.52291451418E+02 -0.10638827026E+03 -0.75019758565E+03  0.75950594300E+03  0.00000000000E+00 0.  1.
         21    1    1    2  506  502 -0.10471971523E+02  0.64496632554E+02 -0.55117335520E+03  0.55503292270E+03  0.00000000000E+00 0.  1.
<scales pt_clust_3="41.21370" pt_clust_4="35.28831" pt_clust_5="110.61662" pt_clust_6="35.28831"></scales>
<clustering>
<clus scale="   35.288">  4  6 -1 -1</clus>
<clus scale="   41.214">  1  3  2 -1</clus>
<clus scale="  110.617">  1  5  2 -1</clus>
<clus scale="   41.214">  1  3  2 -1</clus>
</clustering>
</event>
<event>
 6    0  0.8610502E+002  0.8404223E+02  0.7546771E-02  0.1317956E+00
         21   -1    0    0  505  501  0.00000000000E+00  0.00000000000E+00  0.40376480309E+03  0.40376480309E+03  0.00000000000E+00 0.  1.
         21   -1    0    0  503  502 -0.00000000000E+00 -0.00000000000E+00 -0.27649733181E+03  0.27649733181E+03  0.00000000000E+00 0. -1.
         21    1    1    2  503  504 -0.63207850210E+02 -0.18187820805E+01 -0.19946948781E+02  0.66305513060E+02  0.00000000000E+00 0. -1.
         21    1    1    2  504  506  0.17754936136E+02  0.78841752459E+02 -0.11194749837E+03  0.13807064163E+03  0.00000000000E+00 0. -1.
         21    1    1    2  505  502  0.10152424618E+03 -0.13377191201E+03 -0.34618844908E+02  0.17146591915E+03  0.00000000000E+00 0. -1.
         21    1    1    2  506  501 -0.56071332111E+02  0.56748941636E+02  0.29378076334E+03  0.30442006105E+03  0.00000000000E+00 0.  1.
<scales pt_clust_3="63.23401" pt_clust_4="79.51519" pt_clust_5="84.04223" pt_clust_6="14000.00000"></scales>
<clustering>
<clus scale="   63.234">  2  3  1 -1</clus>
<clus scale="   79.515">  2  4  1 -1</clus>
<clus scale="   84.042">  2  5  1 -1</clus>
<clus scale="   84.042">  1  3  2 -1</clus>
</clustering>
</event>
<event>
 6    0  0.8610502E+002  0.1102625E+03  0.7546771E-02  0.1260085E+00
         21   -1    0    0  503  501  0.00000000000E+00  0.00000000000E+00  0.12429381145E+04  0.12429381145E+04  0.00000000000E+00 0.  1.
         21   -1    0    0  504  502 -0.00000000000E+00 -0.00000000000E+00 -0.68347599518E+02  0.68347599518E+02  0.00000000000E+00 0. -1.
         21    1    1    2  503  505 -0.64126608104E+02  0.29491267439E+01  0.16667085089E+03  0.17860596785E+03  0.00000000000E+00 0.  1.
         21    1    1    2  504  501  0.10369277758E+03  0.26709768265E+02  0.96591098449E+03  0.97182798571E+03  0.00000000000E+00 0.  1.
         21    1    1    2  505  506 -0.17276450887E+02  0.31597060454E+02  0.78343407648E+02  0.86223775762E+02  0.00000000000E+00 0. -1.
         21    1    1    2  506  502 -0.22289718584E+02 -0.61255955463E+02 -0.36334728065E+02  0.74627984683E+02  0.00000000000E+00 0. -1.
<scales pt_clust_3="35.78642" pt_clust_4="99.37259" pt_clust_5="35.78642" pt_clust_6="65.18530"></scales>
<clustering>
<clus scale="   35.786">  3  5 -1 -1</clus>
<clus scale="   65.185">  2  6  1 -1</clus>
<clus scale="   99.373">  1  4  2 -1</clus>
<clus scale="   99.373">  1  3  2 -1</clus>
</clustering>
</event>
<event>
 6    0  0.8610502E+002  0.1454365E+03  0.7546771E-02  0.1206195E+00
         21   -1    0    0  504  501  0.00000000000E+00  0.00000000000E+00  0.29050956502E+03  0.29050956502E+03  0.00000000000E+00 0.  1.
         21   -1    0    0  506  502 -0.00000000000E+00 -0.00000000000E+00 -0.10149145247E+03  0.10149145247E+03  0.00000000000E+00 0. -1.
         21    1    1    2  503  502 -0.72935226367E+01  0.61820202584E+02 -0.33266787328E+02  0.70580535979E+02  0.00000000000E+00 0. -1.
         21    1    1    2  504  503  0.81407458601E+00  0.69947827063E+02  0.20895742415E+02  0.73006802966E+02  0.00000000000E+00 0. -1.
         21    1    1    2  505  501  0.32115336618E+02 -0.97085582352E+02  0.14454883327E+03  0.17706318179E+03  0.00000000000E+00 0.  1.
         21    1    1    2  506  505 -0.25635888567E+02 -0.34682447295E+02  0.56840324194E+02  0.71350496757E+02  0.00000000000E+00 0. -1.
<scales pt_clust_3="52.17811" pt_clust_4="143.05342" pt_clust_5="39.75305" pt_clust_6="39.75305"></scales>
<clustering>
<clus scale="   39.753">  5  6 -1 -1</clus>
<clus scale="   52.178">  3  4 -1 -1</clus>
<clus scale="  143.053">  2  3  1 -1</clus>
<clus scale="  145.436">  1  3  2 -1</clus>
</clustering>
</event>
<event>
 6    0  0.8610502E+002  0.2120582E+03  0.7546771E-02  0.1139946E+00
         21   -1    0    0  504  501  0.00000000000E+00  0.00000000000E+00  0.13209768414E+04  0.13209768414E+04  0.00000000000E+00 0.  1.
         21   -1    0    0  503  502 -0.00000000000E+00 -0.00000000000E+00 -0.48072502042E+03  0.48072502042E+03  0.00000000000E+00 0. -1.
         21    1    1    2  503  506  0.52779073082E+02 -0.17805212677E+03  0.30807484852E+02  0.18824795225E+03  0.00000000000E+00 0. -1.
         21    1    1    2  504  505 -0.10677019076E+03  0.12719966627E+03  0.11332933672E+04  0.11453966496E+04  0.00000000000E+00 0.  1.
         21    1    1    2  505  502  0.11605329617E+03  0.85720931834E+01 -0.36452777806E+03  0.38265173371E+03  0.00000000000E+00 0. -1.
         21    1    1    2  506  501 -0.62062178486E+02  0.42280367321E+02  0.40678746974E+02  0.85405526254E+02  0.00000000000E+00 0.  1.
<scales pt_clust_3="14000.00000" pt_clust_4="212.05825" pt_clust_5="115.94650" pt_clust_6="75.09556"></scales>
<clustering>
<clus scale="   75.096">  1  6  2 -1</clus>
<clus scale="  115.947">  2  5  1 -1</clus>
<clus scale="  212.058">  1  4  2 -1</clus>
<clus scale="   75.096">  1  3  2 -1</clus>
</clustering>
</event>
<event>
 6    0  0.8610502E+002  0.2262464E+03  0.7546771E-02  0.1129310E+00
         21   -1    0    0  503  501  0.00000000000E+00  0.00000000000E+00  0.81397888396E+03  0.81397888396E+03  0.00000000000E+00 0.  1.
         21   -1    0    0  504  502 -0.00000000000E+00 -0.00000000000E+00 -0.14898366435E+03  0.14898366435E+03  0.00000000000E+00 0.  1.
         21    1    1    2  503  505  0.35092984564E+02 -0.17935969338E+02  0.68287364375E+02  0.78844027643E+02  0.00000000000E+00 0.  1.
         21    1    1    2  504  501 -0.14634925007E+03 -0.16989015835E+03 -0.23548539926E+02  0.22546685484E+03  0.00000000000E+00 0.  1.
         21    1    1    2  505  506  0.44827126557E+02  0.11221099339E+03  0.34870825075E+03  0.36905043349E+03  0.00000000000E+00 0.  1.
         21    1    1    2  506  502  0.66429138953E+02  0.75615134294E+02  0.27154814441E+03  0.28960123233E+03  0.00000000000E+00 0.  1.
<scales pt_clust_3="39.41087" pt_clust_4="223.02475" pt_clust_5="34.72237" pt_clust_6="34.72237"></scales>
<clustering>
<clus scale="   34.722">  5  6 -1 -1</clus>
<clus scale="   39.411">  1  3  2 -1</clus>
<clus scale="  223.025">  2  4  1 -1</clus>
<clus scale="   39.411">  1  3  2 -1</clus>
</clustering>
</event>
<event>
 6    0  0.8610502E+002  0.2326840E+03  0.7546771E-02  0.1124765E+00
         21   -1    0    0  502  501  0.00000000000E+00  0.00000000000E+00  0.10818042430E+03  0.10818042430E+03  0.00000000000E+00 0. -1.
         21   -1    0    0  506  502 -0.00000000000E+00 -0.00000000000E+00 -0.79207700269E+03  0.79207700269E+03  0.00000000000E+00 0. -1.
         21    1    1    2  503  505  0.25557453640E+02  0.11687907499E+03 -0.20325915188E+03  0.23585627918E+03  0.00000000000E+00 0. -1.
         21    1    1    2  504  501  0.54684928455E+02 -0.60281784413E+02 -0.32175744259E+02  0.87519217608E+02  0.00000000000E+00 0.  1.
         21    1    1    2  505  504 -0.73622135040E+02 -0.18607548034E+03 -0.14571204465E+03  0.24754050802E+03  0.00000000000E+00 0. -1.
         21    1    1    2  506  503 -0.66202470547E+01  0.12947818977E+03 -0.30274963761E+03  0.32934142219E+03  0.00000000000E+00 0. -1.
<scales pt_clust_3="46.59842" pt_clust_4="81.39002" pt_clust_5="227.57158" pt_clust_6="46.59842"></scales>
<clustering>
<clus scale="   46.598">  3  6 -1 -1</clus>
<clus scale="   81.390">  1  4  2 -1</clus>
<clus scale="  227.572">  1  5  2 -1</clus>
<clus scale="   81.390">  1  3  2 -1</clus>
</clustering>
</event>
<event>
 6    0  0.8610502E+002  0.1430059E+03  0.7546771E-02  0.1209341E+00
         21   -1    0    0  503  501  0.00000000000E+00  0.00000000000E+00  0.67485652272E+03  0.67485652272E+03  0.00000000000E+00 0.  1.
         21   -1    0    0  506  502 -0.00000000000E+00 -0.00000000000E+00 -0.59646447995E+03  0.59646447995E+03  0.00000000000E+00 0.  1.
         21    1    1    2  503  502  0.85211625048E+02  0.19383445236E+02 -0.54837077049E+03  0.55529023124E+03  0.00000000000E+00 0.  1.
         21    1    1    2  504  505 -0.68496153670E+02 -0.60177705250E+02  0.27818187635E+03  0.29274260982E+03  0.00000000000E+00 0.  1.
         21    1    1    2  505  501 -0.50517473185E+02 -0.40179039507E+02  0.32648361002E+03  0.33280312186E+03  0.00000000000E+00 0.  1.
         21    1    1    2  506  504  0.33802001807E+02  0.80973299521E+02  0.22097326888E+02  0.90485039742E+02  0.00000000000E+00 0. -1.
<scales pt_clust_3="87.38844" pt_clust_4="32.05468" pt_clust_5="32.05468" pt_clust_6="137.83794"></scales>
<clustering>
<clus scale="   32.055">  4  5 -1 -1</clus>
<clus scale="   87.388">  2  3  1 -1</clus>
<clus scale="  137.838">  2  6  1 -1</clus>
<clus scale="  143.006">  1  3  2 -1</clus>
</clustering>
</event>
<event>
 6    0  0.8610502E+002  0.2029797E+03  0.7546771E-02  0.1147249E+00
         21   -1    0    0  504  501  0.00000000000E+00  0.00000000000E+00  0.13316285395E+04  0.13316285395E+04  0.00000000000E+00 0.  1.
         21   -1    0    0  503  502 -0.00000000000E+00 -0.00000000000E+00 -0.41339100249E+02  0.41339100249E+02  0.00000000000E+00 0.  1.
         21    1    1    2  503  501 -0.18900202093E+03  0.76338646513E+02  0.71355671559E+03  0.74210008707E+03  0.00000000000E+00 0.  1.
         21    1    1    2  504  505  0.14814715602E+03  0.57457967980E+01  0.37332958678E+03  0.40169089408E+03  0.00000000000E+00 0.  1.
         21    1    1    2  505  506  0.32786321981E+02 -0.29743432042E+02  0.13853431964E+03  0.14543511398E+03  0.00000000000E+00 0.  1.
         21    1    1    2  506  502  0.80685429290E+01 -0.52341011269E+02  0.64868817225E+02  0.83741544611E+02  0.00000000000E+00 0.  1.
<scales pt_clust_3="192.79870" pt_clust_4="34.68590" pt_clust_5="34.68590" pt_clust_6="52.95926"></scales>
<clustering>
<clus scale="   34.686">  4  5 -1 -1</clus>
<clus scale="   52.959">  2  6  1 -1</clus>
<clus scale="  192.799">  1  3  2 -1</clus>
<clus scale="  192.799">  1  3  2 -1</clus>
</clustering>
</event>
<event>
 6    0  0.8610502E+002  0.1030175E+03  0.7546771E-02  0.1274075E+00
         21   -1    0    0  505  501  0.00000000000E+00  0.00000000000E+00  0.33869192884E+03  0.33869192884E+03  0.00000000000E+00 0. -1.
         21   -1    0    0  504  502 -0.00000000000E+00 -0.00000000000E+00 -0.94597587988E+02  0.94597587988E+02  0.00000000000E+00 0. -1.
         21    1    1    2  503  501  0.28710505185E+02  0.14206974553E+02  0.76843682465E+02  0.83253124678E+02  0.00000000000E+00 0. -1.
         21    1    1    2  504  503 -0.11380613790E+03 -0.56922971883E+02  0.24760858202E+02  0.12963472471E+03  0.00000000000E+00 0. -1.
         21    1    1    2  505  506  0.57287815243E+02 -0.46154225016E+02  0.77430522393E+02  0.10680632968E+03  0.00000000000E+00 0. -1.
         21    1    1    2  506  502  0.27807817475E+02  0.88870222346E+02  0.65059277788E+02  0.11359533775E+03  0.00000000000E+00 0. -1.
<scales pt_clust_3="32.03328" pt_clust_4="103.01753" pt_clust_5="79.03664" pt_clust_6="14000.00000"></scales>
<clustering>
<clus scale="   32.033">  1  3  2 -1</clus>
<clus scale="   79.037">  1  5  2 -1</clus>
<clus scale="  103.018">  2  4  1 -1</clus>
<clus scale="   32.033">  1  3  2 -1</clus>
</clustering>
</event>
<event>
 6    0  0.1246442E+003  0.1077522E+03  0.7546771E-02  0.1264790E+00
         21   -1    0    0  503  501  0.00000000000E+00  0.00000000000E+00  0.15988806177E+04  0.15988806177E+04  0.00000000000E+00 0.  1.
         21   -1    0    0  505  502 -0.00000000000E+00 -0.00000000000E+00 -0.48634910285E+03  0.48634910285E+03  0.00000000000E+00 0.  1.
         21    1    1    2  503  504 -0.11004362270E+03  0.32521763682E+02  0.13714033356E+04  0.13761956158E+04  0.00000000000E+00 0.  1.
         21    1    1    2  504  502  0.49977419584E+02 -0.77088850685E+02  0.16285806996E+03  0.18698444941E+03  0.00000000000E+00 0.  1.
         21    1    1    2  505  506 -0.15115301762E+02  0.58289789010E+02 -0.43948447199E+03  0.44359077196E+03  0.00000000000E+00 0.  1.
         21    1    1    2  506  501  0.75181504876E+02 -0.13722702007E+02  0.17754581251E+02  0.78458883379E+02  0.00000000000E+00 0.  1.
<scales pt_clust_3="107.75220" pt_clust_4="14000.00000" pt_clust_5="60.21770" pt_clust_6="69.86533"></scales>
<clustering>
<clus scale="   60.218">  2  5  1 -1</clus>
<clus scale="   69.865">  2  6  1 -1</clus>
<clus scale="  107.752">  1  3  2 -1</clus>
<clus scale="  107.752">  1  3  2 -1</clus>
</clustering>
</event>
<event>
 6    0  0.8610502E+002  0.8042176E+02  0.7546771E-02  0.1327859E+00
         21   -1    0    0  504  501  0.00000000000E+00  0.00000000000E+00  0.61275509513E+03  0.61275509513E+03  0.00000000000E+00 0. -1.
         21   -1    0    0  503  502 -0.00000000000E+00 -0.00000000000E+00 -0.77658292213E+02  0.77658292213E+02  0.00000000000E+00 0. -1.
         21    1    1    2  503  505  0.44382923059E+02  0.63551461095E+02  0.56723400453E+01  0.77722631891E+02  0.00000000000E+00 0. -1.
         21    1    1    2  504  506 -0.33891214857E+01  0.69789627650E+02  0.12790455044E+03  0.14574516217E+03  0.00000000000E+00 0. -1.
         21    1    1    2  505  501 -0.10794826782E+02 -0.52642892477E+02  0.37200598361E+03  0.37586733598E+03  0.00000000000E+00 0. -1.
         21    1    1    2  506  502 -0.30198974791E+02 -0.80698196267E+02  0.29513928818E+02  0.91078257304E+02  0.00000000000E+00 0. -1.
<scales pt_clust_3="80.42176" pt_clust_4="40.76927" pt_clust_5="53.73828" pt_clust_6="14000.00000"></scales>
<clustering>
<clus scale="   53.738">  1  5  2 -1</clus>
<clus scale="   40.769">  1  4  2 -1</clus>
<clus scale="   80.422">  2  3  1 -1</clus>
<clus scale="   53.738">  1  3  2 -1</clus>
</clustering>
</event>
<event>
 6    0  0.8610502E+002  0.1007805E+03  0.7546771E-02  0.1278663E+00
         21   -1    0    0  505  501  0.00000000000E+00  0.00000000000E+00  0.34368223461E+03  0.34368223461E+03  0.00000000000E+00 0. -1.
         21   -1    0    0  503  502 -0.00000000000E+00 -0.00000000000E+00 -0.19249039537E+03  0.19249039537E+03  0.00000000000E+00 0. -1.
         21    1    1    2  503  501 -0.51891012167E+01  0.93183075492E+02  0.21839567485E+03  0.23750091184E+03  0.00000000000E+00 0. -1.
         21    1    1    2  504  506  0.71833974069E+02 -0.43658108403E+01 -0.65866378661E+02  0.97557982619E+02  0.00000000000E+00 0. -1.
         21    1    1    2  505  504 -0.12219609844E+03 -0.44562824797E+02 -0.21225251279E+01  0.13008549858E+03  0.00000000000E+00 0. -1.
         21    1    1    2  506  502  0.55551225583E+02 -0.44254439855E+02  0.78506817426E+00  0.71028236939E+02  0.00000000000E+00 0. -1.
<scales pt_clust_3="90.51498" pt_clust_4="14000.00000" pt_clust_5="100.78055" pt_clust_6="71.02390"></scales>
<clustering>
<clus scale="   71.024">  2  6  1 -1</clus>
<clus scale="   90.515">  1  3  2 -1</clus>
<clus scale="  100.781">  1  5  2 -1</clus>
<clus scale="   90.515">  1  3  2 -1</clus>
</clustering>
</event>
<event>
 6    0  0.8610502E+002  0.1873797E+03  0.7546771E-02  0.1160846E+00
         21   -1    0    0  503  501  0.00000000000E+00  0.00000000000E+00  0.13823265800E+04  0.13823265800E+04  0.00000000000E+00 0.  1.
         21   -1    0    0  506  502 -0.00000000000E+00 -0.00000000000E+00 -0.48198112567E+02  0.48198112567E+02  0.00000000000E+00 0. -1.
         21    1    1    2  503  504 -0.66228204234E+02  0.15801676979E+03  0.10256450241E+04  0.10398572932E+04  0.00000000000E+00 0.  1.
         21    1    1    2  504  502 -0.38480847543E+02 -0.16203674835E+02  0.94449193058E+02  0.10326657143E+03  0.00000000000E+00 0. -1.
         21    1    1    2  505  501  0.69964413948E+02 -0.10663013264E+03  0.19781195848E+03  0.23536052202E+03  0.00000000000E+00 0. -1.
         21    1    1    2  506  505  0.34744637829E+02 -0.35182962314E+02  0.16222291744E+02  0.52040305961E+02  0.00000000000E+00 0. -1.
<scales pt_clust_3="171.45702" pt_clust_4="41.75326" pt_clust_5="45.72082" pt_clust_6="45.72082"></scales>
<clustering>
<clus scale="   41.753">  2  4  1 -1</clus>
<clus scale="   45.721">  5  6 -1 -1</clus>
<clus scale="  171.457">  1  3  2 -1</clus>
<clus scale="  171.457">  1  3  2 -1</clus>
</clustering>
</event>
<event>
 6    0  0.8610502E+002  0.1023168E+03  0.7546771E-02  0.1275498E+00
         21   -1    0    0  504  501  0.00000000000E+00  0.00000000000E+00  0.35388404137E+03  0.35388404137E+03  0.00000000000E+00 0. -1.
         21   -1    0    0  501  502 -0.00000000000E+00 -0.00000000000E+00 -0.14388245902E+03  0.14388245902E+03  0.00000000000E+00 0. -1.
         21    1    1    2  503  505 -0.64689813583E+02  0.36449513473E+02 -0.20617164783E+02  0.77061056945E+02  0.00000000000E+00 0.  1.
         21    1    1    2  504  506 -0.35416666655E+02  0.18557109389E+01  0.16814411678E+03  0.17184361480E+03  0.00000000000E+00 0. -1.
         21    1    1    2  505  502 -0.26429574228E+02  0.18232127517E+02 -0.57301376566E+02  0.65683944949E+02  0.00000000000E+00 0. -1.
         21    1    1    2  506  503  0.12653605447E+03 -0.56537351928E+02  0.11977600692E+03  0.18317788370E+03  0.00000000000E+00 0. -1.
<scales pt_clust_3="14000.00000" pt_clust_4="36.08121" pt_clust_5="32.10814" pt_clust_6="102.31683"></scales>
<clustering>
<clus scale="   32.108">  2  5  1 -1</clus>
<clus scale="   36.081">  1  4  2 -1</clus>
<clus scale="  102.317">  1  6  2 -1</clus>
<clus scale="   36.081">  1  3  2 -1</clus>
</clustering>
</event>
<event>
 6    0  0.8610502E+002  0.2993517E+03  0.7546771E-02  0.1085565E+00
         21   -1    0    0  503  501  0.00000000000E+00  0.00000000000E+00  0.57842438451E+03  0.57842438451E+03  0.00000000000E+00 0. -1.
         21   -1    0    0  504  502 -0.00000000000E+00 -0.00000000000E+00 -0.46595973808E+03  0.46595973808E+03  0.00000000000E+00 0. -1.
         21    1    1    2  503  506 -0.36188327372E+01 -0.12224291534E+03  0.95230608332E+02  0.15500095182E+03  0.00000000000E+00 0.  1.
         21    1    1    2  504  501  0.88143342502E+02  0.24730098530E+03  0.87444787761E+02  0.27671938325E+03  0.00000000000E+00 0. -1.
         21    1    1    2  505  502 -0.31085034494E+02  0.64495569606E+02 -0.30092417680E+03  0.30932396941E+03  0.00000000000E+00 0. -1.
         21    1    1    2  506  505 -0.53439475272E+02 -0.18955363957E+03  0.23071342713E+03  0.30333981811E+03  0.00000000000E+00 0. -1.
<scales pt_clust_3="45.70519" pt_clust_4="293.67910" pt_clust_5="71.59580" pt_clust_6="45.70519"></scales>
<clustering>
<clus scale="   45.705">  3  6 -1 -1</clus>
<clus scale="   71.596">  2  5  1 -1</clus>
<clus scale="  293.679">  2  4  1 -1</clus>
<clus scale="  299.352">  1  3  2 -1</clus>
</clustering>
</event>
<event>
 6    0  0.8610502E+002  0.3793829E+03  0.7546771E-02  0.1051162E+00
         21   -1    0    0  504  501  0.00000000000E+00  0.00000000000E+00  0.11953817350E+04  0.11953817350E+04  0.00000000000E+00 0. -1.
         21   -1    0    0  505  502 -0.00000000000E+00 -0.00000000000E+00 -0.98582607117E+03  0.98582607117E+03  0.00000000000E+00 0. -1.
         21    1    1    2  503  501  0.18339780725E+03  0.29436938975E+02  0.16834504107E+03  0.25068175429E+03  0.00000000000E+00 0. -1.
         21    1    1    2  504  502  0.66903327901E+02  0.11522544804E+02  0.90815297879E+03  0.91068691504E+03  0.00000000000E+00 0. -1.
         21    1    1    2  505  506 -0.34546391072E+03 -0.80206104928E+02 -0.84240697267E+03  0.91401741804E+03  0.00000000000E+00 0. -1.
         21    1    1    2  506  503  0.95162775575E+02  0.39246621149E+02 -0.24535383396E+02  0.10582171878E+03  0.00000000000E+00 0. -1.
<scales pt_clust_3="107.24111" pt_clust_4="67.88832" pt_clust_5="346.16656" pt_clust_6="107.24111"></scales>
<clustering>
<clus scale="   67.888">  1  4  2 -1</clus>
<clus scale="  107.241">  3  6 -1 -1</clus>
<clus scale="  346.167">  2  5  1 -1</clus>
<clus scale="   67.888">  1  3  2 -1</clus>
</clustering>
</event>
<event>
 6    0  0.8610502E+002  0.1123804E+03  0.7546771E-02  0.1256224E+00
         21   -1    0    0  505  501  0.00000000000E+00  0.00000000000E+00  0.37947785591E+02  0.37947785591E+02  0.00000000000E+00 0.  1.
         21   -1    0    0  503  502 -0.00000000000E+00 -0.00000000000E+00 -0.88469783986E+03  0.88469783986E+03  0.00000000000E+00 0.  1.
         21    1    1    2  503  501  0.53270392322E+02  0.70972774189E+02 -0.65556495689E+02  0.11032915980E+03  0.00000000000E+00 0.  1.
         21    1    1    2  504  502  0.15775534434E+02  0.43116059089E+02 -0.43040773689E+03  0.43284949118E+03  0.00000000000E+00 0.  1.
         21    1    1    2  505  506 -0.12277826743E+02 -0.30935297126E+02 -0.36259986807E+02  0.49219145472E+02  0.00000000000E+00 0.  1.
         21    1    1    2  506  504 -0.56768100013E+02 -0.83153536152E+02 -0.31452583488E+03  0.33024782901E+03  0.00000000000E+00 0.  1.
<scales pt_clust_3="97.30607" pt_clust_4="45.91146" pt_clust_5="32.32475" pt_clust_6="32.32475"></scales>
<clustering>
<clus scale="   32.325">  5  6 -1 -1</clus>
<clus scale="   45.911">  2  4  1 -1</clus>
<clus scale="   97.306">  1  3  2 -1</clus>
<clus scale="   97.306">  1  3  2 -1</clus>
</clustering>
</event>
<event>
 6    0  0.8610502E+002  0.9801657E+02  0.7546771E-02  0.1284523E+00
         21   -1    0    0  504  501  0.00000000000E+00  0.00000000000E+00  0.13878164624E+04  0.13878164624E+04  0.00000000000E+00 0. -1.
         21   -1    0    0  505  502 -0.00000000000E+00 -0.00000000000E+00 -0.17729456442E+02  0.17729456442E+02  0.00000000000E+00 0.  1.
         21    1    1    2  503  501 -0.32263885451E+02  0.40533667314E+02  0.23672390704E+03  0.24232652487E+03  0.00000000000E+00 0. -1.
         21    1    1    2  504  506  0.15482469088E+02 -0.26591924145E+02  0.45942852175E+03  0.46045781986E+03  0.00000000000E+00 0.  1.
         21    1    1    2  505  503  0.48092666784E+02  0.82176483368E+02  0.38697853613E+03  0.39852009541E+03  0.00000000000E+00 0. -1.
         21    1    1    2  506  502 -0.31311250420E+02 -0.96118226536E+02  0.28695604106E+03  0.30424147873E+03  0.00000000000E+00 0.  1.
<scales pt_clust_3="43.96183" pt_clust_4="30.77072" pt_clust_5="98.01657" pt_clust_6="14000.00000"></scales>
<clustering>
<clus scale="   30.771">  1  4  2 -1</clus>
<clus scale="   43.962">  1  3  2 -1</clus>
<clus scale="   98.017">  1  5  2 -1</clus>
<clus scale="   30.771">  1  3  2 -1</clus>
</clustering>
</event>
<event>
 6    0  0.8610502E+002  0.1461798E+03  0.7546771E-02  0.1205247E+00
         21   -1    0    0  503  501  0.00000000000E+00  0.00000000000E+00  0.16295501985E+04  0.16295501985E+04  0.00000000000E+00 0.  1.
         21   -1    0    0  506  502 -0.00000000000E+00 -0.00000000000E+00 -0.36210451575E+02  0.36210451575E+02  0.00000000000E+00 0.  1.
         21    1    1    2  503  505 -0.25002551418E+02 -0.25470217095E+02  0.15158866256E+03  0.15573368984E+03  0.00000000000E+00 0.  1.
         21    1    1    2  504  501  0.11528637121E+03  0.12853175373E+02  0.66143590314E+03  0.67153079264E+03  0.00000000000E+00 0.  1.
         21    1    1    2  505  502  0.14260057246E+02 -0.94616780559E+02  0.58291060334E+03  0.59071182135E+03  0.00000000000E+00 0.  1.
         21    1    1    2  506  504 -0.10454387704E+03  0.10723382228E+03  0.19740457786E+03  0.24778434621E+03  0.00000000000E+00 0.  1.
<scales pt_clust_3="34.30739" pt_clust_4="116.00065" pt_clust_5="34.30739" pt_clust_6="134.95589"></scales>
<clustering>
<clus scale="   34.307">  3  5 -1 -1</clus>
<clus scale="  116.001">  1  4  2 -1</clus>
<clus scale="  134.956">  2  6  1 -1</clus>
<clus scale="  116.001">  1  3  2 -1</clus>
</clustering>
</event>
<event>
 6    0  0.8610502E+002  0.9915598E+02  0.7546771E-02  0.1282081E+00
         21   -1    0    0  504  501  0.00000000000E+00  0.00000000000E+00  0.13959251562E+04  0.13959251562E+04  0.00000000000E+00 0.  1.
         21   -1    0    0  503  502 -0.00000000000E+00 -0.00000000000E+00 -0.24714355253E+02  0.24714355253E+02  0.00000000000E+00 0.  1.
         21    1    1    2  503  501  0.37209813260E+02  0.14439603529E+03  0.91141258385E+03  0.92353001208E+03  0.00000000000E+00 0.  1.
         21    1    1    2  504  506 -0.21482702598E+02 -0.43651223608E+02  0.20789614494E+03  0.21351286358E+03  0.00000000000E+00 0.  1.
         21    1    1    2  505  502  0.28809606990E+02 -0.46021739084E+02  0.15106861313E+03  0.16052949821E+03  0.00000000000E+00 0.  1.
         21    1    1    2  506  505 -0.44536717652E+02 -0.54723072598E+02  0.10083345904E+03  0.12306713760E+03  0.00000000000E+00 0.  1.
<scales pt_clust_3="99.15598" pt_clust_4="48.65116" pt_clust_5="57.91656" pt_clust_6="14000.00000"></scales>
<clustering>
<clus scale="   48.651">  1  4  2 -1</clus>
<clus scale="   57.917">  2  5  1 -1</clus>
<clus scale="   99.156">  1  3  2 -1</clus>
<clus scale="   48.651">  1  3  2 -1</clus>
</clustering>
</event>
<event>
 6    0  0.8610502E+002  0.1060612E+03  0.7546771E-02  0.1268043E+00
         21   -1    0    0  502  501  0.00000000000E+00  0.00000000000E+00  0.10925212651E+03  0.10925212651E+03  0.00000000000E+00 0.  1.
         21   -1    0    0  503  502 -0.00000000000E+00 -0.00000000000E+00 -0.41437151630E+03  0.41437151630E+03  0.00000000000E+00 0.  1.
         21    1    1    2  503  506  0.69989098843E+02 -0.23738360469E+02 -0.29501575818E+03  0.30413201294E+03  0.00000000000E+00 0.  1.
         21    1    1    2  504  501  0.12854241293E+02 -0.78972473293E+02 -0.69847761108E+01  0.80316064112E+02  0.00000000000E+00 0.  1.
         21    1    1    2  505  504 -0.19995352175E+02  0.54317364850E+02 -0.12760918785E+02  0.59270829934E+02  0.00000000000E+00 0.  1.
         21    1    1    2  506  505 -0.62847987961E+02  0.48393468912E+02  0.96420632852E+01  0.79904735832E+02  0.00000000000E+00 0.  1.
<scales pt_clust_3="73.90523" pt_clust_4="96.44374" pt_clust_5="37.69823" pt_clust_6="37.69823"></scales>
<clustering>
<clus scale="   37.698">  5  6 -1 -1</clus>
<clus scale="   73.905">  2  3  1 -1</clus>
<clus scale="   96.444">  1  4  2 -1</clus>
<clus scale="   96.444">  1  3  2 -1</clus>
</clustering>
</event>
<event>
 6    0  0.8610502E+002  0.1369184E+03  0.7546771E-02  0.1217537E+00
         21   -1    0    0  505  501  0.00000000000E+00  0.00000000000E+00  0.11705512868E+04  0.11705512868E+04  0.00000000000E+00 0.  1.
         21   -1    0    0  503  502 -0.00000000000E+00 -0.00000000000E+00 -0.25444745077E+02  0.25444745077E+02  0.00000000000E+00 0.  1.
         21    1    1    2  503  501 -0.67123640750E+02 -0.65193966660E+01  0.26264029199E+03  0.27116048506E+03  0.00000000000E+00 0.  1.
         21    1    1    2  504  502  0.21798951304E+02  0.81038264874E+02  0.30462422149E+03  0.31597200979E+03  0.00000000000E+00 0.  1.
         21    1    1    2  505  506  0.27139007996E+02 -0.12660296609E+03  0.47288744503E+03  0.49029314949E+03  0.00000000000E+00 0.  1.
         21    1    1    2  506  504  0.18185681449E+02  0.52084097878E+02  0.10495458319E+03  0.11857038751E+03  0.00000000000E+00 0.  1.
<scales pt_clust_3="67.43950" pt_clust_4="33.93710" pt_clust_5="130.36362" pt_clust_6="33.93710"></scales>
<clustering>
<clus scale="   33.937">  4  6 -1 -1</clus>
<clus scale="   67.439">  1  3  2 -1</clus>
<clus scale="  130.364">  1  5  2 -1</clus>
<clus scale="   67.439">  1  3  2 -1</clus>
</clustering>
</event>
<event>
 6    0  0.8610502E+002  0.6451680E+02  0.7546771E-02  0.1379798E+00
         21   -1    0    0  503  501  0.00000000000E+00  0.00000000000E+00  0.41181696566E+03  0.41181696566E+03  0.00000000000E+00 0.  1.
         21   -1    0    0  504  502 -0.00000000000E+00 -0.00000000000E+00 -0.25077415108E+03  0.25077415108E+03  0.00000000000E+00 0. -1.
         21    1    1    2  503  506  0.59176081552E+02 -0.23711556140E+02  0.35560480699E+03  0.36127389233E+03  0.00000000000E+00 0.  1.
         21    1    1    2  504  501 -0.27568304650E+02 -0.31092911624E+02  0.82496999139E+01  0.42365529894E+02  0.00000000000E+00 0.  1.
         21    1    1    2  505  502  0.56740069343E+02  0.23674252952E+02 -0.11576739488E+03  0.13108011077E+03  0.00000000000E+00 0. -1.
         21    1    1    2  506  505 -0.88347846245E+02  0.31130214812E+02 -0.87044297445E+02  0.12787158374E+03  0.00000000000E+00 0. -1.
<scales pt_clust_3="14000.00000" pt_clust_4="41.55455" pt_clust_5="42.80071" pt_clust_6="64.51680"></scales>
<clustering>
<clus scale="   41.555">  2  4  1 -1</clus>
<clus scale="   42.801">  2  5  1 -1</clus>
<clus scale="   64.517">  2  6  1 -1</clus>
<clus scale="   64.517">  1  3  2 -1</clus>
</clustering>
</event>
<event>
 6    0  0.8610502E+002  0.9573217E+02  0.7546771E-02  0.1289536E+00
         21   -1    0    0  504  501  0.00000000000E+00  0.00000000000E+00  0.48474580605E+03  0.48474580605E+03  0.00000000000E+00 0. -1.
         21   -1    0    0  503  502 -0.00000000000E+00 -0.00000000000E+00 -0.17921558641E+03  0.17921558641E+03  0.00000000000E+00 0.  1.
         21    1    1    2  503  505  0.23243987001E+02 -0.19572873035E+02 -0.13907144585E+03  0.14235254596E+03  0.00000000000E+00 0.  1.
         21    1    1    2  504  502 -0.55551982802E+02  0.10261811070E+03  0.25300922365E+03  0.27862190633E+03  0.00000000000E+00 0. -1.
         21    1    1    2  505  506 -0.34498080019E+01 -0.80033093352E+02  0.44617404414E+02  0.91694656242E+02  0.00000000000E+00 0. -1.
         21    1    1    2  506  501  0.35757803804E+02 -0.30121443160E+01  0.14697503743E+03  0.15129228392E+03  0.00000000000E+00 0. -1.
<scales pt_clust_3="30.38717" pt_clust_4="95.73217" pt_clust_5="14000.00000" pt_clust_6="37.28807"></scales>
<clustering>
<clus scale="   30.387">  2  3  1 -1</clus>
<clus scale="   37.288">  1  6  2 -1</clus>
<clus scale="   95.732">  1  4  2 -1</clus>
<clus scale="   37.288">  1  3  2 -1</clus>
</clustering>
</event>
<event>
 6    0  0.8610502E+002  0.1356938E+03  0.7546771E-02  0.1219244E+00
         21   -1    0    0  506  501  0.00000000000E+00  0.00000000000E+00  0.83618299952E+02  0.83618299952E+02  0.00000000000E+00 0.  1.
         21   -1    0    0  505  502 -0.00000000000E+00 -0.00000000000E+00 -0.16029769954E+04  0.16029769954E+04  0.00000000000E+00 0. -1.
         21    1    1    2  503  501 -0.30137170889E+02  0.84922609421E+02 -0.21994731313E+03  0.23769080591E+03  0.00000000000E+00 0. -1.
         21    1    1    2  504  502  0.10162406530E+03 -0.37106732469E+02 -0.12546695189E+04  0.12593252010E+04  0.00000000000E+00 0. -1.
         21    1    1    2  505  503 -0.58228311452E+02  0.39321406777E+02 -0.68672939968E+02  0.98248063438E+02  0.00000000000E+00 0. -1.
         21    1    1    2  506  504 -0.13258582962E+02 -0.87137283729E+02  0.23931076536E+02  0.91331225011E+02  0.00000000000E+00 0.  1.
<scales pt_clust_3="70.13312" pt_clust_4="110.02080" pt_clust_5="70.13312" pt_clust_6="88.14021"></scales>
<clustering>
<clus scale="   70.133">  3  5 -1 -1</clus>
<clus scale="   88.140">  1  6  2 -1</clus>
<clus scale="  110.021">  2  4  1 -1</clus>
<clus scale="   88.140">  1  3  2 -1</clus>
</clustering>
</event>
<event>
 6    0  0.8610502E+002  0.1171680E+03  0.7546771E-02  0.1247843E+00
         21   -1    0    0  503  501  0.00000000000E+00  0.00000000000E+00  0.21931288995E+04  0.21931288995E+04  0.00000000000E+00 0.  1.
         21   -1    0    0  506  502 -0.00000000000E+00 -0.00000000000E+00 -0.90806910552E+02  0.90806910552E+02  0.00000000000E+00 0. -1.
         21    1    1    2  503  504  0.22394304974E+01 -0.68560193498E+02  0.20355499295E+04  0.20367054355E+04  0.00000000000E+00 0.  1.
         21    1    1    2  504  502  0.97223262600E+02 -0.18037458727E+02  0.43270246955E+02  0.10793529070E+03  0.00000000000E+00 0.  1.
         21    1    1    2  505  501 -0.64469667595E+02  0.43080704981E+02  0.29867109351E+02  0.83092294483E+02  0.00000000000E+00 0. -1.
         21    1    1    2  506  505 -0.34993025502E+02  0.43516947244E+02 -0.63652969068E+01  0.56202789396E+02  0.00000000000E+00 0. -1.
<scales pt_clust_3="68.59676" pt_clust_4="110.76792" pt_clust_5="32.41275" pt_clust_6="32.41275"></scales>
<clustering>
<clus scale="   32.413">  5  6 -1 -1</clus>
<clus scale="   68.597">  1  3  2 -1</clus>
<clus scale="  110.768">  2  4  1 -1</clus>
<clus scale="   68.597">  1  3  2 -1</clus>
</clustering>
</event>
<event>
 6    0  0.8610502E+002  0.7567008E+02  0.7546771E-02  0.1341808E+00
         21   -1    0    0  506  501  0.00000000000E+00  0.00000000000E+00  0.15243931856E+04  0.15243931856E+04  0.00000000000E+00 0.  1.
         21   -1    0    0  503  502 -0.00000000000E+00 -0.00000000000E+00 -0.65720322162E+02  0.65720322162E+02  0.00000000000E+00 0.  1.
         21    1    1    2  503  504 -0.25978487554E+02  0.54257050963E+02  0.10349890012E+03  0.11971103425E+03  0.00000000000E+00 0. -1.
         21    1    1    2  504  501 -0.31674787368E+02 -0.23976598002E+02  0.12604687896E+04  0.12610946590E+04  0.00000000000E+00 0.  1.
         21    1    1    2  505  502  0.72812405121E+02  0.40519732142E+02 -0.79293164134E+01  0.83704056599E+02  0.00000000000E+00 0.  1.
         21    1    1    2  506  505 -0.15159130199E+02 -0.70800185103E+02  0.10263449017E+03  0.12560375795E+03  0.00000000000E+00 0. -1.
<scales pt_clust_3="59.13384" pt_clust_4="39.72618" pt_clust_5="14000.00000" pt_clust_6="75.67008"></scales>
<clustering>
<clus scale="   39.726">  1  4  2 -1</clus>
<clus scale="   59.134">  1  3  2 -1</clus>
<clus scale="   75.670">  1  6  2 -1</clus>
<clus scale="   39.726">  1  3  2 -1</clus>
</clustering>
</event>
<event>
 6    0  0.8610502E+002  0.1275897E+03  0.7546771E-02  0.1231077E+00
         21   -1    0    0  506  501  0.00000000000E+00  0.00000000000E+00  0.59322329980E+02  0.59322329980E+02  0.00000000000E+00 0. -1.
         21   -1    0    0  504  502 -0.00000000000E+00 -0.00000000000E+00 -0.90895313774E+03  0.90895313774E+03  0.00000000000E+00 0. -1.
         21    1    1    2  503  501 -0.11517816336E+03  0.41273228654E+02 -0.54951400676E+02  0.13412361893E+03  0.00000000000E+00 0. -1.
         21    1    1    2  504  505  0.26657378430E+02  0.22635659340E+02 -0.99271964696E+02  0.10525165972E+03  0.00000000000E+00 0. -1.
         21    1    1    2  505  503  0.12694683294E+03 -0.10268921337E+03 -0.49812791077E+03  0.52420605531E+03  0.00000000000E+00 0. -1.
         21    1    1    2  506  502 -0.38426048008E+02  0.38780325376E+02 -0.19727953162E+03  0.20469413377E+03  0.00000000000E+00 0. -1.
<scales pt_clust_3="14000.00000" pt_clust_4="34.97126" pt_clust_5="127.58975" pt_clust_6="54.62034"></scales>
<clustering>
<clus scale="   34.971">  2  4  1 -1</clus>
<clus scale="   54.620">  2  6  1 -1</clus>
<clus scale="  127.590">  2  5  1 -1</clus>
<clus scale="  127.590">  1  3  2 -1</clus>
</clustering>
</event>
<event>
 6    0  0.8610502E+002  0.9498180E+02  0.7546771E-02  0.1291217E+00
         21   -1    0    0  503  501  0.00000000000E+00  0.00000000000E+00  0.10438190489E+03  0.10438190489E+03  0.00000000000E+00 0.  1.
         21   -1    0    0  506  502 -0.00000000000E+00 -0.00000000000E+00 -0.66632070566E+03  0.66632070566E+03  0.00000000000E+00 0.  1.
         21    1    1    2  503  504  0.80823245596E+01  0.83849485118E+02  0.68343910645E+02  0.10847557443E+03  0.00000000000E+00 0.  1.
         21    1    1    2  504  505  0.32370481774E+02 -0.81530438392E+02 -0.33113765728E+03  0.34255978828E+03  0.00000000000E+00 0.  1.
         21    1    1    2  505  502 -0.80460848440E+01 -0.52290640500E+02 -0.15085478287E+03  0.15986311670E+03  0.00000000000E+00 0. -1.
         21    1    1    2  506  501 -0.32406721489E+02  0.49971593773E+02 -0.14829027126E+03  0.15980413115E+03  0.00000000000E+00 0.  1.
<scales pt_clust_3="86.07692" pt_clust_4="31.18339" pt_clust_5="31.18339" pt_clust_6="59.55968"></scales>
<clustering>
<clus scale="   31.183">  4  5 -1 -1</clus>
<clus scale="   59.560">  2  6  1 -1</clus>
<clus scale="   86.077">  1  3  2 -1</clus>
<clus scale="   86.077">  1  3  2 -1</clus>
</clustering>
</event>
<event>
 6    0  0.8610502E+002  0.9845508E+02  0.7546771E-02  0.1283579E+00
         21   -1    0    0  503  501  0.00000000000E+00  0.00000000000E+00  0.51828658874E+03  0.51828658874E+03  0.00000000000E+00 0.  1.
         21   -1    0    0  506  502 -0.00000000000E+00 -0.00000000000E+00 -0.10201093501E+04  0.10201093501E+04  0.00000000000E+00 0. -1.
         21    1    1    2  503  502 -0.40300240787E+01 -0.67215462398E+02  0.43917743868E+03  0.44430955664E+03  0.00000000000E+00 0.  1.
         21    1    1    2  504  501 -0.17407352763E+02  0.14125033517E+03 -0.66204997687E+02  0.15696424699E+03  0.00000000000E+00 0. -1.
         21    1    1    2  505  504  0.70682072808E+02 -0.47195749681E+02 -0.29494369550E+02  0.89962836991E+02  0.00000000000E+00 0. -1.
         21    1    1    2  506  505 -0.49244695966E+02 -0.26839123090E+02 -0.84530083279E+03  0.84715929819E+03  0.00000000000E+00 0. -1.
<scales pt_clust_3="67.77867" pt_clust_4="98.45508" pt_clust_5="14000.00000" pt_clust_6="56.08368"></scales>
<clustering>
<clus scale="   56.084">  2  6  1 -1</clus>
<clus scale="   67.779">  1  3  2 -1</clus>
<clus scale="   98.455">  1  4  2 -1</clus>
<clus scale="   67.779">  1  3  2 -1</clus>
</clustering>
</event>
<event>
 6    0  0.8610502E+002  0.1254488E+03  0.7546771E-02  0.1234370E+00
         21   -1    0    0  505  501  0.00000000000E+00  0.00000000000E+00  0.17040022406E+04  0.17040022406E+04  0.00000000000E+00 0. -1.
         21   -1    0    0  506  502 -0.00000000000E+00 -0.00000000000E+00 -0.34160409525E+02  0.34160409525E+02  0.00000000000E+00 0.  1.
         21    1    1    2  503  501  0.47230056652E+02 -0.12859982616E+02  0.61431843263E+03  0.61626552238E+03  0.00000000000E+00 0. -1.
         21    1    1    2  504  502 -0.84297145921E+02  0.12720251764E+03  0.18025734823E+03  0.23617620730E+03  0.00000000000E+00 0.  1.
         21    1    1    2  505  504  0.43115782858E+01 -0.42141548407E+02  0.51966029206E+03  0.52138404172E+03  0.00000000000E+00 0.  1.
         21    1    1    2  506  503  0.32755510984E+02 -0.72200986619E+02  0.35560575812E+03  0.36433687870E+03  0.00000000000E+00 0. -1.
<scales pt_clust_3="60.46780" pt_clust_4="14000.00000" pt_clust_5="42.36154" pt_clust_6="125.44878"></scales>
<clustering>
<clus scale="   42.362">  1  5  2 -1</clus>
<clus scale="   60.468">  1  3  2 -1</clus>
<clus scale="  125.449">  1  6  2 -1</clus>
<clus scale="   42.362">  1  3  2 -1</clus>
</clustering>
</event>
<event>
 6    0  0.8610502E+002  0.1377553E+03  0.7546771E-02  0.1216382E+00
         21   -1    0    0  505  501  0.00000000000E+00  0.00000000000E+00  0.53831584586E+03  0.53831584586E+03  0.00000000000E+00 0. -1.
         21   -1    0    0  504  502 -0.00000000000E+00 -0.00000000000E+00 -0.50525222932E+03  0.50525222932E+03  0.00000000000E+00 0. -1.
         21    1    1    2  503  501 -0.25713131298E+02  0.43419767760E+02  0.17467430764E+02  0.53399929691E+02  0.00000000000E+00 0. -1.
         21    1    1    2  504  503 -0.82129143686E+02  0.10784598075E+03 -0.44106546366E+03  0.46142680356E+03  0.00000000000E+00 0. -1.
         21    1    1    2  505  506 -0.38762958935E+01  0.40865584925E+02  0.10495481545E+03  0.11269665029E+03  0.00000000000E+00 0. -1.
         21    1    1    2  506  502  0.11171857088E+03 -0.19213133344E+03  0.35170683399E+03  0.41604469164E+03  0.00000000000E+00 0. -1.
<scales pt_clust_3="53.54563" pt_clust_4="137.75532" pt_clust_5="41.04902" pt_clust_6="14000.00000"></scales>
<clustering>
<clus scale="   41.049">  1  5  2 -1</clus>
<clus scale="   53.546">  1  3  2 -1</clus>
<clus scale="  137.755">  2  4  1 -1</clus>
<clus scale="   41.049">  1  3  2 -1</clus>
</clustering>
</event>
<event>
 6    0  0.8610502E+002  0.1800186E+03  0.7546771E-02  0.1167785E+00
         21   -1    0    0  503  501  0.00000000000E+00  0.00000000000E+00  0.15724670625E+03  0.15724670625E+03  0.00000000000E+00 0.  1.
         21   -1    0    0  501  502 -0.00000000000E+00 -0.00000000000E+00 -0.42099316477E+03  0.42099316477E+03  0.00000000000E+00 0.  1.
         21    1    1    2  503  506 -0.62123536108E+02  0.38059968012E+02  0.25377656883E+00  0.72855743124E+02  0.00000000000E+00 0. -1.
         21    1    1    2  504  505  0.70174282509E+02 -0.12567896972E+03 -0.71356441135E+02  0.16065918911E+03  0.00000000000E+00 0.  1.
         21    1    1    2  505  502  0.23755985953E+02 -0.28679336847E+02 -0.21830198964E+03  0.22145566127E+03  0.00000000000E+00 0.  1.
         21    1    1    2  506  504 -0.31806732354E+02  0.11629833855E+03  0.25658195682E+02  0.12326927751E+03  0.00000000000E+00 0.  1.
<scales pt_clust_3="55.18125" pt_clust_4="165.11355" pt_clust_5="37.24045" pt_clust_6="55.18125"></scales>
<clustering>
<clus scale="   37.240">  2  5  1 -1</clus>
<clus scale="   55.181">  3  6 -1 -1</clus>
<clus scale="  165.114">  2  4  1 -1</clus>
<clus scale="  180.019">  1  3  2 -1</clus>
</clustering>
</event>
<event>
 6    0  0.8610502E+002  0.8245855E+02  0.7546771E-02  0.1322216E+00
         21   -1    0    0  506  501  0.00000000000E+00  0.00000000000E+00  0.27240058168E+03  0.27240058168E+03  0.00000000000E+00 0.  1.
         21   -1    0    0  505  502 -0.00000000000E+00 -0.00000000000E+00 -0.10531135071E+03  0.10531135071E+03  0.00000000000E+00 0.  1.
         21    1    1    2  503  502  0.76773313608E+02 -0.38174863397E+02  0.16958405946E+02  0.87401655648E+02  0.00000000000E+00 0.  1.
         21    1    1    2  504  501 -0.78752698209E+01  0.55232496686E+02  0.13908708517E+03  0.14985948694E+03  0.00000000000E+00 0.  1.
         21    1    1    2  505  504 -0.78734882419E+02  0.20222842468E+02 -0.27613452153E+02  0.85852476999E+02  0.00000000000E+00 0.  1.
         21    1    1    2  506  503  0.98368386316E+01 -0.37280475757E+02  0.38657192010E+02  0.54598312804E+02  0.00000000000E+00 0.  1.
<scales pt_clust_3="82.45855" pt_clust_4="31.41630" pt_clust_5="14000.00000" pt_clust_6="38.55642"></scales>
<clustering>
<clus scale="   38.556">  1  6  2 -1</clus>
<clus scale="   31.416">  1  4  2 -1</clus>
<clus scale="   82.459">  1  3  2 -1</clus>
<clus scale="   38.556">  1  3  2 -1</clus>
</clustering>
</event>
<event>
 6    0  0.8610502E+002  0.1034638E+03  0.7546771E-02  0.1273176E+00
         21   -1    0    0  506  501  0.00000000000E+00  0.00000000000E+00  0.55989674937E+02  0.55989674937E+02  0.00000000000E+00 0.  1.
         21   -1    0    0  505  502 -0.00000000000E+00 -0.00000000000E+00 -0.44553218353E+03  0.44553218353E+03  0.00000000000E+00 0.  1.
         21    1    1    2  503  502 -0.83992494321E+02 -0.25914289931E+02 -0.26884771019E+03  0.28285222431E+03  0.00000000000E+00 0.  1.
         21    1    1    2  504  501  0.63894347311E+02 -0.93740859382E+01 -0.35173891705E+02  0.73536139164E+02  0.00000000000E+00 0.  1.
         21    1    1    2  505  504  0.63809337220E+02  0.24429471449E+02 -0.69146865206E+02  0.97209668035E+02  0.00000000000E+00 0.  1.
         21    1    1    2  506  503 -0.43711190210E+02  0.10858904421E+02 -0.16374041488E+02  0.47923826949E+02  0.00000000000E+00 0.  1.
<scales pt_clust_3="94.70132" pt_clust_4="40.51142" pt_clust_5="40.51142" pt_clust_6="45.03980"></scales>
<clustering>
<clus scale="   40.511">  4  5 -1 -1</clus>
<clus scale="   45.040">  1  6  2 -1</clus>
<clus scale="   94.701">  2  3  1 -1</clus>
<clus scale="   45.040">  1  3  2 -1</clus>
</clustering>
</event>
<event>
 6    0  0.8610502E+002  0.1153282E+03  0.7546771E-02  0.1251009E+00
         21   -1    0    0  503  501  0.00000000000E+00  0.00000000000E+00  0.24045833072E+03  0.24045833072E+03  0.00000000000E+00 0.  1.
         21   -1    0    0  506  502 -0.00000000000E+00 -0.00000000000E+00 -0.52535621496E+03  0.52535621496E+03  0.00000000000E+00 0. -1.
         21    1    1    2  503  502  0.57630254183E+02 -0.57734492005E+02  0.62855426994E+02  0.10298214635E+03  0.00000000000E+00 0.  1.
         21    1    1    2  504  505  0.11162661601E+03  0.22643333512E+02  0.38760920124E+02  0.12031471599E+03  0.00000000000E+00 0.  1.
         21    1    1    2  505  501 -0.56971323406E+02  0.38971843153E+01  0.58943277919E+02  0.82068445508E+02  0.00000000000E+00 0.  1.
         21    1    1    2  506  504 -0.11228554679E+03  0.31193974178E+02 -0.44545750928E+03  0.46044923783E+03  0.00000000000E+00 0. -1.
<scales pt_clust_3="63.30417" pt_clust_4="115.32817" pt_clust_5="57.10446" pt_clust_6="14000.00000"></scales>
<clustering>
<clus scale="   57.104">  1  5  2 -1</clus>
<clus scale="   63.304">  1  3  2 -1</clus>
<clus scale="  115.328">  1  4  2 -1</clus>
<clus scale="   57.104">  1  3  2 -1</clus>
</clustering>
</event>
<event>
 6    0  0.8610502E+002  0.1470919E+03  0.7546771E-02  0.1204093E+00
         21   -1    0    0  503  501  0.00000000000E+00  0.00000000000E+00  0.15796474825E+03  0.15796474825E+03  0.00000000000E+00 0.  1.
         21   -1    0    0  501  502 -0.00000000000E+00 -0.00000000000E+00 -0.18272025967E+04  0.18272025967E+04  0.00000000000E+00 0.  1.
         21    1    1    2  503  505 -0.88880292330E+02  0.58524336846E+02  0.98231521179E+02  0.14482484635E+03  0.00000000000E+00 0.  1.
         21    1    1    2  504  502 -0.69333021676E+02  0.99735507105E+02 -0.13932080086E+04  0.13984930441E+04  0.00000000000E+00 0.  1.
         21    1    1    2  505  506  0.12197315343E+03 -0.11209564700E+03 -0.32672868540E+03  0.36632569948E+03  0.00000000000E+00 0.  1.
         21    1    1    2  506  504  0.36240160574E+02 -0.46164196954E+02 -0.47532675716E+02  0.75523755068E+02  0.00000000000E+00 0.  1.
<scales pt_clust_3="106.41806" pt_clust_4="128.66341" pt_clust_5="42.43067" pt_clust_6="42.43067"></scales>
<clustering>
<clus scale="   42.431">  5  6 -1 -1</clus>
<clus scale="  106.418">  1  3  2 -1</clus>
<clus scale="  128.663">  2  4  1 -1</clus>
<clus scale="  106.418">  1  3  2 -1</clus>
</clustering>
</event>
<event>
 6    0  0.8610502E+002  0.1097935E+03  0.7546771E-02  0.1260953E+00
         21   -1    0    0  502  501  0.00000000000E+00  0.00000000000E+00  0.24849053266E+02  0.24849053266E+02  0.00000000000E+00 0.  1.
         21   -1    0    0  506  502 -0.00000000000E+00 -0.00000000000E+00 -0.23481268275E+04  0.23481268275E+04  0.00000000000E+00 0.  1.
         21    1    1    2  503  505 -0.33611388290E+02  0.84791371112E+02 -0.23904508455E+03  0.25585514356E+03  0.00000000000E+00 0.  1.
         21    1    1    2  504  503 -0.10325177717E+03 -0.11939917131E+01 -0.32179068613E+03  0.33795206877E+03  0.00000000000E+00 0.  1.
         21    1    1    2  505  501  0.33195710452E+02 -0.38303783046E+02 -0.93148915511E+02  0.10604647778E+03  0.00000000000E+00 0. -1.
         21    1    1    2  506  504  0.10366745501E+03 -0.45293596352E+02 -0.16692930880E+04  0.16731221907E+04  0.00000000000E+00 0.  1.
<scales pt_clust_3="69.77749" pt_clust_4="14000.00000" pt_clust_5="50.68664" pt_clust_6="109.79346"></scales>
<clustering>
<clus scale="   50.687">  1  5  2 -1</clus>
<clus scale="   69.777">  1  3  2 -1</clus>
<clus scale="  109.793">  2  6  1 -1</clus>
<clus scale="   50.687">  1  3  2 -1</clus>
</clustering>
</event>
<event>
 6    0  0.8610502E+002  0.6527553E+02  0.7546771E-02  0.1376938E+00
         21   -1    0    0  503  501  0.00000000000E+00  0.00000000000E+00  0.26954396481E+03  0.26954396481E+03  0.00000000000E+00 0. -1.
         21   -1    0    0  506  502 -0.00000000000E+00 -0.00000000000E+00 -0.10295965540E+03  0.10295965540E+03  0.00000000000E+00 0. -1.
         21    1    1    2  503  505 -0.39884876637E+02 -0.36481827164E+02  0.10713036140E+03  0.11999433916E+03  0.00000000000E+00 0. -1.
         21    1    1    2  504  501 -0.15648957305E+02  0.69977595993E+02  0.89558541053E+02  0.11472787840E+03  0.00000000000E+00 0. -1.
         21    1    1    2  505  502  0.89223515650E+02 -0.18044964862E+02 -0.39982978547E+02  0.99423815433E+02  0.00000000000E+00 0. -1.
         21    1    1    2  506  504 -0.33689681708E+02 -0.15450803966E+02  0.98783855083E+01  0.38357587216E+02  0.00000000000E+00 0. -1.
<scales pt_clust_3="56.61721" pt_clust_4="65.27553" pt_clust_5="14000.00000" pt_clust_6="37.06376"></scales>
<clustering>
<clus scale="   37.064">  2  6  1 -1</clus>
<clus scale="   56.617">  1  3  2 -1</clus>
<clus scale="   65.276">  1  4  2 -1</clus>
<clus scale="   56.617">  1  3  2 -1</clus>
</clustering>
</event>
<event>
 6    0  0.8610502E+002  0.2116941E+03  0.7546771E-02  0.1140231E+00
         21   -1    0    0  505  501  0.00000000000E+00  0.00000000000E+00  0.11770898202E+04  0.11770898202E+04  0.00000000000E+00 0.  1.
         21   -1    0    0  504  502 -0.00000000000E+00 -0.00000000000E+00 -0.18264037657E+03  0.18264037657E+03  0.00000000000E+00 0. -1.
         21    1    1    2  503  501 -0.46796571891E+02  0.10438917427E+03  0.90830748901E+03  0.91548321309E+03  0.00000000000E+00 0.  1.
         21    1    1    2  504  503  0.25257685377E+02  0.15109941636E+03  0.10155449295E+03  0.18379961733E+03  0.00000000000E+00 0.  1.
         21    1    1    2  505  506  0.89925902763E+01 -0.16964104648E+03  0.96121158635E+01  0.17015094505E+03  0.00000000000E+00 0. -1.
         21    1    1    2  506  502  0.12546296238E+02 -0.85847544153E+02 -0.25024654172E+02  0.90296421318E+02  0.00000000000E+00 0. -1.
<scales pt_clust_3="114.39851" pt_clust_4="207.26176" pt_clust_5="30.79551" pt_clust_6="30.79551"></scales>
<clustering>
<clus scale="   30.796">  5  6 -1 -1</clus>
<clus scale="  114.399">  1  3  2 -1</clus>
<clus scale="  207.262">  1  4  2 -1</clus>
<clus scale="  114.399">  1  3  2 -1</clus>
</clustering>
</event>
<event>
 6    0  0.8610502E+002  0.2655931E+03  0.7546771E-02  0.1103829E+00
         21   -1    0    0  503  501  0.00000000000E+00  0.00000000000E+00  0.97428872212E+03  0.97428872212E+03  0.00000000000E+00 0.  1.
         21   -1    0    0  505  502 -0.00000000000E+00 -0.00000000000E+00 -0.63817570405E+02  0.63817570405E+02  0.00000000000E+00 0.  1.
         21    1    1    2  503  504  0.40339157595E+02  0.55114903898E+02  0.15589360959E+03  0.17019905340E+03  0.00000000000E+00 0. -1.
         21    1    1    2  504  506  0.60248174594E+02  0.65851438055E+02  0.96709716190E+02  0.13160176154E+03  0.00000000000E+00 0.  1.
         21    1    1    2  505  501 -0.86207949842E+02 -0.21646237017E+03  0.43659945790E+03  0.49488064718E+03  0.00000000000E+00 0.  1.
         21    1    1    2  506  502 -0.14379382347E+02  0.95496028215E+02  0.22126836804E+03  0.24142483040E+03  0.00000000000E+00 0.  1.
<scales pt_clust_3="43.95370" pt_clust_4="86.54625" pt_clust_5="232.99736" pt_clust_6="86.54625"></scales>
<clustering>
<clus scale="   43.954">  3  4 -1 -1</clus>
<clus scale="   86.546">  3  6 -1 -1</clus>
<clus scale="  232.997">  1  5  2 -1</clus>
<clus scale="  232.997">  1  3  2 -1</clus>
</clustering>
</event>
<event>
 6    0  0.8610502E+002  0.1070023E+03  0.7546771E-02  0.1266224E+00
         21   -1    0    0  505  501  0.00000000000E+00  0.00000000000E+00  0.28064606498E+03  0.28064606498E+03  0.00000000000E+00 0. -1.
         21   -1    0    0  506  502 -0.00000000000E+00 -0.00000000000E+00 -0.76439678403E+02  0.76439678403E+02  0.00000000000E+00 0. -1.
         21    1    1    2  503  504  0.38688449033E+02  0.14963266552E+02  0.35415474286E+02  0.54543113712E+02  0.00000000000E+00 0. -1.
         21    1    1    2  504  502  0.83844704672E+02 -0.56740271923E+02  0.54326775336E+02  0.11489469734E+03  0.00000000000E+00 0. -1.
         21    1    1    2  505  503 -0.56011722544E+02  0.49194371521E+02  0.88847731043E+02  0.11597981964E+03  0.00000000000E+00 0. -1.
         21    1    1    2  506  501 -0.66521431161E+02 -0.74173661501E+01  0.25616405910E+02  0.71668112687E+02  0.00000000000E+00 0. -1.
<scales pt_clust_3="39.95308" pt_clust_4="39.95308" pt_clust_5="86.91197" pt_clust_6="66.93368"></scales>
<clustering>
<clus scale="   39.953">  3  4 -1 -1</clus>
<clus scale="   66.934">  2  6  1 -1</clus>
<clus scale="   86.912">  1  5  2 -1</clus>
<clus scale="   86.912">  1  3  2 -1</clus>
</clustering>
</event>
<event>
 6    0  0.8610502E+002  0.8434830E+02  0.7546771E-02  0.1317146E+00
         21   -1    0    0  505  501  0.00000000000E+00  0.00000000000E+00  0.72669668999E+03  0.72669668999E+03  0.00000000000E+00 0. -1.
         21   -1    0    0  504  502 -0.00000000000E+00 -0.00000000000E+00 -0.14429222890E+04  0.14429222890E+04  0.00000000000E+00 0. -1.
         21    1    1    2  503  502 -0.82047496498E+02 -0.20787678052E+02 -0.14209628568E+04  0.14234814223E+04  0.00000000000E+00 0. -1.
         21    1    1    2  504  506  0.43192417448E+02  0.42538418894E+02  0.13143744735E+03  0.14474427302E+03  0.00000000000E+00 0. -1.
         21    1    1    2  505  503  0.27456521827E+02 -0.61873085764E+02  0.73752898035E+02  0.10010808809E+03  0.00000000000E+00 0. -1.
         21    1    1    2  506  501  0.11398557223E+02  0.40122344922E+02  0.49954691238E+03  0.50128519561E+03  0.00000000000E+00 0. -1.
<scales pt_clust_3="84.34830" pt_clust_4="14000.00000" pt_clust_5="56.32017" pt_clust_6="41.71007"></scales>
<clustering>
<clus scale="   41.710">  1  6  2 -1</clus>
<clus scale="   56.320">  1  5  2 -1</clus>
<clus scale="   84.348">  2  3  1 -1</clus>
<clus scale="   41.710">  1  3  2 -1</clus>
</clustering>
</event>
<event>
 6    0  0.8610502E+002  0.7687573E+02  0.7546771E-02  0.1338159E+00
         21   -1    0    0  503  501  0.00000000000E+00  0.00000000000E+00  0.22596041081E+03  0.22596041081E+03  0.00000000000E+00 0. -1.
         21   -1    0    0  504  502 -0.00000000000E+00 -0.00000000000E+00 -0.10918478062E+03  0.10918478062E+03  0.00000000000E+00 0. -1.
         21    1    1    2  503  506  0.45325207401E+02  0.49536607851E+02  0.22610818058E+02  0.70848422965E+02  0.00000000000E+00 0. -1.
         21    1    1    2  504  505 -0.10566717176E+03  0.70929967600E+01  0.65645782167E+02  0.12460028294E+03  0.00000000000E+00 0. -1.
         21    1    1    2  505  501 -0.78817956833E+01 -0.45558642581E+02  0.49236385244E+02  0.67542092424E+02  0.00000000000E+00 0. -1.
         21    1    1    2  506  502  0.68223760045E+02 -0.11070962030E+02 -0.20717355285E+02  0.72154393109E+02  0.00000000000E+00 0. -1.
<scales pt_clust_3="56.71465" pt_clust_4="76.87573" pt_clust_5="46.23540" pt_clust_6="14000.00000"></scales>
<clustering>
<clus scale="   46.235">  1  5  2 -1</clus>
<clus scale="   56.715">  1  3  2 -1</clus>
<clus scale="   76.876">  1  4  2 -1</clus>
<clus scale="   46.235">  1  3  2 -1</clus>
</clustering>
</event>
<event>
 6    0  0.8610502E+002  0.9817896E+02  0.7546771E-02  0.1284173E+00
         21   -1    0    0  503  501  0.00000000000E+00  0.00000000000E+00  0.11970864530E+03  0.11970864530E+03  0.00000000000E+00 0.  1.
         21   -1    0    0  506  502 -0.00000000000E+00 -0.00000000000E+00 -0.17505973442E+04  0.17505973442E+04  0.00000000000E+00 0. -1.
         21    1    1    2  503  505  0.47892523873E+02 -0.68334200888E+02  0.80653434116E+02  0.11605271771E+03  0.00000000000E+00 0.  1.
         21    1    1    2  504  501 -0.22159409735E+02  0.28424140719E+02 -0.22460106755E+02  0.42466782441E+02  0.00000000000E+00 0. -1.
         21    1    1    2  505  502  0.15451191183E+02 -0.56962738832E+02 -0.80785935363E+02  0.10004928924E+03  0.00000000000E+00 0. -1.
         21    1    1    2  506  504 -0.41184305321E+02  0.96872799001E+02 -0.16082960909E+04  0.16117372001E+04  0.00000000000E+00 0. -1.
<scales pt_clust_3="51.20259" pt_clust_4="36.04124" pt_clust_5="14000.00000" pt_clust_6="98.17896"></scales>
<clustering>
<clus scale="   36.041">  1  4  2 -1</clus>
<clus scale="   51.203">  1  3  2 -1</clus>
<clus scale="   98.179">  2  6  1 -1</clus>
<clus scale="   36.041">  1  3  2 -1</clus>
</clustering>
</event>
<event>
 6    0  0.8610502E+002  0.6812507E+02  0.7546771E-02  0.1366587E+00
         21   -1    0    0  503  501  0.00000000000E+00  0.00000000000E+00  0.13642597739E+04  0.13642597739E+04  0.00000000000E+00 0.  1.
         21   -1    0    0  504  502 -0.00000000000E+00 -0.00000000000E+00 -0.91255831196E+03  0.91255831196E+03  0.00000000000E+00 0. -1.
         21    1    1    2  503  505  0.19616777639E+00 -0.46710860253E+02  0.23827923273E+03  0.24281461179E+03  0.00000000000E+00 0. -1.
         21    1    1    2  504  506 -0.29171533940E+02 -0.61432800838E+02 -0.90030953045E+03  0.90287441986E+03  0.00000000000E+00 0. -1.
         21    1    1    2  505  502 -0.58546011079E+02  0.37584506258E+01  0.42758559437E+03  0.43159147568E+03  0.00000000000E+00 0.  1.
         21    1    1    2  506  501  0.87521377243E+02  0.10438521047E+03  0.68614616524E+03  0.69953757848E+03  0.00000000000E+00 0.  1.
<scales pt_clust_3="46.71127" pt_clust_4="14000.00000" pt_clust_5="60.14679" pt_clust_6="68.12507"></scales>
<clustering>
<clus scale="   46.711">  1  3  2 -1</clus>
<clus scale="   60.147">  1  5  2 -1</clus>
<clus scale="   68.125">  1  6  2 -1</clus>
<clus scale="   46.711">  1  3  2 -1</clus>
</clustering>
</event>
<event>
 6    0  0.8610502E+002  0.8140096E+02  0.7546771E-02  0.1325122E+00
         21   -1    0    0  504  501  0.00000000000E+00  0.00000000000E+00  0.10924265926E+04  0.10924265926E+04  0.00000000000E+00 0. -1.
         21   -1    0    0  506  502 -0.00000000000E+00 -0.00000000000E+00 -0.18008206765E+03  0.18008206765E+03  0.00000000000E+00 0. -1.
         21    1    1    2  503  505  0.22711709401E+02 -0.87450142017E+02  0.23607829505E+02  0.93384574190E+02  0.00000000000E+00 0. -1.
         21    1    1    2  504  503 -0.19414094493E+02  0.23821023184E+02  0.99002122754E+03  0.99049804603E+03  0.00000000000E+00 0. -1.
         21    1    1    2  505  502  0.35120991245E+02 -0.36774239398E+02 -0.24025272853E+02  0.56240932113E+02  0.00000000000E+00 0.  1.
         21    1    1    2  506  501 -0.38418606153E+02  0.10040335823E+03 -0.77259259283E+02  0.13238510788E+03  0.00000000000E+00 0. -1.
<scales pt_clust_3="14000.00000" pt_clust_4="30.73025" pt_clust_5="46.02258" pt_clust_6="81.40096"></scales>
<clustering>
<clus scale="   30.730">  1  4  2 -1</clus>
<clus scale="   46.023">  2  5  1 -1</clus>
<clus scale="   81.401">  2  6  1 -1</clus>
<clus scale="   30.730">  1  3  2 -1</clus>
</clustering>
</event>
<event>
 6    0  0.8610502E+002  0.2455082E+03  0.7546771E-02  0.1116177E+00
         21   -1    0    0  504  501  0.00000000000E+00  0.00000000000E+00  0.25197420785E+03  0.25197420785E+03  0.00000000000E+00 0.  1.
         21   -1    0    0  505  502 -0.00000000000E+00 -0.00000000000E+00 -0.64618667497E+03  0.64618667497E+03  0.00000000000E+00 0.  1.
         21    1    1    2  503  506  0.29574769602E+03 -0.13929549866E+02 -0.66942922337E+02  0.30354915073E+03  0.00000000000E+00 0.  1.
         21    1    1    2  504  502 -0.20409931439E+03  0.22473766930E+02 -0.35802704422E+02  0.20843088538E+03  0.00000000000E+00 0.  1.
         21    1    1    2  505  503 -0.66086094671E+02 -0.38977148157E+02 -0.32515237729E+03  0.33408181400E+03  0.00000000000E+00 0.  1.
         21    1    1    2  506  501 -0.25562286958E+02  0.30432931094E+02  0.33685536937E+02  0.52099032700E+02  0.00000000000E+00 0.  1.
<scales pt_clust_3="245.50821" pt_clust_4="14000.00000" pt_clust_5="76.86870" pt_clust_6="39.74410"></scales>
<clustering>
<clus scale="   39.744">  1  6  2 -1</clus>
<clus scale="   76.869">  2  5  1 -1</clus>
<clus scale="  245.508">  2  3  1 -1</clus>
<clus scale="   39.744">  1  3  2 -1</clus>
</clustering>
</event>
<event>
 6    0  0.8610502E+002  0.8369988E+02  0.7546771E-02  0.1318868E+00
         21   -1    0    0  503  501  0.00000000000E+00  0.00000000000E+00  0.23580524358E+03  0.23580524358E+03  0.00000000000E+00 0. -1.
         21   -1    0    0  505  502 -0.00000000000E+00 -0.00000000000E+00 -0.89838425266E+03  0.89838425266E+03  0.00000000000E+00 0.  1.
         21    1    1    2  503  506 -0.90620247861E+01 -0.32320739193E+02  0.20591096378E+03  0.20862903796E+03  0.00000000000E+00 0. -1.
         21    1    1    2  504  501 -0.60114646203E+02 -0.33282321937E+02 -0.37105757520E+02  0.78091746573E+02  0.00000000000E+00 0. -1.
         21    1    1    2  505  504  0.61499926371E+02 -0.22358970079E+02 -0.21337785333E+03  0.22318663217E+03  0.00000000000E+00 0.  1.
         21    1    1    2  506  502  0.76767446184E+01  0.87962031209E+02 -0.61800636201E+03  0.62428207953E+03  0.00000000000E+00 0.  1.
<scales pt_clust_3="33.56710" pt_clust_4="83.69988" pt_clust_5="66.12325" pt_clust_6="14000.00000"></scales>
<clustering>
<clus scale="   33.567">  1  3  2 -1</clus>
<clus scale="   66.123">  2  5  1 -1</clus>
<clus scale="   83.700">  1  4  2 -1</clus>
<clus scale="   33.567">  1  3  2 -1</clus>
</clustering>
</event>
<event>
 6    0  0.8610502E+002  0.1159399E+03  0.7546771E-02  0.1249949E+00
         21   -1    0    0  503  501  0.00000000000E+00  0.00000000000E+00  0.13578722698E+04  0.13578722698E+04  0.00000000000E+00 0.  1.
         21   -1    0    0  506  502 -0.00000000000E+00 -0.00000000000E+00 -0.31858641511E+03  0.31858641511E+03  0.00000000000E+00 0. -1.
         21    1    1    2  503  505  0.10710299502E+03 -0.44608901522E+02  0.12778884304E+04  0.12831445149E+04  0.00000000000E+00 0.  1.
         21    1    1    2  504  501 -0.31036631888E+02  0.52298867025E+02  0.20839942782E+02  0.64286446676E+02  0.00000000000E+00 0. -1.
         21    1    1    2  505  502 -0.13057428983E+03 -0.25314201844E+02 -0.12347239474E+03  0.18148246814E+03  0.00000000000E+00 0. -1.
         21    1    1    2  506  504  0.54507926695E+02  0.17624236341E+02 -0.13597012373E+03  0.14754525518E+03  0.00000000000E+00 0.  1.
<scales pt_clust_3="14000.00000" pt_clust_4="59.65551" pt_clust_5="115.93987" pt_clust_6="57.28637"></scales>
<clustering>
<clus scale="   57.286">  2  6  1 -1</clus>
<clus scale="   59.656">  2  4  1 -1</clus>
<clus scale="  115.940">  2  5  1 -1</clus>
<clus scale="  115.940">  1  3  2 -1</clus>
</clustering>
</event>
<event>
 6    0  0.8610502E+002  0.1817824E+03  0.7546771E-02  0.1166089E+00
         21   -1    0    0  503  501  0.00000000000E+00  0.00000000000E+00  0.16478631452E+03  0.16478631452E+03  0.00000000000E+00 0. -1.
         21   -1    0    0  506  502 -0.00000000000E+00 -0.00000000000E+00 -0.67277048885E+03  0.67277048885E+03  0.00000000000E+00 0. -1.
         21    1    1    2  503  505  0.16673253975E+03 -0.30918145504E+02  0.87105634799E+02  0.19063856679E+03  0.00000000000E+00 0. -1.
         21    1    1    2  504  501 -0.92598539258E+02 -0.10429274880E+02 -0.12790773965E+03  0.15825185341E+03  0.00000000000E+00 0. -1.
         21    1    1    2  505  502  0.14997158687E+02  0.50482528080E+02 -0.20223825159E+03  0.20898256103E+03  0.00000000000E+00 0. -1.
         21    1    1    2  506  504 -0.89131159177E+02 -0.91351076957E+01 -0.26494381789E+03  0.27968382214E+03  0.00000000000E+00 0. -1.
<scales pt_clust_3="170.28794" pt_clust_4="61.69577" pt_clust_5="52.66308" pt_clust_6="61.69577"></scales>
<clustering>
<clus scale="   52.663">  2  5  1 -1</clus>
<clus scale="   61.696">  4  6 -1 -1</clus>
<clus scale="  170.288">  1  3  2 -1</clus>
<clus scale="  170.288">  1  3  2 -1</clus>
</clustering>
</event>
<event>
 6    0  0.8610502E+002  0.9056429E+02  0.7546771E-02  0.1301491E+00
         21   -1    0    0  504  501  0.00000000000E+00  0.00000000000E+00  0.10123171186E+04  0.10123171186E+04  0.00000000000E+00 0.  1.
         21   -1    0    0  506  502 -0.00000000000E+00 -0.00000000000E+00 -0.37684521236E+03  0.37684521236E+03  0.00000000000E+00 0. -1.
         21    1    1    2  503  505  0.61188328972E+02  0.23392089521E+02  0.16421871996E+03  0.17680211945E+03  0.00000000000E+00 0. -1.
         21    1    1    2  504  502  0.30559302198E+02  0.45378826735E+02 -0.35034809269E+03  0.35459398602E+03  0.00000000000E+00 0. -1.
         21    1    1    2  505  501  0.10355070547E+01  0.35785444506E+02  0.56013448916E+03  0.56127739689E+03  0.00000000000E+00 0.  1.
         21    1    1    2  506  503 -0.92783138224E+02 -0.10455636076E+03  0.26146678978E+03  0.29648882858E+03  0.00000000000E+00 0. -1.
<scales pt_clust_3="14000.00000" pt_clust_4="54.85164" pt_clust_5="35.80042" pt_clust_6="90.56429"></scales>
<clustering>
<clus scale="   35.800">  1  5  2 -1</clus>
<clus scale="   54.852">  2  4  1 -1</clus>
<clus scale="   90.564">  2  6  1 -1</clus>
<clus scale="   35.800">  1  3  2 -1</clus>
</clustering>
</event>
<event>
 6    0  0.8610502E+002  0.7213742E+02  0.7546771E-02  0.1352972E+00
         21   -1    0    0  505  501  0.00000000000E+00  0.00000000000E+00  0.73525347970E+03  0.73525347970E+03  0.00000000000E+00 0.  1.
         21   -1    0    0  506  502 -0.00000000000E+00 -0.00000000000E+00 -0.31718917948E+02  0.31718917948E+02  0.00000000000E+00 0.  1.
         21    1    1    2  503  502  0.57064175203E+02  0.16500915115E+02  0.14680906073E+03  0.15837140084E+03  0.00000000000E+00 0.  1.
         21    1    1    2  504  503  0.10972320528E+02  0.73848931991E+02  0.78927774099E+02  0.10864460455E+03  0.00000000000E+00 0.  1.
         21    1    1    2  505  504 -0.12254502221E+02 -0.70504216304E+02  0.37105787868E+03  0.37789544411E+03  0.00000000000E+00 0.  1.
         21    1    1    2  506  501 -0.55781993510E+02 -0.19845630803E+02  0.10673984823E+03  0.12206094815E+03  0.00000000000E+00 0.  1.
<scales pt_clust_3="45.20871" pt_clust_4="14000.00000" pt_clust_5="72.13742" pt_clust_6="59.20709"></scales>
<clustering>
<clus scale="   59.207">  2  6  1 -1</clus>
<clus scale="   45.209">  2  3  1 -1</clus>
<clus scale="   72.137">  1  5  2 -1</clus>
<clus scale="   72.137">  1  3  2 -1</clus>
</clustering>
</event>
<event>
 6    0  0.8610502E+002  0.1428734E+03  0.7546771E-02  0.1209514E+00
         21   -1    0    0  506  501  0.00000000000E+00  0.00000000000E+00  0.73183285202E+03  0.73183285202E+03  0.00000000000E+00 0. -1.
         21   -1    0    0  505  502 -0.00000000000E+00 -0.00000000000E+00 -0.52191279704E+02  0.52191279704E+02  0.00000000000E+00 0. -1.
         21    1    1    2  503  501 -0.97762043794E+02  0.84330750754E+01  0.21399073825E+03  0.23541573868E+03  0.00000000000E+00 0. -1.
         21    1    1    2  504  502  0.12374054609E+03 -0.61662797745E+02  0.17296238127E+03  0.22142720860E+03  0.00000000000E+00 0. -1.
         21    1    1    2  505  503 -0.41760946967E+02  0.93600480596E+02  0.21619812767E+03  0.23926273648E+03  0.00000000000E+00 0. -1.
         21    1    1    2  506  504  0.15782444672E+02 -0.40370757926E+02  0.76490325126E+02  0.87918447969E+02  0.00000000000E+00 0. -1.
<scales pt_clust_3="98.12509" pt_clust_4="33.55202" pt_clust_5="129.70059" pt_clust_6="33.55202"></scales>
<clustering>
<clus scale="   33.552">  4  6 -1 -1</clus>
<clus scale="   98.125">  1  3  2 -1</clus>
<clus scale="  129.701">  2  5  1 -1</clus>
<clus scale="   98.125">  1  3  2 -1</clus>
</clustering>
</event>
<event>
 6    0  0.8610502E+002  0.1041862E+03  0.7546771E-02  0.1271731E+00
         21   -1    0    0  504  501  0.00000000000E+00  0.00000000000E+00  0.96769538401E+03  0.96769538401E+03  0.00000000000E+00 0.  1.
         21   -1    0    0  505  502 -0.00000000000E+00 -0.00000000000E+00 -0.71561568743E+02  0.71561568743E+02  0.00000000000E+00 0.  1.
         21    1    1    2  503  506  0.60291216768E+02 -0.39517877552E+02  0.64363300659E+02  0.96640198351E+02  0.00000000000E+00 0.  1.
         21    1    1    2  504  502  0.16359236875E+02 -0.54171559749E+02  0.15962788448E+03  0.16936128253E+03  0.00000000000E+00 0. -1.
         21    1    1    2  505  503  0.15385341983E+02  0.28019711765E+02 -0.40558998810E+02  0.51641508303E+02  0.00000000000E+00 0.  1.
         21    1    1    2  506  501 -0.92035795626E+02  0.65669725535E+02  0.71270162894E+03  0.72161396357E+03  0.00000000000E+00 0.  1.
<scales pt_clust_3="14000.00000" pt_clust_4="52.49264" pt_clust_5="31.96581" pt_clust_6="104.18618"></scales>
<clustering>
<clus scale="   31.966">  2  5  1 -1</clus>
<clus scale="   52.493">  2  4  1 -1</clus>
<clus scale="  104.186">  1  6  2 -1</clus>
<clus scale="  104.186">  1  3  2 -1</clus>
</clustering>
</event>
<event>
 6    0  0.8610502E+002  0.1885386E+03  0.7546771E-02  0.1159786E+00
         21   -1    0    0  502  501  0.00000000000E+00  0.00000000000E+00  0.30098760614E+03  0.30098760614E+03  0.00000000000E+00 0.  1.
         21   -1    0    0  506  502 -0.00000000000E+00 -0.00000000000E+00 -0.54256677152E+03  0.54256677152E+03  0.00000000000E+00 0. -1.
         21    1    1    2  503  501 -0.10847198004E+03  0.12789633882E+02  0.12901646701E+03  0.16904139714E+03  0.00000000000E+00 0.  1.
         21    1    1    2  504  503 -0.51507082437E+02 -0.57037481785E+02  0.10891349628E+03  0.13329817531E+03  0.00000000000E+00 0.  1.
         21    1    1    2  505  504  0.17487182142E+03  0.86239229972E+02 -0.31228099194E+03  0.36815319725E+03  0.00000000000E+00 0. -1.
         21    1    1    2  506  505 -0.14892758942E+02 -0.41991382069E+02 -0.16722813672E+03  0.17306160796E+03  0.00000000000E+00 0. -1.
<scales pt_clust_3="71.85186" pt_clust_4="71.85186" pt_clust_5="168.22429" pt_clust_6="44.55413"></scales>
<clustering>
<clus scale="   44.554">  2  6  1 -1</clus>
<clus scale="   71.852">  3  4 -1 -1</clus>
<clus scale="  168.224">  2  5  1 -1</clus>
<clus scale="  188.539">  1  3  2 -1</clus>
</clustering>
</event>
<event>
 6    0  0.8610502E+002  0.7455634E+02  0.7546771E-02  0.1345250E+00
         21   -1    0    0  506  501  0.00000000000E+00  0.00000000000E+00  0.38376016946E+03  0.38376016946E+03  0.00000000000E+00 0.  1.
         21   -1    0    0  504  502 -0.00000000000E+00 -0.00000000000E+00 -0.16860163122E+03  0.16860163122E+03  0.00000000000E+00 0. -1.
         21    1    1    2  503  505  0.18260911723E+01  0.56218513943E+02  0.10704566039E+03  0.12092406431E+03  0.00000000000E+00 0.  1.
         21    1    1    2  504  501 -0.41466422844E+02 -0.76628479180E+02  0.20461666115E+03  0.22239461789E+03  0.00000000000E+00 0.  1.
         21    1    1    2  505  502  0.75979214339E+02  0.98329454348E+00 -0.13353634348E+03  0.15364167049E+03  0.00000000000E+00 0. -1.
         21    1    1    2  506  503 -0.36338882667E+02  0.19426670694E+02  0.37032560174E+02  0.55401448003E+02  0.00000000000E+00 0.  1.
<scales pt_clust_3="63.64171" pt_clust_4="74.55634" pt_clust_5="14000.00000" pt_clust_6="41.20570"></scales>
<clustering>
<clus scale="   41.206">  1  6  2 -1</clus>
<clus scale="   63.642">  1  3  2 -1</clus>
<clus scale="   74.556">  1  4  2 -1</clus>
<clus scale="   41.206">  1  3  2 -1</clus>
</clustering>
</event>
<event>
 6    0  0.8610502E+002  0.1584194E+03  0.7546771E-02  0.1190493E+00
         21   -1    0    0  505  501  0.00000000000E+00  0.00000000000E+00  0.67096007637E+02  0.67096007637E+02  0.00000000000E+00 0. -1.
         21   -1    0    0  503  502 -0.00000000000E+00 -0.00000000000E+00 -0.13482773589E+04  0.13482773589E+04  0.00000000000E+00 0. -1.
         21    1    1    2  503  504  0.40073158214E+01 -0.82593249686E+02 -0.90994050852E+03  0.91369000899E+03  0.00000000000E+00 0. -1.
         21    1    1    2  504  506  0.76794181595E+02  0.10186060177E+03 -0.96207290948E+02  0.15977725543E+03  0.00000000000E+00 0. -1.
         21    1    1    2  505  502 -0.97550788327E+02 -0.55969708084E+02 -0.27953573881E+03  0.30131212023E+03  0.00000000000E+00 0. -1.
         21    1    1    2  506  501  0.16749290910E+02  0.36702356000E+02  0.45021869731E+01  0.40593981937E+02  0.00000000000E+00 0. -1.
<scales pt_clust_3="82.69041" pt_clust_4="34.61526" pt_clust_5="145.97251" pt_clust_6="34.61526"></scales>
<clustering>
<clus scale="   34.615">  4  6 -1 -1</clus>
<clus scale="   82.690">  2  3  1 -1</clus>
<clus scale="  145.973">  2  5  1 -1</clus>
<clus scale="  158.419">  1  3  2 -1</clus>
</clustering>
</event>
<event>
 6    0  0.8610502E+002  0.2330640E+03  0.7546771E-02  0.1124502E+00
         21   -1    0    0  502  501  0.00000000000E+00  0.00000000000E+00  0.11216155255E+04  0.11216155255E+04  0.00000000000E+00 0.  1.
         21   -1    0    0  504  502 -0.00000000000E+00 -0.00000000000E+00 -0.51816858773E+03  0.51816858773E+03  0.00000000000E+00 0. -1.
         21    1    1    2  503  506  0.78705558467E+02  0.13586063692E+03  0.13326042639E+03  0.20593935719E+03  0.00000000000E+00 0. -1.
         21    1    1    2  504  505 -0.16679835803E+03 -0.15785780083E+03 -0.44312130137E+03  0.49909644884E+03  0.00000000000E+00 0. -1.
         21    1    1    2  505  503  0.45998080789E+02  0.20749006649E+02  0.52170017638E+02  0.72581371257E+02  0.00000000000E+00 0. -1.
         21    1    1    2  506  501  0.42094718772E+02  0.12481572525E+01  0.86113779511E+03  0.86216693593E+03  0.00000000000E+00 0.  1.
<scales pt_clust_3="31.62401" pt_clust_4="226.28981" pt_clust_5="31.62401" pt_clust_6="42.11322"></scales>
<clustering>
<clus scale="   31.624">  3  5 -1 -1</clus>
<clus scale="   42.113">  1  6  2 -1</clus>
<clus scale="  226.290">  2  4  1 -1</clus>
<clus scale="   42.113">  1  3  2 -1</clus>
</clustering>
</event>
<event>
 6    0  0.8610502E+002  0.1349052E+03  0.7546771E-02  0.1220354E+00
         21   -1    0    0  504  501  0.00000000000E+00  0.00000000000E+00  0.34456569578E+03  0.34456569578E+03  0.00000000000E+00 0. -1.
         21   -1    0    0  506  502 -0.00000000000E+00 -0.00000000000E+00 -0.71919360569E+03  0.71919360569E+03  0.00000000000E+00 0. -1.
         21    1    1    2  503  502 -0.29257395083E+02 -0.17285936093E+02 -0.35716645585E+03  0.35877942519E+03  0.00000000000E+00 0. -1.
         21    1    1    2  504  505  0.10479031186E+02  0.13396590064E+03  0.30545250632E+03  0.33370332070E+03  0.00000000000E+00 0. -1.
         21    1    1    2  505  503  0.19627595431E+02  0.29638352237E+02 -0.46588221034E+02  0.58601508213E+02  0.00000000000E+00 0. -1.
         21    1    1    2  506  501 -0.84923153480E+00 -0.14631831678E+03 -0.27632573935E+03  0.31267504736E+03  0.00000000000E+00 0. -1.
<scales pt_clust_3="33.98233" pt_clust_4="14000.00000" pt_clust_5="31.17271" pt_clust_6="134.90525"></scales>
<clustering>
<clus scale="   33.982">  2  3  1 -1</clus>
<clus scale="   31.173">  2  5  1 -1</clus>
<clus scale="  134.905">  2  6  1 -1</clus>
<clus scale="  134.905">  1  3  2 -1</clus>
</clustering>
</event>
<event>
 6    0  0.8610502E+002  0.9272526E+02  0.7546771E-02  0.1296383E+00
         21   -1    0    0  506  501  0.00000000000E+00  0.00000000000E+00  0.18875147311E+03  0.18875147311E+03  0.00000000000E+00 0.  1.
         21   -1    0    0  503  502 -0.00000000000E+00 -0.00000000000E+00 -0.42038927640E+03  0.42038927640E+03  0.00000000000E+00 0.  1.
         21    1    1    2  503  505  0.44082978068E+02  0.14071279713E+02 -0.37919696948E+02  0.59826526598E+02  0.00000000000E+00 0.  1.
         21    1    1    2  504  502  0.34311166835E+02  0.39617228137E+02 -0.19540848928E+03  0.20231475136E+03  0.00000000000E+00 0.  1.
         21    1    1    2  505  501 -0.12929841744E+03 -0.67463343878E+02 -0.13608862328E+03  0.19947304807E+03  0.00000000000E+00 0.  1.
         21    1    1    2  506  504  0.50904272540E+02  0.13774836028E+02  0.13777900622E+03  0.14752642348E+03  0.00000000000E+00 0.  1.
<scales pt_clust_3="46.27429" pt_clust_4="92.72526" pt_clust_5="14000.00000" pt_clust_6="53.34155"></scales>
<clustering>
<clus scale="   46.274">  2  3  1 -1</clus>
<clus scale="   53.342">  1  6  2 -1</clus>
<clus scale="   92.725">  2  4  1 -1</clus>
<clus scale="   53.342">  1  3  2 -1</clus>
</clustering>
</event>
<event>
 6    0  0.8610502E+002  0.1970432E+03  0.7546771E-02  0.1152258E+00
         21   -1    0    0  503  501  0.00000000000E+00  0.00000000000E+00  0.37922290920E+03  0.37922290920E+03  0.00000000000E+00 0.  1.
         21   -1    0    0  505  502 -0.00000000000E+00 -0.00000000000E+00 -0.25306475189E+03  0.25306475189E+03  0.00000000000E+00 0. -1.
         21    1    1    2  503  506 -0.35126901552E+02 -0.42772292334E+02  0.16817067657E+03  0.17704447086E+03  0.00000000000E+00 0.  1.
         21    1    1    2  504  502  0.13378642230E+03 -0.43358162309E+02  0.39431668899E+02  0.14606023943E+03  0.00000000000E+00 0.  1.
         21    1    1    2  505  501 -0.15208513412E+03  0.11462627089E+03 -0.13082465620E+03  0.23105012587E+03  0.00000000000E+00 0. -1.
         21    1    1    2  506  504  0.53425613371E+02 -0.28495816251E+02  0.49380468026E+02  0.78132824922E+02  0.00000000000E+00 0.  1.
<scales pt_clust_3="55.34770" pt_clust_4="30.52077" pt_clust_5="191.47440" pt_clust_6="30.52077"></scales>
<clustering>
<clus scale="   30.521">  4  6 -1 -1</clus>
<clus scale="   55.348">  1  3  2 -1</clus>
<clus scale="  191.474">  2  5  1 -1</clus>
<clus scale="   55.348">  1  3  2 -1</clus>
</clustering>
</event>
<event>
 6    0  0.8610502E+002  0.1347945E+03  0.7546771E-02  0.1220510E+00
         21   -1    0    0  503  501  0.00000000000E+00  0.00000000000E+00  0.21285886038E+03  0.21285886038E+03  0.00000000000E+00 0. -1.
         21   -1    0    0  505  502 -0.00000000000E+00 -0.00000000000E+00 -0.27121471496E+04  0.27121471496E+04  0.00000000000E+00 0.  1.
         21    1    1    2  503  502 -0.12066024832E+03 -0.52606425627E+02 -0.22414724573E+04  0.22453340750E+04  0.00000000000E+00 0.  1.
         21    1    1    2  504  506  0.20907298400E+02  0.35817247139E+02 -0.15275317093E+03  0.15828304251E+03  0.00000000000E+00 0.  1.
         21    1    1    2  505  504  0.69268393078E+02  0.21219445819E+01 -0.30797502639E+03  0.31567583026E+03  0.00000000000E+00 0.  1.
         21    1    1    2  506  501  0.30484556843E+02  0.14667233906E+02  0.20291236537E+03  0.20571306224E+03  0.00000000000E+00 0. -1.
<scales pt_clust_3="123.99215" pt_clust_4="41.29544" pt_clust_5="41.29544" pt_clust_6="33.82951"></scales>
<clustering>
<clus scale="   33.830">  1  6  2 -1</clus>
<clus scale="   41.295">  4  5 -1 -1</clus>
<clus scale="  123.992">  2  3  1 -1</clus>
<clus scale="   33.830">  1  3  2 -1</clus>
</clustering>
</event>
<event>
 6    0  0.8610502E+002  0.1666829E+03  0.7546771E-02  0.1181352E+00
         21   -1    0    0  505  501  0.00000000000E+00  0.00000000000E+00  0.47625219850E+03  0.47625219850E+03  0.00000000000E+00 0. -1.
         21   -1    0    0  503  502 -0.00000000000E+00 -0.00000000000E+00 -0.25070784369E+03  0.25070784369E+03  0.00000000000E+00 0. -1.
         21    1    1    2  503  506 -0.80730198846E+02 -0.75459344365E+02 -0.77440140573E+02  0.13493870101E+03  0.00000000000E+00 0. -1.
         21    1    1    2  504  501  0.11881493516E+02 -0.29684214347E+02  0.22459145364E+03  0.22685599731E+03  0.00000000000E+00 0. -1.
         21    1    1    2  505  502  0.13324190770E+03 -0.83499981684E+02  0.30817776841E+02  0.16023541518E+03  0.00000000000E+00 0. -1.
         21    1    1    2  506  504 -0.64393202367E+02  0.18864354040E+03  0.47575264909E+02  0.20492992870E+03  0.00000000000E+00 0. -1.
<scales pt_clust_3="111.88782" pt_clust_4="31.97378" pt_clust_5="14000.00000" pt_clust_6="166.68295"></scales>
<clustering>
<clus scale="   31.974">  1  4  2 -1</clus>
<clus scale="  111.888">  2  3  1 -1</clus>
<clus scale="  166.683">  1  6  2 -1</clus>
<clus scale="   31.974">  1  3  2 -1</clus>
</clustering>
</event>
<event>
 6    0  0.8610502E+002  0.8777449E+02  0.7546771E-02  0.1308332E+00
         21   -1    0    0  506  501  0.00000000000E+00  0.00000000000E+00  0.69761993011E+03  0.69761993011E+03  0.00000000000E+00 0. -1.
         21   -1    0    0  504  502 -0.00000000000E+00 -0.00000000000E+00 -0.17618154551E+04  0.17618154551E+04  0.00000000000E+00 0.  1.
         21    1    1    2  503  501 -0.33924331055E+02  0.62603050702E+02 -0.44931133532E+02  0.84195064910E+02  0.00000000000E+00 0. -1.
         21    1    1    2  504  503 -0.25804949785E+02 -0.15378950493E+02 -0.52132461366E+03  0.52218939127E+03  0.00000000000E+00 0.  1.
         21    1    1    2  505  502  0.11196919946E+03 -0.11753792518E+03 -0.11670223864E+04  0.11782586795E+04  0.00000000000E+00 0.  1.
         21    1    1    2  506  505 -0.52239918615E+02  0.70313824969E+02  0.66908260852E+03  0.67479224959E+03  0.00000000000E+00 0. -1.
<scales pt_clust_3="71.15724" pt_clust_4="30.04010" pt_clust_5="14000.00000" pt_clust_6="87.77449"></scales>
<clustering>
<clus scale="   30.040">  2  4  1 -1</clus>
<clus scale="   71.157">  2  3  1 -1</clus>
<clus scale="   87.774">  1  6  2 -1</clus>
<clus scale="   87.774">  1  3  2 -1</clus>
</clustering>
</event>
<event>
 6    0  0.8610502E+002  0.7349285E+02  0.7546771E-02  0.1348603E+00
         21   -1    0    0  506  501  0.00000000000E+00  0.00000000000E+00  0.89628497695E+02  0.89628497695E+02  0.00000000000E+00 0. -1.
         21   -1    0    0  503  502 -0.00000000000E+00 -0.00000000000E+00 -0.24497182156E+03  0.24497182156E+03  0.00000000000E+00 0. -1.
         21    1    1    2  503  504 -0.76359059856E+02 -0.28060499610E+02 -0.76870296772E+02  0.11192470767E+03  0.00000000000E+00 0. -1.
         21    1    1    2  504  501 -0.10530278264E+02  0.49365419821E+02 -0.16717567796E+02  0.53172441240E+02  0.00000000000E+00 0. -1.
         21    1    1    2  505  502  0.92384047901E+01  0.29782433638E+02 -0.69557220666E+02  0.76226953391E+02  0.00000000000E+00 0. -1.
         21    1    1    2  506  505  0.77650933330E+02 -0.51087353849E+02  0.78017613640E+01  0.93276216962E+02  0.00000000000E+00 0. -1.
<scales pt_clust_3="14000.00000" pt_clust_4="56.08519" pt_clust_5="31.18239" pt_clust_6="73.49285"></scales>
<clustering>
<clus scale="   31.182">  2  5  1 -1</clus>
<clus scale="   56.085">  1  4  2 -1</clus>
<clus scale="   73.493">  1  6  2 -1</clus>
<clus scale="   56.085">  1  3  2 -1</clus>
</clustering>
</event>
<event>
 6    0  0.8610502E+002  0.8225109E+02  0.7546771E-02  0.1322782E+00
         21   -1    0    0  506  501  0.00000000000E+00  0.00000000000E+00  0.16706197325E+03  0.16706197325E+03  0.00000000000E+00 0.  1.
         21   -1    0    0  504  502 -0.00000000000E+00 -0.00000000000E+00 -0.38485784183E+03  0.38485784183E+03  0.00000000000E+00 0.  1.
         21    1    1    2  503  501 -0.30959460226E+02 -0.10102543575E+03 -0.10615700147E+03  0.14977962414E+03  0.00000000000E+00 0.  1.
         21    1    1    2  504  505  0.67450231479E+02 -0.90706854108E+00 -0.13029870308E+03  0.14672460096E+03  0.00000000000E+00 0.  1.
         21    1    1    2  505  503 -0.18967234844E+02  0.68584015021E+02 -0.10460993438E+03  0.12651783070E+03  0.00000000000E+00 0.  1.
         21    1    1    2  506  502 -0.17523536409E+02  0.33348489275E+02  0.12326977035E+03  0.12889775928E+03  0.00000000000E+00 0.  1.
<scales pt_clust_3="82.25109" pt_clust_4="64.19855" pt_clust_5="14000.00000" pt_clust_6="37.67222"></scales>
<clustering>
<clus scale="   37.672">  1  6  2 -1</clus>
<clus scale="   64.199">  2  4  1 -1</clus>
<clus scale="   82.251">  1  3  2 -1</clus>
<clus scale="   37.672">  1  3  2 -1</clus>
</clustering>
</event>
<event>
 6    0  0.8610502E+002  0.1817393E+03  0.7546771E-02  0.1166130E+00
         21   -1    0    0  506  501  0.00000000000E+00  0.00000000000E+00  0.23104612388E+03  0.23104612388E+03  0.00000000000E+00 0. -1.
         21   -1    0    0  503  502 -0.00000000000E+00 -0.00000000000E+00 -0.24766694030E+04  0.24766694030E+04  0.00000000000E+00 0. -1.
         21    1    1    2  503  505 -0.39553886591E+02  0.21998012838E+02 -0.10365899911E+04  0.10375775788E+04  0.00000000000E+00 0. -1.
         21    1    1    2  504  501  0.12574148950E+03 -0.13362634290E+03  0.18049151193E+03  0.25737930682E+03  0.00000000000E+00 0. -1.
         21    1    1    2  505  504 -0.56549414116E+02 -0.30690008966E+02 -0.13185983914E+03  0.14671990344E+03  0.00000000000E+00 0.  1.
         21    1    1    2  506  502 -0.29638188792E+02  0.14231833903E+03 -0.12576649609E+04  0.12660387378E+04  0.00000000000E+00 0. -1.
<scales pt_clust_3="45.25950" pt_clust_4="14000.00000" pt_clust_5="66.79137" pt_clust_6="181.73935"></scales>
<clustering>
<clus scale="   45.260">  2  3  1 -1</clus>
<clus scale="   66.791">  2  5  1 -1</clus>
<clus scale="  181.739">  2  6  1 -1</clus>
<clus scale="  181.739">  1  3  2 -1</clus>
</clustering>
</event>
<event>
 6    0  0.8610502E+002  0.8975502E+02  0.7546771E-02  0.1303446E+00
         21   -1    0    0  503  501  0.00000000000E+00  0.00000000000E+00  0.65353667672E+02  0.65353667672E+02  0.00000000000E+00 0. -1.
         21   -1    0    0  506  502 -0.00000000000E+00 -0.00000000000E+00 -0.52224294347E+03  0.52224294347E+03  0.00000000000E+00 0. -1.
         21    1    1    2  503  505  0.65123753241E+02 -0.41424407849E+02 -0.44653692300E+02  0.89168587731E+02  0.00000000000E+00 0. -1.
         21    1    1    2  504  502  0.47874439002E+02 -0.77512097116E+01 -0.14945262718E+03  0.15712457138E+03  0.00000000000E+00 0. -1.
         21    1    1    2  505  504 -0.11333434440E+03 -0.46209279661E+02 -0.14580669964E+03  0.19036692151E+03  0.00000000000E+00 0. -1.
         21    1    1    2  506  501  0.33615215586E+00  0.95384897222E+02 -0.11697625668E+03  0.15093653051E+03  0.00000000000E+00 0. -1.
<scales pt_clust_3="85.33309" pt_clust_4="48.49787" pt_clust_5="14000.00000" pt_clust_6="89.75502"></scales>
<clustering>
<clus scale="   48.498">  2  4  1 -1</clus>
<clus scale="   85.333">  1  3  2 -1</clus>
<clus scale="   89.755">  1  6  2 -1</clus>
<clus scale="   85.333">  1  3  2 -1</clus>
</clustering>
</event>
<event>
 6    0  0.8610502E+002  0.1244301E+03  0.7546771E-02  0.1235963E+00
         21   -1    0    0  505  501  0.00000000000E+00  0.00000000000E+00  0.74327991278E+03  0.74327991278E+03  0.00000000000E+00 0. -1.
         21   -1    0    0  501  502 -0.00000000000E+00 -0.00000000000E+00 -0.36186248097E+03  0.36186248097E+03  0.00000000000E+00 0. -1.
         21    1    1    2  503  504  0.40884524416E+02 -0.61949554273E+02 -0.44629746327E+02  0.86608924878E+02  0.00000000000E+00 0. -1.
         21    1    1    2  504  502  0.42194123719E+02 -0.66104438925E+01 -0.76509162529E+02  0.87622451436E+02  0.00000000000E+00 0. -1.
         21    1    1    2  505  506  0.62695962250E+02  0.10798076227E+03  0.68373981909E+03  0.69504731415E+03  0.00000000000E+00 0. -1.
         21    1    1    2  506  503 -0.14577461038E+03 -0.39420764100E+02 -0.18118347842E+03  0.23586370329E+03  0.00000000000E+00 0. -1.
<scales pt_clust_3="81.30715" pt_clust_4="42.70881" pt_clust_5="124.43013" pt_clust_6="14000.00000"></scales>
<clustering>
<clus scale="   42.709">  2  4  1 -1</clus>
<clus scale="   81.307">  2  3  1 -1</clus>
<clus scale="  124.430">  1  5  2 -1</clus>
<clus scale="  124.430">  1  3  2 -1</clus>
</clustering>
</event>
<event>
 6    0  0.8610502E+002  0.1111862E+03  0.7546771E-02  0.1258389E+00
         21   -1    0    0  504  501  0.00000000000E+00  0.00000000000E+00  0.98437326647E+02  0.98437326647E+02  0.00000000000E+00 0. -1.
         21   -1    0    0  503  502 -0.00000000000E+00 -0.00000000000E+00 -0.35954705292E+03  0.35954705292E+03  0.00000000000E+00 0.  1.
         21    1    1    2  503  506  0.42547093609E+02  0.20851431687E+02 -0.12507526316E+03  0.13374923863E+03  0.00000000000E+00 0.  1.
         21    1    1    2  504  505  0.21134734921E+02 -0.48107855454E+02 -0.65691612394E+02  0.84121523498E+02  0.00000000000E+00 0.  1.
         21    1    1    2  505  502 -0.73914302253E+01 -0.62981668615E+02 -0.10969957171E+03  0.12670958865E+03  0.00000000000E+00 0.  1.
         21    1    1    2  506  501 -0.56290398305E+02  0.90238092383E+02  0.39356720997E+02  0.11340402879E+03  0.00000000000E+00 0. -1.
<scales pt_clust_3="47.38183" pt_clust_4="30.97541" pt_clust_5="30.97541" pt_clust_6="105.85102"></scales>
<clustering>
<clus scale="   30.975">  4  5 -1 -1</clus>
<clus scale="   47.382">  2  3  1 -1</clus>
<clus scale="  105.851">  1  6  2 -1</clus>
<clus scale="  105.851">  1  3  2 -1</clus>
</clustering>
</event>
<event>
 6    0  0.8610502E+002  0.2565458E+03  0.7546771E-02  0.1109237E+00
         21   -1    0    0  505  501  0.00000000000E+00  0.00000000000E+00  0.16919671448E+04  0.16919671448E+04  0.00000000000E+00 0. -1.
         21   -1    0    0  504  502 -0.00000000000E+00 -0.00000000000E+00 -0.13496390548E+03  0.13496390548E+03  0.00000000000E+00 0. -1.
         21    1    1    2  503  501  0.45069357637E+02 -0.21074829382E+02  0.11688748012E+04  0.11699332016E+04  0.00000000000E+00 0. -1.
         21    1    1    2  504  506 -0.46292427421E+02  0.22607817316E+02  0.33966801827E+02  0.61707745598E+02  0.00000000000E+00 0. -1.
         21    1    1    2  505  502  0.13354719474E+03 -0.19115819160E+03  0.10616207350E+03  0.25621610661E+03  0.00000000000E+00 0. -1.
         21    1    1    2  506  503 -0.13232412495E+03  0.18962520367E+03  0.24799956283E+03  0.33907399646E+03  0.00000000000E+00 0. -1.
<scales pt_clust_3="49.75335" pt_clust_4="30.49623" pt_clust_5="248.27703" pt_clust_6="30.49623"></scales>
<clustering>
<clus scale="   30.496">  4  6 -1 -1</clus>
<clus scale="   49.753">  1  3  2 -1</clus>
<clus scale="  248.277">  2  5  1 -1</clus>
<clus scale="   49.753">  1  3  2 -1</clus>
</clustering>
</event>
<event>
 6    0  0.1165807E+003  0.1096547E+03  0.7546771E-02  0.1261211E+00
         21   -1    0    0  506  501  0.00000000000E+00  0.00000000000E+00  0.14085387235E+04  0.14085387235E+04  0.00000000000E+00 0.  1.
         21   -1    0    0  505  502 -0.00000000000E+00 -0.00000000000E+00 -0.24356975768E+03  0.24356975768E+03  0.00000000000E+00 0.  1.
         21    1    1    2  503  502  0.33874650741E+02  0.10856155344E+03  0.23710557053E+03  0.26296797224E+03  0.00000000000E+00 0.  1.
         21    1    1    2  504  501 -0.26524946701E+02  0.14714720377E+02  0.77882891830E+02  0.83581341417E+02  0.00000000000E+00 0. -1.
         21    1    1    2  505  504  0.34110387971E+02 -0.21625669747E+02 -0.22317656593E+03  0.22680160436E+03  0.00000000000E+00 0.  1.
         21    1    1    2  506  503 -0.41460092010E+02 -0.10165060407E+03  0.10731570694E+04  0.10787575632E+04  0.00000000000E+00 0.  1.
<scales pt_clust_3="14000.00000" pt_clust_4="30.33308" pt_clust_5="40.34664" pt_clust_6="109.65470"></scales>
<clustering>
<clus scale="   30.333">  1  4  2 -1</clus>
<clus scale="   40.347">  2  5  1 -1</clus>
<clus scale="  109.655">  1  6  2 -1</clus>
<clus scale="   30.333">  1  3  2 -1</clus>
</clustering>
</event>
<event>
 6    0  0.8610502E+002  0.1111263E+03  0.7546771E-02  0.1258498E+00
         21   -1    0    0  504  501  0.00000000000E+00  0.00000000000E+00  0.21821702572E+04  0.21821702572E+04  0.00000000000E+00 0.  1.
         21   -1    0    0  506  502 -0.00000000000E+00 -0.00000000000E+00 -0.57695730296E+02  0.57695730296E+02  0.00000000000E+00 0.  1.
         21    1    1    2  503  501  0.28598900865E+02  0.13752491585E+03  0.34714336893E+03  0.37448567156E+03  0.00000000000E+00 0.  1.
         21    1    1    2  504  505 -0.30619116770E+02 -0.10228491687E+03  0.13811804613E+04  0.13853011229E+04  0.00000000000E+00 0.  1.
         21    1    1    2  505  502  0.78912883839E+02 -0.38833939455E+02  0.39333823518E+03  0.40305121926E+03  0.00000000000E+00 0.  1.
         21    1    1    2  506  503 -0.76892667933E+02  0.35939404737E+01  0.28124614284E+01  0.77027973680E+02  0.00000000000E+00 0.  1.
<scales pt_clust_3="111.12633" pt_clust_4="14000.00000" pt_clust_5="71.66946" pt_clust_6="76.97661"></scales>
<clustering>
<clus scale="   76.977">  2  6  1 -1</clus>
<clus scale="   71.669">  2  5  1 -1</clus>
<clus scale="  111.126">  2  3  1 -1</clus>
<clus scale="  111.126">  1  3  2 -1</clus>
</clustering>
</event>
<event>
 6    0  0.8610502E+002  0.1269800E+03  0.7546771E-02  0.1232007E+00
         21   -1    0    0  504  501  0.00000000000E+00  0.00000000000E+00  0.53014965639E+03  0.53014965639E+03  0.00000000000E+00 0.  1.
         21   -1    0    0  503  502 -0.00000000000E+00 -0.00000000000E+00 -0.34319429445E+03  0.34319429445E+03  0.00000000000E+00 0.  1.
         21    1    1    2  503  505  0.33339462098E+02 -0.11199344068E+02 -0.20256691050E+03  0.20559741795E+03  0.00000000000E+00 0.  1.
         21    1    1    2  504  502  0.53441884341E+02  0.11161748338E+03 -0.98260036697E+02  0.15801750666E+03  0.00000000000E+00 0. -1.
         21    1    1    2  505  506 -0.76904482652E+02 -0.60131967668E+02  0.25053072783E+03  0.26887878045E+03  0.00000000000E+00 0.  1.
         21    1    1    2  506  501 -0.98768637877E+01 -0.40286171645E+02  0.23725158131E+03  0.24085024579E+03  0.00000000000E+00 0.  1.
<scales pt_clust_3="35.17023" pt_clust_4="14000.00000" pt_clust_5="126.97997" pt_clust_6="41.51973"></scales>
<clustering>
<clus scale="   35.170">  2  3  1 -1</clus>
<clus scale="   41.520">  1  6  2 -1</clus>
<clus scale="  126.980">  1  5  2 -1</clus>
<clus scale="   41.520">  1  3  2 -1</clus>
</clustering>
</event>
<event>
 6    0  0.8610502E+002  0.8547224E+02  0.7546771E-02  0.1314202E+00
         21   -1    0    0  506  501  0.00000000000E+00  0.00000000000E+00  0.24935809078E+03  0.24935809078E+03  0.00000000000E+00 0.  1.
         21   -1    0    0  505  502 -0.00000000000E+00 -0.00000000000E+00 -0.20763798269E+03  0.20763798269E+03  0.00000000000E+00 0. -1.
         21    1    1    2  503  502 -0.58361487164E+02 -0.91898596998E+02 -0.11553326606E+02  0.10947554371E+03  0.00000000000E+00 0.  1.
         21    1    1    2  504  501  0.49901047745E+02  0.46821850853E+02 -0.40675773382E+01  0.68548854613E+02  0.00000000000E+00 0.  1.
         21    1    1    2  505  504  0.40256370155E+02  0.18137331461E+00 -0.10239665615E+03  0.11002583072E+03  0.00000000000E+00 0. -1.
         21    1    1    2  506  503 -0.31795930737E+02  0.44895372831E+02  0.15973766818E+03  0.16894584443E+03  0.00000000000E+00 0.  1.
<scales pt_clust_3="14000.00000" pt_clust_4="85.47224" pt_clust_5="40.25678" pt_clust_6="53.98563"></scales>
<clustering>
<clus scale="   40.257">  2  5  1 -1</clus>
<clus scale="   53.986">  1  6  2 -1</clus>
<clus scale="   85.472">  1  4  2 -1</clus>
<clus scale="   53.986">  1  3  2 -1</clus>
</clustering>
</event>
<event>
 6    0  0.8610502E+002  0.1073795E+03  0.7546771E-02  0.1265501E+00
         21   -1    0    0  506  501  0.00000000000E+00  0.00000000000E+00  0.71854863340E+03  0.71854863340E+03  0.00000000000E+00 0. -1.
         21   -1    0    0  504  502 -0.00000000000E+00 -0.00000000000E+00 -0.85079578941E+02  0.85079578941E+02  0.00000000000E+00 0.  1.
         21    1    1    2  503  501 -0.82941060414E+01  0.54832121036E+02  0.25239854598E+03  0.25841900028E+03  0.00000000000E+00 0. -1.
         21    1    1    2  504  503  0.85256221752E+02  0.53518440873E+02 -0.11451276872E+02  0.10131129553E+03  0.00000000000E+00 0.  1.
         21    1    1    2  505  502 -0.12632057990E+03 -0.87763507978E+02  0.29057304584E+03  0.32877350441E+03  0.00000000000E+00 0. -1.
         21    1    1    2  506  505  0.49358464185E+02 -0.20587053930E+02  0.10194873952E+03  0.11512441212E+03  0.00000000000E+00 0.  1.
<scales pt_clust_3="47.83990" pt_clust_4="107.37955" pt_clust_5="14000.00000" pt_clust_6="53.47976"></scales>
<clustering>
<clus scale="   53.480">  1  6  2 -1</clus>
<clus scale="   47.840">  1  3  2 -1</clus>
<clus scale="  107.380">  2  4  1 -1</clus>
<clus scale="   53.480">  1  3  2 -1</clus>
</clustering>
</event>
<event>
 6    0  0.8610502E+002  0.2051359E+03  0.7546771E-02  0.1145477E+00
         21   -1    0    0  502  501  0.00000000000E+00  0.00000000000E+00  0.25968064514E+02  0.25968064514E+02  0.00000000000E+00 0. -1.
         21   -1    0    0  505  502 -0.00000000000E+00 -0.00000000000E+00 -0.15946046029E+04  0.15946046029E+04  0.00000000000E+00 0. -1.
         21    1    1    2  503  506 -0.56059346379E+02  0.88639928138E+02 -0.40840625032E+03  0.42165786187E+03  0.00000000000E+00 0. -1.
         21    1    1    2  504  501  0.65717507272E+02 -0.57914720658E+02 -0.40152879593E+03  0.41097235867E+03  0.00000000000E+00 0. -1.
         21    1    1    2  505  503 -0.65380929306E+02  0.64976566976E+02 -0.46518389592E+03  0.47422850736E+03  0.00000000000E+00 0. -1.
         21    1    1    2  506  504  0.55722768413E+02 -0.95701774456E+02 -0.29351759623E+03  0.31371393952E+03  0.00000000000E+00 0. -1.
<scales pt_clust_3="198.62689" pt_clust_4="54.35344" pt_clust_5="31.19003" pt_clust_6="54.35344"></scales>
<clustering>
<clus scale="   31.190">  3  5 -1 -1</clus>
<clus scale="   54.353">  4  6 -1 -1</clus>
<clus scale="  198.627">  2  3  1 -1</clus>
<clus scale="  205.136">  1  3  2 -1</clus>
</clustering>
</event>
<event>
 6    0  0.8610502E+002  0.1554835E+03  0.7546771E-02  0.1193892E+00
         21   -1    0    0  505  501  0.00000000000E+00  0.00000000000E+00  0.48118514635E+03  0.48118514635E+03  0.00000000000E+00 0. -1.
         21   -1    0    0  503  502 -0.00000000000E+00 -0.00000000000E+00 -0.45736424507E+03  0.45736424507E+03  0.00000000000E+00 0. -1.
         21    1    1    2  503  504  0.17628737791E+03 -0.22924375069E+02 -0.25940294460E+03  0.31447202458E+03  0.00000000000E+00 0. -1.
         21    1    1    2  504  501  0.30622031230E+02  0.22740805517E+02 -0.25239537025E+02  0.45737154060E+02  0.00000000000E+00 0.  1.
         21    1    1    2  505  506 -0.11812840877E+03  0.62197355460E+02  0.40920549580E+03  0.43043230569E+03  0.00000000000E+00 0. -1.
         21    1    1    2  506  502 -0.88781000363E+02 -0.62013785908E+02 -0.10074211290E+03  0.14790790709E+03  0.00000000000E+00 0. -1.
<scales pt_clust_3="35.63302" pt_clust_4="35.63302" pt_clust_5="135.11975" pt_clust_6="108.29486"></scales>
<clustering>
<clus scale="   35.633">  3  4 -1 -1</clus>
<clus scale="  108.295">  2  6  1 -1</clus>
<clus scale="  135.120">  1  5  2 -1</clus>
<clus scale="  135.120">  1  3  2 -1</clus>
</clustering>
</event>
<event>
 6    0  0.8610502E+002  0.7132910E+02  0.7546771E-02  0.1355631E+00
         21   -1    0    0  506  501  0.00000000000E+00  0.00000000000E+00  0.14146405816E+03  0.14146405816E+03  0.00000000000E+00 0. -1.
         21   -1    0    0  504  502 -0.00000000000E+00 -0.00000000000E+00 -0.13855139558E+03  0.13855139558E+03  0.00000000000E+00 0. -1.
         21    1    1    2  503  502  0.63418518890E+02 -0.27333582700E+02 -0.38145200295E+02  0.78892899472E+02  0.00000000000E+00 0. -1.
         21    1    1    2  504  501 -0.90709990149E+02 -0.31734172992E+02  0.24235503975E+02  0.99109634755E+02  0.00000000000E+00 0. -1.
         21    1    1    2  505  503  0.52519886782E+02  0.31085366993E+02  0.70421126705E+00  0.61033879626E+02  0.00000000000E+00 0. -1.
         21    1    1    2  506  505 -0.25228415523E+02  0.27982388699E+02  0.16118147629E+02  0.40979039888E+02  0.00000000000E+00 0. -1.
<scales pt_clust_3="71.32910" pt_clust_4="14000.00000" pt_clust_5="59.84871" pt_clust_6="37.67608"></scales>
<clustering>
<clus scale="   37.676">  1  6  2 -1</clus>
<clus scale="   59.849">  1  5  2 -1</clus>
<clus scale="   71.329">  2  3  1 -1</clus>
<clus scale="   37.676">  1  3  2 -1</clus>
</clustering>
</event>
<event>
 6    0  0.8610502E+002  0.1552822E+03  0.7546771E-02  0.1194128E+00
         21   -1    0    0  504  501  0.00000000000E+00  0.00000000000E+00  0.64380321402E+03  0.64380321402E+03  0.00000000000E+00 0.  1.
         21   -1    0    0  505  502 -0.00000000000E+00 -0.00000000000E+00 -0.14458132480E+03  0.14458132480E+03  0.00000000000E+00 0.  1.
         21    1    1    2  503  502  0.11059191576E+02  0.13247165739E+03  0.36599757055E+02  0.13787888869E+03  0.00000000000E+00 0.  1.
         21    1    1    2  504  503  0.27223589531E+02  0.15328078623E+02  0.74532160061E+02  0.80815324689E+02  0.00000000000E+00 0. -1.
         21    1    1    2  505  506 -0.21261476944E+02  0.26674570448E+02 -0.70727627451E+02  0.78523756885E+02  0.00000000000E+00 0.  1.
         21    1    1    2  506  501 -0.17021304163E+02 -0.17447430646E+03  0.45881759955E+03  0.49116656856E+03  0.00000000000E+00 0.  1.
<scales pt_clust_3="14000.00000" pt_clust_4="31.24218" pt_clust_5="34.07769" pt_clust_6="155.28224"></scales>
<clustering>
<clus scale="   31.242">  1  4  2 -1</clus>
<clus scale="   34.078">  2  5  1 -1</clus>
<clus scale="  155.282">  1  6  2 -1</clus>
<clus scale="   31.242">  1  3  2 -1</clus>
</clustering>
</event>
<event>
 6    0  0.8610502E+002  0.9920482E+02  0.7546771E-02  0.1281977E+00
         21   -1    0    0  506  501  0.00000000000E+00  0.00000000000E+00  0.23036745916E+03  0.23036745916E+03  0.00000000000E+00 0.  1.
         21   -1    0    0  503  502 -0.00000000000E+00 -0.00000000000E+00 -0.13198646564E+03  0.13198646564E+03  0.00000000000E+00 0. -1.
         21    1    1    2  503  505 -0.38381037221E+02  0.65080696995E+02 -0.42153252408E+02  0.86518771536E+02  0.00000000000E+00 0. -1.
         21    1    1    2  504  502  0.72649862843E+02 -0.11656879626E+02 -0.85446015779E+01  0.74073582536E+02  0.00000000000E+00 0.  1.
         21    1    1    2  505  501 -0.77203076969E+02 -0.40097861042E+02  0.12001947104E+03  0.14823234122E+03  0.00000000000E+00 0.  1.
         21    1    1    2  506  504  0.42934251348E+02 -0.13325956327E+02  0.29059376463E+02  0.53529229503E+02  0.00000000000E+00 0.  1.
<scales pt_clust_3="75.55529" pt_clust_4="33.87149" pt_clust_5="89.24015" pt_clust_6="33.87149"></scales>
<clustering>
<clus scale="   33.871">  4  6 -1 -1</clus>
<clus scale="   75.555">  2  3  1 -1</clus>
<clus scale="   89.240">  1  5  2 -1</clus>
<clus scale="   89.240">  1  3  2 -1</clus>
</clustering>
</event>
<event>
 6    0  0.8610502E+002  0.8720143E+02  0.7546771E-02  0.1309774E+00
         21   -1    0    0  504  501  0.00000000000E+00  0.00000000000E+00  0.17429345334E+03  0.17429345334E+03  0.00000000000E+00 0.  1.
         21   -1    0    0  506  502 -0.00000000000E+00 -0.00000000000E+00 -0.15946469563E+03  0.15946469563E+03  0.00000000000E+00 0.  1.
         21    1    1    2  503  502  0.23031664254E+02 -0.47068016466E+02 -0.46667985447E+02  0.70169484807E+02  0.00000000000E+00 0.  1.
         21    1    1    2  504  503  0.75389180164E+02  0.57510425354E+02  0.99285477206E+02  0.13729014347E+03  0.00000000000E+00 0.  1.
         21    1    1    2  505  501 -0.58778378072E+02 -0.38754792123E+02 -0.12837040186E+02  0.71565503156E+02  0.00000000000E+00 0.  1.
         21    1    1    2  506  505 -0.39642466345E+02  0.28312383234E+02 -0.24951693856E+02  0.54733017536E+02  0.00000000000E+00 0.  1.
<scales pt_clust_3="33.44357" pt_clust_4="14000.00000" pt_clust_5="87.20143" pt_clust_6="48.71464"></scales>
<clustering>
<clus scale="   48.715">  2  6  1 -1</clus>
<clus scale="   33.444">  2  3  1 -1</clus>
<clus scale="   87.201">  2  5  1 -1</clus>
<clus scale="   87.201">  1  3  2 -1</clus>
</clustering>
</event>
<event>
 6    0  0.8610502E+002  0.1115498E+03  0.7546771E-02  0.1257727E+00
         21   -1    0    0  505  501  0.00000000000E+00  0.00000000000E+00  0.77504661555E+03  0.77504661555E+03  0.00000000000E+00 0.  1.
         21   -1    0    0  506  502 -0.00000000000E+00 -0.00000000000E+00 -0.41250440336E+02  0.41250440336E+02  0.00000000000E+00 0.  1.
         21    1    1    2  503  504  0.74659460338E+01 -0.88369281903E+02  0.10124371282E+03  0.13459256933E+03  0.00000000000E+00 0.  1.
         21    1    1    2  504  501  0.46463498138E+02  0.46787628470E+02  0.43503843813E+03  0.44000725163E+03  0.00000000000E+00 0.  1.
         21    1    1    2  505  502 -0.34559744124E+02  0.78197066411E+02  0.79961213980E+02  0.11705961238E+03  0.00000000000E+00 0.  1.
         21    1    1    2  506  503 -0.19369700048E+02 -0.36615412977E+02  0.11755281029E+03  0.12463762254E+03  0.00000000000E+00 0.  1.
<scales pt_clust_3="40.80926" pt_clust_4="65.93890" pt_clust_5="94.22235" pt_clust_6="40.80926"></scales>
<clustering>
<clus scale="   40.809">  3  6 -1 -1</clus>
<clus scale="   65.939">  1  4  2 -1</clus>
<clus scale="   94.222">  2  5  1 -1</clus>
<clus scale="   65.939">  1  3  2 -1</clus>
</clustering>
</event>
<event>
 6    0  0.8610502E+002  0.8462272E+02  0.7546771E-02  0.1316422E+00
         21   -1    0    0  506  501  0.00000000000E+00  0.00000000000E+00  0.10094030086E+03  0.10094030086E+03  0.00000000000E+00 0.  1.
         21   -1    0    0  505  502 -0.00000000000E+00 -0.00000000000E+00 -0.72651509160E+03  0.72651509160E+03  0.00000000000E+00 0.  1.
         21    1    1    2  503  504  0.24449984158E+02 -0.47247117064E+02 -0.39388072936E+02  0.66192991214E+02  0.00000000000E+00 0.  1.
         21    1    1    2  504  502  0.10338366729E+02  0.88711267790E+02 -0.61314214084E+03  0.61961266589E+03  0.00000000000E+00 0.  1.
         21    1    1    2  505  501 -0.66415032628E+02 -0.35744951969E+02 -0.25936899724E+02  0.79758265512E+02  0.00000000000E+00 0.  1.
         21    1    1    2  506  503  0.31626681742E+02 -0.57191987571E+01  0.52892322763E+02  0.61891469845E+02  0.00000000000E+00 0.  1.
<scales pt_clust_3="59.75129" pt_clust_4="14000.00000" pt_clust_5="84.62272" pt_clust_6="32.13964"></scales>
<clustering>
<clus scale="   32.140">  1  6  2 -1</clus>
<clus scale="   59.751">  1  3  2 -1</clus>
<clus scale="   84.623">  1  5  2 -1</clus>
<clus scale="   32.140">  1  3  2 -1</clus>
</clustering>
</event>
<event>
 6    0  0.8610502E+002  0.1886994E+03  0.7546771E-02  0.1159640E+00
         21   -1    0    0  504  501  0.00000000000E+00  0.00000000000E+00  0.29212575525E+03  0.29212575525E+03  0.00000000000E+00 0.  1.
         21   -1    0    0  506  502 -0.00000000000E+00 -0.00000000000E+00 -0.69396494266E+03  0.69396494266E+03  0.00000000000E+00 0.  1.
         21    1    1    2  503  505  0.93856246114E+02  0.10906511108E+01 -0.25576382641E+03  0.27244324061E+03  0.00000000000E+00 0.  1.
         21    1    1    2  504  502 -0.18399554834E+03  0.79923458003E+02 -0.28535543548E+03  0.34881204897E+03  0.00000000000E+00 0.  1.
         21    1    1    2  505  501  0.19452885479E+02 -0.57571587590E+02  0.23547037191E+03  0.24318552280E+03  0.00000000000E+00 0.  1.
         21    1    1    2  506  503  0.70686416743E+02 -0.23442521524E+02 -0.96190297433E+02  0.12164988552E+03  0.00000000000E+00 0.  1.
<scales pt_clust_3="55.36789" pt_clust_4="178.16756" pt_clust_5="60.76926" pt_clust_6="55.36789"></scales>
<clustering>
<clus scale="   55.368">  3  6 -1 -1</clus>
<clus scale="   60.769">  1  5  2 -1</clus>
<clus scale="  178.168">  1  4  2 -1</clus>
<clus scale="   60.769">  1  3  2 -1</clus>
</clustering>
</event>
<event>
 6    0  0.8610502E+002  0.6248879E+02  0.7546771E-02  0.1387675E+00
         21   -1    0    0  506  501  0.00000000000E+00  0.00000000000E+00  0.85638000883E+03  0.85638000883E+03  0.00000000000E+00 0. -1.
         21   -1    0    0  505  502 -0.00000000000E+00 -0.00000000000E+00 -0.58228640950E+02  0.58228640950E+02  0.00000000000E+00 0. -1.
         21    1    1    2  503  504 -0.62396128755E+02  0.26745678235E+01  0.23237879152E+03  0.24062488014E+03  0.00000000000E+00 0. -1.
         21    1    1    2  504  502  0.62866989630E+02  0.29611945566E+02  0.14046547685E+03  0.15671527013E+03  0.00000000000E+00 0. -1.
         21    1    1    2  505  501 -0.35852897837E+02  0.40352584791E+02 -0.25200993074E+02  0.59572237112E+02  0.00000000000E+00 0. -1.
         21    1    1    2  506  503  0.35382036962E+02 -0.72639098180E+02  0.45050809259E+03  0.45769626239E+03  0.00000000000E+00 0. -1.
<scales pt_clust_3="62.48879" pt_clust_4="67.15090" pt_clust_5="53.97927" pt_clust_6="14000.00000"></scales>
<clustering>
<clus scale="   53.979">  2  5  1 -1</clus>
<clus scale="   67.151">  2  4  1 -1</clus>
<clus scale="   62.489">  2  3  1 -1</clus>
<clus scale="   62.489">  1  3  2 -1</clus>
</clustering>
</event>
<event>
 6    0  0.8610502E+002  0.1954307E+03  0.7546771E-02  0.1153652E+00
         21   -1    0    0  503  501  0.00000000000E+00  0.00000000000E+00  0.28301245765E+03  0.28301245765E+03  0.00000000000E+00 0.  1.
         21   -1    0    0  505  502 -0.00000000000E+00 -0.00000000000E+00 -0.51397123395E+03  0.51397123395E+03  0.00000000000E+00 0. -1.
         21    1    1    2  503  504 -0.16621994238E+03 -0.60347463257E+02 -0.12995157997E+03  0.21944999135E+03  0.00000000000E+00 0.  1.
         21    1    1    2  504  506  0.11721628514E+03  0.11670667525E+03 -0.23205395952E+03  0.28497218404E+03  0.00000000000E+00 0. -1.
         21    1    1    2  505  501  0.11569354585E+02 -0.56717553619E+02  0.20319492220E+03  0.21127921635E+03  0.00000000000E+00 0.  1.
         21    1    1    2  506  502  0.37434302656E+02  0.35834162674E+00 -0.72148159012E+02  0.81282299874E+02  0.00000000000E+00 0.  1.
<scales pt_clust_3="184.96149" pt_clust_4="30.02186" pt_clust_5="57.88550" pt_clust_6="30.02186"></scales>
<clustering>
<clus scale="   30.022">  4  6 -1 -1</clus>
<clus scale="   57.885">  1  5  2 -1</clus>
<clus scale="  184.961">  1  3  2 -1</clus>
<clus scale="   57.885">  1  3  2 -1</clus>
</clustering>
</event>
<event>
 6    0  0.8610502E+002  0.1149931E+03  0.7546771E-02  0.1251593E+00
         21   -1    0    0  504  501  0.00000000000E+00  0.00000000000E+00  0.10770779515E+03  0.10770779515E+03  0.00000000000E+00 0.  1.
         21   -1    0    0  506  502 -0.00000000000E+00 -0.00000000000E+00 -0.14988241809E+04  0.14988241809E+04  0.00000000000E+00 0.  1.
         21    1    1    2  503  502  0.92937602281E+02  0.70695894061E+02 -0.13106450976E+04  0.13158365701E+04  0.00000000000E+00 0.  1.
         21    1    1    2  504  503 -0.17502940047E+01 -0.89424332817E+02  0.62658036942E+02  0.10920533147E+03  0.00000000000E+00 0.  1.
         21    1    1    2  505  501 -0.29604092661E+02 -0.22357762510E+02 -0.55764947537E+02  0.66977617310E+02  0.00000000000E+00 0.  1.
         21    1    1    2  506  505 -0.61583215616E+02  0.41086201266E+02 -0.87364377562E+02  0.11451245717E+03  0.00000000000E+00 0.  1.
<scales pt_clust_3="14000.00000" pt_clust_4="114.99314" pt_clust_5="37.09814" pt_clust_6="75.79841"></scales>
<clustering>
<clus scale="   37.098">  1  5  2 -1</clus>
<clus scale="   75.798">  1  6  2 -1</clus>
<clus scale="  114.993">  1  4  2 -1</clus>
<clus scale="   37.098">  1  3  2 -1</clus>
</clustering>
</event>
<event>
 6    0  0.8610502E+002  0.7022622E+02  0.7546771E-02  0.1359325E+00
         21   -1    0    0  504  501  0.00000000000E+00  0.00000000000E+00  0.40849029372E+03  0.40849029372E+03  0.00000000000E+00 0.  1.
         21   -1    0    0  506  502 -0.00000000000E+00 -0.00000000000E+00 -0.14342066527E+03  0.14342066527E+03  0.00000000000E+00 0.  1.
         21    1    1    2  503  502  0.54277516875E+02  0.34000670346E+02  0.13137222745E+02  0.65381044987E+02  0.00000000000E+00 0.  1.
         21    1    1    2  504  503 -0.17000428334E+01 -0.67219373942E+02  0.26389504794E+03  0.27232688208E+03  0.00000000000E+00 0.  1.
         21    1    1    2  505  501 -0.39578009020E+02  0.86879145943E+02  0.67871514911E+02  0.11713644750E+03  0.00000000000E+00 0.  1.
         21    1    1    2  506  505 -0.12999465022E+02 -0.53660442347E+02 -0.79834157142E+02  0.97066584416E+02  0.00000000000E+00 0.  1.
<scales pt_clust_3="48.84564" pt_clust_4="70.22622" pt_clust_5="14000.00000" pt_clust_6="55.21258"></scales>
<clustering>
<clus scale="   55.213">  2  6  1 -1</clus>
<clus scale="   48.846">  2  3  1 -1</clus>
<clus scale="   70.226">  1  4  2 -1</clus>
<clus scale="   70.226">  1  3  2 -1</clus>
</clustering>
</event>
<event>
 6    0  0.8610502E+002  0.1015899E+03  0.7546771E-02  0.1276988E+00
         21   -1    0    0  504  501  0.00000000000E+00  0.00000000000E+00  0.14036650553E+03  0.14036650553E+03  0.00000000000E+00 0. -1.
         21   -1    0    0  506  502 -0.00000000000E+00 -0.00000000000E+00 -0.24772253908E+03  0.24772253908E+03  0.00000000000E+00 0. -1.
         21    1    1    2  503  501 -0.21601291457E+02  0.35204892040E+02 -0.57329863904E+01  0.41699728406E+02  0.00000000000E+00 0. -1.
         21    1    1    2  504  505 -0.11295522877E+02 -0.50090940463E+02  0.10284466316E+02  0.52368515359E+02  0.00000000000E+00 0.  1.
         21    1    1    2  505  502  0.10703875191E+03 -0.37269401742E+01 -0.16797877262E+03  0.19921860491E+03  0.00000000000E+00 0. -1.
         21    1    1    2  506  503 -0.74141937578E+02  0.18612988597E+02  0.56071259133E+02  0.94802195930E+02  0.00000000000E+00 0. -1.
<scales pt_clust_3="41.30376" pt_clust_4="44.39146" pt_clust_5="101.58993" pt_clust_6="14000.00000"></scales>
<clustering>
<clus scale="   41.304">  1  3  2 -1</clus>
<clus scale="   44.391">  1  4  2 -1</clus>
<clus scale="  101.590">  2  5  1 -1</clus>
<clus scale="   41.304">  1  3  2 -1</clus>
</clustering>
</event>
<event>
 6    0  0.8610502E+002  0.8968889E+02  0.7546771E-02  0.1303607E+00
         21   -1    0    0  504  501  0.00000000000E+00  0.00000000000E+00  0.21557511860E+04  0.21557511860E+04  0.00000000000E+00 0.  1.
         21   -1    0    0  506  502 -0.00000000000E+00 -0.00000000000E+00 -0.45851607191E+03  0.45851607191E+03  0.00000000000E+00 0.  1.
         21    1    1    2  503  502  0.18719499172E+02 -0.41610253106E+02 -0.29780620219E+03  0.30128120897E+03  0.00000000000E+00 0.  1.
         21    1    1    2  504  505 -0.80777459594E+02  0.39225512778E+02  0.21176783142E+04  0.21195813457E+04  0.00000000000E+00 0.  1.
         21    1    1    2  505  503  0.90375719780E+02  0.19032092236E+02 -0.13026319937E+03  0.15968247358E+03  0.00000000000E+00 0.  1.
         21    1    1    2  506  501 -0.28317759359E+02 -0.16647351908E+02  0.76262014265E+01  0.33722229595E+02  0.00000000000E+00 0.  1.
<scales pt_clust_3="52.80533" pt_clust_4="14000.00000" pt_clust_5="89.68889" pt_clust_6="32.84859"></scales>
<clustering>
<clus scale="   32.849">  2  6  1 -1</clus>
<clus scale="   52.805">  2  3  1 -1</clus>
<clus scale="   89.689">  2  5  1 -1</clus>
<clus scale="   89.689">  1  3  2 -1</clus>
</clustering>
</event>
<event>
 6    0  0.8610502E+002  0.8150523E+02  0.7546771E-02  0.1324833E+00
         21   -1    0    0  505  501  0.00000000000E+00  0.00000000000E+00  0.54557036106E+03  0.54557036106E+03  0.00000000000E+00 0. -1.
         21   -1    0    0  503  502 -0.00000000000E+00 -0.00000000000E+00 -0.56779969786E+03  0.56779969786E+03  0.00000000000E+00 0. -1.
         21    1    1    2  503  506 -0.25393944639E+02 -0.17977804096E+02 -0.78973844987E+02  0.84881812283E+02  0.00000000000E+00 0. -1.
         21    1    1    2  504  501 -0.12617155975E+02  0.80523810691E+02  0.49828863373E+03  0.50491072400E+03  0.00000000000E+00 0. -1.
         21    1    1    2  505  502  0.11519309271E+03 -0.63801195087E+02 -0.42459591624E+03  0.44454666031E+03  0.00000000000E+00 0. -1.
         21    1    1    2  506  504 -0.77181992094E+02  0.12551884918E+01 -0.16948209298E+02  0.79030862327E+02  0.00000000000E+00 0. -1.
<scales pt_clust_3="31.11356" pt_clust_4="14000.00000" pt_clust_5="81.50523" pt_clust_6="79.69185"></scales>
<clustering>
<clus scale="   31.114">  2  3  1 -1</clus>
<clus scale="   79.692">  2  6  1 -1</clus>
<clus scale="   81.505">  2  5  1 -1</clus>
<clus scale="   81.505">  1  3  2 -1</clus>
</clustering>
</event>
<event>
 6    0  0.8610502E+002  0.1558588E+03  0.7546771E-02  0.1193453E+00
         21   -1    0    0  504  501  0.00000000000E+00  0.00000000000E+00  0.20951886763E+02  0.20951886763E+02  0.00000000000E+00 0.  1.
         21   -1    0    0  503  502 -0.00000000000E+00 -0.00000000000E+00 -0.11400903428E+04  0.11400903428E+04  0.00000000000E+00 0.  1.
         21    1    1    2  503  506 -0.69758046312E+02 -0.57099742226E+02 -0.24273906943E+03  0.25893787173E+03  0.00000000000E+00 0.  1.
         21    1    1    2  504  505  0.38497534581E+02  0.62385953099E+02 -0.35785944697E+03  0.36529091297E+03  0.00000000000E+00 0.  1.
         21    1    1    2  505  502  0.54541401508E+02  0.52591403530E+02 -0.25697218550E+03  0.26790917178E+03  0.00000000000E+00 0.  1.
         21    1    1    2  506  501 -0.23280889777E+02 -0.57877614403E+02 -0.26156775413E+03  0.26890427308E+03  0.00000000000E+00 0.  1.
<scales pt_clust_3="40.88865" pt_clust_4="31.84890" pt_clust_5="151.40809" pt_clust_6="40.88865"></scales>
<clustering>
<clus scale="   31.849">  4  5 -1 -1</clus>
<clus scale="   40.889">  3  6 -1 -1</clus>
<clus scale="  151.408">  2  4  1 -1</clus>
<clus scale="  155.859">  1  3  2 -1</clus>
</clustering>
</event>
<event>
 6    0  0.8610502E+002  0.7886640E+02  0.7546771E-02  0.1332300E+00
         21   -1    0    0  504  501  0.00000000000E+00  0.00000000000E+00  0.47074820046E+03  0.47074820046E+03  0.00000000000E+00 0. -1.
         21   -1    0    0  506  502 -0.00000000000E+00 -0.00000000000E+00 -0.23438167008E+03  0.23438167008E+03  0.00000000000E+00 0. -1.
         21    1    1    2  503  505  0.83404849344E+02 -0.49209247418E+02  0.19349867485E+03  0.21637850193E+03  0.00000000000E+00 0. -1.
         21    1    1    2  504  502 -0.72359652929E+02  0.80678300665E+01  0.21942590576E+03  0.23118982973E+03  0.00000000000E+00 0. -1.
         21    1    1    2  505  501  0.13875085010E+02 -0.33876909570E+02  0.22783125168E+02  0.43118833222E+02  0.00000000000E+00 0. -1.
         21    1    1    2  506  503 -0.24920281425E+02  0.75018326921E+02 -0.19934117540E+03  0.21444270566E+03  0.00000000000E+00 0. -1.
<scales pt_clust_3="78.86640" pt_clust_4="65.88815" pt_clust_5="36.60824" pt_clust_6="14000.00000"></scales>
<clustering>
<clus scale="   36.608">  1  5  2 -1</clus>
<clus scale="   65.888">  1  4  2 -1</clus>
<clus scale="   78.866">  1  3  2 -1</clus>
<clus scale="   36.608">  1  3  2 -1</clus>
</clustering>
</event>
<event>
 6    0  0.8610502E+002  0.6784770E+02  0.7546771E-02  0.1367569E+00
         21   -1    0    0  503  501  0.00000000000E+00  0.00000000000E+00  0.23719431726E+02  0.23719431726E+02  0.00000000000E+00 0. -1.
         21   -1    0    0  505  502 -0.00000000000E+00 -0.00000000000E+00 -0.80576731241E+03  0.80576731241E+03  0.00000000000E+00 0. -1.
         21    1    1    2  503  506  0.67773979818E+01  0.47960435446E+02 -0.92941072836E+02  0.10480543646E+03  0.00000000000E+00 0. -1.
         21    1    1    2  504  501  0.27970827610E+02 -0.77763755271E+02 -0.14926139097E+03  0.17061222601E+03  0.00000000000E+00 0. -1.
         21    1    1    2  505  504  0.22583027665E+01 -0.42349671640E+02 -0.22406950794E+03  0.22804766828E+03  0.00000000000E+00 0. -1.
         21    1    1    2  506  502 -0.37006528358E+02  0.72152991465E+02 -0.31577590893E+03  0.32602141338E+03  0.00000000000E+00 0. -1.
<scales pt_clust_3="41.36229" pt_clust_4="67.84770" pt_clust_5="42.40984" pt_clust_6="14000.00000"></scales>
<clustering>
<clus scale="   42.410">  2  5  1 -1</clus>
<clus scale="   41.362">  1  3  2 -1</clus>
<clus scale="   67.848">  1  4  2 -1</clus>
<clus scale="   41.362">  1  3  2 -1</clus>
</clustering>
</event>
<event>
 6    0  0.8610502E+002  0.1046983E+03  0.7546771E-02  0.1270715E+00
         21   -1    0    0  504  501  0.00000000000E+00  0.00000000000E+00  0.38495051431E+03  0.38495051431E+03  0.00000000000E+00 0. -1.
         21   -1    0    0  503  502 -0.00000000000E+00 -0.00000000000E+00 -0.43137866616E+03  0.43137866616E+03  0.00000000000E+00 0. -1.
         21    1    1    2  503  506  0.32837939765E+02 -0.18053168404E+02 -0.35903781296E+03  0.36098808611E+03  0.00000000000E+00 0. -1.
         21    1    1    2  504  505 -0.88249876388E+01 -0.50558055626E+02  0.15007690153E+03  0.15860981612E+03  0.00000000000E+00 0. -1.
         21    1    1    2  505  502  0.66102104985E+02 -0.38348463433E+02 -0.72460142238E+01  0.76763257182E+02  0.00000000000E+00 0.  1.
         21    1    1    2  506  501 -0.90115057111E+02  0.10695968746E+03  0.16977877380E+03  0.21996802107E+03  0.00000000000E+00 0.  1.
<scales pt_clust_3="37.47329" pt_clust_4="52.09125" pt_clust_5="104.69834" pt_clust_6="14000.00000"></scales>
<clustering>
<clus scale="   37.473">  2  3  1 -1</clus>
<clus scale="   52.091">  1  4  2 -1</clus>
<clus scale="  104.698">  2  5  1 -1</clus>
<clus scale="   52.091">  1  3  2 -1</clus>
</clustering>
</event>
<event>
 6    0  0.8610502E+002  0.1966252E+03  0.7546771E-02  0.1152618E+00
         21   -1    0    0  503  501  0.00000000000E+00  0.00000000000E+00  0.25613632976E+03  0.25613632976E+03  0.00000000000E+00 0.  1.
         21   -1    0    0  505  502 -0.00000000000E+00 -0.00000000000E+00 -0.28628024899E+04  0.28628024899E+04  0.00000000000E+00 0.  1.
         21    1    1    2  503  506  0.16698170259E+03  0.10734118790E+03  0.19486127787E+03  0.27816530559E+03  0.00000000000E+00 0.  1.
         21    1    1    2  504  502  0.25489225900E+02  0.16681576731E+02 -0.19258610267E+04  0.19261019365E+04  0.00000000000E+00 0.  1.
         21    1    1    2  505  501 -0.28916492944E+02 -0.75654180560E+02 -0.16474516168E+03  0.18357746838E+03  0.00000000000E+00 0.  1.
         21    1    1    2  506  504 -0.16355443555E+03 -0.48368584071E+02 -0.71092124964E+03  0.73109410919E+03  0.00000000000E+00 0.  1.
<scales pt_clust_3="196.62523" pt_clust_4="30.46269" pt_clust_5="76.47550" pt_clust_6="14000.00000"></scales>
<clustering>
<clus scale="   30.463">  2  4  1 -1</clus>
<clus scale="   76.476">  2  5  1 -1</clus>
<clus scale="  196.625">  1  3  2 -1</clus>
<clus scale="  196.625">  1  3  2 -1</clus>
</clustering>
</event>
<event>
 6    0  0.8610502E+002  0.1260977E+03  0.7546771E-02  0.1233364E+00
         21   -1    0    0  505  501  0.00000000000E+00  0.00000000000E+00  0.39431980963E+03  0.39431980963E+03  0.00000000000E+00 0.  1.
         21   -1    0    0  504  502 -0.00000000000E+00 -0.00000000000E+00 -0.32297700086E+03  0.32297700086E+03  0.00000000000E+00 0.  1.
         21    1    1    2  503  501  0.10130024512E+03  0.43656046684E+02  0.58521269175E+01  0.11046192766E+03  0.00000000000E+00 0.  1.
         21    1    1    2  504  503  0.90470638401E+02  0.66157685934E+00 -0.64894694546E+02  0.11134044852E+03  0.00000000000E+00 0.  1.
         21    1    1    2  505  506 -0.12749466594E+03 -0.28829530031E+02  0.29252046865E+03  0.32039702905E+03  0.00000000000E+00 0.  1.
         21    1    1    2  506  502 -0.64276217578E+02 -0.15488093512E+02 -0.16213509226E+03  0.17509740526E+03  0.00000000000E+00 0.  1.
<scales pt_clust_3="14000.00000" pt_clust_4="54.39679" pt_clust_5="126.09767" pt_clust_6="66.11591"></scales>
<clustering>
<clus scale="   66.116">  2  6  1 -1</clus>
<clus scale="   54.397">  2  4  1 -1</clus>
<clus scale="  126.098">  1  5  2 -1</clus>
<clus scale="  126.098">  1  3  2 -1</clus>
</clustering>
</event>
<event>
 6    0  0.8610502E+002  0.7706674E+02  0.7546771E-02  0.1337588E+00
         21   -1    0    0  504  501  0.00000000000E+00  0.00000000000E+00  0.89317090316E+02  0.89317090316E+02  0.00000000000E+00 0. -1.
         21   -1    0    0  505  502 -0.00000000000E+00 -0.00000000000E+00 -0.79275706891E+03  0.79275706891E+03  0.00000000000E+00 0.  1.
         21    1    1    2  503  501  0.78735289081E+02  0.19367261526E+02 -0.59859588157E+02  0.10078445743E+03  0.00000000000E+00 0. -1.
         21    1    1    2  504  502 -0.34592676142E+02 -0.77836718359E+02  0.20529499161E+02  0.87616598332E+02  0.00000000000E+00 0. -1.
         21    1    1    2  505  506 -0.38634777455E+02 -0.33134855823E+01 -0.61037833497E+03  0.61160881045E+03  0.00000000000E+00 0.  1.
         21    1    1    2  506  503 -0.55078354847E+01  0.61782942415E+02 -0.53731554629E+02  0.82064293015E+02  0.00000000000E+00 0. -1.
<scales pt_clust_3="77.06674" pt_clust_4="14000.00000" pt_clust_5="38.77661" pt_clust_6="63.74417"></scales>
<clustering>
<clus scale="   38.777">  2  5  1 -1</clus>
<clus scale="   63.744">  2  6  1 -1</clus>
<clus scale="   77.067">  2  3  1 -1</clus>
<clus scale="   77.067">  1  3  2 -1</clus>
</clustering>
</event>
<event>
 6    0  0.8610502E+002  0.7184835E+02  0.7546771E-02  0.1353918E+00
         21   -1    0    0  505  501  0.00000000000E+00  0.00000000000E+00  0.31097362751E+03  0.31097362751E+03  0.00000000000E+00 0.  1.
         21   -1    0    0  503  502 -0.00000000000E+00 -0.00000000000E+00 -0.46458611681E+03  0.46458611681E+03  0.00000000000E+00 0.  1.
         21    1    1    2  503  504  0.84802610612E+01 -0.53009656963E+02 -0.42290598593E+03  0.42629967335E+03  0.00000000000E+00 0.  1.
         21    1    1    2  504  501  0.28265805012E+02  0.16983454986E+02  0.37728247791E+02  0.50108024882E+02  0.00000000000E+00 0.  1.
         21    1    1    2  505  506 -0.17785142991E+01 -0.65869273051E+02  0.15061747754E+03  0.16440057416E+03  0.00000000000E+00 0.  1.
         21    1    1    2  506  502 -0.34967551775E+02  0.10189547503E+03  0.80947771298E+02  0.13475147193E+03  0.00000000000E+00 0.  1.
<scales pt_clust_3="53.60586" pt_clust_4="32.97565" pt_clust_5="14000.00000" pt_clust_6="71.84835"></scales>
<clustering>
<clus scale="   32.976">  1  4  2 -1</clus>
<clus scale="   53.606">  2  3  1 -1</clus>
<clus scale="   71.848">  2  6  1 -1</clus>
<clus scale="   32.976">  1  3  2 -1</clus>
</clustering>
</event>
<event>
 6    0  0.8610502E+002  0.1439173E+03  0.7546771E-02  0.1208153E+00
         21   -1    0    0  504  501  0.00000000000E+00  0.00000000000E+00  0.78834512259E+03  0.78834512259E+03  0.00000000000E+00 0.  1.
         21   -1    0    0  506  502 -0.00000000000E+00 -0.00000000000E+00 -0.18250360325E+03  0.18250360325E+03  0.00000000000E+00 0.  1.
         21    1    1    2  503  502  0.44845406118E+02  0.14137447490E+03 -0.13874993085E+03  0.20309947295E+03  0.00000000000E+00 0.  1.
         21    1    1    2  504  505  0.18949898494E+02 -0.39485239414E+02  0.15162695865E+03  0.15782559163E+03  0.00000000000E+00 0.  1.
         21    1    1    2  505  503 -0.33991125176E+02 -0.32583611622E+02  0.92396244514E+02  0.10370223883E+03  0.00000000000E+00 0.  1.
         21    1    1    2  506  501 -0.29804179435E+02 -0.69305623863E+02  0.50056824701E+03  0.50622142243E+03  0.00000000000E+00 0.  1.
<scales pt_clust_3="14000.00000" pt_clust_4="43.79706" pt_clust_5="49.61704" pt_clust_6="143.91727"></scales>
<clustering>
<clus scale="   43.797">  1  4  2 -1</clus>
<clus scale="   49.617">  1  5  2 -1</clus>
<clus scale="  143.917">  1  6  2 -1</clus>
<clus scale="   43.797">  1  3  2 -1</clus>
</clustering>
</event>
<event>
 6    0  0.8610502E+002  0.1668462E+03  0.7546771E-02  0.1181177E+00
         21   -1    0    0  504  501  0.00000000000E+00  0.00000000000E+00  0.17323519496E+03  0.17323519496E+03  0.00000000000E+00 0.  1.
         21   -1    0    0  505  502 -0.00000000000E+00 -0.00000000000E+00 -0.70358045081E+03  0.70358045081E+03  0.00000000000E+00 0. -1.
         21    1    1    2  503  501 -0.56247534546E+02  0.10539143791E+01 -0.70837394342E+02  0.90459009033E+02  0.00000000000E+00 0. -1.
         21    1    1    2  504  506  0.14499054939E+03 -0.83238974244E+01  0.64476090360E+02  0.15889843583E+03  0.00000000000E+00 0.  1.
         21    1    1    2  505  503 -0.15830151709E+03 -0.95844506077E+02 -0.16642650773E+03  0.24888415404E+03  0.00000000000E+00 0. -1.
         21    1    1    2  506  502  0.69558502241E+02  0.10311448912E+03 -0.35755744414E+03  0.37857404686E+03  0.00000000000E+00 0. -1.
<scales pt_clust_3="34.18047" pt_clust_4="154.90187" pt_clust_5="34.18047" pt_clust_6="124.38241"></scales>
<clustering>
<clus scale="   34.180">  3  5 -1 -1</clus>
<clus scale="  124.382">  2  6  1 -1</clus>
<clus scale="  154.902">  1  4  2 -1</clus>
<clus scale="  154.902">  1  3  2 -1</clus>
</clustering>
</event>
<event>
 6    0  0.8610502E+002  0.1211842E+03  0.7546771E-02  0.1241156E+00
         21   -1    0    0  503  501  0.00000000000E+00  0.00000000000E+00  0.15960406766E+04  0.15960406766E+04  0.00000000000E+00 0.  1.
         21   -1    0    0  505  502 -0.00000000000E+00 -0.00000000000E+00 -0.68023245291E+02  0.68023245291E+02  0.00000000000E+00 0.  1.
         21    1    1    2  503  506  0.38232724671E+02 -0.84088220272E+00  0.83439191081E+02  0.91785330674E+02  0.00000000000E+00 0. -1.
         21    1    1    2  504  501 -0.32025678819E+02  0.32701145361E+01  0.35487551265E+03  0.35633266371E+03  0.00000000000E+00 0.  1.
         21    1    1    2  505  504  0.78756986013E+02 -0.89033970596E+02  0.10881395237E+04  0.10946128693E+04  0.00000000000E+00 0.  1.
         21    1    1    2  506  502 -0.84964031865E+02  0.86604738263E+02  0.15632039317E+01  0.12133305818E+03  0.00000000000E+00 0.  1.
<scales pt_clust_3="35.97592" pt_clust_4="32.19220" pt_clust_5="14000.00000" pt_clust_6="121.18416"></scales>
<clustering>
<clus scale="   32.192">  1  4  2 -1</clus>
<clus scale="   35.976">  1  3  2 -1</clus>
<clus scale="  121.184">  2  6  1 -1</clus>
<clus scale="   32.192">  1  3  2 -1</clus>
</clustering>
</event>
<event>
 6    0  0.8610502E+002  0.8346507E+02  0.7546771E-02  0.1319496E+00
         21   -1    0    0  506  501  0.00000000000E+00  0.00000000000E+00  0.40142337331E+03  0.40142337331E+03  0.00000000000E+00 0.  1.
         21   -1    0    0  504  502 -0.00000000000E+00 -0.00000000000E+00 -0.14337167473E+03  0.14337167473E+03  0.00000000000E+00 0.  1.
         21    1    1    2  503  501 -0.64398567440E+02 -0.56646976520E+02  0.55011504361E+02  0.10189367522E+03  0.00000000000E+00 0.  1.
         21    1    1    2  504  505  0.54696114529E+02 -0.99836930131E+02 -0.56917880162E+02  0.12727420259E+03  0.00000000000E+00 0.  1.
         21    1    1    2  505  503  0.16476044902E+02  0.10967148540E+03  0.23981492713E+03  0.26421675579E+03  0.00000000000E+00 0.  1.
         21    1    1    2  506  502 -0.67735919913E+01  0.46812421253E+02  0.20143147258E+02  0.51410414446E+02  0.00000000000E+00 0. -1.
<scales pt_clust_3="81.35258" pt_clust_4="83.46507" pt_clust_5="14000.00000" pt_clust_6="47.29994"></scales>
<clustering>
<clus scale="   47.300">  2  6  1 -1</clus>
<clus scale="   81.353">  1  3  2 -1</clus>
<clus scale="   83.465">  2  4  1 -1</clus>
<clus scale="   81.353">  1  3  2 -1</clus>
</clustering>
</event>
<event>
 6    0  0.8610502E+002  0.9015371E+02  0.7546771E-02  0.1302480E+00
         21   -1    0    0  503  501  0.00000000000E+00  0.00000000000E+00  0.22564584762E+04  0.22564584762E+04  0.00000000000E+00 0. -1.
         21   -1    0    0  504  502 -0.00000000000E+00 -0.00000000000E+00 -0.15800344117E+02  0.15800344117E+02  0.00000000000E+00 0. -1.
         21    1    1    2  503  506 -0.54875919691E+02 -0.31236378936E+02  0.11814739306E+04  0.11831600596E+04  0.00000000000E+00 0. -1.
         21    1    1    2  504  505  0.10914361242E+03  0.24345745746E+02  0.47460674799E+03  0.48760292114E+03  0.00000000000E+00 0. -1.
         21    1    1    2  505  501  0.25143876077E+02  0.21316911998E+02  0.38217990990E+03  0.38359889047E+03  0.00000000000E+00 0. -1.
         21    1    1    2  506  502 -0.79411568802E+02 -0.14426278808E+02  0.20239754364E+03  0.21789694915E+03  0.00000000000E+00 0. -1.
<scales pt_clust_3="42.87159" pt_clust_4="14000.00000" pt_clust_5="32.96400" pt_clust_6="90.15371"></scales>
<clustering>
<clus scale="   32.964">  1  5  2 -1</clus>
<clus scale="   42.872">  1  3  2 -1</clus>
<clus scale="   90.154">  2  6  1 -1</clus>
<clus scale="   32.964">  1  3  2 -1</clus>
</clustering>
</event>
<event>
 6    0  0.8610502E+002  0.4542304E+03  0.7546771E-02  0.1026468E+00
         21   -1    0    0  506  501  0.00000000000E+00  0.00000000000E+00  0.23227114083E+03  0.23227114083E+03  0.00000000000E+00 0.  1.
         21   -1    0    0  503  502 -0.00000000000E+00 -0.00000000000E+00 -0.18091967740E+04  0.18091967740E+04  0.00000000000E+00 0.  1.
         21    1    1    2  503  505  0.39663640824E+02 -0.65716965872E+01 -0.30141047826E+03  0.30408003552E+03  0.00000000000E+00 0.  1.
         21    1    1    2  504  502 -0.14637269895E+03  0.14545818045E+03 -0.53337426416E+03  0.57190135070E+03  0.00000000000E+00 0.  1.
         21    1    1    2  505  501  0.35126430396E+03 -0.26851446155E+03 -0.82014484702E+02  0.44968100137E+03  0.00000000000E+00 0.  1.
         21    1    1    2  506  504 -0.24455524583E+03  0.12962797768E+03 -0.66012640607E+03  0.71580552726E+03  0.00000000000E+00 0.  1.
<scales pt_clust_3="40.20437" pt_clust_4="62.72890" pt_clust_5="448.41628" pt_clust_6="62.72890"></scales>
<clustering>
<clus scale="   40.204">  2  3  1 -1</clus>
<clus scale="   62.729">  4  6 -1 -1</clus>
<clus scale="  448.416">  1  5  2 -1</clus>
<clus scale="  448.416">  1  3  2 -1</clus>
</clustering>
</event>
<event>
 6    0  0.8610502E+002  0.1234376E+03  0.7546771E-02  0.1237531E+00
         21   -1    0    0  503  501  0.00000000000E+00  0.00000000000E+00  0.74984603608E+02  0.74984603608E+02  0.00000000000E+00 0. -1.
         21   -1    0    0  506  502 -0.00000000000E+00 -0.00000000000E+00 -0.84303900341E+03  0.84303900341E+03  0.00000000000E+00 0. -1.
         21    1    1    2  503  502 -0.12668779724E+03 -0.65704271608E+02 -0.18893705469E+03  0.23677850391E+03  0.00000000000E+00 0. -1.
         21    1    1    2  504  501  0.11014438201E+03  0.36807295855E+02 -0.46569584197E+02  0.12512109370E+03  0.00000000000E+00 0. -1.
         21    1    1    2  505  504  0.83182952081E+02  0.29356983694E+02 -0.23027666801E+03  0.24659395743E+03  0.00000000000E+00 0.  1.
         21    1    1    2  506  505 -0.66639536842E+02 -0.46000794125E+00 -0.30227109291E+03  0.30953005199E+03  0.00000000000E+00 0. -1.
<scales pt_clust_3="123.43763" pt_clust_4="14000.00000" pt_clust_5="61.01663" pt_clust_6="66.64112"></scales>
<clustering>
<clus scale="   66.641">  2  6  1 -1</clus>
<clus scale="   61.017">  2  5  1 -1</clus>
<clus scale="  123.438">  2  3  1 -1</clus>
<clus scale="  123.438">  1  3  2 -1</clus>
</clustering>
</event>
<event>
 6    0  0.8610502E+002  0.1286211E+03  0.7546771E-02  0.1229516E+00
         21   -1    0    0  504  501  0.00000000000E+00  0.00000000000E+00  0.99848781820E+02  0.99848781820E+02  0.00000000000E+00 0.  1.
         21   -1    0    0  503  502 -0.00000000000E+00 -0.00000000000E+00 -0.26170455232E+03  0.26170455232E+03  0.00000000000E+00 0.  1.
         21    1    1    2  503  506  0.14460148830E+02 -0.99192512659E+02 -0.73761910281E+02  0.12445509182E+03  0.00000000000E+00 0.  1.
         21    1    1    2  504  505 -0.49724310276E+02  0.41446316669E+02 -0.31922099012E+02  0.72175651041E+02  0.00000000000E+00 0.  1.
         21    1    1    2  505  502  0.32780761447E+02  0.10065479821E+03 -0.60157946539E+02  0.12175773181E+03  0.00000000000E+00 0.  1.
         21    1    1    2  506  501  0.24833999987E+01 -0.42908602216E+02  0.39861853328E+01  0.43164859472E+02  0.00000000000E+00 0.  1.
<scales pt_clust_3="34.32574" pt_clust_4="64.73256" pt_clust_5="117.45378" pt_clust_6="34.32574"></scales>
<clustering>
<clus scale="   34.326">  3  6 -1 -1</clus>
<clus scale="   64.733">  1  4  2 -1</clus>
<clus scale="  117.454">  2  5  1 -1</clus>
<clus scale="   64.733">  1  3  2 -1</clus>
</clustering>
</event>
<event>
 6    0  0.8610502E+002  0.1127043E+03  0.7546771E-02  0.1255642E+00
         21   -1    0    0  506  501  0.00000000000E+00  0.00000000000E+00  0.28046693395E+03  0.28046693395E+03  0.00000000000E+00 0.  1.
         21   -1    0    0  504  502 -0.00000000000E+00 -0.00000000000E+00 -0.43641749649E+03  0.43641749649E+03  0.00000000000E+00 0.  1.
         21    1    1    2  503  505  0.57896804106E+02 -0.10059890718E+02 -0.11394237502E+03  0.12820337808E+03  0.00000000000E+00 0. -1.
         21    1    1    2  504  503 -0.46855674148E+02 -0.19295685689E+02 -0.18033208083E+03  0.18731640896E+03  0.00000000000E+00 0.  1.
         21    1    1    2  505  501  0.38394528318E+02  0.10849501281E+03  0.23828335467E+03  0.26462098315E+03  0.00000000000E+00 0.  1.
         21    1    1    2  506  502 -0.49435658275E+02 -0.79139436407E+02 -0.99959461363E+02  0.13674366025E+03  0.00000000000E+00 0.  1.
<scales pt_clust_3="40.35684" pt_clust_4="50.67324" pt_clust_5="112.70431" pt_clust_6="14000.00000"></scales>
<clustering>
<clus scale="   50.673">  2  4  1 -1</clus>
<clus scale="   40.357">  2  3  1 -1</clus>
<clus scale="  112.704">  1  5  2 -1</clus>
<clus scale="  112.704">  1  3  2 -1</clus>
</clustering>
</event>
<event>
 6    0  0.8610502E+002  0.6778906E+02  0.7546771E-02  0.1367777E+00
         21   -1    0    0  506  501  0.00000000000E+00  0.00000000000E+00  0.94494644475E+02  0.94494644475E+02  0.00000000000E+00 0. -1.
         21   -1    0    0  503  502 -0.00000000000E+00 -0.00000000000E+00 -0.32658668147E+03  0.32658668147E+03  0.00000000000E+00 0.  1.
         21    1    1    2  503  504 -0.39499138470E+02 -0.23240568035E+02 -0.42048833242E+02  0.62196545880E+02  0.00000000000E+00 0. -1.
         21    1    1    2  504  501 -0.78158197193E+02  0.45318817855E+02 -0.12762287311E+03  0.15636526718E+03  0.00000000000E+00 0.  1.
         21    1    1    2  505  502  0.52290014686E+02 -0.14181193414E+02 -0.10909773849E+03  0.12180996850E+03  0.00000000000E+00 0.  1.
         21    1    1    2  506  505  0.65367320977E+02 -0.78970564065E+01  0.46677407844E+02  0.80709544384E+02  0.00000000000E+00 0. -1.
<scales pt_clust_3="45.82909" pt_clust_4="67.78906" pt_clust_5="42.97249" pt_clust_6="14000.00000"></scales>
<clustering>
<clus scale="   45.829">  2  3  1 -1</clus>
<clus scale="   42.972">  2  5  1 -1</clus>
<clus scale="   67.789">  2  4  1 -1</clus>
<clus scale="   67.789">  1  3  2 -1</clus>
</clustering>
</event>
<event>
 6    0  0.8610502E+002  0.1907547E+03  0.7546771E-02  0.1157782E+00
         21   -1    0    0  505  501  0.00000000000E+00  0.00000000000E+00  0.56384822419E+03  0.56384822419E+03  0.00000000000E+00 0.  1.
         21   -1    0    0  506  502 -0.00000000000E+00 -0.00000000000E+00 -0.31641632232E+03  0.31641632232E+03  0.00000000000E+00 0. -1.
         21    1    1    2  503  501 -0.74942909315E+02  0.19766534231E+03  0.41649263424E+03  0.46706973953E+03  0.00000000000E+00 0.  1.
         21    1    1    2  504  503 -0.57344056339E+02 -0.10409381003E+03  0.43944348497E+02  0.12670819961E+03  0.00000000000E+00 0. -1.
         21    1    1    2  505  502  0.11990568841E+03 -0.38758405767E+02 -0.10220492323E+03  0.16225114626E+03  0.00000000000E+00 0. -1.
         21    1    1    2  506  504  0.12381277242E+02 -0.54813126513E+02 -0.11080015764E+03  0.12423546111E+03  0.00000000000E+00 0. -1.
<scales pt_clust_3="190.75472" pt_clust_4="127.82537" pt_clust_5="14000.00000" pt_clust_6="56.19408"></scales>
<clustering>
<clus scale="   56.194">  2  6  1 -1</clus>
<clus scale="  127.825">  2  4  1 -1</clus>
<clus scale="  190.755">  1  3  2 -1</clus>
<clus scale="  190.755">  1  3  2 -1</clus>
</clustering>
</event>
<event>
 6    0  0.8610502E+002  0.8013713E+02  0.7546771E-02  0.1328663E+00
         21   -1    0    0  503  501  0.00000000000E+00  0.00000000000E+00  0.11715828064E+02  0.11715828064E+02  0.00000000000E+00 0.  1.
         21   -1    0    0  504  502 -0.00000000000E+00 -0.00000000000E+00 -0.31854961503E+04  0.31854961503E+04  0.00000000000E+00 0.  1.
         21    1    1    2  503  506  0.65702596861E+02  0.15293004810E+02 -0.22057446751E+03  0.23065949568E+03  0.00000000000E+00 0.  1.
         21    1    1    2  504  505  0.20948986868E+02 -0.74601508281E+02 -0.87830566095E+03  0.88171711968E+03  0.00000000000E+00 0. -1.
         21    1    1    2  505  501  0.84038953930E+01  0.72107647666E+02 -0.35953959218E+03  0.36679538800E+03  0.00000000000E+00 0.  1.
         21    1    1    2  506  502 -0.95055479122E+02 -0.12799144195E+02 -0.17153606016E+04  0.17180399750E+04  0.00000000000E+00 0.  1.
<scales pt_clust_3="67.45893" pt_clust_4="80.13713" pt_clust_5="79.70689" pt_clust_6="14000.00000"></scales>
<clustering>
<clus scale="   67.459">  1  3  2 -1</clus>
<clus scale="   80.137">  2  4  1 -1</clus>
<clus scale="   79.707">  1  5  2 -1</clus>
<clus scale="   67.459">  1  3  2 -1</clus>
</clustering>
</event>
<event>
 6    0  0.8610502E+002  0.1804878E+03  0.7546771E-02  0.1167332E+00
         21   -1    0    0  506  501  0.00000000000E+00  0.00000000000E+00  0.72632614029E+02  0.72632614029E+02  0.00000000000E+00 0.  1.
         21   -1    0    0  504  502 -0.00000000000E+00 -0.00000000000E+00 -0.11725814047E+04  0.11725814047E+04  0.00000000000E+00 0.  1.
         21    1    1    2  503  501  0.28951190286E+02 -0.18938629443E+03 -0.11014479119E+03  0.22099143640E+03  0.00000000000E+00 0.  1.
         21    1    1    2  504  503  0.11625367173E+02  0.55075817943E+02 -0.10581434697E+03  0.11985479093E+03  0.00000000000E+00 0.  1.
         21    1    1    2  505  502 -0.52016623279E+02 -0.15443284843E+01 -0.18362059542E+03  0.19085239614E+03  0.00000000000E+00 0.  1.
         21    1    1    2  506  505  0.11440065820E+02  0.13585480498E+03 -0.70036905710E+03  0.71351539527E+03  0.00000000000E+00 0.  1.
<scales pt_clust_3="180.48777" pt_clust_4="55.19087" pt_clust_5="52.03954" pt_clust_6="14000.00000"></scales>
<clustering>
<clus scale="   52.040">  2  5  1 -1</clus>
<clus scale="   55.191">  2  4  1 -1</clus>
<clus scale="  180.488">  1  3  2 -1</clus>
<clus scale="  180.488">  1  3  2 -1</clus>
</clustering>
</event>
<event>
 6    0  0.8610502E+002  0.1274514E+03  0.7546771E-02  0.1231287E+00
         21   -1    0    0  505  501  0.00000000000E+00  0.00000000000E+00  0.31573438535E+03  0.31573438535E+03  0.00000000000E+00 0.  1.
         21   -1    0    0  504  502 -0.00000000000E+00 -0.00000000000E+00 -0.14572668468E+03  0.14572668468E+03  0.00000000000E+00 0.  1.
         21    1    1    2  503  502 -0.93852172004E+01 -0.48807495158E+02  0.16303188322E+03  0.17043957531E+03  0.00000000000E+00 0.  1.
         21    1    1    2  504  506 -0.32708979560E+02 -0.29846110199E+01 -0.58341509365E+02  0.66951601637E+02  0.00000000000E+00 0.  1.
         21    1    1    2  505  503  0.14551575006E+02 -0.64493042119E+02  0.79870997724E+02  0.10368450749E+03  0.00000000000E+00 0.  1.
         21    1    1    2  506  501  0.27542621754E+02  0.11628514830E+03 -0.14553670899E+02  0.12038538559E+03  0.00000000000E+00 0.  1.
<scales pt_clust_3="50.02712" pt_clust_4="32.84487" pt_clust_5="50.02712" pt_clust_6="113.86555"></scales>
<clustering>
<clus scale="   32.845">  2  4  1 -1</clus>
<clus scale="   50.027">  3  5 -1 -1</clus>
<clus scale="  113.866">  2  6  1 -1</clus>
<clus scale="  127.451">  1  3  2 -1</clus>
</clustering>
</event>
<event>
 6    0  0.8610502E+002  0.8302890E+02  0.7546771E-02  0.1320669E+00
         21   -1    0    0  505  501  0.00000000000E+00  0.00000000000E+00  0.51401343490E+02  0.51401343490E+02  0.00000000000E+00 0.  1.
         21   -1    0    0  504  502 -0.00000000000E+00 -0.00000000000E+00 -0.77632152267E+03  0.77632152267E+03  0.00000000000E+00 0.  1.
         21    1    1    2  503  502 -0.37041503603E+02 -0.34479441797E+02 -0.19662755047E+03  0.20303521492E+03  0.00000000000E+00 0.  1.
         21    1    1    2  504  501 -0.26582024573E+02  0.59703934551E+02 -0.17763225667E+03  0.18927330092E+03  0.00000000000E+00 0.  1.
         21    1    1    2  505  506 -0.29614527271E+02  0.40147068821E+02  0.15272536503E+02  0.52173343114E+02  0.00000000000E+00 0.  1.
         21    1    1    2  506  503  0.93238055448E+02 -0.65371561575E+02 -0.36593290854E+03  0.38324100720E+03  0.00000000000E+00 0.  1.
<scales pt_clust_3="50.38372" pt_clust_4="83.02890" pt_clust_5="49.88795" pt_clust_6="14000.00000"></scales>
<clustering>
<clus scale="   49.888">  1  5  2 -1</clus>
<clus scale="   50.384">  2  3  1 -1</clus>
<clus scale="   83.029">  2  4  1 -1</clus>
<clus scale="   49.888">  1  3  2 -1</clus>
</clustering>
</event>
<event>
 6    0  0.8610502E+002  0.1866298E+03  0.7546771E-02  0.1161537E+00
         21   -1    0    0  503  501  0.00000000000E+00  0.00000000000E+00  0.21140471828E+04  0.21140471828E+04  0.00000000000E+00 0.  1.
         21   -1    0    0  504  502 -0.00000000000E+00 -0.00000000000E+00 -0.64538263143E+03  0.64538263143E+03  0.00000000000E+00 0.  1.
         21    1    1    2  503  506 -0.32816048636E+02  0.14499883199E+02  0.20496454407E+04  0.20499594075E+04  0.00000000000E+00 0.  1.
         21    1    1    2  504  501 -0.89996724473E+02  0.12693995058E+03 -0.87222774886E+02  0.17838434328E+03  0.00000000000E+00 0.  1.
         21    1    1    2  505  502  0.63283570704E+02 -0.10013198072E+03 -0.35966329366E+03  0.37866727966E+03  0.00000000000E+00 0.  1.
         21    1    1    2  506  505  0.59529202405E+02 -0.41307853062E+02 -0.13409482085E+03  0.15241878376E+03  0.00000000000E+00 0. -1.
<scales pt_clust_3="35.87673" pt_clust_4="177.94257" pt_clust_5="43.26903" pt_clust_6="43.26903"></scales>
<clustering>
<clus scale="   35.877">  1  3  2 -1</clus>
<clus scale="   43.269">  5  6 -1 -1</clus>
<clus scale="  177.943">  1  4  2 -1</clus>
<clus scale="   35.877">  1  3  2 -1</clus>
</clustering>
</event>
<event>
 6    0  0.8610502E+002  0.1525014E+03  0.7546771E-02  0.1197433E+00
         21   -1    0    0  505  501  0.00000000000E+00  0.00000000000E+00  0.30666208713E+03  0.30666208713E+03  0.00000000000E+00 0.  1.
         21   -1    0    0  506  502 -0.00000000000E+00 -0.00000000000E+00 -0.22098111173E+04  0.22098111173E+04  0.00000000000E+00 0.  1.
         21    1    1    2  503  504  0.67706187713E+01 -0.11616504193E+03 -0.78627660070E+02  0.14043670166E+03  0.00000000000E+00 0.  1.
         21    1    1    2  504  502 -0.21256232458E+02  0.18859952785E+03 -0.18464955554E+04  0.18562239751E+04  0.00000000000E+00 0.  1.
         21    1    1    2  505  503  0.45342752654E+02 -0.33003828780E+02  0.26541534539E+03  0.27127573334E+03  0.00000000000E+00 0.  1.
         21    1    1    2  506  501 -0.30857138967E+02 -0.39430657144E+02 -0.24344116001E+03  0.24853679433E+03  0.00000000000E+00 0. -1.
<scales pt_clust_3="14000.00000" pt_clust_4="152.50139" pt_clust_5="56.07969" pt_clust_6="50.06935"></scales>
<clustering>
<clus scale="   50.069">  2  6  1 -1</clus>
<clus scale="   56.080">  1  5  2 -1</clus>
<clus scale="  152.501">  2  4  1 -1</clus>
<clus scale="   56.080">  1  3  2 -1</clus>
</clustering>
</event>
<event>
 6    0  0.8610502E+002  0.1355104E+03  0.7546771E-02  0.1219501E+00
         21   -1    0    0  503  501  0.00000000000E+00  0.00000000000E+00  0.92103932443E+02  0.92103932443E+02  0.00000000000E+00 0.  1.
         21   -1    0    0  504  502 -0.00000000000E+00 -0.00000000000E+00 -0.24077890064E+04  0.24077890064E+04  0.00000000000E+00 0. -1.
         21    1    1    2  503  502  0.45324322487E+02  0.37028124614E+02  0.57447768161E+01  0.58807981448E+02  0.00000000000E+00 0. -1.
         21    1    1    2  504  505  0.13482789465E+03  0.25701280208E+01 -0.21988518842E+04  0.22029831536E+04  0.00000000000E+00 0. -1.
         21    1    1    2  505  506 -0.14538264120E+03 -0.25058447202E+02 -0.13339533040E+03  0.19889281613E+03  0.00000000000E+00 0.  1.
         21    1    1    2  506  501 -0.34769575937E+02 -0.14539805433E+02  0.10817363770E+02  0.39208987641E+02  0.00000000000E+00 0.  1.
<scales pt_clust_3="41.47041" pt_clust_4="135.51040" pt_clust_5="14000.00000" pt_clust_6="37.68726"></scales>
<clustering>
<clus scale="   37.687">  1  6  2 -1</clus>
<clus scale="   41.470">  1  3  2 -1</clus>
<clus scale="  135.510">  2  4  1 -1</clus>
<clus scale="   37.687">  1  3  2 -1</clus>
</clustering>
</event>
<event>
 6    0  0.8610502E+002  0.1676199E+03  0.7546771E-02  0.1180353E+00
         21   -1    0    0  504  501  0.00000000000E+00  0.00000000000E+00  0.16833757281E+03  0.16833757281E+03  0.00000000000E+00 0. -1.
         21   -1    0    0  505  502 -0.00000000000E+00 -0.00000000000E+00 -0.25763423838E+03  0.25763423838E+03  0.00000000000E+00 0. -1.
         21    1    1    2  503  501  0.61557552687E+02 -0.77034724609E+02 -0.28846255503E+02  0.10274136239E+03  0.00000000000E+00 0. -1.
         21    1    1    2  504  502 -0.13666662780E+03  0.37262033462E+02  0.39246328418E+02  0.14699149835E+03  0.00000000000E+00 0. -1.
         21    1    1    2  505  506 -0.96571886528E+01  0.41047944736E+02 -0.78097533315E+02  0.88754829556E+02  0.00000000000E+00 0.  1.
         21    1    1    2  506  503  0.84766263771E+02 -0.12752535903E+01 -0.21599205168E+02  0.87484120898E+02  0.00000000000E+00 0. -1.
<scales pt_clust_3="77.18779" pt_clust_4="148.31910" pt_clust_5="42.16865" pt_clust_6="77.18779"></scales>
<clustering>
<clus scale="   42.169">  2  5  1 -1</clus>
<clus scale="   77.188">  3  6 -1 -1</clus>
<clus scale="  148.319">  1  4  2 -1</clus>
<clus scale="  148.319">  1  3  2 -1</clus>
</clustering>
</event>
<event>
 6    0  0.8610502E+002  0.9053262E+02  0.7546771E-02  0.1301567E+00
         21   -1    0    0  506  501  0.00000000000E+00  0.00000000000E+00  0.25626056258E+03  0.25626056258E+03  0.00000000000E+00 0.  1.
         21   -1    0    0  505  502 -0.00000000000E+00 -0.00000000000E+00 -0.24499118115E+03  0.24499118115E+03  0.00000000000E+00 0.  1.
         21    1    1    2  503  501  0.23055903442E+02  0.29089628067E+02  0.12227538209E+02  0.39080606894E+02  0.00000000000E+00 0.  1.
         21    1    1    2  504  502  0.34389268910E+02  0.85216996879E+02 -0.19499395115E+03  0.21556251844E+03  0.00000000000E+00 0.  1.
         21    1    1    2  505  503 -0.94343463133E+01 -0.81543941727E+02  0.63715644048E+02  0.10391392890E+03  0.00000000000E+00 0.  1.
         21    1    1    2  506  504 -0.48010826038E+02 -0.32762683219E+02  0.13032015032E+03  0.14269468949E+03  0.00000000000E+00 0.  1.
<scales pt_clust_3="37.11847" pt_clust_4="14000.00000" pt_clust_5="90.53262" pt_clust_6="37.71467"></scales>
<clustering>
<clus scale="   37.118">  1  3  2 -1</clus>
<clus scale="   37.715">  1  6  2 -1</clus>
<clus scale="   90.533">  1  5  2 -1</clus>
<clus scale="   37.118">  1  3  2 -1</clus>
</clustering>
</event>
<event>
 6    0  0.8610502E+002  0.1296782E+03  0.7546771E-02  0.1227934E+00
         21   -1    0    0  504  501  0.00000000000E+00  0.00000000000E+00  0.27341125269E+03  0.27341125269E+03  0.00000000000E+00 0. -1.
         21   -1    0    0  503  502 -0.00000000000E+00 -0.00000000000E+00 -0.37412581902E+03  0.37412581902E+03  0.00000000000E+00 0. -1.
         21    1    1    2  503  505  0.59457980841E+02  0.59716996206E+02  0.64610032374E+02  0.10618769893E+03  0.00000000000E+00 0. -1.
         21    1    1    2  504  502 -0.10178211519E+03 -0.61611220931E+02 -0.32990905068E+03  0.35070717592E+03  0.00000000000E+00 0. -1.
         21    1    1    2  505  506  0.59234102597E+02  0.27391001818E+02  0.10420281880E+03  0.12295191474E+03  0.00000000000E+00 0. -1.
         21    1    1    2  506  501 -0.16909968245E+02 -0.25496777093E+02  0.60381633172E+02  0.67690282114E+02  0.00000000000E+00 0. -1.
<scales pt_clust_3="40.96082" pt_clust_4="120.35307" pt_clust_5="40.96082" pt_clust_6="30.59465"></scales>
<clustering>
<clus scale="   30.595">  1  6  2 -1</clus>
<clus scale="   40.961">  3  5 -1 -1</clus>
<clus scale="  120.353">  2  4  1 -1</clus>
<clus scale="   30.595">  1  3  2 -1</clus>
</clustering>
</event>
<event>
 6    0  0.8610502E+002  0.1981587E+03  0.7546771E-02  0.1151302E+00
         21   -1    0    0  504  501  0.00000000000E+00  0.00000000000E+00  0.19371695576E+03  0.19371695576E+03  0.00000000000E+00 0.  1.
         21   -1    0    0  505  502 -0.00000000000E+00 -0.00000000000E+00 -0.19828678432E+03  0.19828678432E+03  0.00000000000E+00 0.  1.
         21    1    1    2  503  501  0.72269872687E+02  0.11756838176E+02  0.74993777004E+01  0.73602978255E+02  0.00000000000E+00 0.  1.
         21    1    1    2  504  502 -0.15323622380E+03 -0.76131195566E+02  0.63456200275E+02  0.18249380421E+03  0.00000000000E+00 0.  1.
         21    1    1    2  505  506  0.62218276833E+02  0.26401165850E+02 -0.30678436014E+02  0.74224672223E+02  0.00000000000E+00 0.  1.
         21    1    1    2  506  503  0.18748074281E+02  0.37973191539E+02 -0.44846970520E+02  0.61682285381E+02  0.00000000000E+00 0.  1.
<scales pt_clust_3="69.17749" pt_clust_4="171.10611" pt_clust_5="69.17749" pt_clust_6="35.98808"></scales>
<clustering>
<clus scale="   35.988">  5  6 -1 -1</clus>
<clus scale="   69.177">  3  5 -1 -1</clus>
<clus scale="  171.106">  1  4  2 -1</clus>
<clus scale="  171.106">  1  3  2 -1</clus>
</clustering>
</event>
<event>
 6    0  0.8610502E+002  0.7507773E+02  0.7546771E-02  0.1343631E+00
         21   -1    0    0  504  501  0.00000000000E+00  0.00000000000E+00  0.17893738265E+03  0.17893738265E+03  0.00000000000E+00 0.  1.
         21   -1    0    0  503  502 -0.00000000000E+00 -0.00000000000E+00 -0.33405136624E+03  0.33405136624E+03  0.00000000000E+00 0.  1.
         21    1    1    2  503  501 -0.47005476172E+02  0.20535254179E+02  0.33788199051E+02  0.61423561029E+02  0.00000000000E+00 0.  1.
         21    1    1    2  504  505  0.19779868111E+02  0.63935270922E+02  0.99119009676E+02  0.11959740854E+03  0.00000000000E+00 0.  1.
         21    1    1    2  505  506  0.69127712707E+02 -0.37820259385E+02 -0.70989762288E+02  0.10605922418E+03  0.00000000000E+00 0. -1.
         21    1    1    2  506  502 -0.41902104645E+02 -0.46650265716E+02 -0.21703143003E+03  0.22590855514E+03  0.00000000000E+00 0.  1.
<scales pt_clust_3="51.29534" pt_clust_4="14000.00000" pt_clust_5="75.07773" pt_clust_6="63.27259"></scales>
<clustering>
<clus scale="   51.295">  1  3  2 -1</clus>
<clus scale="   63.273">  2  6  1 -1</clus>
<clus scale="   75.078">  2  5  1 -1</clus>
<clus scale="   51.295">  1  3  2 -1</clus>
</clustering>
</event>
<event>
 6    0  0.8610502E+002  0.1090145E+03  0.7546771E-02  0.1262406E+00
         21   -1    0    0  504  501  0.00000000000E+00  0.00000000000E+00  0.12470485659E+04  0.12470485659E+04  0.00000000000E+00 0.  1.
         21   -1    0    0  506  502 -0.00000000000E+00 -0.00000000000E+00 -0.15130736861E+03  0.15130736861E+03  0.00000000000E+00 0.  1.
         21    1    1    2  503  505  0.28348721604E+02 -0.60143974165E+02  0.45199151706E+02  0.80398451228E+02  0.00000000000E+00 0.  1.
         21    1    1    2  504  502  0.25375894762E+01 -0.10202598175E+03 -0.51372694563E+02  0.11425801529E+03  0.00000000000E+00 0.  1.
         21    1    1    2  505  501  0.47340903473E+02  0.36707780686E+02  0.10427175127E+04  0.10444368979E+04  0.00000000000E+00 0.  1.
         21    1    1    2  506  503 -0.78227214553E+02  0.12546217523E+03  0.59197227454E+02  0.15926257014E+03  0.00000000000E+00 0.  1.
<scales pt_clust_3="65.02627" pt_clust_4="14000.00000" pt_clust_5="59.90511" pt_clust_6="109.01449"></scales>
<clustering>
<clus scale="   59.905">  1  5  2 -1</clus>
<clus scale="   65.026">  1  3  2 -1</clus>
<clus scale="  109.014">  1  6  2 -1</clus>
<clus scale="   59.905">  1  3  2 -1</clus>
</clustering>
</event>
<event>
 6    0  0.8610502E+002  0.1497699E+03  0.7546771E-02  0.1200756E+00
         21   -1    0    0  506  501  0.00000000000E+00  0.00000000000E+00  0.43917691036E+02  0.43917691036E+02  0.00000000000E+00 0. -1.
         21   -1    0    0  505  502 -0.00000000000E+00 -0.00000000000E+00 -0.11876495800E+04  0.11876495800E+04  0.00000000000E+00 0. -1.
         21    1    1    2  503  504  0.64049627404E+02 -0.76870166433E+02 -0.10599686213E+03  0.14576251932E+03  0.00000000000E+00 0. -1.
         21    1    1    2  504  502 -0.13969121697E+02 -0.36818164318E+02 -0.47410662130E+02  0.61631846219E+02  0.00000000000E+00 0.  1.
         21    1    1    2  505  501 -0.88072777229E+02  0.10674519876E+03 -0.97132003873E+03  0.98112892587E+03  0.00000000000E+00 0. -1.
         21    1    1    2  506  503  0.37992271521E+02  0.69431319913E+01 -0.19004326004E+02  0.43043979649E+02  0.00000000000E+00 0. -1.
<scales pt_clust_3="35.61669" pt_clust_4="35.61669" pt_clust_5="135.59340" pt_clust_6="38.62149"></scales>
<clustering>
<clus scale="   38.621">  1  6  2 -1</clus>
<clus scale="   35.617">  3  4 -1 -1</clus>
<clus scale="  135.593">  2  5  1 -1</clus>
<clus scale="   38.621">  1  3  2 -1</clus>
</clustering>
</event>
<event>
 6    0  0.8610502E+002  0.1800722E+03  0.7546771E-02  0.1167733E+00
         21   -1    0    0  505  501  0.00000000000E+00  0.00000000000E+00  0.13507371868E+03  0.13507371868E+03  0.00000000000E+00 0. -1.
         21   -1    0    0  506  502 -0.00000000000E+00 -0.00000000000E+00 -0.91668633739E+03  0.91668633739E+03  0.00000000000E+00 0. -1.
         21    1    1    2  503  504 -0.37681467931E+01  0.14335821284E+03 -0.28890248175E+03  0.32253747082E+03  0.00000000000E+00 0. -1.
         21    1    1    2  504  501  0.37534532991E+02 -0.18694591175E+03  0.23311392843E+02  0.19209642403E+03  0.00000000000E+00 0. -1.
         21    1    1    2  505  502 -0.45555904438E+02  0.40483074890E+01 -0.44530669879E+02  0.63833453475E+02  0.00000000000E+00 0.  1.
         21    1    1    2  506  503  0.11789518240E+02  0.39539391422E+02 -0.47149085992E+03  0.47329270774E+03  0.00000000000E+00 0. -1.
<scales pt_clust_3="180.07222" pt_clust_4="14000.00000" pt_clust_5="45.00102" pt_clust_6="41.25962"></scales>
<clustering>
<clus scale="   41.260">  2  6  1 -1</clus>
<clus scale="   45.001">  2  5  1 -1</clus>
<clus scale="  180.072">  2  3  1 -1</clus>
<clus scale="  180.072">  1  3  2 -1</clus>
</clustering>
</event>
<event>
 6    0  0.8610502E+002  0.1101944E+03  0.7546771E-02  0.1260210E+00
         21   -1    0    0  506  501  0.00000000000E+00  0.00000000000E+00  0.95153273752E+03  0.95153273752E+03  0.00000000000E+00 0.  1.
         21   -1    0    0  505  502 -0.00000000000E+00 -0.00000000000E+00 -0.98465094623E+02  0.98465094623E+02  0.00000000000E+00 0. -1.
         21    1    1    2  503  501 -0.47749880357E+02  0.15110789859E+02  0.26550898920E+03  0.27019143286E+03  0.00000000000E+00 0.  1.
         21    1    1    2  504  502  0.20863469235E+02  0.47156992250E+02  0.50046247181E+03  0.50311206699E+03  0.00000000000E+00 0.  1.
         21    1    1    2  505  503  0.17904534677E+02 -0.11367011057E+03 -0.53372458484E+02  0.12684670167E+03  0.00000000000E+00 0. -1.
         21    1    1    2  506  504  0.89818764449E+01  0.51402328460E+02  0.14046864038E+03  0.14984763063E+03  0.00000000000E+00 0.  1.
<scales pt_clust_3="50.08380" pt_clust_4="110.19443" pt_clust_5="14000.00000" pt_clust_6="54.62286"></scales>
<clustering>
<clus scale="   50.084">  1  3  2 -1</clus>
<clus scale="   54.623">  1  6  2 -1</clus>
<clus scale="  110.194">  1  4  2 -1</clus>
<clus scale="   50.084">  1  3  2 -1</clus>
</clustering>
</event>
<event>
 6    0  0.8610502E+002  0.8084708E+02  0.7546771E-02  0.1326665E+00
         21   -1    0    0  502  501  0.00000000000E+00  0.00000000000E+00  0.95014159930E+03  0.95014159930E+03  0.00000000000E+00 0.  1.
         21   -1    0    0  505  502 -0.00000000000E+00 -0.00000000000E+00 -0.17603553980E+03  0.17603553980E+03  0.00000000000E+00 0.  1.
         21    1    1    2  503  501 -0.32977816232E+02 -0.14613148008E+02  0.25438362266E+03  0.25692821553E+03  0.00000000000E+00 0.  1.
         21    1    1    2  504  503  0.40798614588E+02  0.89703848845E+02  0.59109026664E+03  0.59924870527E+03  0.00000000000E+00 0.  1.
         21    1    1    2  505  506 -0.34354437147E+02  0.26301542863E+02 -0.13879164473E+03  0.14537922533E+03  0.00000000000E+00 0.  1.
         21    1    1    2  506  504  0.26533638790E+02 -0.10139224370E+03  0.67423814936E+02  0.12462099298E+03  0.00000000000E+00 0.  1.
<scales pt_clust_3="36.07049" pt_clust_4="14000.00000" pt_clust_5="43.34892" pt_clust_6="80.84708"></scales>
<clustering>
<clus scale="   36.070">  1  3  2 -1</clus>
<clus scale="   43.349">  2  5  1 -1</clus>
<clus scale="   80.847">  2  6  1 -1</clus>
<clus scale="   36.070">  1  3  2 -1</clus>
</clustering>
</event>
<event>
 6    0  0.8610502E+002  0.6805961E+02  0.7546771E-02  0.1366819E+00
         21   -1    0    0  506  501  0.00000000000E+00  0.00000000000E+00  0.21626353471E+03  0.21626353471E+03  0.00000000000E+00 0. -1.
         21   -1    0    0  505  502 -0.00000000000E+00 -0.00000000000E+00 -0.12948886047E+03  0.12948886047E+03  0.00000000000E+00 0. -1.
         21    1    1    2  503  501  0.29403967209E+02 -0.10803266137E+02  0.89078811266E+02  0.94426365298E+02  0.00000000000E+00 0. -1.
         21    1    1    2  504  503  0.33249158515E+01  0.76784072533E+02  0.31360487657E+02  0.83008005916E+02  0.00000000000E+00 0. -1.
         21    1    1    2  505  504 -0.85873533697E+02 -0.20449418895E+02  0.49056794847E+01  0.88411018623E+02  0.00000000000E+00 0. -1.
         21    1    1    2  506  502  0.53144650637E+02 -0.45531387501E+02 -0.38570304174E+02  0.79907005344E+02  0.00000000000E+00 0. -1.
<scales pt_clust_3="31.32577" pt_clust_4="73.76781" pt_clust_5="14000.00000" pt_clust_6="68.05961"></scales>
<clustering>
<clus scale="   31.326">  1  3  2 -1</clus>
<clus scale="   73.768">  1  4  2 -1</clus>
<clus scale="   68.060">  2  6  1 -1</clus>
<clus scale="   31.326">  1  3  2 -1</clus>
</clustering>
</event>
<event>
 6    0  0.8610502E+002  0.1536446E+03  0.7546771E-02  0.1196065E+00
         21   -1    0    0  503  501  0.00000000000E+00  0.00000000000E+00  0.61482669406E+02  0.61482669406E+02  0.00000000000E+00 0.  1.
         21   -1    0    0  501  502 -0.00000000000E+00 -0.00000000000E+00 -0.14251309370E+04  0.14251309370E+04  0.00000000000E+00 0. -1.
         21    1    1    2  503  506  0.39111596477E+02  0.68760521369E+02  0.48090347980E+01  0.79251833377E+02  0.00000000000E+00 0.  1.
         21    1    1    2  504  505 -0.40806905996E+02 -0.67299164470E+02 -0.39509554836E+03  0.40285837890E+03  0.00000000000E+00 0. -1.
         21    1    1    2  505  502 -0.75747772081E+02 -0.48007551228E+02 -0.83142509248E+03  0.83624765133E+03  0.00000000000E+00 0. -1.
         21    1    1    2  506  504  0.77443081600E+02  0.46546194330E+02 -0.14193666159E+03  0.16825574284E+03  0.00000000000E+00 0.  1.
<scales pt_clust_3="79.10579" pt_clust_4="60.35163" pt_clust_5="60.35163" pt_clust_6="139.48626"></scales>
<clustering>
<clus scale="   60.352">  4  5 -1 -1</clus>
<clus scale="   79.106">  1  3  2 -1</clus>
<clus scale="  139.486">  1  6  2 -1</clus>
<clus scale="   79.106">  1  3  2 -1</clus>
</clustering>
</event>
<event>
 6    0  0.8610502E+002  0.1156186E+03  0.7546771E-02  0.1250505E+00
         21   -1    0    0  504  501  0.00000000000E+00  0.00000000000E+00  0.33668997167E+03  0.33668997167E+03  0.00000000000E+00 0. -1.
         21   -1    0    0  506  502 -0.00000000000E+00 -0.00000000000E+00 -0.98569270829E+02  0.98569270829E+02  0.00000000000E+00 0. -1.
         21    1    1    2  503  501  0.26406546920E+02  0.16077857676E+02  0.12761868301E+03  0.13131005857E+03  0.00000000000E+00 0. -1.
         21    1    1    2  504  505  0.93879528023E+02  0.28447215677E+02  0.52426489019E+02  0.11122565627E+03  0.00000000000E+00 0. -1.
         21    1    1    2  505  502 -0.10458960769E+02  0.42386032123E+02  0.15765055291E+02  0.46416619306E+02  0.00000000000E+00 0. -1.
         21    1    1    2  506  503 -0.10982711417E+03 -0.86911105476E+02  0.42310473517E+02  0.14630690835E+03  0.00000000000E+00 0. -1.
<scales pt_clust_3="30.91607" pt_clust_4="115.61862" pt_clust_5="45.26694" pt_clust_6="14000.00000"></scales>
<clustering>
<clus scale="   30.916">  1  3  2 -1</clus>
<clus scale="   45.267">  2  5  1 -1</clus>
<clus scale="  115.619">  1  4  2 -1</clus>
<clus scale="   30.916">  1  3  2 -1</clus>
</clustering>
</event>
<event>
 6    0  0.8610502E+002  0.1497667E+03  0.7546771E-02  0.1200760E+00
         21   -1    0    0  504  501  0.00000000000E+00  0.00000000000E+00  0.24698011169E+03  0.24698011169E+03  0.00000000000E+00 0. -1.
         21   -1    0    0  506  502 -0.00000000000E+00 -0.00000000000E+00 -0.12752801171E+03  0.12752801171E+03  0.00000000000E+00 0.  1.
         21    1    1    2  503  505 -0.83068743436E+02 -0.15065909325E+02  0.17648326759E+02  0.86248833020E+02  0.00000000000E+00 0.  1.
         21    1    1    2  504  503  0.24721973686E+02 -0.21423809680E+02  0.62270275630E+02  0.70340193568E+02  0.00000000000E+00 0.  1.
         21    1    1    2  505  502 -0.72661300607E+02  0.38176711417E+01 -0.11324923771E+02  0.73637579518E+02  0.00000000000E+00 0.  1.
         21    1    1    2  506  501  0.13100807036E+03  0.32672047864E+02  0.50858421363E+02  0.14428151730E+03  0.00000000000E+00 0. -1.
<scales pt_clust_3="31.41808" pt_clust_4="32.71323" pt_clust_5="31.41808" pt_clust_6="145.89294"></scales>
<clustering>
<clus scale="   31.418">  3  5 -1 -1</clus>
<clus scale="   32.713">  1  4  2 -1</clus>
<clus scale="  145.893">  1  6  2 -1</clus>
<clus scale="   32.713">  1  3  2 -1</clus>
</clustering>
</event>
<event>
 6    0  0.8610502E+002  0.8812382E+02  0.7546771E-02  0.1307460E+00
         21   -1    0    0  503  501  0.00000000000E+00  0.00000000000E+00  0.27531945178E+03  0.27531945178E+03  0.00000000000E+00 0.  1.
         21   -1    0    0  504  502 -0.00000000000E+00 -0.00000000000E+00 -0.27921079440E+03  0.27921079440E+03  0.00000000000E+00 0.  1.
         21    1    1    2  503  506 -0.87736062889E+02  0.52600177599E+01  0.15742198058E+02  0.89292224285E+02  0.00000000000E+00 0.  1.
         21    1    1    2  504  505  0.76939665850E+02 -0.99075482490E+02 -0.96002977826E+02  0.15796276512E+03  0.00000000000E+00 0.  1.
         21    1    1    2  505  501  0.15219961942E+02  0.29941919331E+02  0.18128267240E+03  0.18436803705E+03  0.00000000000E+00 0.  1.
         21    1    1    2  506  502 -0.44235649029E+01  0.63873545399E+02 -0.10491323525E+03  0.12290721972E+03  0.00000000000E+00 0.  1.
<scales pt_clust_3="88.12382" pt_clust_4="14000.00000" pt_clust_5="33.58818" pt_clust_6="66.85084"></scales>
<clustering>
<clus scale="   33.588">  1  5  2 -1</clus>
<clus scale="   66.851">  2  6  1 -1</clus>
<clus scale="   88.124">  1  3  2 -1</clus>
<clus scale="   33.588">  1  3  2 -1</clus>
</clustering>
</event>
<event>
 6    0  0.8610502E+002  0.1342419E+03  0.7546771E-02  0.1221294E+00
         21   -1    0    0  505  501  0.00000000000E+00  0.00000000000E+00  0.10888999949E+03  0.10888999949E+03  0.00000000000E+00 0. -1.
         21   -1    0    0  504  502 -0.00000000000E+00 -0.00000000000E+00 -0.63609015031E+03  0.63609015031E+03  0.00000000000E+00 0. -1.
         21    1    1    2  503  501  0.50088650478E+02  0.91028869767E+02 -0.17990422487E+03  0.20775143360E+03  0.00000000000E+00 0. -1.
         21    1    1    2  504  503  0.62771298958E+02  0.47056176711E+02 -0.20752384490E+03  0.22185730987E+03  0.00000000000E+00 0. -1.
         21    1    1    2  505  506 -0.96513526866E+02 -0.69135624998E+02  0.37466688039E+02  0.12449236211E+03  0.00000000000E+00 0. -1.
         21    1    1    2  506  502 -0.16346422570E+02 -0.68949421480E+02 -0.17723876910E+03  0.19087904422E+03  0.00000000000E+00 0.  1.
<scales pt_clust_3="44.80173" pt_clust_4="44.80173" pt_clust_5="123.94586" pt_clust_6="70.86063"></scales>
<clustering>
<clus scale="   44.802">  3  4 -1 -1</clus>
<clus scale="   70.861">  2  6  1 -1</clus>
<clus scale="  123.946">  1  5  2 -1</clus>
<clus scale="  123.946">  1  3  2 -1</clus>
</clustering>
</event>
<event>
 6    0  0.8610502E+002  0.1473759E+03  0.7546771E-02  0.1203735E+00
         21   -1    0    0  504  501  0.00000000000E+00  0.00000000000E+00  0.98381594363E+03  0.98381594363E+03  0.00000000000E+00 0.  1.
         21   -1    0    0  503  502 -0.00000000000E+00 -0.00000000000E+00 -0.24866947494E+03  0.24866947494E+03  0.00000000000E+00 0.  1.
         21    1    1    2  503  506  0.69081981584E+01 -0.41192933637E+02 -0.86928345558E+02  0.96442305266E+02  0.00000000000E+00 0.  1.
         21    1    1    2  504  502  0.10471443734E+03 -0.34668327727E+02 -0.11675711108E+03  0.16062138501E+03  0.00000000000E+00 0.  1.
         21    1    1    2  505  501 -0.89964248353E+02  0.11988289732E+03  0.90122885837E+03  0.91360764566E+03  0.00000000000E+00 0.  1.
         21    1    1    2  506  505 -0.21658387149E+02 -0.44021635957E+02  0.37603066962E+02  0.61814082628E+02  0.00000000000E+00 0.  1.
<scales pt_clust_3="41.76818" pt_clust_4="14000.00000" pt_clust_5="147.37587" pt_clust_6="51.71034"></scales>
<clustering>
<clus scale="   41.768">  2  3  1 -1</clus>
<clus scale="   51.710">  2  6  1 -1</clus>
<clus scale="  147.376">  1  5  2 -1</clus>
<clus scale="  147.376">  1  3  2 -1</clus>
</clustering>
</event>
<event>
 6    0  0.8610502E+002  0.1064962E+03  0.7546771E-02  0.1267199E+00
         21   -1    0    0  505  501  0.00000000000E+00  0.00000000000E+00  0.31684338126E+03  0.31684338126E+03  0.00000000000E+00 0. -1.
         21   -1    0    0  506  502 -0.00000000000E+00 -0.00000000000E+00 -0.10147085824E+04  0.10147085824E+04  0.00000000000E+00 0. -1.
         21    1    1    2  503  501  0.62201753024E+02  0.24613431318E+02  0.66029978933E+02  0.93993814682E+02  0.00000000000E+00 0. -1.
         21    1    1    2  504  503 -0.23584038968E+02 -0.13927731669E+03  0.15272372315E+03  0.20803584655E+03  0.00000000000E+00 0. -1.
         21    1    1    2  505  502 -0.40762547496E+02  0.87257814551E+01  0.45429192869E+02  0.61656598228E+02  0.00000000000E+00 0. -1.
         21    1    1    2  506  504  0.21448334394E+01  0.10593810392E+03 -0.96204809608E+03  0.96786570419E+03  0.00000000000E+00 0. -1.
<scales pt_clust_3="56.78817" pt_clust_4="106.49620" pt_clust_5="41.68602" pt_clust_6="14000.00000"></scales>
<clustering>
<clus scale="   41.686">  1  5  2 -1</clus>
<clus scale="   56.788">  1  3  2 -1</clus>
<clus scale="  106.496">  1  4  2 -1</clus>
<clus scale="   41.686">  1  3  2 -1</clus>
</clustering>
</event>
<event>
 6    0  0.8610502E+002  0.1054653E+03  0.7546771E-02  0.1269206E+00
         21   -1    0    0  503  501  0.00000000000E+00  0.00000000000E+00  0.60675561059E+03  0.60675561059E+03  0.00000000000E+00 0.  1.
         21   -1    0    0  504  502 -0.00000000000E+00 -0.00000000000E+00 -0.53882279606E+03  0.53882279606E+03  0.00000000000E+00 0. -1.
         21    1    1    2  503  506  0.65390377616E+02  0.64339121879E+02  0.53130181399E+03  0.53916327920E+03  0.00000000000E+00 0.  1.
         21    1    1    2  504  505 -0.83571025634E+02 -0.99933847486E+00 -0.35206462276E+03  0.36184888227E+03  0.00000000000E+00 0. -1.
         21    1    1    2  505  501  0.34161954907E+02 -0.25720571569E+02  0.57063618000E+02  0.71308088350E+02  0.00000000000E+00 0. -1.
         21    1    1    2  506  502 -0.15981306889E+02 -0.37619211835E+02 -0.16836799470E+03  0.17325815683E+03  0.00000000000E+00 0.  1.
<scales pt_clust_3="105.46528" pt_clust_4="14000.00000" pt_clust_5="42.95967" pt_clust_6="40.87306"></scales>
<clustering>
<clus scale="   40.873">  2  6  1 -1</clus>
<clus scale="   42.960">  1  5  2 -1</clus>
<clus scale="  105.465">  1  3  2 -1</clus>
<clus scale="   42.960">  1  3  2 -1</clus>
</clustering>
</event>
<event>
 6    0  0.8610502E+002  0.1667930E+03  0.7546771E-02  0.1181234E+00
         21   -1    0    0  503  501  0.00000000000E+00  0.00000000000E+00  0.16809229483E+03  0.16809229483E+03  0.00000000000E+00 0. -1.
         21   -1    0    0  505  502 -0.00000000000E+00 -0.00000000000E+00 -0.64293898413E+03  0.64293898413E+03  0.00000000000E+00 0. -1.
         21    1    1    2  503  506  0.19127208178E+02  0.32329305799E+02 -0.14434799378E+01  0.37591458344E+02  0.00000000000E+00 0. -1.
         21    1    1    2  504  502  0.16266670167E+03 -0.49301642583E+02 -0.53656823549E+03  0.56284685228E+03  0.00000000000E+00 0. -1.
         21    1    1    2  505  501 -0.13317676719E+03  0.42040931703E+02  0.68655550839E+02  0.15561836626E+03  0.00000000000E+00 0. -1.
         21    1    1    2  506  504 -0.48617142656E+02 -0.25068594919E+02 -0.54905247132E+01  0.54974602071E+02  0.00000000000E+00 0. -1.
<scales pt_clust_3="37.56373" pt_clust_4="14000.00000" pt_clust_5="166.79303" pt_clust_6="49.56186"></scales>
<clustering>
<clus scale="   37.564">  1  3  2 -1</clus>
<clus scale="   49.562">  1  6  2 -1</clus>
<clus scale="  166.793">  1  5  2 -1</clus>
<clus scale="   37.564">  1  3  2 -1</clus>
</clustering>
</event>
<event>
 6    0  0.8610502E+002  0.1810076E+03  0.7546771E-02  0.1166831E+00
         21   -1    0    0  505  501  0.00000000000E+00  0.00000000000E+00  0.21606953234E+03  0.21606953234E+03  0.00000000000E+00 0.  1.
         21   -1    0    0  506  502 -0.00000000000E+00 -0.00000000000E+00 -0.36459476486E+03  0.36459476486E+03  0.00000000000E+00 0.  1.
         21    1    1    2  503  502 -0.33111216204E+02  0.40735535269E+01  0.33046585759E+02  0.46957675700E+02  0.00000000000E+00 0.  1.
         21    1    1    2  504  501  0.80807632903E+02 -0.16173173118E+02  0.24498601279E+02  0.85974569082E+02  0.00000000000E+00 0.  1.
         21    1    1    2  505  503 -0.18209041673E+03  0.78588213012E+02 -0.69198892332E+01  0.19844624450E+03  0.00000000000E+00 0.  1.
         21    1    1    2  506  504  0.13439400003E+03 -0.66488593421E+02 -0.19915053033E+03  0.24928580792E+03  0.00000000000E+00 0.  1.
<scales pt_clust_3="32.80013" pt_clust_4="82.41022" pt_clust_5="32.80013" pt_clust_6="162.38225"></scales>
<clustering>
<clus scale="   32.800">  3  5 -1 -1</clus>
<clus scale="   82.410">  1  4  2 -1</clus>
<clus scale="  162.382">  2  6  1 -1</clus>
<clus scale="   82.410">  1  3  2 -1</clus>
</clustering>
</event>
<event>
 6    0  0.8610502E+002  0.1346779E+03  0.7546771E-02  0.1220675E+00
         21   -1    0    0  506  501  0.00000000000E+00  0.00000000000E+00  0.54083077835E+03  0.54083077835E+03  0.00000000000E+00 0.  1.
         21   -1    0    0  504  502 -0.00000000000E+00 -0.00000000000E+00 -0.12598078581E+04  0.12598078581E+04  0.00000000000E+00 0.  1.
         21    1    1    2  503  501  0.41783169103E+02 -0.88127869436E+02  0.21223485460E+03  0.23357223315E+03  0.00000000000E+00 0.  1.
         21    1    1    2  504  503 -0.79383587604E+02 -0.84745565588E+02 -0.12179158714E+04  0.12234388561E+04  0.00000000000E+00 0.  1.
         21    1    1    2  505  502  0.15143522717E+02  0.14070600371E+03  0.17396159101E+03  0.22425463408E+03  0.00000000000E+00 0.  1.
         21    1    1    2  506  505  0.22456895784E+02  0.32167431319E+02  0.11274234601E+03  0.11937291314E+03  0.00000000000E+00 0.  1.
<scales pt_clust_3="97.53130" pt_clust_4="116.43197" pt_clust_5="35.63867" pt_clust_6="35.63867"></scales>
<clustering>
<clus scale="   35.639">  5  6 -1 -1</clus>
<clus scale="   97.531">  1  3  2 -1</clus>
<clus scale="  116.432">  2  4  1 -1</clus>
<clus scale="   97.531">  1  3  2 -1</clus>
</clustering>
</event>
<event>
 6    0  0.8610502E+002  0.1352126E+03  0.7546771E-02  0.1219920E+00
         21   -1    0    0  503  501  0.00000000000E+00  0.00000000000E+00  0.41965059709E+03  0.41965059709E+03  0.00000000000E+00 0. -1.
         21   -1    0    0  504  502 -0.00000000000E+00 -0.00000000000E+00 -0.14624311162E+04  0.14624311162E+04  0.00000000000E+00 0. -1.
         21    1    1    2  503  502  0.34211840715E+02 -0.76461882304E+02 -0.14515951212E+02  0.85015188820E+02  0.00000000000E+00 0. -1.
         21    1    1    2  504  506  0.10396078778E+03  0.10955347919E+03 -0.11376380361E+04  0.11476193233E+04  0.00000000000E+00 0. -1.
         21    1    1    2  505  501 -0.98027425125E+01 -0.50632079840E+02  0.36193558404E+03  0.36559139523E+03  0.00000000000E+00 0. -1.
         21    1    1    2  506  505 -0.12836988598E+03  0.17540482958E+02 -0.25256211585E+03  0.28385580588E+03  0.00000000000E+00 0. -1.
<scales pt_clust_3="111.96220" pt_clust_4="14000.00000" pt_clust_5="51.57229" pt_clust_6="135.21256"></scales>
<clustering>
<clus scale="   51.572">  1  5  2 -1</clus>
<clus scale="  111.962">  1  3  2 -1</clus>
<clus scale="  135.213">  1  6  2 -1</clus>
<clus scale="   51.572">  1  3  2 -1</clus>
</clustering>
</event>
<event>
 6    0  0.8610502E+002  0.1027961E+03  0.7546771E-02  0.1274524E+00
         21   -1    0    0  502  501  0.00000000000E+00  0.00000000000E+00  0.17322199432E+04  0.17322199432E+04  0.00000000000E+00 0. -1.
         21   -1    0    0  505  502 -0.00000000000E+00 -0.00000000000E+00 -0.43110960058E+02  0.43110960058E+02  0.00000000000E+00 0. -1.
         21    1    1    2  503  501 -0.65316635359E+02 -0.63420661747E+02  0.15021979501E+04  0.15049541934E+04  0.00000000000E+00 0. -1.
         21    1    1    2  504  503  0.66243845495E+02  0.70380347523E+02  0.10591551524E+03  0.14338666867E+03  0.00000000000E+00 0. -1.
         21    1    1    2  505  506 -0.47604037955E+02 -0.14636720787E+02  0.33946931805E+02  0.60272482975E+02  0.00000000000E+00 0. -1.
         21    1    1    2  506  504  0.46676827819E+02  0.76770350101E+01  0.47048586067E+02  0.66717558204E+02  0.00000000000E+00 0. -1.
<scales pt_clust_3="93.08755" pt_clust_4="30.50830" pt_clust_5="49.80339" pt_clust_6="30.50830"></scales>
<clustering>
<clus scale="   30.508">  4  6 -1 -1</clus>
<clus scale="   49.803">  2  5  1 -1</clus>
<clus scale="   93.088">  1  3  2 -1</clus>
<clus scale="   93.088">  1  3  2 -1</clus>
</clustering>
</event>
<event>
 6    0  0.8610502E+002  0.1717155E+03  0.7546771E-02  0.1176071E+00
         21   -1    0    0  504  501  0.00000000000E+00  0.00000000000E+00  0.34552144104E+03  0.34552144104E+03  0.00000000000E+00 0.  1.
         21   -1    0    0  506  502 -0.00000000000E+00 -0.00000000000E+00 -0.34743152981E+03  0.34743152981E+03  0.00000000000E+00 0. -1.
         21    1    1    2  503  501 -0.39386500881E+02 -0.29041692096E+02  0.26189936688E+03  0.26643197012E+03  0.00000000000E+00 0.  1.
         21    1    1    2  504  502 -0.12074989200E+03 -0.65546348327E+02 -0.96418900250E+02  0.16784952941E+03  0.00000000000E+00 0. -1.
         21    1    1    2  505  503  0.71123862197E+02  0.39866009472E+02 -0.31858063351E+02  0.87537641535E+02  0.00000000000E+00 0. -1.
         21    1    1    2  506  505  0.89012530689E+02  0.54722030951E+02 -0.13553249205E+03  0.17113382978E+03  0.00000000000E+00 0. -1.
<scales pt_clust_3="48.93584" pt_clust_4="158.69919" pt_clust_5="54.56498" pt_clust_6="54.56498"></scales>
<clustering>
<clus scale="   48.936">  1  3  2 -1</clus>
<clus scale="   54.565">  5  6 -1 -1</clus>
<clus scale="  158.699">  2  4  1 -1</clus>
<clus scale="   48.936">  1  3  2 -1</clus>
</clustering>
</event>
<event>
 6    0  0.8610502E+002  0.9898885E+02  0.7546771E-02  0.1282437E+00
         21   -1    0    0  503  501  0.00000000000E+00  0.00000000000E+00  0.72110437874E+03  0.72110437874E+03  0.00000000000E+00 0. -1.
         21   -1    0    0  504  502 -0.00000000000E+00 -0.00000000000E+00 -0.65955240652E+02  0.65955240652E+02  0.00000000000E+00 0.  1.
         21    1    1    2  503  505 -0.64544123377E+02 -0.28079690656E+02  0.10736075677E+03  0.12837735386E+03  0.00000000000E+00 0. -1.
         21    1    1    2  504  506  0.10061754128E+02 -0.67583938637E+02  0.27005593323E+03  0.27856603298E+03  0.00000000000E+00 0. -1.
         21    1    1    2  505  502  0.67006261538E+01  0.10541624589E+03  0.79127865204E+01  0.10592495211E+03  0.00000000000E+00 0.  1.
         21    1    1    2  506  501  0.47781743095E+02 -0.97526165966E+01  0.26981966156E+03  0.27419128044E+03  0.00000000000E+00 0. -1.
<scales pt_clust_3="60.35835" pt_clust_4="98.98885" pt_clust_5="14000.00000" pt_clust_6="48.76688"></scales>
<clustering>
<clus scale="   48.767">  1  6  2 -1</clus>
<clus scale="   60.358">  1  3  2 -1</clus>
<clus scale="   98.989">  1  4  2 -1</clus>
<clus scale="   48.767">  1  3  2 -1</clus>
</clustering>
</event>
<event>
 6    0  0.8610502E+002  0.1290812E+03  0.7546771E-02  0.1228825E+00
         21   -1    0    0  503  501  0.00000000000E+00  0.00000000000E+00  0.11775399130E+03  0.11775399130E+03  0.00000000000E+00 0.  1.
         21   -1    0    0  506  502 -0.00000000000E+00 -0.00000000000E+00 -0.36136878694E+03  0.36136878694E+03  0.00000000000E+00 0.  1.
         21    1    1    2  503  505 -0.24571246468E+02 -0.29245795964E+02 -0.17742446713E+02  0.42117183546E+02  0.00000000000E+00 0.  1.
         21    1    1    2  504  501  0.57852492468E+02  0.64740376002E+02  0.35638200342E+02  0.93852589167E+02  0.00000000000E+00 0.  1.
         21    1    1    2  505  502  0.95817259650E+01 -0.12369185809E+03 -0.14204385004E+03  0.18859464618E+03  0.00000000000E+00 0.  1.
         21    1    1    2  506  504 -0.42862971965E+02  0.88197278053E+02 -0.11946669923E+03  0.15455835935E+03  0.00000000000E+00 0.  1.
<scales pt_clust_3="35.45011" pt_clust_4="86.82296" pt_clust_5="35.45011" pt_clust_6="112.16183"></scales>
<clustering>
<clus scale="   35.450">  3  5 -1 -1</clus>
<clus scale="   86.823">  1  4  2 -1</clus>
<clus scale="  112.162">  2  6  1 -1</clus>
<clus scale="   86.823">  1  3  2 -1</clus>
</clustering>
</event>
<event>
 6    0  0.8610502E+002  0.1061949E+03  0.7546771E-02  0.1267783E+00
         21   -1    0    0  506  501  0.00000000000E+00  0.00000000000E+00  0.18370060229E+03  0.18370060229E+03  0.00000000000E+00 0.  1.
         21   -1    0    0  505  502 -0.00000000000E+00 -0.00000000000E+00 -0.37271539324E+03  0.37271539324E+03  0.00000000000E+00 0. -1.
         21    1    1    2  503  502 -0.98959056397E+02  0.34098858525E+02 -0.27564960122E+03  0.29485306451E+03  0.00000000000E+00 0. -1.
         21    1    1    2  504  503  0.95745175716E+02 -0.88359542099E+02  0.43345017261E+02  0.13730745746E+03  0.00000000000E+00 0.  1.
         21    1    1    2  505  501 -0.40539758307E+02  0.63103079052E-01  0.36006338850E+02  0.54221143689E+02  0.00000000000E+00 0.  1.
         21    1    1    2  506  504  0.43753638988E+02  0.54197580495E+02  0.72834541665E+01  0.70034329873E+02  0.00000000000E+00 0.  1.
<scales pt_clust_3="106.19487" pt_clust_4="14000.00000" pt_clust_5="40.53981" pt_clust_6="63.18202"></scales>
<clustering>
<clus scale="   40.540">  1  5  2 -1</clus>
<clus scale="   63.182">  1  6  2 -1</clus>
<clus scale="  106.195">  2  3  1 -1</clus>
<clus scale="   40.540">  1  3  2 -1</clus>
</clustering>
</event>
<event>
 6    0  0.8610502E+002  0.1518487E+03  0.7546771E-02  0.1198220E+00
         21   -1    0    0  506  501  0.00000000000E+00  0.00000000000E+00  0.56928087871E+03  0.56928087871E+03  0.00000000000E+00 0. -1.
         21   -1    0    0  503  502 -0.00000000000E+00 -0.00000000000E+00 -0.31332267036E+03  0.31332267036E+03  0.00000000000E+00 0. -1.
         21    1    1    2  503  501 -0.32145929672E+02 -0.64253448044E+02  0.10029954651E+03  0.12337692414E+03  0.00000000000E+00 0. -1.
         21    1    1    2  504  502 -0.30628614237E+01  0.65471765251E+02 -0.23038534475E+03  0.23952732671E+03  0.00000000000E+00 0. -1.
         21    1    1    2  505  504 -0.11632493012E+03  0.57134286217E+02  0.37069826308E+02  0.13479609806E+03  0.00000000000E+00 0. -1.
         21    1    1    2  506  505  0.15153372122E+03 -0.58352603425E+02  0.34897418028E+03  0.38490320016E+03  0.00000000000E+00 0. -1.
<scales pt_clust_3="63.60171" pt_clust_4="65.54337" pt_clust_5="151.84873" pt_clust_6="14000.00000"></scales>
<clustering>
<clus scale="   65.543">  2  4  1 -1</clus>
<clus scale="   63.602">  1  3  2 -1</clus>
<clus scale="  151.849">  2  5  1 -1</clus>
<clus scale="   63.602">  1  3  2 -1</clus>
</clustering>
</event>
<event>
 6    0  0.8610502E+002  0.9449757E+02  0.7546771E-02  0.1292312E+00
         21   -1    0    0  504  501  0.00000000000E+00  0.00000000000E+00  0.19891765737E+03  0.19891765737E+03  0.00000000000E+00 0. -1.
         21   -1    0    0  503  502 -0.00000000000E+00 -0.00000000000E+00 -0.10768143660E+03  0.10768143660E+03  0.00000000000E+00 0. -1.
         21    1    1    2  503  505 -0.38842944406E+02 -0.21413579771E+02 -0.18566657736E+01  0.44393275803E+02  0.00000000000E+00 0. -1.
         21    1    1    2  504  506  0.29913904332E+02 -0.73117400707E+02  0.75431335053E+02  0.10922857807E+03  0.00000000000E+00 0. -1.
         21    1    1    2  505  501 -0.40215986322E+02  0.61177709346E+01  0.30731830691E+02  0.50982331201E+02  0.00000000000E+00 0.  1.
         21    1    1    2  506  502  0.49145026396E+02  0.88413209543E+02 -0.13070279201E+02  0.10199490889E+03  0.00000000000E+00 0. -1.
<scales pt_clust_3="40.38650" pt_clust_4="78.99997" pt_clust_5="40.38650" pt_clust_6="84.56557"></scales>
<clustering>
<clus scale="   40.386">  3  5 -1 -1</clus>
<clus scale="   79.000">  1  4  2 -1</clus>
<clus scale="   84.566">  2  6  1 -1</clus>
<clus scale="   79.000">  1  3  2 -1</clus>
</clustering>
</event>
<event>
 6    0  0.8610502E+002  0.8821109E+02  0.7546771E-02  0.1307243E+00
         21   -1    0    0  504  501  0.00000000000E+00  0.00000000000E+00  0.18014774521E+03  0.18014774521E+03  0.00000000000E+00 0.  1.
         21   -1    0    0  505  502 -0.00000000000E+00 -0.00000000000E+00 -0.22871974518E+03  0.22871974518E+03  0.00000000000E+00 0.  1.
         21    1    1    2  503  501 -0.30854366885E+02 -0.56965471905E+02  0.93338256330E+02  0.11361816334E+03  0.00000000000E+00 0.  1.
         21    1    1    2  504  506  0.23376612162E+02  0.33975255432E+02  0.66843521280E+01  0.41778757057E+02  0.00000000000E+00 0.  1.
         21    1    1    2  505  503 -0.80082173646E+02  0.38173450717E+02 -0.10612422758E+02  0.89347581906E+02  0.00000000000E+00 0.  1.
         21    1    1    2  506  502  0.87559928370E+02 -0.15183234243E+02 -0.13798218567E+03  0.16412298810E+03  0.00000000000E+00 0.  1.
<scales pt_clust_3="37.68060" pt_clust_4="41.24056" pt_clust_5="14000.00000" pt_clust_6="88.21109"></scales>
<clustering>
<clus scale="   41.241">  1  4  2 -1</clus>
<clus scale="   37.681">  1  3  2 -1</clus>
<clus scale="   88.211">  2  6  1 -1</clus>
<clus scale="   41.241">  1  3  2 -1</clus>
</clustering>
</event>
<event>
 6    0  0.8610502E+002  0.1552666E+03  0.7546771E-02  0.1194147E+00
         21   -1    0    0  505  501  0.00000000000E+00  0.00000000000E+00  0.61400928854E+03  0.61400928854E+03  0.00000000000E+00 0. -1.
         21   -1    0    0  504  502 -0.00000000000E+00 -0.00000000000E+00 -0.23710955601E+03  0.23710955601E+03  0.00000000000E+00 0. -1.
         21    1    1    2  503  501  0.52074395381E+02 -0.18255485990E+01  0.29604655292E+02  0.59929215720E+02  0.00000000000E+00 0.  1.
         21    1    1    2  504  506  0.35513049626E+02 -0.17121899188E+02 -0.19125713494E+03  0.19527833416E+03  0.00000000000E+00 0. -1.
         21    1    1    2  505  502 -0.16013204163E+03 -0.12507256938E+02  0.44677560533E+03  0.47477062225E+03  0.00000000000E+00 0. -1.
         21    1    1    2  506  503  0.72544596621E+02  0.31454704725E+02  0.91776606852E+02  0.12114067242E+03  0.00000000000E+00 0. -1.
<scales pt_clust_3="32.92582" pt_clust_4="39.42507" pt_clust_5="149.87534" pt_clust_6="32.92582"></scales>
<clustering>
<clus scale="   32.926">  3  6 -1 -1</clus>
<clus scale="   39.425">  2  4  1 -1</clus>
<clus scale="  149.875">  1  5  2 -1</clus>
<clus scale="  149.875">  1  3  2 -1</clus>
</clustering>
</event>
<event>
 6    0  0.8610502E+002  0.6911063E+02  0.7546771E-02  0.1363144E+00
         21   -1    0    0  506  501  0.00000000000E+00  0.00000000000E+00  0.11771472213E+03  0.11771472213E+03  0.00000000000E+00 0.  1.
         21   -1    0    0  504  502 -0.00000000000E+00 -0.00000000000E+00 -0.29586981790E+03  0.29586981790E+03  0.00000000000E+00 0.  1.
         21    1    1    2  503  501  0.66423644595E+02  0.25546117927E+01  0.28424531358E+02  0.72295093787E+02  0.00000000000E+00 0.  1.
         21    1    1    2  504  503 -0.58058166859E+02  0.40959909731E+02 -0.18639744962E+03  0.19948051075E+03  0.00000000000E+00 0.  1.
         21    1    1    2  505  502 -0.18352910813E+02 -0.81474496218E+02 -0.45494260383E+02  0.95103367959E+02  0.00000000000E+00 0.  1.
         21    1    1    2  506  505  0.99874330765E+01  0.37959974695E+02  0.25312082882E+02  0.46705567528E+02  0.00000000000E+00 0. -1.
<scales pt_clust_3="69.11063" pt_clust_4="14000.00000" pt_clust_5="71.60865" pt_clust_6="39.25186"></scales>
<clustering>
<clus scale="   39.252">  1  6  2 -1</clus>
<clus scale="   71.609">  1  5  2 -1</clus>
<clus scale="   69.111">  1  3  2 -1</clus>
<clus scale="   39.252">  1  3  2 -1</clus>
</clustering>
</event>
<event>
 6    0  0.8610502E+002  0.1263564E+03  0.7546771E-02  0.1232965E+00
         21   -1    0    0  503  501  0.00000000000E+00  0.00000000000E+00  0.23222220079E+03  0.23222220079E+03  0.00000000000E+00 0. -1.
         21   -1    0    0  506  502 -0.00000000000E+00 -0.00000000000E+00 -0.17285361620E+03  0.17285361620E+03  0.00000000000E+00 0. -1.
         21    1    1    2  503  502 -0.12883928348E+03 -0.99607488612E+01  0.50291257615E+02  0.13866502110E+03  0.00000000000E+00 0. -1.
         21    1    1    2  504  505  0.10908438261E+03  0.68463871355E+02  0.12090078392E+02  0.12935561142E+03  0.00000000000E+00 0. -1.
         21    1    1    2  505  501 -0.13174116321E+02 -0.75865076172E+02  0.34348409220E+02  0.84314176384E+02  0.00000000000E+00 0. -1.
         21    1    1    2  506  504  0.32929017185E+02  0.17361953678E+02 -0.37361160637E+02  0.52741008072E+02  0.00000000000E+00 0. -1.
<scales pt_clust_3="14000.00000" pt_clust_4="126.35639" pt_clust_5="72.78363" pt_clust_6="37.22577"></scales>
<clustering>
<clus scale="   37.226">  2  6  1 -1</clus>
<clus scale="   72.784">  1  5  2 -1</clus>
<clus scale="  126.356">  1  4  2 -1</clus>
<clus scale="   72.784">  1  3  2 -1</clus>
</clustering>
</event>
<event>
 6    0  0.8610502E+002  0.1278626E+03  0.7546771E-02  0.1230662E+00
         21   -1    0    0  505  501  0.00000000000E+00  0.00000000000E+00  0.23973377657E+04  0.23973377657E+04  0.00000000000E+00 0.  1.
         21   -1    0    0  503  502 -0.00000000000E+00 -0.00000000000E+00 -0.19467646240E+03  0.19467646240E+03  0.00000000000E+00 0. -1.
         21    1    1    2  503  501  0.50616902562E+02 -0.13042887254E+02  0.15552537728E+04  0.15561318985E+04  0.00000000000E+00 0.  1.
         21    1    1    2  504  506  0.11001933441E+03  0.85069155075E+02  0.51745089774E+03  0.53581381716E+03  0.00000000000E+00 0.  1.
         21    1    1    2  505  504 -0.45942140318E+02 -0.16315567714E+02  0.29077543463E+03  0.29483424393E+03  0.00000000000E+00 0.  1.
         21    1    1    2  506  502 -0.11469409666E+03 -0.55710700108E+02 -0.16081880190E+03  0.20523426848E+03  0.00000000000E+00 0. -1.
<scales pt_clust_3="30.12655" pt_clust_4="127.86257" pt_clust_5="48.75324" pt_clust_6="14000.00000"></scales>
<clustering>
<clus scale="   48.753">  1  5  2 -1</clus>
<clus scale="   30.127">  1  3  2 -1</clus>
<clus scale="  127.863">  1  4  2 -1</clus>
<clus scale="   48.753">  1  3  2 -1</clus>
</clustering>
</event>
<event>
 6    0  0.8610502E+002  0.9569008E+02  0.7546771E-02  0.1289629E+00
         21   -1    0    0  503  501  0.00000000000E+00  0.00000000000E+00  0.44018094137E+03  0.44018094137E+03  0.00000000000E+00 0.  1.
         21   -1    0    0  504  502 -0.00000000000E+00 -0.00000000000E+00 -0.34839775803E+03  0.34839775803E+03  0.00000000000E+00 0.  1.
         21    1    1    2  503  505  0.65273290237E+02 -0.21903216156E+02  0.37409639324E+03  0.38037936948E+03  0.00000000000E+00 0.  1.
         21    1    1    2  504  506 -0.38278824294E+02 -0.24055131365E+02 -0.11306171216E+03  0.12176562935E+03  0.00000000000E+00 0.  1.
         21    1    1    2  505  502  0.90258529769E+02  0.61139826721E+02 -0.10725961732E+03  0.15293562736E+03  0.00000000000E+00 0.  1.
         21    1    1    2  506  501 -0.11725299571E+03 -0.15181479200E+02 -0.61991880411E+02  0.13349807321E+03  0.00000000000E+00 0.  1.
<scales pt_clust_3="68.46239" pt_clust_4="45.20971" pt_clust_5="14000.00000" pt_clust_6="95.69008"></scales>
<clustering>
<clus scale="   45.210">  2  4  1 -1</clus>
<clus scale="   68.462">  1  3  2 -1</clus>
<clus scale="   95.690">  1  6  2 -1</clus>
<clus scale="   68.462">  1  3  2 -1</clus>
</clustering>
</event>
<event>
 6    0  0.8610502E+002  0.1449058E+03  0.7546771E-02  0.1206876E+00
         21   -1    0    0  503  501  0.00000000000E+00  0.00000000000E+00  0.79415987885E+02  0.79415987885E+02  0.00000000000E+00 0. -1.
         21   -1    0    0  504  502 -0.00000000000E+00 -0.00000000000E+00 -0.14033455837E+04  0.14033455837E+04  0.00000000000E+00 0. -1.
         21    1    1    2  503  502 -0.12012894278E+03  0.58633023483E+01 -0.51501587863E+03  0.52887304379E+03  0.00000000000E+00 0. -1.
         21    1    1    2  504  506 -0.35140673891E+02  0.33317203063E+02 -0.76835450949E+03  0.76987892245E+03  0.00000000000E+00 0. -1.
         21    1    1    2  505  501  0.50400444633E+02  0.82915457577E+01 -0.46040742885E+02  0.68765576822E+02  0.00000000000E+00 0. -1.
         21    1    1    2  506  505  0.10486917204E+03 -0.47472051169E+02  0.54815351661E+01  0.11524402854E+03  0.00000000000E+00 0. -1.
<scales pt_clust_3="144.90576" pt_clust_4="48.42420" pt_clust_5="48.55481" pt_clust_6="14000.00000"></scales>
<clustering>
<clus scale="   48.424">  2  4  1 -1</clus>
<clus scale="   48.555">  1  5  2 -1</clus>
<clus scale="  144.906">  2  3  1 -1</clus>
<clus scale="   48.555">  1  3  2 -1</clus>
</clustering>
</event>
<event>
 6    0  0.8610502E+002  0.1101849E+03  0.7546771E-02  0.1260228E+00
         21   -1    0    0  504  501  0.00000000000E+00  0.00000000000E+00  0.28382500929E+03  0.28382500929E+03  0.00000000000E+00 0.  1.
         21   -1    0    0  501  502 -0.00000000000E+00 -0.00000000000E+00 -0.53763681438E+03  0.53763681438E+03  0.00000000000E+00 0.  1.
         21    1    1    2  503  502  0.87494208581E+02 -0.71416568125E+02 -0.50396708200E+03  0.51646721337E+03  0.00000000000E+00 0.  1.
         21    1    1    2  504  505 -0.27492010830E+02 -0.17208802864E+02  0.12403917775E+03  0.12820948160E+03  0.00000000000E+00 0.  1.
         21    1    1    2  505  506 -0.28131939591E+02  0.37593081674E+02  0.13092666579E+02  0.48744884173E+02  0.00000000000E+00 0.  1.
         21    1    1    2  506  503 -0.31870258161E+02  0.51032289315E+02  0.11302343258E+03  0.12804024453E+03  0.00000000000E+00 0.  1.
<scales pt_clust_3="14000.00000" pt_clust_4="32.43383" pt_clust_5="47.90276" pt_clust_6="110.18492"></scales>
<clustering>
<clus scale="   32.434">  1  4  2 -1</clus>
<clus scale="   47.903">  1  5  2 -1</clus>
<clus scale="  110.185">  1  6  2 -1</clus>
<clus scale="   32.434">  1  3  2 -1</clus>
</clustering>
</event>
<event>
 6    0  0.8610502E+002  0.9386468E+02  0.7546771E-02  0.1293754E+00
         21   -1    0    0  503  501  0.00000000000E+00  0.00000000000E+00  0.17718866128E+03  0.17718866128E+03  0.00000000000E+00 0.  1.
         21   -1    0    0  505  502 -0.00000000000E+00 -0.00000000000E+00 -0.26036173395E+03  0.26036173395E+03  0.00000000000E+00 0.  1.
         21    1    1    2  503  502  0.98121841350E+02 -0.54696768547E+02 -0.23268473807E+02  0.11472163751E+03  0.00000000000E+00 0.  1.
         21    1    1    2  504  506 -0.17077792702E+02  0.46416244772E+02 -0.16372116820E+02  0.52097648618E+02  0.00000000000E+00 0.  1.
         21    1    1    2  505  504 -0.74519995906E+02  0.48147450056E+02 -0.14022722792E+03  0.16593698258E+03  0.00000000000E+00 0.  1.
         21    1    1    2  506  501 -0.65240527414E+01 -0.39866926282E+02  0.96694745870E+02  0.10479412653E+03  0.00000000000E+00 0.  1.
<scales pt_clust_3="93.86468" pt_clust_4="41.50293" pt_clust_5="14000.00000" pt_clust_6="40.39722"></scales>
<clustering>
<clus scale="   40.397">  1  6  2 -1</clus>
<clus scale="   41.503">  1  4  2 -1</clus>
<clus scale="   93.865">  1  3  2 -1</clus>
<clus scale="   40.397">  1  3  2 -1</clus>
</clustering>
</event>
<event>
 6    0  0.8610502E+002  0.1108606E+03  0.7546771E-02  0.1258984E+00
         21   -1    0    0  505  501  0.00000000000E+00  0.00000000000E+00  0.30785903903E+03  0.30785903903E+03  0.00000000000E+00 0.  1.
         21   -1    0    0  504  502 -0.00000000000E+00 -0.00000000000E+00 -0.35888040099E+03  0.35888040099E+03  0.00000000000E+00 0. -1.
         21    1    1    2  503  506  0.75606549252E+01  0.35512851761E+02 -0.13199953691E+03  0.13690216904E+03  0.00000000000E+00 0.  1.
         21    1    1    2  504  503  0.58950287273E+02  0.53027163008E+02 -0.13803324795E+03  0.15918603559E+03  0.00000000000E+00 0. -1.
         21    1    1    2  505  502  0.15104801163E+02 -0.32808930644E+02 -0.62560819593E+02  0.72238750656E+02  0.00000000000E+00 0.  1.
         21    1    1    2  506  501 -0.81615743361E+02 -0.55731084126E+02  0.28157224249E+03  0.29841248473E+03  0.00000000000E+00 0.  1.
<scales pt_clust_3="33.75005" pt_clust_4="33.75005" pt_clust_5="36.11898" pt_clust_6="99.00802"></scales>
<clustering>
<clus scale="   33.750">  3  4 -1 -1</clus>
<clus scale="   36.119">  2  5  1 -1</clus>
<clus scale="   99.008">  1  6  2 -1</clus>
<clus scale="   99.008">  1  3  2 -1</clus>
</clustering>
</event>
<event>
 6    0  0.8610502E+002  0.1228901E+03  0.7546771E-02  0.1238404E+00
         21   -1    0    0  503  501  0.00000000000E+00  0.00000000000E+00  0.97717160271E+02  0.97717160271E+02  0.00000000000E+00 0. -1.
         21   -1    0    0  504  502 -0.00000000000E+00 -0.00000000000E+00 -0.30410666740E+04  0.30410666740E+04  0.00000000000E+00 0. -1.
         21    1    1    2  503  502 -0.25770300418E+02  0.25139681057E+02 -0.73849349587E+02  0.82157400043E+02  0.00000000000E+00 0. -1.
         21    1    1    2  504  506  0.11533661674E+03 -0.57884733855E+02 -0.28616308268E+04  0.28645390845E+04  0.00000000000E+00 0. -1.
         21    1    1    2  505  501 -0.16656844312E+02  0.41128686815E+02  0.71397231113E+02  0.84062976108E+02  0.00000000000E+00 0. -1.
         21    1    1    2  506  505 -0.72909472014E+02 -0.83836340165E+01 -0.79266568474E+02  0.10802437367E+03  0.00000000000E+00 0.  1.
<scales pt_clust_3="36.00155" pt_clust_4="122.89009" pt_clust_5="72.76533" pt_clust_6="14000.00000"></scales>
<clustering>
<clus scale="   36.002">  1  3  2 -1</clus>
<clus scale="   72.765">  1  5  2 -1</clus>
<clus scale="  122.890">  2  4  1 -1</clus>
<clus scale="   36.002">  1  3  2 -1</clus>
</clustering>
</event>
<event>
 6    0  0.8610502E+002  0.1224438E+03  0.7546771E-02  0.1239119E+00
         21   -1    0    0  505  501  0.00000000000E+00  0.00000000000E+00  0.20566000016E+03  0.20566000016E+03  0.00000000000E+00 0.  1.
         21   -1    0    0  504  502 -0.00000000000E+00 -0.00000000000E+00 -0.55197771811E+03  0.55197771811E+03  0.00000000000E+00 0.  1.
         21    1    1    2  503  506 -0.49569945322E+01  0.88979398530E+02 -0.40019756951E+03  0.40999999975E+03  0.00000000000E+00 0.  1.
         21    1    1    2  504  501 -0.22143024384E+02 -0.21937800401E+02 -0.24048385000E+02  0.39368838393E+02  0.00000000000E+00 0.  1.
         21    1    1    2  505  503  0.35635204419E+02 -0.11905673778E+03  0.16495135831E+03  0.20652681476E+03  0.00000000000E+00 0.  1.
         21    1    1    2  506  502 -0.85351855028E+01  0.52015139654E+02 -0.87023121750E+02  0.10174206536E+03  0.00000000000E+00 0. -1.
<scales pt_clust_3="14000.00000" pt_clust_4="31.17019" pt_clust_5="122.44378" pt_clust_6="49.64831"></scales>
<clustering>
<clus scale="   31.170">  2  4  1 -1</clus>
<clus scale="   49.648">  2  6  1 -1</clus>
<clus scale="  122.444">  1  5  2 -1</clus>
<clus scale="  122.444">  1  3  2 -1</clus>
</clustering>
</event>
<event>
 6    0  0.8610502E+002  0.1162917E+03  0.7546771E-02  0.1249343E+00
         21   -1    0    0  503  501  0.00000000000E+00  0.00000000000E+00  0.21263844990E+03  0.21263844990E+03  0.00000000000E+00 0. -1.
         21   -1    0    0  505  502 -0.00000000000E+00 -0.00000000000E+00 -0.39155472341E+03  0.39155472341E+03  0.00000000000E+00 0.  1.
         21    1    1    2  503  506 -0.85074965670E+02  0.85568988476E+02  0.98025976214E+02  0.15546347991E+03  0.00000000000E+00 0. -1.
         21    1    1    2  504  502  0.33745713714E+02  0.55693478381E+01 -0.30590268577E+03  0.30780877829E+03  0.00000000000E+00 0.  1.
         21    1    1    2  505  501 -0.25721468669E+02 -0.16027461594E+02  0.59524283885E+01  0.30885350562E+02  0.00000000000E+00 0. -1.
         21    1    1    2  506  504  0.77050720625E+02 -0.75110874721E+02  0.23008007663E+02  0.11003556455E+03  0.00000000000E+00 0. -1.
<scales pt_clust_3="116.29174" pt_clust_4="34.06491" pt_clust_5="30.30633" pt_clust_6="14000.00000"></scales>
<clustering>
<clus scale="   30.306">  1  5  2 -1</clus>
<clus scale="   34.065">  2  4  1 -1</clus>
<clus scale="  116.292">  1  3  2 -1</clus>
<clus scale="   30.306">  1  3  2 -1</clus>
</clustering>
</event>
<event>
 6    0  0.8610502E+002  0.1070294E+03  0.7546771E-02  0.1266172E+00
         21   -1    0    0  503  501  0.00000000000E+00  0.00000000000E+00  0.11639379189E+03  0.11639379189E+03  0.00000000000E+00 0.  1.
         21   -1    0    0  506  502 -0.00000000000E+00 -0.00000000000E+00 -0.47683447184E+03  0.47683447184E+03  0.00000000000E+00 0. -1.
         21    1    1    2  503  505 -0.76146977308E+01 -0.84241627314E+02  0.19237185828E+02  0.86745055840E+02  0.00000000000E+00 0.  1.
         21    1    1    2  504  501  0.82289039828E+02 -0.87868848275E+01  0.79716930005E+01  0.83139902033E+02  0.00000000000E+00 0.  1.
         21    1    1    2  505  502 -0.26293522559E+02 -0.17858192111E+02 -0.18193638302E+03  0.18469193762E+03  0.00000000000E+00 0. -1.
         21    1    1    2  506  504 -0.48380819538E+02  0.11088670425E+03 -0.20571317576E+03  0.23865136824E+03  0.00000000000E+00 0. -1.
<scales pt_clust_3="14000.00000" pt_clust_4="79.69534" pt_clust_5="31.78466" pt_clust_6="107.02939"></scales>
<clustering>
<clus scale="   31.785">  2  5  1 -1</clus>
<clus scale="   79.695">  1  4  2 -1</clus>
<clus scale="  107.029">  2  6  1 -1</clus>
<clus scale="   79.695">  1  3  2 -1</clus>
</clustering>
</event>
<event>
 6    0  0.8610502E+002  0.1450568E+03  0.7546771E-02  0.1206682E+00
         21   -1    0    0  502  501  0.00000000000E+00  0.00000000000E+00  0.81531165067E+01  0.81531165067E+01  0.00000000000E+00 0. -1.
         21   -1    0    0  506  502 -0.00000000000E+00 -0.00000000000E+00 -0.24111898969E+04  0.24111898969E+04  0.00000000000E+00 0. -1.
         21    1    1    2  503  501  0.55516870135E+02  0.25405688267E+02 -0.39926368499E+03  0.40390476850E+03  0.00000000000E+00 0. -1.
         21    1    1    2  504  503  0.75898010578E+02 -0.29398475748E+02 -0.78562361250E+03  0.78982861363E+03  0.00000000000E+00 0. -1.
         21    1    1    2  505  504 -0.65270127145E+02  0.15737327173E+02 -0.67129175891E+03  0.67464099975E+03  0.00000000000E+00 0. -1.
         21    1    1    2  506  505 -0.66144753567E+02 -0.11744539691E+02 -0.54685772397E+03  0.55096863150E+03  0.00000000000E+00 0. -1.
<scales pt_clust_3="53.07710" pt_clust_4="53.07710" pt_clust_5="30.73185" pt_clust_6="135.02150"></scales>
<clustering>
<clus scale="   30.732">  5  6 -1 -1</clus>
<clus scale="   53.077">  3  4 -1 -1</clus>
<clus scale="  135.022">  2  5  1 -1</clus>
<clus scale="  145.057">  1  3  2 -1</clus>
</clustering>
</event>
<event>
 6    0  0.8610502E+002  0.1220230E+03  0.7546771E-02  0.1239797E+00
         21   -1    0    0  504  501  0.00000000000E+00  0.00000000000E+00  0.23746672735E+03  0.23746672735E+03  0.00000000000E+00 0. -1.
         21   -1    0    0  505  502 -0.00000000000E+00 -0.00000000000E+00 -0.24447185512E+03  0.24447185512E+03  0.00000000000E+00 0.  1.
         21    1    1    2  503  501  0.63199362362E+02  0.10696220524E+03  0.15938252160E+03  0.20208379684E+03  0.00000000000E+00 0. -1.
         21    1    1    2  504  506 -0.66296332203E+02 -0.89707667250E+02 -0.76382720707E+02  0.13519241565E+03  0.00000000000E+00 0.  1.
         21    1    1    2  505  503  0.43603152860E+02 -0.13934374760E+01  0.11705551332E+01  0.43641113719E+02  0.00000000000E+00 0.  1.
         21    1    1    2  506  502 -0.40506183019E+02 -0.15861100514E+02 -0.91175483793E+02  0.10102125626E+03  0.00000000000E+00 0.  1.
<scales pt_clust_3="14000.00000" pt_clust_4="122.02299" pt_clust_5="37.98298" pt_clust_6="43.50087"></scales>
<clustering>
<clus scale="   43.501">  2  6  1 -1</clus>
<clus scale="   37.983">  2  5  1 -1</clus>
<clus scale="  122.023">  2  4  1 -1</clus>
<clus scale="  122.023">  1  3  2 -1</clus>
</clustering>
</event>
<event>
 6    0  0.8610502E+002  0.1108394E+03  0.7546771E-02  0.1259023E+00
         21   -1    0    0  502  501  0.00000000000E+00  0.00000000000E+00  0.54461886339E+03  0.54461886339E+03  0.00000000000E+00 0. -1.
         21   -1    0    0  503  502 -0.00000000000E+00 -0.00000000000E+00 -0.12550645253E+03  0.12550645253E+03  0.00000000000E+00 0. -1.
         21    1    1    2  503  504  0.85488666081E+02  0.14474287262E+02 -0.68441842872E+02  0.11046312903E+03  0.00000000000E+00 0. -1.
         21    1    1    2  504  505 -0.20863623703E+02 -0.26891299138E+02  0.13195503438E+02  0.36504165164E+02  0.00000000000E+00 0. -1.
         21    1    1    2  505  506 -0.11318259837E+03 -0.84347486234E+01  0.12111304505E+03  0.16598137016E+03  0.00000000000E+00 0. -1.
         21    1    1    2  506  501  0.48557555988E+02  0.20851760499E+02  0.35324570523E+03  0.35717665157E+03  0.00000000000E+00 0. -1.
<scales pt_clust_3="92.41262" pt_clust_4="33.51345" pt_clust_5="33.51345" pt_clust_6="52.84536"></scales>
<clustering>
<clus scale="   33.513">  4  5 -1 -1</clus>
<clus scale="   52.845">  1  6  2 -1</clus>
<clus scale="   92.413">  2  3  1 -1</clus>
<clus scale="   52.845">  1  3  2 -1</clus>
</clustering>
</event>
<event>
 6    0  0.8610502E+002  0.1378693E+03  0.7546771E-02  0.1216225E+00
         21   -1    0    0  503  501  0.00000000000E+00  0.00000000000E+00  0.79650176153E+02  0.79650176153E+02  0.00000000000E+00 0.  1.
         21   -1    0    0  504  502 -0.00000000000E+00 -0.00000000000E+00 -0.53734769399E+03  0.53734769399E+03  0.00000000000E+00 0.  1.
         21    1    1    2  503  506 -0.14741008423E+02 -0.30064884623E+02  0.29755993306E+02  0.44795242541E+02  0.00000000000E+00 0.  1.
         21    1    1    2  504  505  0.21385257356E+02  0.89007860582E+02 -0.13964424708E+03  0.16697378304E+03  0.00000000000E+00 0.  1.
         21    1    1    2  505  501  0.76164931399E+01  0.59509424411E+02 -0.32783928406E+02  0.68367891025E+02  0.00000000000E+00 0.  1.
         21    1    1    2  506  502 -0.14260742073E+02 -0.11845240037E+03 -0.31502533565E+03  0.33686095354E+03  0.00000000000E+00 0.  1.
<scales pt_clust_3="33.48424" pt_clust_4="39.93904" pt_clust_5="39.93904" pt_clust_6="127.48416"></scales>
<clustering>
<clus scale="   33.484">  1  3  2 -1</clus>
<clus scale="   39.939">  4  5 -1 -1</clus>
<clus scale="  127.484">  2  6  1 -1</clus>
<clus scale="   33.484">  1  3  2 -1</clus>
</clustering>
</event>
<event>
 6    0  0.8610502E+002  0.9725219E+02  0.7546771E-02  0.1286183E+00
         21   -1    0    0  506  501  0.00000000000E+00  0.00000000000E+00  0.46710625879E+02  0.46710625879E+02  0.00000000000E+00 0. -1.
         21   -1    0    0  503  502 -0.00000000000E+00 -0.00000000000E+00 -0.24826508138E+04  0.24826508138E+04  0.00000000000E+00 0.  1.
         21    1    1    2  503  505  0.35827986649E+02  0.14567189146E+02 -0.14340075978E+03  0.14852483137E+03  0.00000000000E+00 0.  1.
         21    1    1    2  504  502  0.42346617420E+02  0.93860572205E+01 -0.12971821114E+04  0.12979070707E+04  0.00000000000E+00 0.  1.
         21    1    1    2  505  501 -0.78978728791E+02  0.61134866138E+02 -0.17524456870E+02  0.10140127242E+03  0.00000000000E+00 0. -1.
         21    1    1    2  506  504  0.80412472172E+00 -0.85088112504E+02 -0.97783285991E+03  0.98152826522E+03  0.00000000000E+00 0.  1.
<scales pt_clust_3="38.67619" pt_clust_4="64.64827" pt_clust_5="97.25219" pt_clust_6="14000.00000"></scales>
<clustering>
<clus scale="   38.676">  2  3  1 -1</clus>
<clus scale="   64.648">  2  4  1 -1</clus>
<clus scale="   97.252">  1  5  2 -1</clus>
<clus scale="   97.252">  1  3  2 -1</clus>
</clustering>
</event>
<event>
 6    0  0.8610502E+002  0.1867721E+03  0.7546771E-02  0.1161405E+00
         21   -1    0    0  504  501  0.00000000000E+00  0.00000000000E+00  0.57185122790E+03  0.57185122790E+03  0.00000000000E+00 0. -1.
         21   -1    0    0  506  502 -0.00000000000E+00 -0.00000000000E+00 -0.10254057035E+03  0.10254057035E+03  0.00000000000E+00 0. -1.
         21    1    1    2  503  501 -0.30874154732E+02  0.15691400668E+02  0.19228881700E+02  0.39612919317E+02  0.00000000000E+00 0. -1.
         21    1    1    2  504  505  0.15253378352E+03 -0.10359075611E+02  0.21612526990E+03  0.26473382454E+03  0.00000000000E+00 0. -1.
         21    1    1    2  505  502  0.46255831965E+02  0.44580243903E+02 -0.14677873751E+02  0.65897193530E+02  0.00000000000E+00 0.  1.
         21    1    1    2  506  503 -0.16791546076E+03 -0.49912568960E+02  0.24863437970E+03  0.30414786087E+03  0.00000000000E+00 0. -1.
<scales pt_clust_3="33.66450" pt_clust_4="170.73800" pt_clust_5="64.24173" pt_clust_6="33.66450"></scales>
<clustering>
<clus scale="   33.664">  3  6 -1 -1</clus>
<clus scale="   64.242">  2  5  1 -1</clus>
<clus scale="  170.738">  1  4  2 -1</clus>
<clus scale="  170.738">  1  3  2 -1</clus>
</clustering>
</event>
<event>
 6    0  0.8610502E+002  0.9908150E+02  0.7546771E-02  0.1282239E+00
         21   -1    0    0  503  501  0.00000000000E+00  0.00000000000E+00  0.90237291546E+03  0.90237291546E+03  0.00000000000E+00 0. -1.
         21   -1    0    0  505  502 -0.00000000000E+00 -0.00000000000E+00 -0.36641423828E+03  0.36641423828E+03  0.00000000000E+00 0.  1.
         21    1    1    2  503  502  0.50816365749E+02  0.69474113505E+02  0.37583544531E+03  0.38556612588E+03  0.00000000000E+00 0. -1.
         21    1    1    2  504  506 -0.25646533723E+02 -0.65186578945E+02  0.28738144365E+02  0.75716020155E+02  0.00000000000E+00 0. -1.
         21    1    1    2  505  504  0.23309485037E+01 -0.55966302537E+02 -0.33389282345E+03  0.33855882486E+03  0.00000000000E+00 0.  1.
         21    1    1    2  506  501 -0.27500780529E+02  0.51678767978E+02  0.46527791095E+03  0.46894618284E+03  0.00000000000E+00 0. -1.
<scales pt_clust_3="99.08150" pt_clust_4="14000.00000" pt_clust_5="56.01482" pt_clust_6="55.49174"></scales>
<clustering>
<clus scale="   56.015">  2  5  1 -1</clus>
<clus scale="   55.492">  1  6  2 -1</clus>
<clus scale="   99.082">  1  3  2 -1</clus>
<clus scale="   55.492">  1  3  2 -1</clus>
</clustering>
</event>
<event>
 6    0  0.8610502E+002  0.1435357E+03  0.7546771E-02  0.1208649E+00
         21   -1    0    0  506  501  0.00000000000E+00  0.00000000000E+00  0.32911722329E+03  0.32911722329E+03  0.00000000000E+00 0. -1.
         21   -1    0    0  504  502 -0.00000000000E+00 -0.00000000000E+00 -0.54709368275E+03  0.54709368275E+03  0.00000000000E+00 0.  1.
         21    1    1    2  503  501 -0.12924886440E+02 -0.84274226417E+02  0.22887295522E+03  0.24423764566E+03  0.00000000000E+00 0. -1.
         21    1    1    2  504  505 -0.44606665299E+02 -0.11015091557E+02 -0.92202729013E+02  0.10301664947E+03  0.00000000000E+00 0. -1.
         21    1    1    2  505  503  0.93136122162E+02 -0.53997785023E+02  0.32535355668E+02  0.11246620562E+03  0.00000000000E+00 0. -1.
         21    1    1    2  506  502 -0.35604570422E+02  0.14928710300E+03 -0.38718204133E+03  0.41649040528E+03  0.00000000000E+00 0.  1.
<scales pt_clust_3="85.56433" pt_clust_4="45.94656" pt_clust_5="143.53572" pt_clust_6="14000.00000"></scales>
<clustering>
<clus scale="   45.947">  2  4  1 -1</clus>
<clus scale="   85.564">  1  3  2 -1</clus>
<clus scale="  143.536">  1  5  2 -1</clus>
<clus scale="   85.564">  1  3  2 -1</clus>
</clustering>
</event>
<event>
 6    0  0.8610502E+002  0.5991466E+02  0.7546771E-02  0.1398190E+00
         21   -1    0    0  503  501  0.00000000000E+00  0.00000000000E+00  0.11845885567E+04  0.11845885567E+04  0.00000000000E+00 0. -1.
         21   -1    0    0  504  502 -0.00000000000E+00 -0.00000000000E+00 -0.56198473723E+02  0.56198473723E+02  0.00000000000E+00 0. -1.
         21    1    1    2  503  506  0.16800149367E+02 -0.81914136490E+02  0.10063150876E+03  0.13083910475E+03  0.00000000000E+00 0. -1.
         21    1    1    2  504  505 -0.28822043585E+02 -0.32863185452E+02  0.93523894391E+02  0.10323477116E+03  0.00000000000E+00 0. -1.
         21    1    1    2  505  501 -0.30894517496E+02  0.49965223567E+02  0.92676173470E+03  0.92862172476E+03  0.00000000000E+00 0. -1.
         21    1    1    2  506  502  0.42916411714E+02  0.64812098375E+02  0.74729451012E+01  0.78091429739E+02  0.00000000000E+00 0. -1.
<scales pt_clust_3="59.91466" pt_clust_4="43.71154" pt_clust_5="14000.00000" pt_clust_6="48.11664"></scales>
<clustering>
<clus scale="   43.712">  2  4  1 -1</clus>
<clus scale="   48.117">  2  6  1 -1</clus>
<clus scale="   59.915">  2  3  1 -1</clus>
<clus scale="   59.915">  1  3  2 -1</clus>
</clustering>
</event>
<event>
 6    0  0.8610502E+002  0.1872967E+03  0.7546771E-02  0.1160922E+00
         21   -1    0    0  504  501  0.00000000000E+00  0.00000000000E+00  0.40869382560E+03  0.40869382560E+03  0.00000000000E+00 0. -1.
         21   -1    0    0  505  502 -0.00000000000E+00 -0.00000000000E+00 -0.49462220942E+03  0.49462220942E+03  0.00000000000E+00 0. -1.
         21    1    1    2  503  501 -0.28171382172E+02 -0.18287248337E+02  0.90679372485E+02  0.96699528538E+02  0.00000000000E+00 0. -1.
         21    1    1    2  504  502 -0.26521125595E+02  0.28094684266E+02 -0.37345273676E+03  0.37544590553E+03  0.00000000000E+00 0. -1.
         21    1    1    2  505  506  0.81189054593E+02  0.16963093908E+03  0.42025573812E+02  0.19269786437E+03  0.00000000000E+00 0. -1.
         21    1    1    2  506  503 -0.26496546825E+02 -0.17943837501E+03  0.15481940665E+03  0.23847273658E+03  0.00000000000E+00 0. -1.
<scales pt_clust_3="33.58646" pt_clust_4="38.65449" pt_clust_5="187.29675" pt_clust_6="14000.00000"></scales>
<clustering>
<clus scale="   33.586">  1  3  2 -1</clus>
<clus scale="   38.654">  2  4  1 -1</clus>
<clus scale="  187.297">  2  5  1 -1</clus>
<clus scale="   33.586">  1  3  2 -1</clus>
</clustering>
</event>
<event>
 6    0  0.8610502E+002  0.1219376E+03  0.7546771E-02  0.1239934E+00
         21   -1    0    0  504  501  0.00000000000E+00  0.00000000000E+00  0.61547522965E+03  0.61547522965E+03  0.00000000000E+00 0. -1.
         21   -1    0    0  506  502 -0.00000000000E+00 -0.00000000000E+00 -0.11808574470E+03  0.11808574470E+03  0.00000000000E+00 0. -1.
         21    1    1    2  503  501  0.42335551286E+02  0.43107298524E+02  0.38042352010E+03  0.38519163118E+03  0.00000000000E+00 0. -1.
         21    1    1    2  504  502  0.97260912021E+01 -0.32432228261E+02  0.39036009753E+02  0.51674523099E+02  0.00000000000E+00 0.  1.
         21    1    1    2  505  503  0.36834274694E+02  0.87486762869E+02  0.12428106535E+03  0.15638567925E+03  0.00000000000E+00 0. -1.
         21    1    1    2  506  505 -0.88895917182E+02 -0.98161833133E+02 -0.46351110256E+02  0.14030914082E+03  0.00000000000E+00 0. -1.
<scales pt_clust_3="53.31882" pt_clust_4="33.85921" pt_clust_5="121.93757" pt_clust_6="14000.00000"></scales>
<clustering>
<clus scale="   33.859">  1  4  2 -1</clus>
<clus scale="   53.319">  1  3  2 -1</clus>
<clus scale="  121.938">  1  5  2 -1</clus>
<clus scale="   33.859">  1  3  2 -1</clus>
</clustering>
</event>
<event>
 6    0  0.8610502E+002  0.8930260E+02  0.7546771E-02  0.1304549E+00
         21   -1    0    0  505  501  0.00000000000E+00  0.00000000000E+00  0.63070022995E+03  0.63070022995E+03  0.00000000000E+00 0.  1.
         21   -1    0    0  504  502 -0.00000000000E+00 -0.00000000000E+00 -0.58456011377E+02  0.58456011377E+02  0.00000000000E+00 0.  1.
         21    1    1    2  503  501 -0.33021216495E+02 -0.34799829581E+02  0.22459064184E+03  0.22965710370E+03  0.00000000000E+00 0.  1.
         21    1    1    2  504  503 -0.92508581055E+02 -0.95656106987E+01  0.17565525803E+02  0.94646110187E+02  0.00000000000E+00 0.  1.
         21    1    1    2  505  506  0.48571245360E+02  0.57414896287E+02  0.13166743839E+03  0.15163096822E+03  0.00000000000E+00 0.  1.
         21    1    1    2  506  502  0.76958552189E+02 -0.13049456008E+02  0.19842061254E+03  0.21322205922E+03  0.00000000000E+00 0.  1.
<scales pt_clust_3="47.97321" pt_clust_4="89.30260" pt_clust_5="58.40135" pt_clust_6="14000.00000"></scales>
<clustering>
<clus scale="   47.973">  1  3  2 -1</clus>
<clus scale="   58.401">  1  5  2 -1</clus>
<clus scale="   89.303">  2  4  1 -1</clus>
<clus scale="   47.973">  1  3  2 -1</clus>
</clustering>
</event>
<event>
 6    0  0.8610502E+002  0.1265451E+03  0.7546771E-02  0.1232674E+00
         21   -1    0    0  502  501  0.00000000000E+00  0.00000000000E+00  0.63024842585E+03  0.63024842585E+03  0.00000000000E+00 0. -1.
         21   -1    0    0  504  502 -0.00000000000E+00 -0.00000000000E+00 -0.53196836597E+03  0.53196836597E+03  0.00000000000E+00 0.  1.
         21    1    1    2  503  505  0.66847774471E+02  0.71671681249E+02 -0.19656784912E+03  0.21964602011E+03  0.00000000000E+00 0.  1.
         21    1    1    2  504  506 -0.17551100981E+02 -0.57579690810E+02 -0.13654668111E+03  0.14922619764E+03  0.00000000000E+00 0.  1.
         21    1    1    2  505  501 -0.59930300804E+02 -0.95993343110E+02  0.59734977153E+03  0.60797459850E+03  0.00000000000E+00 0. -1.
         21    1    1    2  506  503  0.10633627315E+02  0.81901352671E+02 -0.16595518142E+03  0.18536997556E+03  0.00000000000E+00 0.  1.
<scales pt_clust_3="50.50504" pt_clust_4="60.19520" pt_clust_5="113.95919" pt_clust_6="50.50504"></scales>
<clustering>
<clus scale="   50.505">  3  6 -1 -1</clus>
<clus scale="   60.195">  2  4  1 -1</clus>
<clus scale="  113.959">  1  5  2 -1</clus>
<clus scale="  113.959">  1  3  2 -1</clus>
</clustering>
</event>
<event>
 6    0  0.8610502E+002  0.1285260E+03  0.7546771E-02  0.1229659E+00
         21   -1    0    0  505  501  0.00000000000E+00  0.00000000000E+00  0.63714958826E+03  0.63714958826E+03  0.00000000000E+00 0. -1.
         21   -1    0    0  506  502 -0.00000000000E+00 -0.00000000000E+00 -0.43268523778E+02  0.43268523778E+02  0.00000000000E+00 0. -1.
         21    1    1    2  503  504  0.89394447579E+02  0.49424574101E+02  0.14605337564E+03  0.17822947096E+03  0.00000000000E+00 0. -1.
         21    1    1    2  504  501  0.25999299216E+02  0.44485001123E+02  0.10771931974E+03  0.11940825235E+03  0.00000000000E+00 0.  1.
         21    1    1    2  505  502 -0.59997512631E+02 -0.91043873712E+02  0.28247965819E+03  0.30279274389E+03  0.00000000000E+00 0. -1.
         21    1    1    2  506  503 -0.55396234164E+02 -0.28657015120E+01  0.57628710919E+02  0.79987644839E+02  0.00000000000E+00 0. -1.
<scales pt_clust_3="32.17967" pt_clust_4="32.17967" pt_clust_5="120.27481" pt_clust_6="55.47031"></scales>
<clustering>
<clus scale="   32.180">  3  4 -1 -1</clus>
<clus scale="   55.470">  2  6  1 -1</clus>
<clus scale="  120.275">  1  5  2 -1</clus>
<clus scale="  120.275">  1  3  2 -1</clus>
</clustering>
</event>
<event>
 6    0  0.8610502E+002  0.1025930E+03  0.7546771E-02  0.1274936E+00
         21   -1    0    0  504  501  0.00000000000E+00  0.00000000000E+00  0.10957885968E+04  0.10957885968E+04  0.00000000000E+00 0.  1.
         21   -1    0    0  505  502 -0.00000000000E+00 -0.00000000000E+00 -0.12377275865E+03  0.12377275865E+03  0.00000000000E+00 0.  1.
         21    1    1    2  503  502  0.71114959676E+02 -0.40298425725E+02 -0.53777876474E+02  0.97843551672E+02  0.00000000000E+00 0.  1.
         21    1    1    2  504  503  0.43772881425E+01 -0.47157151323E+02  0.98778807880E+03  0.98892277059E+03  0.00000000000E+00 0.  1.
         21    1    1    2  505  506 -0.26204780696E+02  0.66104422001E+02  0.87897086875E+01  0.71650150860E+02  0.00000000000E+00 0. -1.
         21    1    1    2  506  501 -0.49287467122E+02  0.21351155047E+02  0.29215927159E+02  0.61144882345E+02  0.00000000000E+00 0. -1.
<scales pt_clust_3="87.65151" pt_clust_4="47.35987" pt_clust_5="46.33743" pt_clust_6="46.33743"></scales>
<clustering>
<clus scale="   46.337">  5  6 -1 -1</clus>
<clus scale="   47.360">  1  4  2 -1</clus>
<clus scale="   87.652">  2  3  1 -1</clus>
<clus scale="   47.360">  1  3  2 -1</clus>
</clustering>
</event>
<event>
 6    0  0.8610502E+002  0.9848960E+02  0.7546771E-02  0.1283505E+00
         21   -1    0    0  506  501  0.00000000000E+00  0.00000000000E+00  0.65641970672E+03  0.65641970672E+03  0.00000000000E+00 0.  1.
         21   -1    0    0  504  502 -0.00000000000E+00 -0.00000000000E+00 -0.13563409997E+04  0.13563409997E+04  0.00000000000E+00 0. -1.
         21    1    1    2  503  505 -0.45301938002E+02 -0.42835095192E+02 -0.99461835280E+02  0.11738725503E+03  0.00000000000E+00 0. -1.
         21    1    1    2  504  503 -0.16536534299E+02 -0.27835259417E+02 -0.15159590997E+03  0.15501476882E+03  0.00000000000E+00 0. -1.
         21    1    1    2  505  501  0.47811181104E+01  0.98627694011E+02  0.64104209978E+03  0.64860253993E+03  0.00000000000E+00 0.  1.
         21    1    1    2  506  502  0.57057354191E+02 -0.27957339402E+02 -0.10899056476E+04  0.10917561427E+04  0.00000000000E+00 0. -1.
<scales pt_clust_3="65.15810" pt_clust_4="32.37682" pt_clust_5="98.48960" pt_clust_6="14000.00000"></scales>
<clustering>
<clus scale="   32.377">  2  4  1 -1</clus>
<clus scale="   65.158">  2  3  1 -1</clus>
<clus scale="   98.490">  1  5  2 -1</clus>
<clus scale="   98.490">  1  3  2 -1</clus>
</clustering>
</event>
<event>
 6    0  0.8610502E+002  0.1647686E+03  0.7546771E-02  0.1183416E+00
         21   -1    0    0  503  501  0.00000000000E+00  0.00000000000E+00  0.22461285577E+03  0.22461285577E+03  0.00000000000E+00 0.  1.
         21   -1    0    0  506  502 -0.00000000000E+00 -0.00000000000E+00 -0.12710862739E+04  0.12710862739E+04  0.00000000000E+00 0.  1.
         21    1    1    2  503  504 -0.12763912702E+03 -0.87682630389E+01  0.17166385490E+03  0.21409602580E+03  0.00000000000E+00 0.  1.
         21    1    1    2  504  505  0.79448507329E+02 -0.32364799058E+01 -0.19424333595E+03  0.20988809800E+03  0.00000000000E+00 0.  1.
         21    1    1    2  505  502  0.14559563694E+03  0.61227049341E+02 -0.86277472670E+03  0.87711291753E+03  0.00000000000E+00 0.  1.
         21    1    1    2  506  501 -0.97405017247E+02 -0.49222306396E+02 -0.16111921040E+03  0.19460208836E+03  0.00000000000E+00 0.  1.
<scales pt_clust_3="129.89390" pt_clust_4="71.92607" pt_clust_5="71.92607" pt_clust_6="109.13557"></scales>
<clustering>
<clus scale="   71.926">  4  5 -1 -1</clus>
<clus scale="  109.136">  2  6  1 -1</clus>
<clus scale="  129.894">  1  3  2 -1</clus>
<clus scale="  129.894">  1  3  2 -1</clus>
</clustering>
</event>
<event>
 6    0  0.8610502E+002  0.1207214E+03  0.7546771E-02  0.1241912E+00
         21   -1    0    0  506  501  0.00000000000E+00  0.00000000000E+00  0.26982695870E+03  0.26982695870E+03  0.00000000000E+00 0.  1.
         21   -1    0    0  503  502 -0.00000000000E+00 -0.00000000000E+00 -0.40343263887E+03  0.40343263887E+03  0.00000000000E+00 0.  1.
         21    1    1    2  503  504  0.62009724943E+02 -0.25170322184E+01 -0.33710897493E+03  0.34277398153E+03  0.00000000000E+00 0.  1.
         21    1    1    2  504  505  0.20205884119E+02  0.31510473856E+02  0.66910166931E+01  0.38025746805E+02  0.00000000000E+00 0.  1.
         21    1    1    2  505  501 -0.30785305812E+02  0.74108088601E+02  0.22203194084E+02  0.83262991044E+02  0.00000000000E+00 0.  1.
         21    1    1    2  506  502 -0.51430303250E+02 -0.10310153024E+03  0.17460908399E+03  0.20919687818E+03  0.00000000000E+00 0.  1.
<scales pt_clust_3="62.06079" pt_clust_4="34.88460" pt_clust_5="34.88460" pt_clust_6="109.38361"></scales>
<clustering>
<clus scale="   34.885">  4  5 -1 -1</clus>
<clus scale="   62.061">  2  3  1 -1</clus>
<clus scale="  109.384">  1  6  2 -1</clus>
<clus scale="  109.384">  1  3  2 -1</clus>
</clustering>
</event>
<event>
 6    0  0.8610502E+002  0.1043948E+03  0.7546771E-02  0.1271317E+00
         21   -1    0    0  504  501  0.00000000000E+00  0.00000000000E+00  0.45658015182E+03  0.45658015182E+03  0.00000000000E+00 0. -1.
         21   -1    0    0  505  502 -0.00000000000E+00 -0.00000000000E+00 -0.20805157208E+03  0.20805157208E+03  0.00000000000E+00 0. -1.
         21    1    1    2  503  502 -0.85226224571E+02 -0.41403877046E+02  0.14204408865E+03  0.17074634260E+03  0.00000000000E+00 0. -1.
         21    1    1    2  504  503  0.70975464938E+01  0.29807387960E+02  0.25467392037E+03  0.25651054805E+03  0.00000000000E+00 0. -1.
         21    1    1    2  505  506  0.91634185755E+02  0.52038759099E+02 -0.16138377284E+03  0.19274225947E+03  0.00000000000E+00 0. -1.
         21    1    1    2  506  501 -0.13505507677E+02 -0.40442270013E+02  0.13194343558E+02  0.44632573792E+02  0.00000000000E+00 0.  1.
<scales pt_clust_3="104.39480" pt_clust_4="30.64075" pt_clust_5="14000.00000" pt_clust_6="38.24910"></scales>
<clustering>
<clus scale="   30.641">  1  4  2 -1</clus>
<clus scale="   38.249">  1  6  2 -1</clus>
<clus scale="  104.395">  1  3  2 -1</clus>
<clus scale="   30.641">  1  3  2 -1</clus>
</clustering>
</event>
<event>
 6    0  0.8610502E+002  0.1544991E+03  0.7546771E-02  0.1195051E+00
         21   -1    0    0  504  501  0.00000000000E+00  0.00000000000E+00  0.22804922465E+03  0.22804922465E+03  0.00000000000E+00 0.  1.
         21   -1    0    0  501  502 -0.00000000000E+00 -0.00000000000E+00 -0.67098242919E+03  0.67098242919E+03  0.00000000000E+00 0.  1.
         21    1    1    2  503  502 -0.30879566582E+02  0.72959417625E+02 -0.40960403392E+03  0.41719550436E+03  0.00000000000E+00 0.  1.
         21    1    1    2  504  506 -0.44454524416E+02 -0.14909407719E+03  0.18100480186E+03  0.23867967423E+03  0.00000000000E+00 0.  1.
         21    1    1    2  505  503  0.43662582510E+02  0.16049356281E+02 -0.97097575424E+02  0.10766588179E+03  0.00000000000E+00 0.  1.
         21    1    1    2  506  505  0.31671508488E+02  0.60085303287E+02 -0.11723639706E+03  0.13549059346E+03  0.00000000000E+00 0.  1.
<scales pt_clust_3="79.22515" pt_clust_4="148.84775" pt_clust_5="34.26536" pt_clust_6="34.26536"></scales>
<clustering>
<clus scale="   34.265">  5  6 -1 -1</clus>
<clus scale="   79.225">  2  3  1 -1</clus>
<clus scale="  148.848">  1  4  2 -1</clus>
<clus scale="  148.848">  1  3  2 -1</clus>
</clustering>
</event>
<event>
 6    0  0.8610502E+002  0.1634493E+03  0.7546771E-02  0.1184857E+00
         21   -1    0    0  504  501  0.00000000000E+00  0.00000000000E+00  0.12573682202E+03  0.12573682202E+03  0.00000000000E+00 0. -1.
         21   -1    0    0  506  502 -0.00000000000E+00 -0.00000000000E+00 -0.12916808148E+04  0.12916808148E+04  0.00000000000E+00 0. -1.
         21    1    1    2  503  505  0.31898625309E+02 -0.91505651806E+02  0.51316398399E+02  0.10965481911E+03  0.00000000000E+00 0. -1.
         21    1    1    2  504  502  0.27387249420E+02  0.17519468753E+03 -0.10863259959E+04  0.11007031431E+04  0.00000000000E+00 0. -1.
         21    1    1    2  505  501  0.18605659002E+02 -0.55561361237E+02 -0.84411020969E+01  0.59198712942E+02  0.00000000000E+00 0. -1.
         21    1    1    2  506  503 -0.77891533731E+02 -0.28127674490E+02 -0.12249329325E+03  0.14786096168E+03  0.00000000000E+00 0. -1.
<scales pt_clust_3="38.83149" pt_clust_4="155.63362" pt_clust_5="38.83149" pt_clust_6="82.81459"></scales>
<clustering>
<clus scale="   38.831">  3  5 -1 -1</clus>
<clus scale="   82.815">  2  6  1 -1</clus>
<clus scale="  155.634">  2  4  1 -1</clus>
<clus scale="  163.449">  1  3  2 -1</clus>
</clustering>
</event>
<event>
 6    0  0.8610502E+002  0.1393520E+03  0.7546771E-02  0.1214204E+00
         21   -1    0    0  505  501  0.00000000000E+00  0.00000000000E+00  0.17034069526E+03  0.17034069526E+03  0.00000000000E+00 0.  1.
         21   -1    0    0  503  502 -0.00000000000E+00 -0.00000000000E+00 -0.26461039112E+03  0.26461039112E+03  0.00000000000E+00 0.  1.
         21    1    1    2  503  506 -0.46596211080E+02 -0.92967031807E+01 -0.49802392402E+02  0.68832505882E+02  0.00000000000E+00 0.  1.
         21    1    1    2  504  501  0.57033486789E+02 -0.27853290708E+02  0.15768492407E+02  0.65400839225E+02  0.00000000000E+00 0.  1.
         21    1    1    2  505  502  0.38358522647E+02  0.11833329177E+03  0.67629893659E+02  0.14159077200E+03  0.00000000000E+00 0.  1.
         21    1    1    2  506  504 -0.48795798356E+02 -0.81183297877E+02 -0.12786568952E+03  0.15912696927E+03  0.00000000000E+00 0.  1.
<scales pt_clust_3="39.51893" pt_clust_4="63.47145" pt_clust_5="127.69366" pt_clust_6="39.51893"></scales>
<clustering>
<clus scale="   39.519">  3  6 -1 -1</clus>
<clus scale="   63.471">  1  4  2 -1</clus>
<clus scale="  127.694">  1  5  2 -1</clus>
<clus scale="   63.471">  1  3  2 -1</clus>
</clustering>
</event>
<event>
 6    0  0.8610502E+002  0.1320318E+03  0.7546771E-02  0.1224472E+00
         21   -1    0    0  504  501  0.00000000000E+00  0.00000000000E+00  0.12898287949E+04  0.12898287949E+04  0.00000000000E+00 0.  1.
         21   -1    0    0  506  502 -0.00000000000E+00 -0.00000000000E+00 -0.16948636293E+03  0.16948636293E+03  0.00000000000E+00 0.  1.
         21    1    1    2  503  501 -0.19576195278E+02 -0.32851296859E+02  0.65026503040E+03  0.65138855139E+03  0.00000000000E+00 0. -1.
         21    1    1    2  504  502 -0.94812967121E+01  0.10633427371E+03 -0.94190657088E+02  0.14236836950E+03  0.00000000000E+00 0.  1.
         21    1    1    2  505  503 -0.95428470258E+01 -0.10036648449E+03  0.59878502731E+03  0.60721331184E+03  0.00000000000E+00 0.  1.
         21    1    1    2  506  505  0.38600339016E+02  0.26883507639E+02 -0.34516968677E+02  0.58344925073E+02  0.00000000000E+00 0.  1.
<scales pt_clust_3="38.24180" pt_clust_4="132.03184" pt_clust_5="14000.00000" pt_clust_6="46.39081"></scales>
<clustering>
<clus scale="   38.242">  1  3  2 -1</clus>
<clus scale="   46.391">  2  6  1 -1</clus>
<clus scale="  132.032">  2  4  1 -1</clus>
<clus scale="   38.242">  1  3  2 -1</clus>
</clustering>
</event>
<event>
 6    0  0.8610502E+002  0.1019105E+03  0.7546771E-02  0.1276329E+00
         21   -1    0    0  506  501  0.00000000000E+00  0.00000000000E+00  0.17588326617E+03  0.17588326617E+03  0.00000000000E+00 0. -1.
         21   -1    0    0  505  502 -0.00000000000E+00 -0.00000000000E+00 -0.77519328706E+03  0.77519328706E+03  0.00000000000E+00 0.  1.
         21    1    1    2  503  502 -0.80136112261E+01 -0.44586867374E+02 -0.67006523076E+03  0.67159483335E+03  0.00000000000E+00 0.  1.
         21    1    1    2  504  501  0.76360787701E+01  0.33685563611E+02 -0.25210914481E+02  0.42762332768E+02  0.00000000000E+00 0. -1.
         21    1    1    2  505  504 -0.88832137942E+01 -0.85420359350E+02 -0.17446657102E+02  0.87635239047E+02  0.00000000000E+00 0. -1.
         21    1    1    2  506  503  0.92607462503E+01  0.96321663114E+02  0.11341278146E+03  0.14908414806E+03  0.00000000000E+00 0. -1.
<scales pt_clust_3="45.14337" pt_clust_4="34.54022" pt_clust_5="101.91052" pt_clust_6="14000.00000"></scales>
<clustering>
<clus scale="   34.540">  1  4  2 -1</clus>
<clus scale="   45.143">  2  3  1 -1</clus>
<clus scale="  101.911">  2  5  1 -1</clus>
<clus scale="   34.540">  1  3  2 -1</clus>
</clustering>
</event>
<event>
 6    0  0.8610502E+002  0.1662171E+03  0.7546771E-02  0.1181851E+00
         21   -1    0    0  503  501  0.00000000000E+00  0.00000000000E+00  0.38950497489E+03  0.38950497489E+03  0.00000000000E+00 0. -1.
         21   -1    0    0  506  502 -0.00000000000E+00 -0.00000000000E+00 -0.32819996804E+03  0.32819996804E+03  0.00000000000E+00 0. -1.
         21    1    1    2  503  502 -0.37017933230E+02 -0.14825575701E+02 -0.11838254149E+03  0.12491817804E+03  0.00000000000E+00 0. -1.
         21    1    1    2  504  501  0.51590773074E+02 -0.44214553655E+02  0.20279323035E+03  0.21387292698E+03  0.00000000000E+00 0. -1.
         21    1    1    2  505  504 -0.18774786658E+03  0.46655038273E+02  0.33426620039E+02  0.19632445831E+03  0.00000000000E+00 0. -1.
         21    1    1    2  506  505  0.17317502674E+03  0.12385091083E+02 -0.56532302051E+02  0.18258937960E+03  0.00000000000E+00 0. -1.
<scales pt_clust_3="39.87637" pt_clust_4="67.45663" pt_clust_5="14000.00000" pt_clust_6="166.21714"></scales>
<clustering>
<clus scale="   39.876">  2  3  1 -1</clus>
<clus scale="   67.457">  1  4  2 -1</clus>
<clus scale="  166.217">  2  6  1 -1</clus>
<clus scale="   67.457">  1  3  2 -1</clus>
</clustering>
</event>
<event>
 6    0  0.1041409E+003  0.1664904E+03  0.7546771E-02  0.1181558E+00
         21   -1    0    0  504  501  0.00000000000E+00  0.00000000000E+00  0.83982133622E+03  0.83982133622E+03  0.00000000000E+00 0. -1.
         21   -1    0    0  503  502 -0.00000000000E+00 -0.00000000000E+00 -0.20620963787E+04  0.20620963787E+04  0.00000000000E+00 0. -1.
         21    1    1    2  503  501 -0.88981223185E+02  0.53786406181E+02  0.10086048735E+02  0.10446226088E+03  0.00000000000E+00 0. -1.
         21    1    1    2  504  505  0.91923231060E+02 -0.93328326350E+02  0.64126759409E+03  0.65451064478E+03  0.00000000000E+00 0. -1.
         21    1    1    2  505  506  0.12466574105E+02 -0.42219285587E+02  0.13017378624E+03  0.13741578574E+03  0.00000000000E+00 0. -1.
         21    1    1    2  506  502 -0.15408581979E+02  0.81761205757E+02 -0.20038024716E+04  0.20055290235E+04  0.00000000000E+00 0. -1.
<scales pt_clust_3="157.99929" pt_clust_4="30.42883" pt_clust_5="30.42883" pt_clust_6="83.20048"></scales>
<clustering>
<clus scale="   30.429">  4  5 -1 -1</clus>
<clus scale="   83.200">  2  6  1 -1</clus>
<clus scale="  157.999">  2  3  1 -1</clus>
<clus scale="  166.490">  1  3  2 -1</clus>
</clustering>
</event>
<event>
 6    0  0.8610502E+002  0.1494594E+03  0.7546771E-02  0.1201139E+00
         21   -1    0    0  502  501  0.00000000000E+00  0.00000000000E+00  0.10275349645E+04  0.10275349645E+04  0.00000000000E+00 0.  1.
         21   -1    0    0  503  502 -0.00000000000E+00 -0.00000000000E+00 -0.30474747445E+03  0.30474747445E+03  0.00000000000E+00 0.  1.
         21    1    1    2  503  506  0.26539550801E+02 -0.18230704903E+02 -0.26753118053E+03  0.26946175779E+03  0.00000000000E+00 0.  1.
         21    1    1    2  504  505  0.37010269225E+02 -0.68367098237E+02  0.92843012305E+02  0.12109353857E+03  0.00000000000E+00 0.  1.
         21    1    1    2  505  501 -0.83699258328E+02  0.12150635776E+03  0.88819453033E+03  0.90036597255E+03  0.00000000000E+00 0.  1.
         21    1    1    2  506  504  0.20149438302E+02 -0.34908554624E+02  0.92811279152E+01  0.41361170018E+02  0.00000000000E+00 0.  1.
<scales pt_clust_3="32.19792" pt_clust_4="34.91136" pt_clust_5="142.50967" pt_clust_6="34.91136"></scales>
<clustering>
<clus scale="   32.198">  2  3  1 -1</clus>
<clus scale="   34.911">  4  6 -1 -1</clus>
<clus scale="  142.510">  1  5  2 -1</clus>
<clus scale="  142.510">  1  3  2 -1</clus>
</clustering>
</event>
<event>
 6    0  0.8610502E+002  0.2117422E+03  0.7546771E-02  0.1140194E+00
         21   -1    0    0  506  501  0.00000000000E+00  0.00000000000E+00  0.17261079971E+04  0.17261079971E+04  0.00000000000E+00 0.  1.
         21   -1    0    0  505  502 -0.00000000000E+00 -0.00000000000E+00 -0.16669162629E+04  0.16669162629E+04  0.00000000000E+00 0. -1.
         21    1    1    2  503  504 -0.63913105061E+02  0.38475640688E+02 -0.35051829919E+03  0.35836899698E+03  0.00000000000E+00 0.  1.
         21    1    1    2  504  502 -0.93362800609E+02  0.79813234638E+02 -0.12775493418E+04  0.12834403319E+04  0.00000000000E+00 0. -1.
         21    1    1    2  505  501  0.13311319199E+03 -0.48198476781E+02  0.16688249356E+04  0.16748190591E+04  0.00000000000E+00 0.  1.
         21    1    1    2  506  503  0.24162713677E+02 -0.70090398544E+02  0.18434439531E+02  0.76395872016E+02  0.00000000000E+00 0.  1.
<scales pt_clust_3="61.39264" pt_clust_4="61.39264" pt_clust_5="196.54283" pt_clust_6="74.13839"></scales>
<clustering>
<clus scale="   61.393">  3  4 -1 -1</clus>
<clus scale="   74.138">  1  6  2 -1</clus>
<clus scale="  196.543">  1  5  2 -1</clus>
<clus scale="   74.138">  1  3  2 -1</clus>
</clustering>
</event>
<event>
 6    0  0.8610502E+002  0.1495363E+03  0.7546771E-02  0.1201044E+00
         21   -1    0    0  506  501  0.00000000000E+00  0.00000000000E+00  0.82415563042E+03  0.82415563042E+03  0.00000000000E+00 0.  1.
         21   -1    0    0  504  502 -0.00000000000E+00 -0.00000000000E+00 -0.69766098666E+02  0.69766098666E+02  0.00000000000E+00 0.  1.
         21    1    1    2  503  502 -0.39638555714E+02 -0.27264692825E+02 -0.24605278610E+02  0.54037008701E+02  0.00000000000E+00 0.  1.
         21    1    1    2  504  501  0.69936416428E+02  0.12931466755E+03  0.62491936079E+03  0.64197943353E+03  0.00000000000E+00 0.  1.
         21    1    1    2  505  503  0.18188810140E+02 -0.48888224020E+02  0.61011292659E+02  0.80269976293E+02  0.00000000000E+00 0.  1.
         21    1    1    2  506  505 -0.48486670854E+02 -0.53161750704E+02  0.93064156915E+02  0.11763531056E+03  0.00000000000E+00 0.  1.
<scales pt_clust_3="48.11007" pt_clust_4="135.15177" pt_clust_5="51.00494" pt_clust_6="51.00494"></scales>
<clustering>
<clus scale="   48.110">  2  3  1 -1</clus>
<clus scale="   51.005">  5  6 -1 -1</clus>
<clus scale="  135.152">  1  4  2 -1</clus>
<clus scale="  135.152">  1  3  2 -1</clus>
</clustering>
</event>
<event>
 6    0  0.8610502E+002  0.5879734E+02  0.7546771E-02  0.1402949E+00
         21   -1    0    0  503  501  0.00000000000E+00  0.00000000000E+00  0.13486711319E+03  0.13486711319E+03  0.00000000000E+00 0. -1.
         21   -1    0    0  505  502 -0.00000000000E+00 -0.00000000000E+00 -0.11162949314E+04  0.11162949314E+04  0.00000000000E+00 0.  1.
         21    1    1    2  503  504 -0.28014340298E+02  0.50909217220E+02  0.11495830514E+03  0.12880979614E+03  0.00000000000E+00 0. -1.
         21    1    1    2  504  502  0.58957396075E+02 -0.67695832188E+02 -0.28456150366E+03  0.29838557206E+03  0.00000000000E+00 0.  1.
         21    1    1    2  505  506 -0.34479379000E+02 -0.46578693019E+02 -0.60124946204E+03  0.60403585806E+03  0.00000000000E+00 0.  1.
         21    1    1    2  506  501  0.35363232234E+01  0.63365307987E+02 -0.21057515766E+03  0.21993081835E+03  0.00000000000E+00 0.  1.
<scales pt_clust_3="14000.00000" pt_clust_4="58.79734" pt_clust_5="57.95172" pt_clust_6="45.18349"></scales>
<clustering>
<clus scale="   57.952">  2  5  1 -1</clus>
<clus scale="   45.183">  2  6  1 -1</clus>
<clus scale="   58.797">  2  4  1 -1</clus>
<clus scale="   58.797">  1  3  2 -1</clus>
</clustering>
</event>
<event>
 6    0  0.8610502E+002  0.1024950E+03  0.7546771E-02  0.1275135E+00
         21   -1    0    0  503  501  0.00000000000E+00  0.00000000000E+00  0.27694565745E+03  0.27694565745E+03  0.00000000000E+00 0. -1.
         21   -1    0    0  504  502 -0.00000000000E+00 -0.00000000000E+00 -0.14780294521E+03  0.14780294521E+03  0.00000000000E+00 0. -1.
         21    1    1    2  503  505 -0.77629455750E+02  0.54138960096E+02  0.11204023200E+03  0.14666415031E+03  0.00000000000E+00 0. -1.
         21    1    1    2  504  506  0.10179316495E+03 -0.53113500728E+00 -0.42340627952E+02  0.11024907850E+03  0.00000000000E+00 0. -1.
         21    1    1    2  505  502  0.18339134150E+02  0.37909906664E+02 -0.12476923825E+02  0.43922186794E+02  0.00000000000E+00 0.  1.
         21    1    1    2  506  501 -0.42502843352E+02 -0.91517731753E+02  0.71920032015E+02  0.12391318704E+03  0.00000000000E+00 0. -1.
<scales pt_clust_3="102.49498" pt_clust_4="14000.00000" pt_clust_5="42.11276" pt_clust_6="91.75360"></scales>
<clustering>
<clus scale="   42.113">  2  5  1 -1</clus>
<clus scale="   91.754">  1  6  2 -1</clus>
<clus scale="  102.495">  1  3  2 -1</clus>
<clus scale="   91.754">  1  3  2 -1</clus>
</clustering>
</event>
<event>
 6    0  0.8610502E+002  0.1467328E+03  0.7546771E-02  0.1204546E+00
         21   -1    0    0  503  501  0.00000000000E+00  0.00000000000E+00  0.17433326682E+03  0.17433326682E+03  0.00000000000E+00 0.  1.
         21   -1    0    0  505  502 -0.00000000000E+00 -0.00000000000E+00 -0.14201158649E+04  0.14201158649E+04  0.00000000000E+00 0.  1.
         21    1    1    2  503  502 -0.15024289935E+03 -0.67138318640E+01 -0.12973485327E+04  0.13060364542E+04  0.00000000000E+00 0.  1.
         21    1    1    2  504  506  0.37347921929E+02  0.30532060683E+02  0.18379470816E+02  0.51622465550E+02  0.00000000000E+00 0. -1.
         21    1    1    2  505  504  0.11635160644E+03  0.16164639344E+02 -0.62476669682E+02  0.13305008885E+03  0.00000000000E+00 0. -1.
         21    1    1    2  506  501 -0.34566290269E+01 -0.39982868163E+02  0.95663133511E+02  0.10374012311E+03  0.00000000000E+00 0.  1.
<scales pt_clust_3="14000.00000" pt_clust_4="37.61904" pt_clust_5="146.73283" pt_clust_6="40.13201"></scales>
<clustering>
<clus scale="   40.132">  1  6  2 -1</clus>
<clus scale="   37.619">  1  4  2 -1</clus>
<clus scale="  146.733">  1  5  2 -1</clus>
<clus scale="   40.132">  1  3  2 -1</clus>
</clustering>
</event>
<event>
 6    0  0.8610502E+002  0.1308609E+03  0.7546771E-02  0.1226184E+00
         21   -1    0    0  505  501  0.00000000000E+00  0.00000000000E+00  0.72990463609E+03  0.72990463609E+03  0.00000000000E+00 0.  1.
         21   -1    0    0  504  502 -0.00000000000E+00 -0.00000000000E+00 -0.52726603980E+03  0.52726603980E+03  0.00000000000E+00 0. -1.
         21    1    1    2  503  501  0.86956625771E+02  0.11984734934E+03 -0.26035384173E+03  0.29951454858E+03  0.00000000000E+00 0. -1.
         21    1    1    2  504  503  0.29884103213E+02 -0.17127724587E+02 -0.18894106359E+03  0.19205505483E+03  0.00000000000E+00 0. -1.
         21    1    1    2  505  506 -0.71469912246E+02 -0.10917711393E+03  0.69232408041E+03  0.70451417508E+03  0.00000000000E+00 0.  1.
         21    1    1    2  506  502 -0.45370816738E+02  0.64574891812E+01 -0.40390578802E+02  0.61086897400E+02  0.00000000000E+00 0. -1.
<scales pt_clust_3="130.86088" pt_clust_4="34.44443" pt_clust_5="14000.00000" pt_clust_6="41.05185"></scales>
<clustering>
<clus scale="   34.444">  2  4  1 -1</clus>
<clus scale="   41.052">  2  6  1 -1</clus>
<clus scale="  130.861">  2  3  1 -1</clus>
<clus scale="  130.861">  1  3  2 -1</clus>
</clustering>
</event>
<event>
 6    0  0.8610502E+002  0.1220484E+03  0.7546771E-02  0.1239756E+00
         21   -1    0    0  503  501  0.00000000000E+00  0.00000000000E+00  0.18144193450E+03  0.18144193450E+03  0.00000000000E+00 0. -1.
         21   -1    0    0  506  502 -0.00000000000E+00 -0.00000000000E+00 -0.14279897220E+03  0.14279897220E+03  0.00000000000E+00 0. -1.
         21    1    1    2  503  505 -0.15577362151E+02  0.65246485813E+02  0.53634744995E+02  0.85886227029E+02  0.00000000000E+00 0. -1.
         21    1    1    2  504  501 -0.73574055653E+01 -0.38331814883E+02  0.20526133704E+02  0.44099678159E+02  0.00000000000E+00 0. -1.
         21    1    1    2  505  502  0.75909307344E+01  0.76629020729E+02  0.14315684269E+02  0.78323482197E+02  0.00000000000E+00 0. -1.
         21    1    1    2  506  504  0.15343836982E+02 -0.10354369166E+03 -0.49833600663E+02  0.11593151932E+03  0.00000000000E+00 0. -1.
<scales pt_clust_3="41.13792" pt_clust_4="39.03152" pt_clust_5="41.13792" pt_clust_6="112.87465"></scales>
<clustering>
<clus scale="   39.032">  1  4  2 -1</clus>
<clus scale="   41.138">  3  5 -1 -1</clus>
<clus scale="  112.875">  2  6  1 -1</clus>
<clus scale="   39.032">  1  3  2 -1</clus>
</clustering>
</event>
<event>
 6    0  0.8610502E+002  0.8182936E+02  0.7546771E-02  0.1323939E+00
         21   -1    0    0  504  501  0.00000000000E+00  0.00000000000E+00  0.13149036088E+04  0.13149036088E+04  0.00000000000E+00 0. -1.
         21   -1    0    0  505  502 -0.00000000000E+00 -0.00000000000E+00 -0.25072265808E+02  0.25072265808E+02  0.00000000000E+00 0. -1.
         21    1    1    2  503  501 -0.85388116403E+02 -0.37785255365E+02  0.75229080026E+03  0.75806352247E+03  0.00000000000E+00 0. -1.
         21    1    1    2  504  506  0.51747999570E+02  0.47357137161E+02  0.34912124415E+03  0.35609857767E+03  0.00000000000E+00 0. -1.
         21    1    1    2  505  503 -0.31678580780E+02 -0.36317874566E+02  0.11121646942E+03  0.12120900776E+03  0.00000000000E+00 0. -1.
         21    1    1    2  506  502  0.65318697614E+02  0.26745992770E+02  0.77202829175E+02  0.10460476672E+03  0.00000000000E+00 0. -1.
<scales pt_clust_3="14000.00000" pt_clust_4="81.82936" pt_clust_5="48.19254" pt_clust_6="43.74345"></scales>
<clustering>
<clus scale="   48.193">  2  5  1 -1</clus>
<clus scale="   43.743">  2  6  1 -1</clus>
<clus scale="   81.829">  2  4  1 -1</clus>
<clus scale="   81.829">  1  3  2 -1</clus>
</clustering>
</event>
<event>
 6    0  0.8610502E+002  0.1116630E+03  0.7546771E-02  0.1257521E+00
         21   -1    0    0  504  501  0.00000000000E+00  0.00000000000E+00  0.17616499493E+03  0.17616499493E+03  0.00000000000E+00 0.  1.
         21   -1    0    0  503  502 -0.00000000000E+00 -0.00000000000E+00 -0.46203170337E+03  0.46203170337E+03  0.00000000000E+00 0. -1.
         21    1    1    2  503  506  0.57274160218E+02  0.72571669518E+02 -0.38247025864E+03  0.39348503833E+03  0.00000000000E+00 0. -1.
         21    1    1    2  504  502  0.44430624997E+02  0.96322002604E+01 -0.24627902282E+02  0.51704867182E+02  0.00000000000E+00 0. -1.
         21    1    1    2  505  501 -0.31172480666E+02 -0.46968966445E+02  0.93972712760E+02  0.10958411428E+03  0.00000000000E+00 0.  1.
         21    1    1    2  506  505 -0.70532304549E+02 -0.35234903333E+02  0.27258739717E+02  0.83422678504E+02  0.00000000000E+00 0.  1.
<scales pt_clust_3="111.66296" pt_clust_4="45.46273" pt_clust_5="55.77485" pt_clust_6="14000.00000"></scales>
<clustering>
<clus scale="   45.463">  2  4  1 -1</clus>
<clus scale="   55.775">  1  5  2 -1</clus>
<clus scale="  111.663">  2  3  1 -1</clus>
<clus scale="   55.775">  1  3  2 -1</clus>
</clustering>
</event>
<event>
 6    0  0.8610502E+002  0.1104247E+03  0.7546771E-02  0.1259786E+00
         21   -1    0    0  503  501  0.00000000000E+00  0.00000000000E+00  0.14699429273E+03  0.14699429273E+03  0.00000000000E+00 0.  1.
         21   -1    0    0  506  502 -0.00000000000E+00 -0.00000000000E+00 -0.82066803571E+03  0.82066803571E+03  0.00000000000E+00 0. -1.
         21    1    1    2  503  505  0.11216301906E+02 -0.34845569325E+02  0.10871666274E+03  0.11471413116E+03  0.00000000000E+00 0.  1.
         21    1    1    2  504  502 -0.85352167217E+02  0.40149906278E+02 -0.28672315420E+03  0.30183965044E+03  0.00000000000E+00 0. -1.
         21    1    1    2  505  504  0.33998969819E+02 -0.10187454100E+03 -0.11947503884E+03  0.16065066747E+03  0.00000000000E+00 0. -1.
         21    1    1    2  506  501  0.40136895493E+02  0.96570204045E+02 -0.37619221268E+03  0.39045787938E+03  0.00000000000E+00 0. -1.
<scales pt_clust_3="36.60627" pt_clust_4="89.15626" pt_clust_5="110.42466" pt_clust_6="14000.00000"></scales>
<clustering>
<clus scale="   36.606">  1  3  2 -1</clus>
<clus scale="   89.156">  2  4  1 -1</clus>
<clus scale="  110.425">  1  5  2 -1</clus>
<clus scale="   36.606">  1  3  2 -1</clus>
</clustering>
</event>
<event>
 6    0  0.8610502E+002  0.1376796E+03  0.7546771E-02  0.1216486E+00
         21   -1    0    0  503  501  0.00000000000E+00  0.00000000000E+00  0.53241465504E+03  0.53241465504E+03  0.00000000000E+00 0.  1.
         21   -1    0    0  505  502 -0.00000000000E+00 -0.00000000000E+00 -0.53729593188E+03  0.53729593188E+03  0.00000000000E+00 0.  1.
         21    1    1    2  503  502 -0.15789054227E+02 -0.38085622758E+02 -0.31128247646E+01  0.41346082914E+02  0.00000000000E+00 0.  1.
         21    1    1    2  504  501 -0.13515250935E+03 -0.30462591548E+02  0.48576759895E+03  0.50513793211E+03  0.00000000000E+00 0.  1.
         21    1    1    2  505  506  0.52640621150E+02  0.42779545958E+02 -0.88793399305E+02  0.11173805219E+03  0.00000000000E+00 0.  1.
         21    1    1    2  506  504  0.98300942430E+02  0.25768668348E+02 -0.39874265172E+03  0.41148851971E+03  0.00000000000E+00 0.  1.
<scales pt_clust_3="41.22874" pt_clust_4="137.67956" pt_clust_5="60.89019" pt_clust_6="14000.00000"></scales>
<clustering>
<clus scale="   41.229">  2  3  1 -1</clus>
<clus scale="   60.890">  2  5  1 -1</clus>
<clus scale="  137.680">  1  4  2 -1</clus>
<clus scale="  137.680">  1  3  2 -1</clus>
</clustering>
</event>
<event>
 6    0  0.8610502E+002  0.1383329E+03  0.7546771E-02  0.1215590E+00
         21   -1    0    0  504  501  0.00000000000E+00  0.00000000000E+00  0.30343008909E+03  0.30343008909E+03  0.00000000000E+00 0. -1.
         21   -1    0    0  506  502 -0.00000000000E+00 -0.00000000000E+00 -0.28466695087E+03  0.28466695087E+03  0.00000000000E+00 0.  1.
         21    1    1    2  503  502 -0.62260893099E+02 -0.20367182898E+01 -0.17963737310E+03  0.19013193536E+03  0.00000000000E+00 0.  1.
         21    1    1    2  504  505  0.12259197510E+03 -0.51748594871E+02  0.25366642657E+03  0.28644958614E+03  0.00000000000E+00 0. -1.
         21    1    1    2  505  503 -0.38473229901E+02  0.41991582424E+01 -0.38983787535E+02  0.54932304152E+02  0.00000000000E+00 0.  1.
         21    1    1    2  506  501 -0.21857852100E+02  0.49586154919E+02 -0.16282127718E+02  0.56583214305E+02  0.00000000000E+00 0.  1.
<scales pt_clust_3="36.19956" pt_clust_4="130.48659" pt_clust_5="36.19956" pt_clust_6="54.18997"></scales>
<clustering>
<clus scale="   36.200">  3  5 -1 -1</clus>
<clus scale="   54.190">  2  6  1 -1</clus>
<clus scale="  130.487">  1  4  2 -1</clus>
<clus scale="  130.487">  1  3  2 -1</clus>
</clustering>
</event>
<event>
 6    0  0.8610502E+002  0.2070603E+03  0.7546771E-02  0.1143915E+00
         21   -1    0    0  506  501  0.00000000000E+00  0.00000000000E+00  0.24908598900E+03  0.24908598900E+03  0.00000000000E+00 0.  1.
         21   -1    0    0  503  502 -0.00000000000E+00 -0.00000000000E+00 -0.44081710657E+03  0.44081710657E+03  0.00000000000E+00 0.  1.
         21    1    1    2  503  505  0.13765388355E+02  0.29456371627E+02 -0.26973712745E+03  0.27168967899E+03  0.00000000000E+00 0.  1.
         21    1    1    2  504  502 -0.82777542021E+02  0.57581207446E+02  0.35449908228E+02  0.10688504529E+03  0.00000000000E+00 0. -1.
         21    1    1    2  505  501  0.16692093281E+03 -0.11864828627E+03  0.38383401773E+02  0.20835858316E+03  0.00000000000E+00 0.  1.
         21    1    1    2  506  504 -0.97908779148E+02  0.31610707195E+02  0.41726998769E+01  0.10296978813E+03  0.00000000000E+00 0.  1.
<scales pt_clust_3="32.51405" pt_clust_4="43.18525" pt_clust_5="202.50332" pt_clust_6="43.18525"></scales>
<clustering>
<clus scale="   32.514">  2  3  1 -1</clus>
<clus scale="   43.185">  4  6 -1 -1</clus>
<clus scale="  202.503">  2  5  1 -1</clus>
<clus scale="  207.060">  1  3  2 -1</clus>
</clustering>
</event>
<event>
 6    0  0.8610502E+002  0.8515731E+02  0.7546771E-02  0.1315022E+00
         21   -1    0    0  503  501  0.00000000000E+00  0.00000000000E+00  0.82059054564E+02  0.82059054564E+02  0.00000000000E+00 0.  1.
         21   -1    0    0  504  502 -0.00000000000E+00 -0.00000000000E+00 -0.72875479188E+03  0.72875479188E+03  0.00000000000E+00 0.  1.
         21    1    1    2  503  502  0.25479413159E+02  0.87941647192E+02 -0.33928401264E+02  0.97642563557E+02  0.00000000000E+00 0.  1.
         21    1    1    2  504  505  0.23588428399E+02  0.19553208716E+02 -0.56588538116E+03  0.56671421946E+03  0.00000000000E+00 0.  1.
         21    1    1    2  505  506 -0.20074555614E+01 -0.85943432064E+02 -0.37780807876E+02  0.93902570980E+02  0.00000000000E+00 0.  1.
         21    1    1    2  506  501 -0.47060385996E+02 -0.21551423844E+02 -0.91011470181E+01  0.52554492452E+02  0.00000000000E+00 0.  1.
<scales pt_clust_3="85.15731" pt_clust_4="30.63890" pt_clust_5="14000.00000" pt_clust_6="46.17048"></scales>
<clustering>
<clus scale="   30.639">  2  4  1 -1</clus>
<clus scale="   46.170">  1  6  2 -1</clus>
<clus scale="   85.157">  1  3  2 -1</clus>
<clus scale="   46.170">  1  3  2 -1</clus>
</clustering>
</event>
<event>
 6    0  0.8610502E+002  0.1217984E+03  0.7546771E-02  0.1240159E+00
         21   -1    0    0  504  501  0.00000000000E+00  0.00000000000E+00  0.26464105799E+03  0.26464105799E+03  0.00000000000E+00 0. -1.
         21   -1    0    0  506  502 -0.00000000000E+00 -0.00000000000E+00 -0.33142586540E+03  0.33142586540E+03  0.00000000000E+00 0.  1.
         21    1    1    2  503  505 -0.55821787245E+02 -0.82045815893E+02  0.31491069066E+02  0.10411184019E+03  0.00000000000E+00 0.  1.
         21    1    1    2  504  503 -0.48510387835E+01 -0.62060324267E+02  0.23286226148E+02  0.66462506375E+02  0.00000000000E+00 0.  1.
         21    1    1    2  505  502  0.44242924441E+02  0.10142775851E+03 -0.25846316099E+03  0.28115517450E+03  0.00000000000E+00 0.  1.
         21    1    1    2  506  501  0.16429901588E+02  0.42678381649E+02  0.13690105837E+03  0.14433740232E+03  0.00000000000E+00 0. -1.
<scales pt_clust_3="32.14550" pt_clust_4="32.14550" pt_clust_5="114.83709" pt_clust_6="45.73167"></scales>
<clustering>
<clus scale="   32.146">  3  4 -1 -1</clus>
<clus scale="   45.732">  1  6  2 -1</clus>
<clus scale="  114.837">  2  5  1 -1</clus>
<clus scale="   45.732">  1  3  2 -1</clus>
</clustering>
</event>
<event>
 6    0  0.8610502E+002  0.2019922E+03  0.7546771E-02  0.1148069E+00
         21   -1    0    0  503  501  0.00000000000E+00  0.00000000000E+00  0.18339248184E+04  0.18339248184E+04  0.00000000000E+00 0.  1.
         21   -1    0    0  506  502 -0.00000000000E+00 -0.00000000000E+00 -0.83174866223E+03  0.83174866223E+03  0.00000000000E+00 0.  1.
         21    1    1    2  503  504  0.21688701862E+02 -0.22557173802E+02  0.81639777467E+03  0.81699727807E+03  0.00000000000E+00 0.  1.
         21    1    1    2  504  505  0.62567204869E+01 -0.60722542839E+02  0.16203562862E+03  0.17315287668E+03  0.00000000000E+00 0.  1.
         21    1    1    2  505  502 -0.96632372583E+02 -0.10775750244E+03  0.83080559610E+03  0.84331929497E+03  0.00000000000E+00 0.  1.
         21    1    1    2  506  501  0.68686950235E+02  0.19103721908E+03 -0.80706284320E+03  0.83220403092E+03  0.00000000000E+00 0.  1.
<scales pt_clust_3="31.29259" pt_clust_4="65.18444" pt_clust_5="14000.00000" pt_clust_6="201.99216"></scales>
<clustering>
<clus scale="   31.293">  1  3  2 -1</clus>
<clus scale="   65.184">  1  4  2 -1</clus>
<clus scale="  201.992">  2  6  1 -1</clus>
<clus scale="   31.293">  1  3  2 -1</clus>
</clustering>
</event>
<event>
 6    0  0.8610502E+002  0.1053822E+03  0.7546771E-02  0.1269368E+00
         21   -1    0    0  503  501  0.00000000000E+00  0.00000000000E+00  0.92767289369E+02  0.92767289369E+02  0.00000000000E+00 0.  1.
         21   -1    0    0  504  502 -0.00000000000E+00 -0.00000000000E+00 -0.44072365644E+03  0.44072365644E+03  0.00000000000E+00 0.  1.
         21    1    1    2  503  506 -0.96221563952E+01 -0.30801005256E+02 -0.14983892044E+02  0.35578151150E+02  0.00000000000E+00 0.  1.
         21    1    1    2  504  501  0.77329746038E+02  0.35690761937E+02  0.32904447207E+02  0.91304012814E+02  0.00000000000E+00 0.  1.
         21    1    1    2  505  502  0.19856042232E+02  0.43372924531E+02 -0.24565632312E+03  0.25024488424E+03  0.00000000000E+00 0.  1.
         21    1    1    2  506  505 -0.87563631876E+02 -0.48262681211E+02 -0.12022059911E+03  0.15636389761E+03  0.00000000000E+00 0.  1.
<scales pt_clust_3="30.41009" pt_clust_4="90.77472" pt_clust_5="47.70192" pt_clust_6="30.41009"></scales>
<clustering>
<clus scale="   30.410">  3  6 -1 -1</clus>
<clus scale="   47.702">  2  5  1 -1</clus>
<clus scale="   90.775">  1  4  2 -1</clus>
<clus scale="   90.775">  1  3  2 -1</clus>
</clustering>
</event>
<event>
 6    0  0.8610502E+002  0.1149930E+03  0.7546771E-02  0.1251593E+00
         21   -1    0    0  506  501  0.00000000000E+00  0.00000000000E+00  0.31460387324E+02  0.31460387324E+02  0.00000000000E+00 0. -1.
         21   -1    0    0  504  502 -0.00000000000E+00 -0.00000000000E+00 -0.11217316016E+04  0.11217316016E+04  0.00000000000E+00 0. -1.
         21    1    1    2  503  505 -0.41023025376E+02  0.11592094654E+03 -0.28021289236E+03  0.30600624096E+03  0.00000000000E+00 0. -1.
         21    1    1    2  504  501  0.41802298483E+02  0.21104649820E+02 -0.11103743732E+03  0.12050788725E+03  0.00000000000E+00 0. -1.
         21    1    1    2  505  502 -0.37660261881E+02 -0.11332878556E+03 -0.65014752635E+03  0.66102459484E+03  0.00000000000E+00 0. -1.
         21    1    1    2  506  503  0.36880988775E+02 -0.23696810804E+02 -0.48873358255E+02  0.65653265893E+02  0.00000000000E+00 0. -1.
<scales pt_clust_3="14000.00000" pt_clust_4="51.97475" pt_clust_5="114.99296" pt_clust_6="43.83773"></scales>
<clustering>
<clus scale="   43.838">  1  6  2 -1</clus>
<clus scale="   51.975">  1  4  2 -1</clus>
<clus scale="  114.993">  2  5  1 -1</clus>
<clus scale="   43.838">  1  3  2 -1</clus>
</clustering>
</event>
<event>
 6    0  0.8610502E+002  0.9538491E+02  0.7546771E-02  0.1290312E+00
         21   -1    0    0  506  501  0.00000000000E+00  0.00000000000E+00  0.70495012234E+03  0.70495012234E+03  0.00000000000E+00 0.  1.
         21   -1    0    0  504  502 -0.00000000000E+00 -0.00000000000E+00 -0.16167053486E+03  0.16167053486E+03  0.00000000000E+00 0.  1.
         21    1    1    2  503  501  0.36079088416E+02  0.78325339774E+01  0.51621984241E+03  0.51753838013E+03  0.00000000000E+00 0.  1.
         21    1    1    2  504  505 -0.40293895341E+02 -0.79881249896E+02 -0.74702966200E+02  0.11655533126E+03  0.00000000000E+00 0.  1.
         21    1    1    2  505  503 -0.48192337179E+01 -0.67026831883E+02  0.16677234701E+02  0.69238366266E+02  0.00000000000E+00 0. -1.
         21    1    1    2  506  502  0.90340406434E+01  0.13907554780E+03  0.85085476563E+02  0.16328857954E+03  0.00000000000E+00 0.  1.
<scales pt_clust_3="36.91950" pt_clust_4="14000.00000" pt_clust_5="65.32745" pt_clust_6="95.38491"></scales>
<clustering>
<clus scale="   36.919">  1  3  2 -1</clus>
<clus scale="   65.327">  1  5  2 -1</clus>
<clus scale="   95.385">  1  6  2 -1</clus>
<clus scale="   36.919">  1  3  2 -1</clus>
</clustering>
</event>
<event>
 6    0  0.8610502E+002  0.1018444E+03  0.7546771E-02  0.1276464E+00
         21   -1    0    0  504  501  0.00000000000E+00  0.00000000000E+00  0.49546065307E+03  0.49546065307E+03  0.00000000000E+00 0.  1.
         21   -1    0    0  506  502 -0.00000000000E+00 -0.00000000000E+00 -0.19579729185E+03  0.19579729185E+03  0.00000000000E+00 0. -1.
         21    1    1    2  503  502  0.28615721469E+02  0.17779722454E+02 -0.15436089787E+03  0.15799450888E+03  0.00000000000E+00 0. -1.
         21    1    1    2  504  503 -0.56121215056E+02 -0.24235935882E+02  0.54688165901E+02  0.82022965425E+02  0.00000000000E+00 0.  1.
         21    1    1    2  505  501  0.95168045465E+02 -0.54639613264E+02  0.28236436255E+03  0.30293906558E+03  0.00000000000E+00 0.  1.
         21    1    1    2  506  505 -0.67662551878E+02  0.61095826691E+02  0.11697173065E+03  0.14830140504E+03  0.00000000000E+00 0.  1.
<scales pt_clust_3="33.68944" pt_clust_4="49.66632" pt_clust_5="14000.00000" pt_clust_6="101.84445"></scales>
<clustering>
<clus scale="   33.689">  2  3  1 -1</clus>
<clus scale="   49.666">  2  4  1 -1</clus>
<clus scale="  101.844">  2  6  1 -1</clus>
<clus scale="  101.844">  1  3  2 -1</clus>
</clustering>
</event>
<event>
 6    0  0.8610502E+002  0.8084758E+03  0.7546771E-02  0.9547829E-01
         21   -1    0    0  504  501  0.00000000000E+00  0.00000000000E+00  0.14400060778E+04  0.14400060778E+04  0.00000000000E+00 0.  1.
         21   -1    0    0  505  502 -0.00000000000E+00 -0.00000000000E+00 -0.56502063959E+03  0.56502063959E+03  0.00000000000E+00 0.  1.
         21    1    1    2  503  502 -0.77520425595E+03  0.18850464138E+03  0.27835963279E+02  0.79827969980E+03  0.00000000000E+00 0.  1.
         21    1    1    2  504  503 -0.27628597247E+02 -0.21425697076E+02  0.41159711647E+02  0.54004830745E+02  0.00000000000E+00 0.  1.
         21    1    1    2  505  506  0.68852655935E+03 -0.11998971096E+03  0.65802133841E+03  0.95992626564E+03  0.00000000000E+00 0.  1.
         21    1    1    2  506  501  0.11430629385E+03 -0.47089233338E+02  0.14796842486E+03  0.19281592119E+03  0.00000000000E+00 0.  1.
<scales pt_clust_3="804.29723" pt_clust_4="34.96284" pt_clust_5="34.52600" pt_clust_6="34.52600"></scales>
<clustering>
<clus scale="   34.526">  5  6 -1 -1</clus>
<clus scale="   34.963">  1  4  2 -1</clus>
<clus scale="  804.297">  2  3  1 -1</clus>
<clus scale="   34.963">  1  3  2 -1</clus>
</clustering>
</event>
<event>
 6    0  0.8610502E+002  0.1072103E+03  0.7546771E-02  0.1265825E+00
         21   -1    0    0  506  501  0.00000000000E+00  0.00000000000E+00  0.69039097936E+02  0.69039097936E+02  0.00000000000E+00 0. -1.
         21   -1    0    0  505  502 -0.00000000000E+00 -0.00000000000E+00 -0.51989690370E+03  0.51989690370E+03  0.00000000000E+00 0. -1.
         21    1    1    2  503  502 -0.87743728824E+02 -0.44502178918E+02 -0.29786131933E+03  0.31368897244E+03  0.00000000000E+00 0. -1.
         21    1    1    2  504  503  0.44055726774E+02 -0.65822515714E+01 -0.40801408935E+02  0.60406854482E+02  0.00000000000E+00 0. -1.
         21    1    1    2  505  501 -0.79098743244E+01  0.10690625662E+03 -0.66238744879E+02  0.12601224202E+03  0.00000000000E+00 0. -1.
         21    1    1    2  506  504  0.51597876375E+02 -0.55821826131E+02 -0.45956332622E+02  0.88827932696E+02  0.00000000000E+00 0. -1.
<scales pt_clust_3="98.38397" pt_clust_4="31.56461" pt_clust_5="98.96369" pt_clust_6="31.56461"></scales>
<clustering>
<clus scale="   31.565">  4  6 -1 -1</clus>
<clus scale="   98.384">  2  3  1 -1</clus>
<clus scale="   98.964">  1  5  2 -1</clus>
<clus scale="   98.964">  1  3  2 -1</clus>
</clustering>
</event>
<event>
 6    0  0.8610502E+002  0.7129809E+02  0.7546771E-02  0.1355734E+00
         21   -1    0    0  503  501  0.00000000000E+00  0.00000000000E+00  0.94674343509E+03  0.94674343509E+03  0.00000000000E+00 0.  1.
         21   -1    0    0  505  502 -0.00000000000E+00 -0.00000000000E+00 -0.18571068246E+02  0.18571068246E+02  0.00000000000E+00 0.  1.
         21    1    1    2  503  504  0.49938776195E+02 -0.31907946249E+02  0.26479386812E+03  0.27134441397E+03  0.00000000000E+00 0.  1.
         21    1    1    2  504  502  0.42026516763E+02  0.15582706936E+02  0.93755164903E+02  0.10391862111E+03  0.00000000000E+00 0.  1.
         21    1    1    2  505  506 -0.30130991716E+02 -0.49629583284E+02  0.15101209797E+03  0.16178883129E+03  0.00000000000E+00 0.  1.
         21    1    1    2  506  501 -0.61834301243E+02  0.65954822597E+02  0.41861123586E+03  0.42826263696E+03  0.00000000000E+00 0.  1.
<scales pt_clust_3="71.29809" pt_clust_4="44.82241" pt_clust_5="45.40969" pt_clust_6="14000.00000"></scales>
<clustering>
<clus scale="   44.822">  2  4  1 -1</clus>
<clus scale="   45.410">  2  5  1 -1</clus>
<clus scale="   71.298">  1  3  2 -1</clus>
<clus scale="   71.298">  1  3  2 -1</clus>
</clustering>
</event>
<event>
 6    0  0.8610502E+002  0.9143060E+02  0.7546771E-02  0.1299424E+00
         21   -1    0    0  504  501  0.00000000000E+00  0.00000000000E+00  0.41389654260E+03  0.41389654260E+03  0.00000000000E+00 0.  1.
         21   -1    0    0  505  502 -0.00000000000E+00 -0.00000000000E+00 -0.13718299981E+04  0.13718299981E+04  0.00000000000E+00 0.  1.
         21    1    1    2  503  502 -0.64632708410E+02 -0.27182963500E+02  0.32934836358E+02  0.77466147103E+02  0.00000000000E+00 0.  1.
         21    1    1    2  504  503 -0.76232044893E+01  0.50220438132E+02  0.23466842088E+03  0.24010304749E+03  0.00000000000E+00 0.  1.
         21    1    1    2  505  506 -0.24003572802E+02 -0.88262207753E+02 -0.13170289260E+04  0.13202013409E+04  0.00000000000E+00 0.  1.
         21    1    1    2  506  501  0.96259485701E+02  0.65224733121E+02  0.91492213187E+02  0.14795600519E+03  0.00000000000E+00 0.  1.
<scales pt_clust_3="67.99245" pt_clust_4="50.79572" pt_clust_5="91.43060" pt_clust_6="14000.00000"></scales>
<clustering>
<clus scale="   50.796">  1  4  2 -1</clus>
<clus scale="   67.992">  1  3  2 -1</clus>
<clus scale="   91.431">  2  5  1 -1</clus>
<clus scale="   50.796">  1  3  2 -1</clus>
</clustering>
</event>
<event>
 6    0  0.8610502E+002  0.1443531E+03  0.7546771E-02  0.1207589E+00
         21   -1    0    0  504  501  0.00000000000E+00  0.00000000000E+00  0.21222220080E+03  0.21222220080E+03  0.00000000000E+00 0. -1.
         21   -1    0    0  505  502 -0.00000000000E+00 -0.00000000000E+00 -0.49217074739E+03  0.49217074739E+03  0.00000000000E+00 0. -1.
         21    1    1    2  503  502 -0.38685723700E+02  0.13248343635E+02 -0.39359535460E+03  0.39571379429E+03  0.00000000000E+00 0. -1.
         21    1    1    2  504  503  0.44361481936E+02  0.12830205590E+03  0.32304567859E+02  0.13954548983E+03  0.00000000000E+00 0. -1.
         21    1    1    2  505  506 -0.19170442974E+02 -0.53948715394E+02  0.17392099225E+02  0.59836902426E+02  0.00000000000E+00 0. -1.
         21    1    1    2  506  501  0.13494684738E+02 -0.87601684141E+02  0.63950140923E+02  0.10929676164E+03  0.00000000000E+00 0. -1.
<scales pt_clust_3="40.89137" pt_clust_4="137.53879" pt_clust_5="35.22506" pt_clust_6="35.22506"></scales>
<clustering>
<clus scale="   35.225">  5  6 -1 -1</clus>
<clus scale="   40.891">  2  3  1 -1</clus>
<clus scale="  137.539">  2  4  1 -1</clus>
<clus scale="  144.353">  1  3  2 -1</clus>
</clustering>
</event>
<event>
 6    0  0.8610502E+002  0.1249636E+03  0.7546771E-02  0.1235126E+00
         21   -1    0    0  506  501  0.00000000000E+00  0.00000000000E+00  0.50867204048E+03  0.50867204048E+03  0.00000000000E+00 0. -1.
         21   -1    0    0  504  502 -0.00000000000E+00 -0.00000000000E+00 -0.11175265204E+04  0.11175265204E+04  0.00000000000E+00 0. -1.
         21    1    1    2  503  502  0.17987625951E+02  0.73444555494E+02 -0.60415010205E+03  0.60886369840E+03  0.00000000000E+00 0. -1.
         21    1    1    2  504  505 -0.61310034351E+02  0.51933600427E+02 -0.15576241411E+03  0.17526536685E+03  0.00000000000E+00 0. -1.
         21    1    1    2  505  501 -0.26515853449E+02  0.73604818033E+02  0.46077779292E+03  0.46737237206E+03  0.00000000000E+00 0. -1.
         21    1    1    2  506  503  0.69838261849E+02 -0.19898297395E+03 -0.30971975667E+03  0.37469712357E+03  0.00000000000E+00 0. -1.
<scales pt_clust_3="75.61519" pt_clust_4="124.96360" pt_clust_5="78.64225" pt_clust_6="14000.00000"></scales>
<clustering>
<clus scale="   75.615">  2  3  1 -1</clus>
<clus scale="   78.642">  1  5  2 -1</clus>
<clus scale="  124.964">  2  4  1 -1</clus>
<clus scale="   78.642">  1  3  2 -1</clus>
</clustering>
</event>
<event>
 6    0  0.8610502E+002  0.1123692E+03  0.7546771E-02  0.1256244E+00
         21   -1    0    0  505  501  0.00000000000E+00  0.00000000000E+00  0.66192700593E+03  0.66192700593E+03  0.00000000000E+00 0. -1.
         21   -1    0    0  504  502 -0.00000000000E+00 -0.00000000000E+00 -0.15030009162E+03  0.15030009162E+03  0.00000000000E+00 0. -1.
         21    1    1    2  503  501 -0.28709027446E+02  0.61695602336E+02  0.55808488803E+03  0.56221819416E+03  0.00000000000E+00 0. -1.
         21    1    1    2  504  503 -0.81056041482E+02 -0.78583563772E+02 -0.69055665021E+02  0.13234101113E+03  0.00000000000E+00 0. -1.
         21    1    1    2  505  506  0.54180239274E+02  0.15192558226E+02 -0.32081528003E+01  0.56361373277E+02  0.00000000000E+00 0. -1.
         21    1    1    2  506  502  0.55584829654E+02  0.16954032105E+01  0.25805844109E+02  0.61306518984E+02  0.00000000000E+00 0. -1.
<scales pt_clust_3="68.04819" pt_clust_4="107.82084" pt_clust_5="31.46059" pt_clust_6="31.46059"></scales>
<clustering>
<clus scale="   31.461">  5  6 -1 -1</clus>
<clus scale="   68.048">  1  3  2 -1</clus>
<clus scale="  107.821">  2  4  1 -1</clus>
<clus scale="   68.048">  1  3  2 -1</clus>
</clustering>
</event>
<event>
 6    0  0.8610502E+002  0.1551000E+03  0.7546771E-02  0.1194343E+00
         21   -1    0    0  503  501  0.00000000000E+00  0.00000000000E+00  0.64162133838E+03  0.64162133838E+03  0.00000000000E+00 0.  1.
         21   -1    0    0  505  502 -0.00000000000E+00 -0.00000000000E+00 -0.66641662910E+03  0.66641662910E+03  0.00000000000E+00 0. -1.
         21    1    1    2  503  506 -0.15488231499E+02  0.44945731459E+02  0.13248640607E+03  0.14075742213E+03  0.00000000000E+00 0.  1.
         21    1    1    2  504  501  0.33716380705E+02  0.84380140098E+01  0.40719719028E+03  0.40867780241E+03  0.00000000000E+00 0.  1.
         21    1    1    2  505  504  0.43548030786E+02 -0.15394500697E+03 -0.61110931739E+03  0.63170411900E+03  0.00000000000E+00 0. -1.
         21    1    1    2  506  502 -0.61776179992E+02  0.10056126150E+03  0.46630430312E+02  0.12689862395E+03  0.00000000000E+00 0.  1.
<scales pt_clust_3="50.05749" pt_clust_4="34.75621" pt_clust_5="155.09995" pt_clust_6="14000.00000"></scales>
<clustering>
<clus scale="   34.756">  1  4  2 -1</clus>
<clus scale="   50.057">  1  3  2 -1</clus>
<clus scale="  155.100">  2  5  1 -1</clus>
<clus scale="   34.756">  1  3  2 -1</clus>
</clustering>
</event>
<event>
 6    0  0.8610502E+002  0.1155332E+03  0.7546771E-02  0.1250653E+00
         21   -1    0    0  506  501  0.00000000000E+00  0.00000000000E+00  0.95035780838E+02  0.95035780838E+02  0.00000000000E+00 0.  1.
         21   -1    0    0  504  502 -0.00000000000E+00 -0.00000000000E+00 -0.38119765303E+03  0.38119765303E+03  0.00000000000E+00 0.  1.
         21    1    1    2  503  502 -0.20737857759E+02  0.11280598437E+03 -0.86963021823E+02  0.14393684733E+03  0.00000000000E+00 0.  1.
         21    1    1    2  504  505  0.36041826270E+02 -0.25393134036E+02 -0.10646279178E+03  0.11523085755E+03  0.00000000000E+00 0.  1.
         21    1    1    2  505  501  0.14819101870E+02 -0.68274628334E+02 -0.14081200524E+03  0.15719113039E+03  0.00000000000E+00 0.  1.
         21    1    1    2  506  503 -0.30123070380E+02 -0.19138222000E+02  0.48075946656E+02  0.59874598598E+02  0.00000000000E+00 0.  1.
<scales pt_clust_3="107.88646" pt_clust_4="32.83485" pt_clust_5="32.83485" pt_clust_6="35.68853"></scales>
<clustering>
<clus scale="   32.835">  4  5 -1 -1</clus>
<clus scale="   35.689">  1  6  2 -1</clus>
<clus scale="  107.886">  1  3  2 -1</clus>
<clus scale="   35.689">  1  3  2 -1</clus>
</clustering>
</event>
<event>
 6    0  0.8610502E+002  0.1086255E+03  0.7546771E-02  0.1263137E+00
         21   -1    0    0  504  501  0.00000000000E+00  0.00000000000E+00  0.23701391573E+03  0.23701391573E+03  0.00000000000E+00 0.  1.
         21   -1    0    0  506  502 -0.00000000000E+00 -0.00000000000E+00 -0.14644898692E+03  0.14644898692E+03  0.00000000000E+00 0. -1.
         21    1    1    2  503  501 -0.27177952259E+02  0.17899610442E+02  0.84339332386E+01  0.33617976930E+02  0.00000000000E+00 0.  1.
         21    1    1    2  504  505  0.63747458665E+02  0.34504599286E+02  0.31974420939E+02  0.79225434379E+02  0.00000000000E+00 0.  1.
         21    1    1    2  505  502 -0.28166825796E+02 -0.11886408510E+03 -0.64266125204E+02  0.13802961874E+03  0.00000000000E+00 0. -1.
         21    1    1    2  506  503 -0.84026806098E+01  0.66459875372E+02  0.11442269983E+03  0.13258987259E+03  0.00000000000E+00 0.  1.
<scales pt_clust_3="32.54285" pt_clust_4="68.92374" pt_clust_5="14000.00000" pt_clust_6="108.62550"></scales>
<clustering>
<clus scale="   32.543">  1  3  2 -1</clus>
<clus scale="   68.924">  1  4  2 -1</clus>
<clus scale="  108.625">  1  6  2 -1</clus>
<clus scale="   32.543">  1  3  2 -1</clus>
</clustering>
</event>
<event>
 6    0  0.8610502E+002  0.1287165E+03  0.7546771E-02  0.1229373E+00
         21   -1    0    0  503  501  0.00000000000E+00  0.00000000000E+00  0.14475267360E+04  0.14475267360E+04  0.00000000000E+00 0. -1.
         21   -1    0    0  505  502 -0.00000000000E+00 -0.00000000000E+00 -0.38129690567E+02  0.38129690567E+02  0.00000000000E+00 0. -1.
         21    1    1    2  503  502 -0.11880180620E+03 -0.28208055411E+02  0.11660858642E+04  0.11724614306E+04  0.00000000000E+00 0. -1.
         21    1    1    2  504  506  0.68577573087E+02 -0.24230627891E+02  0.13154104738E+03  0.15030985997E+03  0.00000000000E+00 0. -1.
         21    1    1    2  505  504  0.15253726742E+02  0.31991606900E+02 -0.80992826627E+01  0.36355707547E+02  0.00000000000E+00 0. -1.
         21    1    1    2  506  501  0.34970506374E+02  0.20447076402E+02  0.11986941653E+03  0.12652942847E+03  0.00000000000E+00 0. -1.
<scales pt_clust_3="117.77817" pt_clust_4="40.29717" pt_clust_5="35.44205" pt_clust_6="40.29717"></scales>
<clustering>
<clus scale="   35.442">  2  5  1 -1</clus>
<clus scale="   40.297">  4  6 -1 -1</clus>
<clus scale="  117.778">  1  3  2 -1</clus>
<clus scale="  117.778">  1  3  2 -1</clus>
</clustering>
</event>
<event>
 6    0  0.8610502E+002  0.1454996E+03  0.7546771E-02  0.1206115E+00
         21   -1    0    0  506  501  0.00000000000E+00  0.00000000000E+00  0.99385828778E+03  0.99385828778E+03  0.00000000000E+00 0.  1.
         21   -1    0    0  504  502 -0.00000000000E+00 -0.00000000000E+00 -0.56164268321E+03  0.56164268321E+03  0.00000000000E+00 0.  1.
         21    1    1    2  503  501  0.44645953888E+02 -0.11396520795E+03  0.35651485986E+03  0.37694054588E+03  0.00000000000E+00 0.  1.
         21    1    1    2  504  503  0.72731964785E+02 -0.40452614084E+01 -0.53724997915E+03  0.54216588138E+03  0.00000000000E+00 0.  1.
         21    1    1    2  505  502 -0.56857483723E+02  0.53299913474E+02  0.21469858736E+03  0.22840564276E+03  0.00000000000E+00 0.  1.
         21    1    1    2  506  505 -0.60520434949E+02  0.64710555885E+02  0.39825213649E+03  0.40798890097E+03  0.00000000000E+00 0.  1.
<scales pt_clust_3="139.94550" pt_clust_4="72.84437" pt_clust_5="37.34299" pt_clust_6="37.34299"></scales>
<clustering>
<clus scale="   37.343">  5  6 -1 -1</clus>
<clus scale="   72.844">  2  4  1 -1</clus>
<clus scale="  139.945">  1  3  2 -1</clus>
<clus scale="  139.945">  1  3  2 -1</clus>
</clustering>
</event>
<event>
 6    0  0.8610502E+002  0.1100612E+03  0.7546771E-02  0.1260457E+00
         21   -1    0    0  506  501  0.00000000000E+00  0.00000000000E+00  0.20503144252E+04  0.20503144252E+04  0.00000000000E+00 0. -1.
         21   -1    0    0  504  502 -0.00000000000E+00 -0.00000000000E+00 -0.54772487017E+03  0.54772487017E+03  0.00000000000E+00 0. -1.
         21    1    1    2  503  501  0.79540622543E+02  0.76968294202E+02  0.20291839116E+04  0.20322003287E+04  0.00000000000E+00 0. -1.
         21    1    1    2  504  503  0.20215552316E+01 -0.30946445216E+02 -0.13090493185E+02  0.33661998884E+02  0.00000000000E+00 0. -1.
         21    1    1    2  505  502 -0.68392403052E+02  0.12270549708E+02 -0.37418009394E+03  0.38057696973E+03  0.00000000000E+00 0.  1.
         21    1    1    2  506  505 -0.13169774723E+02 -0.58292398694E+02 -0.13932376938E+03  0.15159999810E+03  0.00000000000E+00 0. -1.
<scales pt_clust_3="14000.00000" pt_clust_4="31.01240" pt_clust_5="67.68059" pt_clust_6="110.06124"></scales>
<clustering>
<clus scale="   31.012">  2  4  1 -1</clus>
<clus scale="   67.681">  2  5  1 -1</clus>
<clus scale="  110.061">  2  6  1 -1</clus>
<clus scale="  110.061">  1  3  2 -1</clus>
</clustering>
</event>
<event>
 6    0  0.8610502E+002  0.9546491E+02  0.7546771E-02  0.1290132E+00
         21   -1    0    0  506  501  0.00000000000E+00  0.00000000000E+00  0.14223137925E+04  0.14223137925E+04  0.00000000000E+00 0.  1.
         21   -1    0    0  505  502 -0.00000000000E+00 -0.00000000000E+00 -0.28980495934E+03  0.28980495934E+03  0.00000000000E+00 0.  1.
         21    1    1    2  503  501 -0.43530522155E+02 -0.82994578664E+02  0.12465312155E+04  0.12500492301E+04  0.00000000000E+00 0.  1.
         21    1    1    2  504  503  0.91316352488E+02  0.91914189458E+02  0.11584180238E+03  0.17379936028E+03  0.00000000000E+00 0.  1.
         21    1    1    2  505  504  0.35350616900E+02 -0.12020873257E+02  0.63130984824E+01  0.37868492464E+02  0.00000000000E+00 0.  1.
         21    1    1    2  506  502 -0.83136447233E+02  0.31012624633E+01 -0.23617728326E+03  0.25040166895E+03  0.00000000000E+00 0.  1.
<scales pt_clust_3="95.46491" pt_clust_4="14000.00000" pt_clust_5="37.33855" pt_clust_6="52.30203"></scales>
<clustering>
<clus scale="   37.339">  2  5  1 -1</clus>
<clus scale="   52.302">  2  6  1 -1</clus>
<clus scale="   95.465">  1  3  2 -1</clus>
<clus scale="   95.465">  1  3  2 -1</clus>
</clustering>
</event>
<event>
 6    0  0.8610502E+002  0.1056990E+03  0.7546771E-02  0.1268748E+00
         21   -1    0    0  505  501  0.00000000000E+00  0.00000000000E+00  0.18676864466E+03  0.18676864466E+03  0.00000000000E+00 0.  1.
         21   -1    0    0  503  502 -0.00000000000E+00 -0.00000000000E+00 -0.21352978028E+03  0.21352978028E+03  0.00000000000E+00 0.  1.
         21    1    1    2  503  506  0.18178601905E+02 -0.23969968990E+02 -0.45667978169E+01  0.30428220830E+02  0.00000000000E+00 0.  1.
         21    1    1    2  504  502 -0.22708090094E+02  0.47063793055E+02 -0.60055513843E+01  0.52599663686E+02  0.00000000000E+00 0. -1.
         21    1    1    2  505  504  0.28920834451E+02  0.82577477160E+02 -0.13215583538E+03  0.15849485551E+03  0.00000000000E+00 0.  1.
         21    1    1    2  506  501 -0.24391346262E+02 -0.10567130122E+03  0.11596704896E+03  0.15877568492E+03  0.00000000000E+00 0.  1.
<scales pt_clust_3="30.08357" pt_clust_4="47.85615" pt_clust_5="14000.00000" pt_clust_6="105.69902"></scales>
<clustering>
<clus scale="   30.084">  2  3  1 -1</clus>
<clus scale="   47.856">  2  4  1 -1</clus>
<clus scale="  105.699">  1  6  2 -1</clus>
<clus scale="  105.699">  1  3  2 -1</clus>
</clustering>
</event>
<event>
 6    0  0.8610502E+002  0.8643489E+02  0.7546771E-02  0.1311722E+00
         21   -1    0    0  503  501  0.00000000000E+00  0.00000000000E+00  0.11139207718E+04  0.11139207718E+04  0.00000000000E+00 0. -1.
         21   -1    0    0  504  502 -0.00000000000E+00 -0.00000000000E+00 -0.99683334063E+02  0.99683334063E+02  0.00000000000E+00 0.  1.
         21    1    1    2  503  505  0.72881101703E+02  0.43825374582E+02  0.77695169512E+03  0.78159212829E+03  0.00000000000E+00 0. -1.
         21    1    1    2  504  506 -0.12745324349E+03  0.51723309230E+02 -0.25344651516E+02  0.13986415321E+03  0.00000000000E+00 0.  1.
         21    1    1    2  505  502  0.42648849212E+02 -0.67706436688E+02  0.10707807234E+03  0.13367422895E+03  0.00000000000E+00 0. -1.
         21    1    1    2  506  501  0.11923292574E+02 -0.27842247124E+02  0.15555232174E+03  0.15847359537E+03  0.00000000000E+00 0.  1.
<scales pt_clust_3="14000.00000" pt_clust_4="86.43489" pt_clust_5="83.78438" pt_clust_6="30.28788"></scales>
<clustering>
<clus scale="   30.288">  1  6  2 -1</clus>
<clus scale="   83.784">  2  5  1 -1</clus>
<clus scale="   86.435">  2  4  1 -1</clus>
<clus scale="   30.288">  1  3  2 -1</clus>
</clustering>
</event>
<event>
 6    0  0.8610502E+002  0.7874007E+02  0.7546771E-02  0.1332665E+00
         21   -1    0    0  506  501  0.00000000000E+00  0.00000000000E+00  0.42633708343E+03  0.42633708343E+03  0.00000000000E+00 0. -1.
         21   -1    0    0  504  502 -0.00000000000E+00 -0.00000000000E+00 -0.29314780589E+03  0.29314780589E+03  0.00000000000E+00 0. -1.
         21    1    1    2  503  501  0.41036473216E+02 -0.23736559800E+02  0.16410194395E+03  0.17081236610E+03  0.00000000000E+00 0. -1.
         21    1    1    2  504  503  0.93380030416E+02  0.25150685281E+02  0.58688869917E+02  0.11312281159E+03  0.00000000000E+00 0. -1.
         21    1    1    2  505  502 -0.65268055739E+02  0.45916733504E+02 -0.24572580369E+03  0.25835912237E+03  0.00000000000E+00 0. -1.
         21    1    1    2  506  505 -0.69148447894E+02 -0.47330858986E+02  0.15612426737E+03  0.17719058925E+03  0.00000000000E+00 0. -1.
<scales pt_clust_3="47.40692" pt_clust_4="78.74007" pt_clust_5="14000.00000" pt_clust_6="75.80317"></scales>
<clustering>
<clus scale="   47.407">  1  3  2 -1</clus>
<clus scale="   75.803">  1  6  2 -1</clus>
<clus scale="   78.740">  1  4  2 -1</clus>
<clus scale="   47.407">  1  3  2 -1</clus>
</clustering>
</event>
<event>
 6    0  0.8610502E+002  0.1549994E+03  0.7546771E-02  0.1194461E+00
         21   -1    0    0  503  501  0.00000000000E+00  0.00000000000E+00  0.33129640092E+03  0.33129640092E+03  0.00000000000E+00 0.  1.
         21   -1    0    0  505  502 -0.00000000000E+00 -0.00000000000E+00 -0.23925369202E+03  0.23925369202E+03  0.00000000000E+00 0.  1.
         21    1    1    2  503  504 -0.17692080968E+02 -0.10392285812E+03  0.14362312044E+03  0.17815883614E+03  0.00000000000E+00 0.  1.
         21    1    1    2  504  506 -0.27125054435E+02 -0.29616334428E+02  0.11715189563E+03  0.12384450934E+03  0.00000000000E+00 0. -1.
         21    1    1    2  505  501  0.26812053897E+02  0.16758792146E+03 -0.12873544979E+03  0.21301974952E+03  0.00000000000E+00 0.  1.
         21    1    1    2  506  502  0.18005081506E+02 -0.34048728906E+02 -0.39996857381E+02  0.55526997942E+02  0.00000000000E+00 0.  1.
<scales pt_clust_3="35.78377" pt_clust_4="35.78377" pt_clust_5="143.74870" pt_clust_6="38.51622"></scales>
<clustering>
<clus scale="   35.784">  3  4 -1 -1</clus>
<clus scale="   38.516">  2  6  1 -1</clus>
<clus scale="  143.749">  2  5  1 -1</clus>
<clus scale="  154.999">  1  3  2 -1</clus>
</clustering>
</event>
<event>
 6    0  0.8610502E+002  0.1989218E+03  0.7546771E-02  0.1150652E+00
         21   -1    0    0  505  501  0.00000000000E+00  0.00000000000E+00  0.69842383452E+03  0.69842383452E+03  0.00000000000E+00 0. -1.
         21   -1    0    0  506  502 -0.00000000000E+00 -0.00000000000E+00 -0.30700233722E+03  0.30700233722E+03  0.00000000000E+00 0. -1.
         21    1    1    2  503  502 -0.17025719073E+03  0.13577162509E+02  0.47287231524E+03  0.50277239070E+03  0.00000000000E+00 0. -1.
         21    1    1    2  504  503 -0.50885132626E+02 -0.81931776730E+02  0.10155708589E+03  0.14005696860E+03  0.00000000000E+00 0.  1.
         21    1    1    2  505  504  0.31353406466E+02 -0.16303267869E+01  0.46856166128E+02  0.56402077680E+02  0.00000000000E+00 0.  1.
         21    1    1    2  506  501  0.18978891689E+03  0.69984941008E+02 -0.22986406995E+03  0.30619473476E+03  0.00000000000E+00 0. -1.
<scales pt_clust_3="198.92181" pt_clust_4="93.75723" pt_clust_5="31.39577" pt_clust_6="14000.00000"></scales>
<clustering>
<clus scale="   31.396">  1  5  2 -1</clus>
<clus scale="   93.757">  1  4  2 -1</clus>
<clus scale="  198.922">  1  3  2 -1</clus>
<clus scale="   31.396">  1  3  2 -1</clus>
</clustering>
</event>
<event>
 6    0  0.8610502E+002  0.1374543E+03  0.7546771E-02  0.1216796E+00
         21   -1    0    0  506  501  0.00000000000E+00  0.00000000000E+00  0.61465830726E+03  0.61465830726E+03  0.00000000000E+00 0.  1.
         21   -1    0    0  501  502 -0.00000000000E+00 -0.00000000000E+00 -0.11048607345E+03  0.11048607345E+03  0.00000000000E+00 0. -1.
         21    1    1    2  503  505 -0.50400642067E+02  0.11317138901E+03  0.11157293686E+03  0.16672284861E+03  0.00000000000E+00 0. -1.
         21    1    1    2  504  503 -0.65728764836E+02  0.43531460298E+02  0.25632238244E+03  0.26817237423E+03  0.00000000000E+00 0. -1.
         21    1    1    2  505  502  0.72246338039E+02 -0.12550205470E+03  0.11785211872E+01  0.14481604885E+03  0.00000000000E+00 0. -1.
         21    1    1    2  506  504  0.43883068864E+02 -0.31200794606E+02  0.13509839332E+03  0.14543310900E+03  0.00000000000E+00 0.  1.
<scales pt_clust_3="14000.00000" pt_clust_4="49.09759" pt_clust_5="137.45431" pt_clust_6="53.84434"></scales>
<clustering>
<clus scale="   53.844">  1  6  2 -1</clus>
<clus scale="   49.098">  1  4  2 -1</clus>
<clus scale="  137.454">  2  5  1 -1</clus>
<clus scale="   53.844">  1  3  2 -1</clus>
</clustering>
</event>
<event>
 6    0  0.8610502E+002  0.2178734E+03  0.7546771E-02  0.1135478E+00
         21   -1    0    0  506  501  0.00000000000E+00  0.00000000000E+00  0.95925080652E+02  0.95925080652E+02  0.00000000000E+00 0. -1.
         21   -1    0    0  504  502 -0.00000000000E+00 -0.00000000000E+00 -0.25469213896E+04  0.25469213896E+04  0.00000000000E+00 0. -1.
         21    1    1    2  503  501 -0.69475162656E+02 -0.38524346667E+02 -0.48773205032E+03  0.49415936338E+03  0.00000000000E+00 0. -1.
         21    1    1    2  504  503 -0.79845093261E+02 -0.14425960394E+03 -0.12114931248E+04  0.12226617127E+04  0.00000000000E+00 0. -1.
         21    1    1    2  505  502  0.34068096540E+01  0.37972111470E+02 -0.71641882207E+03  0.71743251684E+03  0.00000000000E+00 0.  1.
         21    1    1    2  506  505  0.14591344626E+03  0.14481183914E+03 -0.35352311833E+02  0.20859287741E+03  0.00000000000E+00 0. -1.
<scales pt_clust_3="47.94549" pt_clust_4="47.94549" pt_clust_5="38.12463" pt_clust_6="207.52575"></scales>
<clustering>
<clus scale="   38.125">  2  5  1 -1</clus>
<clus scale="   47.945">  3  4 -1 -1</clus>
<clus scale="  207.526">  1  6  2 -1</clus>
<clus scale="  207.526">  1  3  2 -1</clus>
</clustering>
</event>
<event>
 6    0  0.8610502E+002  0.1033801E+03  0.7546771E-02  0.1273344E+00
         21   -1    0    0  503  501  0.00000000000E+00  0.00000000000E+00  0.17079205170E+03  0.17079205170E+03  0.00000000000E+00 0. -1.
         21   -1    0    0  504  502 -0.00000000000E+00 -0.00000000000E+00 -0.67995535299E+03  0.67995535299E+03  0.00000000000E+00 0.  1.
         21    1    1    2  503  505 -0.25454070269E+02 -0.97864676965E+02  0.96657542476E+02  0.13988597216E+03  0.00000000000E+00 0. -1.
         21    1    1    2  504  506  0.50856078748E+02 -0.37711735033E+02 -0.57750095025E+02  0.85694744180E+02  0.00000000000E+00 0. -1.
         21    1    1    2  505  502 -0.23505462798E+02  0.19682479287E+02 -0.49793672052E+03  0.49887962918E+03  0.00000000000E+00 0.  1.
         21    1    1    2  506  501 -0.18965456810E+01  0.11589393271E+03 -0.50134028226E+02  0.12628705916E+03  0.00000000000E+00 0. -1.
<scales pt_clust_3="14000.00000" pt_clust_4="51.22716" pt_clust_5="30.65790" pt_clust_6="103.38009"></scales>
<clustering>
<clus scale="   30.658">  2  5  1 -1</clus>
<clus scale="   51.227">  2  4  1 -1</clus>
<clus scale="  103.380">  2  6  1 -1</clus>
<clus scale="  103.380">  1  3  2 -1</clus>
</clustering>
</event>
<event>
 6    0  0.8610502E+002  0.1012022E+03  0.7546771E-02  0.1277788E+00
         21   -1    0    0  506  501  0.00000000000E+00  0.00000000000E+00  0.20017981300E+03  0.20017981300E+03  0.00000000000E+00 0.  1.
         21   -1    0    0  504  502 -0.00000000000E+00 -0.00000000000E+00 -0.17210681857E+03  0.17210681857E+03  0.00000000000E+00 0.  1.
         21    1    1    2  503  502  0.37178554761E+02 -0.43603192239E+01 -0.67924227035E+01  0.38044635943E+02  0.00000000000E+00 0.  1.
         21    1    1    2  504  505 -0.55851798965E+02 -0.39941275185E+01 -0.77312357560E+02  0.95459819473E+02  0.00000000000E+00 0.  1.
         21    1    1    2  505  501 -0.55414880385E+02 -0.70387224369E+02  0.10204993288E+02  0.90162698553E+02  0.00000000000E+00 0.  1.
         21    1    1    2  506  503  0.74088124589E+02  0.78741671111E+02  0.10197278140E+03  0.14861947760E+03  0.00000000000E+00 0.  1.
<scales pt_clust_3="37.43337" pt_clust_4="35.00655" pt_clust_5="101.20224" pt_clust_6="14000.00000"></scales>
<clustering>
<clus scale="   37.433">  2  3  1 -1</clus>
<clus scale="   35.007">  2  4  1 -1</clus>
<clus scale="  101.202">  2  5  1 -1</clus>
<clus scale="  101.202">  1  3  2 -1</clus>
</clustering>
</event>
<event>
 6    0  0.8610502E+002  0.9751935E+02  0.7546771E-02  0.1285601E+00
         21   -1    0    0  506  501  0.00000000000E+00  0.00000000000E+00  0.42733925034E+03  0.42733925034E+03  0.00000000000E+00 0. -1.
         21   -1    0    0  505  502 -0.00000000000E+00 -0.00000000000E+00 -0.15797615032E+03  0.15797615032E+03  0.00000000000E+00 0. -1.
         21    1    1    2  503  501 -0.10852801621E+03 -0.51238990185E+02  0.17528132056E+03  0.21243188498E+03  0.00000000000E+00 0. -1.
         21    1    1    2  504  502  0.66126062579E+02  0.12260704937E+02 -0.10005764252E+03  0.12055916749E+03  0.00000000000E+00 0. -1.
         21    1    1    2  505  503  0.22325235113E+02  0.81820383754E+02  0.45311208799E+02  0.96156627246E+02  0.00000000000E+00 0. -1.
         21    1    1    2  506  504  0.20076718517E+02 -0.42842098505E+02  0.14882821317E+03  0.15616772095E+03  0.00000000000E+00 0. -1.
<scales pt_clust_3="14000.00000" pt_clust_4="67.71959" pt_clust_5="97.51935" pt_clust_6="47.31300"></scales>
<clustering>
<clus scale="   47.313">  1  6  2 -1</clus>
<clus scale="   67.720">  2  4  1 -1</clus>
<clus scale="   97.519">  2  5  1 -1</clus>
<clus scale="   47.313">  1  3  2 -1</clus>
</clustering>
</event>
<event>
 6    0  0.8610502E+002  0.1589021E+03  0.7546771E-02  0.1189942E+00
         21   -1    0    0  503  501  0.00000000000E+00  0.00000000000E+00  0.67694694403E+03  0.67694694403E+03  0.00000000000E+00 0. -1.
         21   -1    0    0  501  502 -0.00000000000E+00 -0.00000000000E+00 -0.15680605622E+03  0.15680605622E+03  0.00000000000E+00 0.  1.
         21    1    1    2  503  504  0.24913479378E+02 -0.32272356875E+02  0.13577192382E+03  0.14176107283E+03  0.00000000000E+00 0. -1.
         21    1    1    2  504  506 -0.40010104006E+00  0.11651842570E+03  0.31506121988E+03  0.33591706697E+03  0.00000000000E+00 0.  1.
         21    1    1    2  505  502 -0.13733517000E+03 -0.12018458761E+03 -0.48721075065E+02  0.18888892814E+03  0.00000000000E+00 0.  1.
         21    1    1    2  506  505  0.11282179166E+03  0.35938518792E+02  0.11802881918E+03  0.16718593231E+03  0.00000000000E+00 0. -1.
<scales pt_clust_3="40.76992" pt_clust_4="98.10292" pt_clust_5="158.90213" pt_clust_6="14000.00000"></scales>
<clustering>
<clus scale="   40.770">  1  3  2 -1</clus>
<clus scale="   98.103">  1  4  2 -1</clus>
<clus scale="  158.902">  2  5  1 -1</clus>
<clus scale="   40.770">  1  3  2 -1</clus>
</clustering>
</event>
<event>
 6    0  0.8610502E+002  0.8596892E+02  0.7546771E-02  0.1312918E+00
         21   -1    0    0  506  501  0.00000000000E+00  0.00000000000E+00  0.63567002411E+03  0.63567002411E+03  0.00000000000E+00 0. -1.
         21   -1    0    0  504  502 -0.00000000000E+00 -0.00000000000E+00 -0.18255071181E+03  0.18255071181E+03  0.00000000000E+00 0.  1.
         21    1    1    2  503  501  0.71274029483E+02 -0.48417702631E+01  0.53840640424E+03  0.54312511095E+03  0.00000000000E+00 0. -1.
         21    1    1    2  504  503 -0.24612840925E+02  0.96518794464E+02 -0.43240693477E+02  0.10858833821E+03  0.00000000000E+00 0.  1.
         21    1    1    2  505  502  0.34606792371E+02 -0.64362679959E+02 -0.54236779452E+01  0.73277560905E+02  0.00000000000E+00 0. -1.
         21    1    1    2  506  505 -0.81267980930E+02 -0.27314344241E+02 -0.36622720518E+02  0.93229725860E+02  0.00000000000E+00 0. -1.
<scales pt_clust_3="71.43830" pt_clust_4="14000.00000" pt_clust_5="85.96892" pt_clust_6="66.54663"></scales>
<clustering>
<clus scale="   71.438">  1  3  2 -1</clus>
<clus scale="   66.547">  1  6  2 -1</clus>
<clus scale="   85.969">  1  5  2 -1</clus>
<clus scale="   71.438">  1  3  2 -1</clus>
</clustering>
</event>
<event>
 6    0  0.8610502E+002  0.3714673E+03  0.7546771E-02  0.1054133E+00
         21   -1    0    0  503  501  0.00000000000E+00  0.00000000000E+00  0.21814062825E+04  0.21814062825E+04  0.00000000000E+00 0.  1.
         21   -1    0    0  504  502 -0.00000000000E+00 -0.00000000000E+00 -0.35810477855E+03  0.35810477855E+03  0.00000000000E+00 0.  1.
         21    1    1    2  503  505  0.29096217188E+03 -0.23370180679E+03  0.89166954747E+03  0.96661786754E+03  0.00000000000E+00 0.  1.
         21    1    1    2  504  506  0.38622502949E+02  0.48057988312E+01 -0.27776165972E+03  0.28047519150E+03  0.00000000000E+00 0.  1.
         21    1    1    2  505  502 -0.16141318525E+01  0.51653048736E+02  0.40927789790E+02  0.65922127108E+02  0.00000000000E+00 0. -1.
         21    1    1    2  506  501 -0.32797054298E+03  0.17724295922E+03  0.11684658264E+04  0.12264958749E+04  0.00000000000E+00 0.  1.
<scales pt_clust_3="371.46730" pt_clust_4="38.92035" pt_clust_5="52.60596" pt_clust_6="14000.00000"></scales>
<clustering>
<clus scale="   38.920">  2  4  1 -1</clus>
<clus scale="   52.606">  2  5  1 -1</clus>
<clus scale="  371.467">  2  3  1 -1</clus>
<clus scale="  371.467">  1  3  2 -1</clus>
</clustering>
</event>
<event>
 6    0  0.8610502E+002  0.8844719E+02  0.7546771E-02  0.1306656E+00
         21   -1    0    0  505  501  0.00000000000E+00  0.00000000000E+00  0.48394820400E+02  0.48394820400E+02  0.00000000000E+00 0. -1.
         21   -1    0    0  506  502 -0.00000000000E+00 -0.00000000000E+00 -0.28801332019E+04  0.28801332019E+04  0.00000000000E+00 0. -1.
         21    1    1    2  503  504 -0.93644239900E+02 -0.11349629090E+03 -0.12364955272E+04  0.12452195953E+04  0.00000000000E+00 0. -1.
         21    1    1    2  504  502  0.28380316132E+02  0.75943408059E+02 -0.10929929068E+04  0.10959955921E+04  0.00000000000E+00 0. -1.
         21    1    1    2  505  503  0.91691795874E+02 -0.44910583433E+02 -0.48919919960E+03  0.49974013529E+03  0.00000000000E+00 0. -1.
         21    1    1    2  506  501 -0.26427872105E+02  0.82463466273E+02 -0.13050747870E+02  0.87572699591E+02  0.00000000000E+00 0. -1.
<scales pt_clust_3="88.44719" pt_clust_4="81.07308" pt_clust_5="14000.00000" pt_clust_6="88.39973"></scales>
<clustering>
<clus scale="   81.073">  2  4  1 -1</clus>
<clus scale="   88.400">  1  6  2 -1</clus>
<clus scale="   88.447">  2  3  1 -1</clus>
<clus scale="   88.400">  1  3  2 -1</clus>
</clustering>
</event>
<event>
 6    0  0.8610502E+002  0.7023657E+02  0.7546771E-02  0.1359290E+00
         21   -1    0    0  506  501  0.00000000000E+00  0.00000000000E+00  0.16274915396E+03  0.16274915396E+03  0.00000000000E+00 0. -1.
         21   -1    0    0  503  502 -0.00000000000E+00 -0.00000000000E+00 -0.27819483961E+03  0.27819483961E+03  0.00000000000E+00 0. -1.
         21    1    1    2  503  504 -0.67189767281E+02  0.30602777352E+02 -0.25581392700E+02  0.78137074820E+02  0.00000000000E+00 0. -1.
         21    1    1    2  504  501  0.61382989095E+02  0.26621057058E+02  0.79318551646E+02  0.10376890028E+03  0.00000000000E+00 0. -1.
         21    1    1    2  505  502  0.19314237046E+02  0.28429330944E+02 -0.16886354329E+03  0.17232574637E+03  0.00000000000E+00 0.  1.
         21    1    1    2  506  505 -0.13507458860E+02 -0.85653165354E+02 -0.31930131372E+00  0.86712272104E+02  0.00000000000E+00 0. -1.
<scales pt_clust_3="64.72976" pt_clust_4="70.23657" pt_clust_5="34.36956" pt_clust_6="14000.00000"></scales>
<clustering>
<clus scale="   34.370">  2  5  1 -1</clus>
<clus scale="   70.237">  1  4  2 -1</clus>
<clus scale="   64.730">  2  3  1 -1</clus>
<clus scale="   70.237">  1  3  2 -1</clus>
</clustering>
</event>
<event>
 6    0  0.8610502E+002  0.8371947E+02  0.7546771E-02  0.1318816E+00
         21   -1    0    0  505  501  0.00000000000E+00  0.00000000000E+00  0.92862233497E+03  0.92862233497E+03  0.00000000000E+00 0. -1.
         21   -1    0    0  503  502 -0.00000000000E+00 -0.00000000000E+00 -0.30383226372E+02  0.30383226372E+02  0.00000000000E+00 0. -1.
         21    1    1    2  503  504  0.26688092301E+02  0.36631536474E+02  0.10091365910E+03  0.11062409470E+03  0.00000000000E+00 0. -1.
         21    1    1    2  504  501 -0.39646494518E+02 -0.81749763603E+02  0.31564993980E+03  0.32846575602E+03  0.00000000000E+00 0. -1.
         21    1    1    2  505  506 -0.53559356022E+02  0.26612946574E+02  0.42880058649E+03  0.43295126345E+03  0.00000000000E+00 0. -1.
         21    1    1    2  506  502  0.66517758240E+02  0.18505280555E+02  0.52874923196E+02  0.86964447177E+02  0.00000000000E+00 0. -1.
<scales pt_clust_3="45.32244" pt_clust_4="14000.00000" pt_clust_5="59.30031" pt_clust_6="83.71947"></scales>
<clustering>
<clus scale="   45.322">  2  3  1 -1</clus>
<clus scale="   59.300">  1  5  2 -1</clus>
<clus scale="   83.719">  2  6  1 -1</clus>
<clus scale="   59.300">  1  3  2 -1</clus>
</clustering>
</event>
<event>
 6    0  0.8610502E+002  0.7394047E+02  0.7546771E-02  0.1347184E+00
         21   -1    0    0  506  501  0.00000000000E+00  0.00000000000E+00  0.56176628840E+02  0.56176628840E+02  0.00000000000E+00 0. -1.
         21   -1    0    0  504  502 -0.00000000000E+00 -0.00000000000E+00 -0.65603155349E+03  0.65603155349E+03  0.00000000000E+00 0. -1.
         21    1    1    2  503  501  0.44322869752E+02 -0.45904950657E+02 -0.56433036995E+02  0.85184910297E+02  0.00000000000E+00 0. -1.
         21    1    1    2  504  503  0.23579242157E+02  0.68875666291E+02 -0.45882631008E+03  0.46456584129E+03  0.00000000000E+00 0. -1.
         21    1    1    2  505  502 -0.73398126484E+02 -0.60160236420E+02 -0.80859540268E+02  0.12467880441E+03  0.00000000000E+00 0. -1.
         21    1    1    2  506  505  0.54960145748E+01  0.37189520786E+02 -0.37360373004E+01  0.37778626328E+02  0.00000000000E+00 0. -1.
<scales pt_clust_3="56.45862" pt_clust_4="73.94047" pt_clust_5="14000.00000" pt_clust_6="37.59344"></scales>
<clustering>
<clus scale="   37.593">  1  6  2 -1</clus>
<clus scale="   56.459">  1  3  2 -1</clus>
<clus scale="   73.940">  2  4  1 -1</clus>
<clus scale="   37.593">  1  3  2 -1</clus>
</clustering>
</event>
<event>
 6    0  0.8610502E+002  0.1317274E+03  0.7546771E-02  0.1224915E+00
         21   -1    0    0  505  501  0.00000000000E+00  0.00000000000E+00  0.50101460679E+03  0.50101460679E+03  0.00000000000E+00 0. -1.
         21   -1    0    0  503  502 -0.00000000000E+00 -0.00000000000E+00 -0.12231487222E+03  0.12231487222E+03  0.00000000000E+00 0. -1.
         21    1    1    2  503  506  0.34405328966E+02  0.45558976923E+02  0.25398400693E+02  0.62485404674E+02  0.00000000000E+00 0. -1.
         21    1    1    2  504  502 -0.89336596108E+02  0.53196857977E+02  0.30333435796E+02  0.10830997382E+03  0.00000000000E+00 0. -1.
         21    1    1    2  505  504 -0.44939489793E+02  0.52884072304E+02  0.24550878159E+03  0.25512907456E+03  0.00000000000E+00 0. -1.
         21    1    1    2  506  501  0.99870756935E+02 -0.15163990720E+03  0.77459116488E+02  0.19740502596E+03  0.00000000000E+00 0. -1.
<scales pt_clust_3="57.09069" pt_clust_4="131.72740" pt_clust_5="70.02363" pt_clust_6="14000.00000"></scales>
<clustering>
<clus scale="   57.091">  2  3  1 -1</clus>
<clus scale="   70.024">  1  5  2 -1</clus>
<clus scale="  131.727">  2  4  1 -1</clus>
<clus scale="   70.024">  1  3  2 -1</clus>
</clustering>
</event>
<event>
 6    0  0.8610502E+002  0.8506898E+02  0.7546771E-02  0.1315252E+00
         21   -1    0    0  505  501  0.00000000000E+00  0.00000000000E+00  0.21127346504E+03  0.21127346504E+03  0.00000000000E+00 0. -1.
         21   -1    0    0  503  502 -0.00000000000E+00 -0.00000000000E+00 -0.76910151760E+03  0.76910151760E+03  0.00000000000E+00 0. -1.
         21    1    1    2  503  501 -0.50137099703E+02  0.10877264440E+03  0.95052061917E+01  0.12014809979E+03  0.00000000000E+00 0. -1.
         21    1    1    2  504  502 -0.14916591877E+02 -0.37605144076E+02 -0.16383729782E+03  0.16875814567E+03  0.00000000000E+00 0. -1.
         21    1    1    2  505  506  0.10518365498E+02 -0.34218992132E+02  0.13974036432E+03  0.14425305839E+03  0.00000000000E+00 0. -1.
         21    1    1    2  506  504  0.54535326082E+02 -0.36948508196E+02 -0.54323632525E+03  0.54721567880E+03  0.00000000000E+00 0. -1.
<scales pt_clust_3="85.06898" pt_clust_4="41.45513" pt_clust_5="35.79910" pt_clust_6="14000.00000"></scales>
<clustering>
<clus scale="   35.799">  1  5  2 -1</clus>
<clus scale="   41.455">  2  4  1 -1</clus>
<clus scale="   85.069">  1  3  2 -1</clus>
<clus scale="   35.799">  1  3  2 -1</clus>
</clustering>
</event>
<event>
 6    0  0.8610502E+002  0.1936390E+03  0.7546771E-02  0.1155220E+00
         21   -1    0    0  504  501  0.00000000000E+00  0.00000000000E+00  0.36723348193E+03  0.36723348193E+03  0.00000000000E+00 0.  1.
         21   -1    0    0  501  502 -0.00000000000E+00 -0.00000000000E+00 -0.38183862014E+03  0.38183862014E+03  0.00000000000E+00 0.  1.
         21    1    1    2  503  502 -0.20334546177E+02 -0.32168554104E+02 -0.17852779385E+03  0.18253898985E+03  0.00000000000E+00 0.  1.
         21    1    1    2  504  505  0.17628035499E+03  0.12725227282E+02  0.29575203494E+03  0.34453731458E+03  0.00000000000E+00 0.  1.
         21    1    1    2  505  506 -0.87991326185E+02  0.44726979052E+02 -0.10646426622E+03  0.14518132153E+03  0.00000000000E+00 0.  1.
         21    1    1    2  506  503 -0.67954482623E+02 -0.25283652230E+02 -0.25365113084E+02  0.76814476112E+02  0.00000000000E+00 0. -1.
<scales pt_clust_3="38.05666" pt_clust_4="174.04037" pt_clust_5="74.75876" pt_clust_6="74.75876"></scales>
<clustering>
<clus scale="   38.057">  2  3  1 -1</clus>
<clus scale="   74.759">  5  6 -1 -1</clus>
<clus scale="  174.040">  1  4  2 -1</clus>
<clus scale="  174.040">  1  3  2 -1</clus>
</clustering>
</event>
<event>
 6    0  0.8610502E+002  0.1282657E+03  0.7546771E-02  0.1230052E+00
         21   -1    0    0  506  501  0.00000000000E+00  0.00000000000E+00  0.18471171834E+03  0.18471171834E+03  0.00000000000E+00 0.  1.
         21   -1    0    0  505  502 -0.00000000000E+00 -0.00000000000E+00 -0.24523508965E+03  0.24523508965E+03  0.00000000000E+00 0.  1.
         21    1    1    2  503  502  0.67850729001E+01 -0.72852079127E+02  0.64682932715E+01  0.73452715846E+02  0.00000000000E+00 0.  1.
         21    1    1    2  504  503  0.42563699026E+02 -0.40282460109E+02 -0.13365598439E+02  0.60108105018E+02  0.00000000000E+00 0.  1.
         21    1    1    2  505  501 -0.96977052241E+02  0.71164614946E+02 -0.14293519874E+03  0.18681387026E+03  0.00000000000E+00 0.  1.
         21    1    1    2  506  504  0.47628280315E+02  0.41969924290E+02  0.89309132599E+02  0.10957211687E+03  0.00000000000E+00 0. -1.
<scales pt_clust_3="45.24799" pt_clust_4="45.24799" pt_clust_5="117.88084" pt_clust_6="63.48171"></scales>
<clustering>
<clus scale="   45.248">  3  4 -1 -1</clus>
<clus scale="   63.482">  1  6  2 -1</clus>
<clus scale="  117.881">  2  5  1 -1</clus>
<clus scale="   63.482">  1  3  2 -1</clus>
</clustering>
</event>
<event>
 6    0  0.8610502E+002  0.1697883E+03  0.7546771E-02  0.1178069E+00
         21   -1    0    0  506  501  0.00000000000E+00  0.00000000000E+00  0.39821077482E+03  0.39821077482E+03  0.00000000000E+00 0. -1.
         21   -1    0    0  503  502 -0.00000000000E+00 -0.00000000000E+00 -0.42690077122E+03  0.42690077122E+03  0.00000000000E+00 0. -1.
         21    1    1    2  503  505 -0.83667194858E+02 -0.71148133925E+02  0.12652046054E+03  0.16754009488E+03  0.00000000000E+00 0. -1.
         21    1    1    2  504  502  0.97986009928E+02  0.12975107426E+03 -0.36773879434E+03  0.40208011673E+03  0.00000000000E+00 0. -1.
         21    1    1    2  505  501 -0.65152510161E+02 -0.52943257388E+02  0.16744062437E+03  0.18730777018E+03  0.00000000000E+00 0. -1.
         21    1    1    2  506  504  0.50833695090E+02 -0.56596829430E+01  0.45087713031E+02  0.68183564251E+02  0.00000000000E+00 0. -1.
<scales pt_clust_3="38.68594" pt_clust_4="163.92120" pt_clust_5="38.68594" pt_clust_6="51.14779"></scales>
<clustering>
<clus scale="   38.686">  3  5 -1 -1</clus>
<clus scale="   51.148">  1  6  2 -1</clus>
<clus scale="  163.921">  2  4  1 -1</clus>
<clus scale="   51.148">  1  3  2 -1</clus>
</clustering>
</event>
<event>
 6    0  0.8610502E+002  0.1265389E+03  0.7546771E-02  0.1232684E+00
         21   -1    0    0  504  501  0.00000000000E+00  0.00000000000E+00  0.11331099561E+03  0.11331099561E+03  0.00000000000E+00 0. -1.
         21   -1    0    0  505  502 -0.00000000000E+00 -0.00000000000E+00 -0.63659396261E+03  0.63659396261E+03  0.00000000000E+00 0. -1.
         21    1    1    2  503  501  0.10087122304E+03 -0.78564112611E+02  0.51227512862E+01  0.12795923573E+03  0.00000000000E+00 0. -1.
         21    1    1    2  504  502  0.48986358402E+02  0.49049418483E+02 -0.37727386566E+03  0.38358972676E+03  0.00000000000E+00 0. -1.
         21    1    1    2  505  506 -0.46580870070E+01  0.31614291984E+02 -0.56860615938E+02  0.65224925274E+02  0.00000000000E+00 0. -1.
         21    1    1    2  506  503 -0.14519949443E+03 -0.20995978556E+01 -0.94271236682E+02  0.17313107046E+03  0.00000000000E+00 0. -1.
<scales pt_clust_3="14000.00000" pt_clust_4="83.66565" pt_clust_5="31.95561" pt_clust_6="126.53887"></scales>
<clustering>
<clus scale="   31.956">  2  5  1 -1</clus>
<clus scale="   83.666">  2  4  1 -1</clus>
<clus scale="  126.539">  2  6  1 -1</clus>
<clus scale="  126.539">  1  3  2 -1</clus>
</clustering>
</event>
<event>
 6    0  0.8610502E+002  0.1270853E+03  0.7546771E-02  0.1231846E+00
         21   -1    0    0  504  501  0.00000000000E+00  0.00000000000E+00  0.38182943717E+03  0.38182943717E+03  0.00000000000E+00 0. -1.
         21   -1    0    0  505  502 -0.00000000000E+00 -0.00000000000E+00 -0.37032964017E+03  0.37032964017E+03  0.00000000000E+00 0.  1.
         21    1    1    2  503  502  0.11756146866E+03 -0.29182232439E+02 -0.24936859273E+03  0.27723094460E+03  0.00000000000E+00 0.  1.
         21    1    1    2  504  506 -0.26241072544E+02  0.18139419449E+02  0.91797673920E+02  0.97182536308E+02  0.00000000000E+00 0.  1.
         21    1    1    2  505  501 -0.17782569935E+03  0.10782917343E+03  0.10620444229E+03  0.23351336911E+03  0.00000000000E+00 0. -1.
         21    1    1    2  506  503  0.86505303237E+02 -0.96786360435E+02  0.62866273518E+02  0.14423222733E+03  0.00000000000E+00 0.  1.
<scales pt_clust_3="14000.00000" pt_clust_4="31.90035" pt_clust_5="127.08532" pt_clust_6="118.66534"></scales>
<clustering>
<clus scale="   31.900">  1  4  2 -1</clus>
<clus scale="  118.665">  1  6  2 -1</clus>
<clus scale="  127.085">  1  5  2 -1</clus>
<clus scale="   31.900">  1  3  2 -1</clus>
</clustering>
</event>
<event>
 6    0  0.8610502E+002  0.8486060E+02  0.7546771E-02  0.1315797E+00
         21   -1    0    0  505  501  0.00000000000E+00  0.00000000000E+00  0.52353219299E+02  0.52353219299E+02  0.00000000000E+00 0.  1.
         21   -1    0    0  503  502 -0.00000000000E+00 -0.00000000000E+00 -0.47249711222E+03  0.47249711222E+03  0.00000000000E+00 0.  1.
         21    1    1    2  503  504 -0.28841207282E+02  0.15523500527E+02 -0.16296393290E+03  0.16622285563E+03  0.00000000000E+00 0.  1.
         21    1    1    2  504  506  0.21633829623E+02  0.35182912774E+02 -0.57924801516E+02  0.71141707641E+02  0.00000000000E+00 0.  1.
         21    1    1    2  505  502 -0.78488603760E+02 -0.50830093150E+02 -0.17501088357E+03  0.19842622977E+03  0.00000000000E+00 0.  1.
         21    1    1    2  506  501  0.85695981419E+02  0.12367984848E+00 -0.24244274927E+02  0.89059538483E+02  0.00000000000E+00 0.  1.
<scales pt_clust_3="32.75354" pt_clust_4="41.47746" pt_clust_5="14000.00000" pt_clust_6="84.86060"></scales>
<clustering>
<clus scale="   32.754">  2  3  1 -1</clus>
<clus scale="   41.477">  2  4  1 -1</clus>
<clus scale="   84.861">  1  6  2 -1</clus>
<clus scale="   84.861">  1  3  2 -1</clus>
</clustering>
</event>
<event>
 6    0  0.8610502E+002  0.1124040E+03  0.7546771E-02  0.1256182E+00
         21   -1    0    0  506  501  0.00000000000E+00  0.00000000000E+00  0.22631551063E+03  0.22631551063E+03  0.00000000000E+00 0. -1.
         21   -1    0    0  504  502 -0.00000000000E+00 -0.00000000000E+00 -0.54638850820E+03  0.54638850820E+03  0.00000000000E+00 0. -1.
         21    1    1    2  503  502 -0.31040495393E+02 -0.13926163242E+02 -0.37719926050E+02  0.50796094319E+02  0.00000000000E+00 0.  1.
         21    1    1    2  504  505 -0.44284319208E+02  0.11012454931E+03 -0.46383813994E+03  0.47878422838E+03  0.00000000000E+00 0. -1.
         21    1    1    2  505  501  0.75006677637E+02 -0.23894051235E+02  0.50557210769E+02  0.93557249507E+02  0.00000000000E+00 0. -1.
         21    1    1    2  506  503  0.31813696388E+00 -0.72304334831E+02  0.13092785764E+03  0.14956644662E+03  0.00000000000E+00 0. -1.
<scales pt_clust_3="34.02132" pt_clust_4="14000.00000" pt_clust_5="112.40402" pt_clust_6="72.56326"></scales>
<clustering>
<clus scale="   34.021">  2  3  1 -1</clus>
<clus scale="   72.563">  1  6  2 -1</clus>
<clus scale="  112.404">  1  5  2 -1</clus>
<clus scale="   72.563">  1  3  2 -1</clus>
</clustering>
</event>
<event>
 6    0  0.8610502E+002  0.1006328E+03  0.7546771E-02  0.1278971E+00
         21   -1    0    0  504  501  0.00000000000E+00  0.00000000000E+00  0.55866303462E+03  0.55866303462E+03  0.00000000000E+00 0. -1.
         21   -1    0    0  503  502 -0.00000000000E+00 -0.00000000000E+00 -0.10512672548E+03  0.10512672548E+03  0.00000000000E+00 0. -1.
         21    1    1    2  503  505 -0.10580905881E+03  0.58590180443E+02  0.89892982319E+01  0.12128138214E+03  0.00000000000E+00 0. -1.
         21    1    1    2  504  506  0.28866208136E+02 -0.89353637555E+02  0.36958194499E+03  0.38132419878E+03  0.00000000000E+00 0. -1.
         21    1    1    2  505  501 -0.58181990349E+01  0.50604713266E+02  0.52527638423E+02  0.73169947677E+02  0.00000000000E+00 0. -1.
         21    1    1    2  506  502  0.82761049709E+02 -0.19841256155E+02  0.22437427494E+02  0.88014231504E+02  0.00000000000E+00 0. -1.
<scales pt_clust_3="100.63283" pt_clust_4="56.59262" pt_clust_5="50.93808" pt_clust_6="14000.00000"></scales>
<clustering>
<clus scale="   50.938">  1  5  2 -1</clus>
<clus scale="   56.593">  1  4  2 -1</clus>
<clus scale="  100.633">  1  3  2 -1</clus>
<clus scale="   50.938">  1  3  2 -1</clus>
</clustering>
</event>
<event>
 6    0  0.8610502E+002  0.7341258E+02  0.7546771E-02  0.1348858E+00
         21   -1    0    0  504  501  0.00000000000E+00  0.00000000000E+00  0.71338220994E+03  0.71338220994E+03  0.00000000000E+00 0.  1.
         21   -1    0    0  505  502 -0.00000000000E+00 -0.00000000000E+00 -0.59799011386E+02  0.59799011386E+02  0.00000000000E+00 0.  1.
         21    1    1    2  503  501 -0.59200895397E+02  0.28351445780E+02  0.93107751719E+02  0.11391928688E+03  0.00000000000E+00 0.  1.
         21    1    1    2  504  506  0.19427099357E+02  0.25803419440E+02  0.32512137919E+03  0.32672180805E+03  0.00000000000E+00 0.  1.
         21    1    1    2  505  503 -0.68330447772E+02 -0.12842931649E+02 -0.82421199581E+00  0.69531793530E+02  0.00000000000E+00 0.  1.
         21    1    1    2  506  502  0.10810424381E+03 -0.41311933571E+02  0.23617827963E+03  0.26300833286E+03  0.00000000000E+00 0.  1.
<scales pt_clust_3="64.49324" pt_clust_4="32.29905" pt_clust_5="73.41258" pt_clust_6="14000.00000"></scales>
<clustering>
<clus scale="   32.299">  1  4  2 -1</clus>
<clus scale="   64.493">  1  3  2 -1</clus>
<clus scale="   73.413">  2  5  1 -1</clus>
<clus scale="   32.299">  1  3  2 -1</clus>
</clustering>
</event>
<event>
 6    0  0.8610502E+002  0.8745808E+02  0.7546771E-02  0.1309127E+00
         21   -1    0    0  506  501  0.00000000000E+00  0.00000000000E+00  0.24789494427E+03  0.24789494427E+03  0.00000000000E+00 0.  1.
         21   -1    0    0  503  502 -0.00000000000E+00 -0.00000000000E+00 -0.15144088292E+03  0.15144088292E+03  0.00000000000E+00 0.  1.
         21    1    1    2  503  501  0.19028218401E+02 -0.40855408063E+02  0.85515691408E+01  0.45873377882E+02  0.00000000000E+00 0.  1.
         21    1    1    2  504  505 -0.73931159751E+02  0.18275974179E+02  0.45049568193E+02  0.88483282086E+02  0.00000000000E+00 0.  1.
         21    1    1    2  505  502 -0.41550174132E+02 -0.35206377447E+02 -0.81060641213E+02  0.97656200710E+02  0.00000000000E+00 0.  1.
         21    1    1    2  506  504  0.96453115482E+02  0.57785811332E+02  0.12391356522E+03  0.16732296652E+03  0.00000000000E+00 0.  1.
<scales pt_clust_3="45.06925" pt_clust_4="87.45808" pt_clust_5="68.97609" pt_clust_6="14000.00000"></scales>
<clustering>
<clus scale="   45.069">  2  3  1 -1</clus>
<clus scale="   68.976">  2  5  1 -1</clus>
<clus scale="   87.458">  2  4  1 -1</clus>
<clus scale="   87.458">  1  3  2 -1</clus>
</clustering>
</event>
<event>
 6    0  0.8610502E+002  0.1348052E+03  0.7546771E-02  0.1220495E+00
         21   -1    0    0  503  501  0.00000000000E+00  0.00000000000E+00  0.10627030599E+03  0.10627030599E+03  0.00000000000E+00 0.  1.
         21   -1    0    0  504  502 -0.00000000000E+00 -0.00000000000E+00 -0.46563090009E+03  0.46563090009E+03  0.00000000000E+00 0.  1.
         21    1    1    2  503  502 -0.48416296805E+02 -0.10404866751E+03 -0.25249559609E+03  0.27735228330E+03  0.00000000000E+00 0.  1.
         21    1    1    2  504  506  0.25055563646E+02  0.65971968358E+02 -0.41741682363E+02  0.81990547779E+02  0.00000000000E+00 0. -1.
         21    1    1    2  505  501 -0.68057012051E+02 -0.41381306927E+02 -0.13034013537E+02  0.80709695583E+02  0.00000000000E+00 0.  1.
         21    1    1    2  506  505  0.91417745210E+02  0.79458006077E+02 -0.52089302102E+02  0.13184867941E+03  0.00000000000E+00 0.  1.
<scales pt_clust_3="126.35424" pt_clust_4="35.85933" pt_clust_5="79.65029" pt_clust_6="35.85933"></scales>
<clustering>
<clus scale="   35.859">  4  6 -1 -1</clus>
<clus scale="   79.650">  1  5  2 -1</clus>
<clus scale="  126.354">  2  3  1 -1</clus>
<clus scale="   79.650">  1  3  2 -1</clus>
</clustering>
</event>
<event>
 6    0  0.8610502E+002  0.1374605E+03  0.7546771E-02  0.1216787E+00
         21   -1    0    0  504  501  0.00000000000E+00  0.00000000000E+00  0.73498581185E+02  0.73498581185E+02  0.00000000000E+00 0.  1.
         21   -1    0    0  505  502 -0.00000000000E+00 -0.00000000000E+00 -0.76607872480E+03  0.76607872480E+03  0.00000000000E+00 0.  1.
         21    1    1    2  503  501  0.92004943374E+02 -0.47290196049E+02 -0.82642682279E+02  0.13240500437E+03  0.00000000000E+00 0.  1.
         21    1    1    2  504  506 -0.10840337006E+03 -0.64865385121E+02 -0.12579088883E+03  0.17827550740E+03  0.00000000000E+00 0.  1.
         21    1    1    2  505  503  0.65652050358E+02 -0.23132776456E-01 -0.65685530722E+02  0.92869700105E+02  0.00000000000E+00 0.  1.
         21    1    1    2  506  502 -0.49253623676E+02  0.11217871395E+03 -0.41846104178E+03  0.43602709411E+03  0.00000000000E+00 0.  1.
<scales pt_clust_3="32.39083" pt_clust_4="131.30973" pt_clust_5="32.39083" pt_clust_6="122.51524"></scales>
<clustering>
<clus scale="   32.391">  3  5 -1 -1</clus>
<clus scale="  122.515">  2  6  1 -1</clus>
<clus scale="  131.310">  1  4  2 -1</clus>
<clus scale="  131.310">  1  3  2 -1</clus>
</clustering>
</event>
<event>
 6    0  0.8610502E+002  0.1300698E+03  0.7546771E-02  0.1227352E+00
         21   -1    0    0  505  501  0.00000000000E+00  0.00000000000E+00  0.47384011181E+02  0.47384011181E+02  0.00000000000E+00 0.  1.
         21   -1    0    0  504  502 -0.00000000000E+00 -0.00000000000E+00 -0.17256282701E+04  0.17256282701E+04  0.00000000000E+00 0. -1.
         21    1    1    2  503  506 -0.10838949891E+02  0.59572114071E+02 -0.67688508757E+03  0.67958792027E+03  0.00000000000E+00 0. -1.
         21    1    1    2  504  501 -0.15744167715E+02 -0.11893735864E+03 -0.40040239060E+02  0.12648001756E+03  0.00000000000E+00 0.  1.
         21    1    1    2  505  503  0.12098395435E+01  0.36223364845E+02 -0.13116283753E+03  0.13607823419E+03  0.00000000000E+00 0.  1.
         21    1    1    2  506  502  0.25373278063E+02  0.23141879728E+02 -0.83015609476E+03  0.83086610925E+03  0.00000000000E+00 0. -1.
<scales pt_clust_3="39.98195" pt_clust_4="117.54923" pt_clust_5="39.98195" pt_clust_6="34.34166"></scales>
<clustering>
<clus scale="   34.342">  2  6  1 -1</clus>
<clus scale="   39.982">  3  5 -1 -1</clus>
<clus scale="  117.549">  1  4  2 -1</clus>
<clus scale="  117.549">  1  3  2 -1</clus>
</clustering>
</event>
<event>
 6    0  0.8610502E+002  0.9975841E+02  0.7546771E-02  0.1280805E+00
         21   -1    0    0  503  501  0.00000000000E+00  0.00000000000E+00  0.21560491868E+03  0.21560491868E+03  0.00000000000E+00 0. -1.
         21   -1    0    0  504  502 -0.00000000000E+00 -0.00000000000E+00 -0.60839703030E+03  0.60839703030E+03  0.00000000000E+00 0.  1.
         21    1    1    2  503  505 -0.29312951567E+02  0.18433166213E+02  0.97703008272E+02  0.10365765081E+03  0.00000000000E+00 0. -1.
         21    1    1    2  504  501  0.94316832549E+02 -0.87882016753E+02  0.52844953109E+02  0.13932516944E+03  0.00000000000E+00 0. -1.
         21    1    1    2  505  506  0.27072544833E+02  0.33692503261E+02 -0.18583808992E+02  0.47047480446E+02  0.00000000000E+00 0.  1.
         21    1    1    2  506  502 -0.92076425815E+02  0.35756347279E+02 -0.52475626400E+03  0.53397164829E+03  0.00000000000E+00 0.  1.
<scales pt_clust_3="34.62702" pt_clust_4="14000.00000" pt_clust_5="42.93911" pt_clust_6="99.75841"></scales>
<clustering>
<clus scale="   34.627">  1  3  2 -1</clus>
<clus scale="   42.939">  1  5  2 -1</clus>
<clus scale="   99.758">  2  6  1 -1</clus>
<clus scale="   34.627">  1  3  2 -1</clus>
</clustering>
</event>
<event>
 6    0  0.8610502E+002  0.1135110E+03  0.7546771E-02  0.1254203E+00
         21   -1    0    0  505  501  0.00000000000E+00  0.00000000000E+00  0.59368513312E+03  0.59368513312E+03  0.00000000000E+00 0.  1.
         21   -1    0    0  503  502 -0.00000000000E+00 -0.00000000000E+00 -0.75575216270E+02  0.75575216270E+02  0.00000000000E+00 0.  1.
         21    1    1    2  503  506 -0.18893408043E+02  0.46980781870E+02 -0.42113160687E+02  0.65861013017E+02  0.00000000000E+00 0.  1.
         21    1    1    2  504  502  0.80966461683E+02  0.18683417765E+01  0.13987865979E+03  0.16163260217E+03  0.00000000000E+00 0.  1.
         21    1    1    2  505  504  0.31064632688E+02 -0.23384421734E+02  0.13772262431E+03  0.14310612786E+03  0.00000000000E+00 0.  1.
         21    1    1    2  506  501 -0.93137686328E+02 -0.25464701913E+02  0.28262179343E+03  0.29866060634E+03  0.00000000000E+00 0.  1.
<scales pt_clust_3="50.63748" pt_clust_4="36.59442" pt_clust_5="36.59442" pt_clust_6="100.47607"></scales>
<clustering>
<clus scale="   36.594">  4  5 -1 -1</clus>
<clus scale="   50.637">  2  3  1 -1</clus>
<clus scale="  100.476">  1  6  2 -1</clus>
<clus scale="  100.476">  1  3  2 -1</clus>
</clustering>
</event>
<event>
 6    0  0.8610502E+002  0.1467929E+03  0.7546771E-02  0.1204470E+00
         21   -1    0    0  502  501  0.00000000000E+00  0.00000000000E+00  0.69093235985E+03  0.69093235985E+03  0.00000000000E+00 0.  1.
         21   -1    0    0  504  502 -0.00000000000E+00 -0.00000000000E+00 -0.66367385606E+03  0.66367385606E+03  0.00000000000E+00 0.  1.
         21    1    1    2  503  506 -0.81880920922E+02 -0.34159065959E+02  0.39723597692E+03  0.40702303173E+03  0.00000000000E+00 0.  1.
         21    1    1    2  504  503  0.13884517052E+03  0.24635135316E+02 -0.64407706479E+03  0.65933309992E+03  0.00000000000E+00 0.  1.
         21    1    1    2  505  501 -0.16056247257E+02  0.34549066986E+02  0.16017980165E+03  0.16464813987E+03  0.00000000000E+00 0.  1.
         21    1    1    2  506  505 -0.40908002337E+02 -0.25025136343E+02  0.11391979000E+03  0.12360194439E+03  0.00000000000E+00 0.  1.
<scales pt_clust_3="30.33774" pt_clust_4="140.87367" pt_clust_5="38.09778" pt_clust_6="30.33774"></scales>
<clustering>
<clus scale="   30.338">  3  6 -1 -1</clus>
<clus scale="   38.098">  1  5  2 -1</clus>
<clus scale="  140.874">  2  4  1 -1</clus>
<clus scale="   38.098">  1  3  2 -1</clus>
</clustering>
</event>
<event>
 6    0  0.8610502E+002  0.9748697E+02  0.7546771E-02  0.1285671E+00
         21   -1    0    0  503  501  0.00000000000E+00  0.00000000000E+00  0.36909919578E+03  0.36909919578E+03  0.00000000000E+00 0.  1.
         21   -1    0    0  506  502 -0.00000000000E+00 -0.00000000000E+00 -0.66909875150E+03  0.66909875150E+03  0.00000000000E+00 0. -1.
         21    1    1    2  503  504  0.30497157092E+02  0.79733637073E+02  0.44373858448E+01  0.85482278074E+02  0.00000000000E+00 0.  1.
         21    1    1    2  504  502 -0.98933539025E+02 -0.57618168098E+02 -0.66592460497E+02  0.13244717526E+03  0.00000000000E+00 0.  1.
         21    1    1    2  505  501  0.36315421832E+02  0.17008938156E+02  0.28861164001E+03  0.29138426963E+03  0.00000000000E+00 0.  1.
         21    1    1    2  506  505  0.32120960101E+02 -0.39124407130E+02 -0.52645612107E+03  0.52888422431E+03  0.00000000000E+00 0. -1.
<scales pt_clust_3="97.48697" pt_clust_4="14000.00000" pt_clust_5="40.10129" pt_clust_6="50.77631"></scales>
<clustering>
<clus scale="   40.101">  1  5  2 -1</clus>
<clus scale="   50.776">  2  6  1 -1</clus>
<clus scale="   97.487">  1  3  2 -1</clus>
<clus scale="   40.101">  1  3  2 -1</clus>
</clustering>
</event>
<event>
 6    0  0.8610502E+002  0.8410832E+02  0.7546771E-02  0.1317781E+00
         21   -1    0    0  504  501  0.00000000000E+00  0.00000000000E+00  0.89281871596E+03  0.89281871596E+03  0.00000000000E+00 0. -1.
         21   -1    0    0  506  502 -0.00000000000E+00 -0.00000000000E+00 -0.50799365271E+02  0.50799365271E+02  0.00000000000E+00 0.  1.
         21    1    1    2  503  502 -0.60118868019E+02  0.28160949079E+02  0.86267106434E+02  0.10885463241E+03  0.00000000000E+00 0. -1.
         21    1    1    2  504  503  0.48364310309E+02 -0.36995586566E+02  0.24305602727E+03  0.25056738082E+03  0.00000000000E+00 0.  1.
         21    1    1    2  505  501  0.44094600172E+02  0.67697881988E+02  0.51065105692E+03  0.51700274557E+03  0.00000000000E+00 0. -1.
         21    1    1    2  506  505 -0.32340042461E+02 -0.58863244501E+02  0.20451600586E+01  0.67193322431E+02  0.00000000000E+00 0.  1.
<scales pt_clust_3="57.43677" pt_clust_4="60.89154" pt_clust_5="14000.00000" pt_clust_6="84.10832"></scales>
<clustering>
<clus scale="   60.892">  1  4  2 -1</clus>
<clus scale="   57.437">  2  3  1 -1</clus>
<clus scale="   84.108">  2  6  1 -1</clus>
<clus scale="   60.892">  1  3  2 -1</clus>
</clustering>
</event>
<event>
 6    0  0.8610502E+002  0.1250076E+03  0.7546771E-02  0.1235057E+00
         21   -1    0    0  503  501  0.00000000000E+00  0.00000000000E+00  0.11158104275E+03  0.11158104275E+03  0.00000000000E+00 0. -1.
         21   -1    0    0  506  502 -0.00000000000E+00 -0.00000000000E+00 -0.32429836066E+03  0.32429836066E+03  0.00000000000E+00 0. -1.
         21    1    1    2  503  505  0.28816256539E+02 -0.91602897002E+01  0.53772920031E+02  0.61691283638E+02  0.00000000000E+00 0. -1.
         21    1    1    2  504  501 -0.56928719034E+02 -0.13326061840E+02 -0.81285871752E+02  0.10012919615E+03  0.00000000000E+00 0. -1.
         21    1    1    2  505  502  0.61039680758E+02  0.82325695883E+02 -0.33722915892E+02  0.10789160248E+03  0.00000000000E+00 0. -1.
         21    1    1    2  506  504 -0.32927218262E+02 -0.59839344343E+02 -0.15148145029E+03  0.16616732115E+03  0.00000000000E+00 0. -1.
<scales pt_clust_3="30.23719" pt_clust_4="51.37706" pt_clust_5="110.99979" pt_clust_6="51.37706"></scales>
<clustering>
<clus scale="   30.237">  1  3  2 -1</clus>
<clus scale="   51.377">  4  6 -1 -1</clus>
<clus scale="  111.000">  1  5  2 -1</clus>
<clus scale="   30.237">  1  3  2 -1</clus>
</clustering>
</event>
<event>
 6    0  0.8610502E+002  0.3184998E+03  0.7546771E-02  0.1076342E+00
         21   -1    0    0  506  501  0.00000000000E+00  0.00000000000E+00  0.30933087313E+04  0.30933087313E+04  0.00000000000E+00 0. -1.
         21   -1    0    0  503  502 -0.00000000000E+00 -0.00000000000E+00 -0.10433114594E+03  0.10433114594E+03  0.00000000000E+00 0. -1.
         21    1    1    2  503  501  0.12384955956E+03 -0.30783862156E+03  0.21528703349E+04  0.21782915345E+04  0.00000000000E+00 0. -1.
         21    1    1    2  504  505 -0.44988755284E+02  0.49541999133E+02  0.14680938923E+03  0.16134247596E+03  0.00000000000E+00 0. -1.
         21    1    1    2  505  502 -0.31216021523E+02  0.56161408459E+02 -0.55433205937E+02  0.84860969358E+02  0.00000000000E+00 0. -1.
         21    1    1    2  506  504 -0.47644782754E+02  0.20213521397E+03  0.74473106714E+03  0.77314489743E+03  0.00000000000E+00 0. -1.
<scales pt_clust_3="308.12703" pt_clust_4="45.76586" pt_clust_5="64.25375" pt_clust_6="45.76586"></scales>
<clustering>
<clus scale="   45.766">  4  6 -1 -1</clus>
<clus scale="   64.254">  2  5  1 -1</clus>
<clus scale="  308.127">  1  3  2 -1</clus>
<clus scale="  308.127">  1  3  2 -1</clus>
</clustering>
</event>
<event>
 6    0  0.8610502E+002  0.9695324E+02  0.7546771E-02  0.1286837E+00
         21   -1    0    0  506  501  0.00000000000E+00  0.00000000000E+00  0.93510942526E+03  0.93510942526E+03  0.00000000000E+00 0.  1.
         21   -1    0    0  504  502 -0.00000000000E+00 -0.00000000000E+00 -0.15235447612E+04  0.15235447612E+04  0.00000000000E+00 0.  1.
         21    1    1    2  503  501 -0.56369970744E+02 -0.41820077591E+02  0.38681603295E+02  0.80142117048E+02  0.00000000000E+00 0.  1.
         21    1    1    2  504  505  0.22451890485E+02  0.94748434379E+02 -0.14669721549E+04  0.14702002096E+04  0.00000000000E+00 0.  1.
         21    1    1    2  505  503  0.37418500184E+01 -0.85807369217E+02  0.21233607086E+02  0.88474697645E+02  0.00000000000E+00 0.  1.
         21    1    1    2  506  502  0.30176230241E+02  0.32879012429E+02  0.81862160858E+03  0.81983716211E+03  0.00000000000E+00 0.  1.
<scales pt_clust_3="47.91495" pt_clust_4="14000.00000" pt_clust_5="96.95324" pt_clust_6="44.62773"></scales>
<clustering>
<clus scale="   44.628">  1  6  2 -1</clus>
<clus scale="   47.915">  1  3  2 -1</clus>
<clus scale="   96.953">  1  5  2 -1</clus>
<clus scale="   44.628">  1  3  2 -1</clus>
</clustering>
</event>
<event>
 6    0  0.8610502E+002  0.1137615E+03  0.7546771E-02  0.1253759E+00
         21   -1    0    0  504  501  0.00000000000E+00  0.00000000000E+00  0.36978535898E+02  0.36978535898E+02  0.00000000000E+00 0. -1.
         21   -1    0    0  503  502 -0.00000000000E+00 -0.00000000000E+00 -0.24818316209E+04  0.24818316209E+04  0.00000000000E+00 0. -1.
         21    1    1    2  503  501 -0.23307555823E+02  0.21130279347E+02 -0.77050799209E+02  0.83225936597E+02  0.00000000000E+00 0. -1.
         21    1    1    2  504  505 -0.19872333797E+02  0.40147902078E+02 -0.92867906440E+01  0.45749406250E+02  0.00000000000E+00 0. -1.
         21    1    1    2  505  506 -0.68651508936E+02 -0.17865253610E+02 -0.75232933640E+02  0.10340305252E+03  0.00000000000E+00 0. -1.
         21    1    1    2  506  502  0.11183139856E+03 -0.43412927816E+02 -0.22832825615E+04  0.22864317615E+04  0.00000000000E+00 0. -1.
<scales pt_clust_3="31.45999" pt_clust_4="60.86215" pt_clust_5="113.76149" pt_clust_6="14000.00000"></scales>
<clustering>
<clus scale="   31.460">  1  3  2 -1</clus>
<clus scale="   60.862">  1  4  2 -1</clus>
<clus scale="  113.761">  1  5  2 -1</clus>
<clus scale="   31.460">  1  3  2 -1</clus>
</clustering>
</event>
<event>
 6    0  0.8610502E+002  0.1719498E+03  0.7546771E-02  0.1175830E+00
         21   -1    0    0  505  501  0.00000000000E+00  0.00000000000E+00  0.21966040277E+03  0.21966040277E+03  0.00000000000E+00 0.  1.
         21   -1    0    0  503  502 -0.00000000000E+00 -0.00000000000E+00 -0.51717884980E+03  0.51717884980E+03  0.00000000000E+00 0.  1.
         21    1    1    2  503  506 -0.14758754832E+02  0.36643173299E+02 -0.22776362437E+03  0.23116403609E+03  0.00000000000E+00 0.  1.
         21    1    1    2  504  502  0.16976822817E+03 -0.17033051161E+03 -0.19598937842E+02  0.24128376001E+03  0.00000000000E+00 0.  1.
         21    1    1    2  505  504 -0.12011853352E+03  0.80856801608E+02  0.43636988647E+02  0.15122986226E+03  0.00000000000E+00 0.  1.
         21    1    1    2  506  501 -0.34890939813E+02  0.52830536704E+02 -0.93792873468E+02  0.11316159420E+03  0.00000000000E+00 0.  1.
<scales pt_clust_3="39.50371" pt_clust_4="171.94984" pt_clust_5="14000.00000" pt_clust_6="77.28639"></scales>
<clustering>
<clus scale="   39.504">  2  3  1 -1</clus>
<clus scale="   77.286">  2  6  1 -1</clus>
<clus scale="  171.950">  2  4  1 -1</clus>
<clus scale="  171.950">  1  3  2 -1</clus>
</clustering>
</event>
<event>
 6    0  0.8610502E+002  0.9824264E+02  0.7546771E-02  0.1284035E+00
         21   -1    0    0  505  501  0.00000000000E+00  0.00000000000E+00  0.57009985623E+02  0.57009985623E+02  0.00000000000E+00 0.  1.
         21   -1    0    0  506  502 -0.00000000000E+00 -0.00000000000E+00 -0.18596144966E+04  0.18596144966E+04  0.00000000000E+00 0. -1.
         21    1    1    2  503  502 -0.17422067762E+01  0.30567681007E+02 -0.27105139432E+03  0.27277513958E+03  0.00000000000E+00 0. -1.
         21    1    1    2  504  501  0.59809486867E+02  0.81404529964E+02  0.33199126046E+01  0.10106875896E+03  0.00000000000E+00 0.  1.
         21    1    1    2  505  503 -0.20128389154E+02 -0.74731903511E+02 -0.45009614637E+03  0.45670181785E+03  0.00000000000E+00 0. -1.
         21    1    1    2  506  504 -0.37938890937E+02 -0.37240307460E+02 -0.10847768829E+04  0.10860787658E+04  0.00000000000E+00 0. -1.
<scales pt_clust_3="30.61729" pt_clust_4="98.24264" pt_clust_5="14000.00000" pt_clust_6="42.40565"></scales>
<clustering>
<clus scale="   30.617">  2  3  1 -1</clus>
<clus scale="   42.406">  2  6  1 -1</clus>
<clus scale="   98.243">  1  4  2 -1</clus>
<clus scale="   98.243">  1  3  2 -1</clus>
</clustering>
</event>
<event>
 6    0  0.8610502E+002  0.8611184E+02  0.7546771E-02  0.1312550E+00
         21   -1    0    0  504  501  0.00000000000E+00  0.00000000000E+00  0.11669686925E+03  0.11669686925E+03  0.00000000000E+00 0. -1.
         21   -1    0    0  505  502 -0.00000000000E+00 -0.00000000000E+00 -0.15161093895E+04  0.15161093895E+04  0.00000000000E+00 0.  1.
         21    1    1    2  503  502 -0.47598701048E+02  0.12383448115E+02 -0.76245453323E+03  0.76403920146E+03  0.00000000000E+00 0.  1.
         21    1    1    2  504  506  0.76836882983E+02 -0.43916735562E+02 -0.61470545158E+03  0.62104378143E+03  0.00000000000E+00 0.  1.
         21    1    1    2  505  501 -0.30078850349E+02  0.81221879333E+02  0.90033796870E+02  0.12493124309E+03  0.00000000000E+00 0. -1.
         21    1    1    2  506  503  0.84066841398E+00 -0.49688591886E+02 -0.11228633232E+03  0.12279203277E+03  0.00000000000E+00 0. -1.
<scales pt_clust_3="49.18319" pt_clust_4="86.11184" pt_clust_5="14000.00000" pt_clust_6="48.20788"></scales>
<clustering>
<clus scale="   49.183">  2  3  1 -1</clus>
<clus scale="   48.208">  2  6  1 -1</clus>
<clus scale="   86.112">  2  4  1 -1</clus>
<clus scale="   86.112">  1  3  2 -1</clus>
</clustering>
</event>
<event>
 6    0  0.8610502E+002  0.1042792E+03  0.7546771E-02  0.1271546E+00
         21   -1    0    0  505  501  0.00000000000E+00  0.00000000000E+00  0.19958592275E+03  0.19958592275E+03  0.00000000000E+00 0.  1.
         21   -1    0    0  506  502 -0.00000000000E+00 -0.00000000000E+00 -0.17842463341E+03  0.17842463341E+03  0.00000000000E+00 0.  1.
         21    1    1    2  503  502  0.70693511963E+02 -0.12896500083E+03 -0.70831503160E+02  0.16323800389E+03  0.00000000000E+00 0.  1.
         21    1    1    2  504  501  0.19712151252E+02  0.33616711195E+02 -0.46623236159E+01  0.39247795353E+02  0.00000000000E+00 0.  1.
         21    1    1    2  505  503 -0.75628233513E+02  0.62805303703E+02  0.99243196243E+02  0.13969018533E+03  0.00000000000E+00 0.  1.
         21    1    1    2  506  504 -0.14777429702E+02  0.32542985936E+02 -0.25880801340E+01  0.35834571589E+02  0.00000000000E+00 0.  1.
<scales pt_clust_3="14000.00000" pt_clust_4="74.73148" pt_clust_5="104.27920" pt_clust_6="32.94373"></scales>
<clustering>
<clus scale="   32.944">  4  6 -1 -1</clus>
<clus scale="   74.731">  2  4  1 -1</clus>
<clus scale="  104.279">  1  5  2 -1</clus>
<clus scale="  104.279">  1  3  2 -1</clus>
</clustering>
</event>
<event>
 6    0  0.8610502E+002  0.1302259E+03  0.7546771E-02  0.1227121E+00
         21   -1    0    0  503  501  0.00000000000E+00  0.00000000000E+00  0.46451661333E+02  0.46451661333E+02  0.00000000000E+00 0. -1.
         21   -1    0    0  505  502 -0.00000000000E+00 -0.00000000000E+00 -0.16383788181E+04  0.16383788181E+04  0.00000000000E+00 0. -1.
         21    1    1    2  503  504  0.32020087185E+02  0.49482018027E+02 -0.84372975388E+02  0.10292013927E+03  0.00000000000E+00 0. -1.
         21    1    1    2  504  506  0.72775662231E+02  0.67250749476E+02 -0.67674665586E+02  0.11999508607E+03  0.00000000000E+00 0. -1.
         21    1    1    2  505  501 -0.36911973987E+02 -0.17725619611E+02 -0.41177689790E+02  0.58071452114E+02  0.00000000000E+00 0. -1.
         21    1    1    2  506  502 -0.67883775430E+02 -0.99007147893E+02 -0.13987018260E+04  0.14038438020E+04  0.00000000000E+00 0. -1.
<scales pt_clust_3="34.17881" pt_clust_4="34.17881" pt_clust_5="40.94742" pt_clust_6="122.45309"></scales>
<clustering>
<clus scale="   34.179">  3  4 -1 -1</clus>
<clus scale="   40.947">  1  5  2 -1</clus>
<clus scale="  122.453">  2  6  1 -1</clus>
<clus scale="   40.947">  1  3  2 -1</clus>
</clustering>
</event>
<event>
 6    0  0.8610502E+002  0.1290532E+03  0.7546771E-02  0.1228867E+00
         21   -1    0    0  503  501  0.00000000000E+00  0.00000000000E+00  0.19007762468E+03  0.19007762468E+03  0.00000000000E+00 0.  1.
         21   -1    0    0  506  502 -0.00000000000E+00 -0.00000000000E+00 -0.57186281493E+03  0.57186281493E+03  0.00000000000E+00 0.  1.
         21    1    1    2  503  505 -0.18602784783E+02 -0.27543608895E+02  0.50882577715E+02  0.60776234727E+02  0.00000000000E+00 0.  1.
         21    1    1    2  504  501  0.11604991324E+03 -0.52870719643E+01 -0.12461206383E+01  0.11617696980E+03  0.00000000000E+00 0.  1.
         21    1    1    2  505  502 -0.15370725052E+03 -0.25241919814E+01 -0.54083149913E+01  0.15382308109E+03  0.00000000000E+00 0.  1.
         21    1    1    2  506  504  0.56260122054E+02  0.35354872841E+02 -0.42601333233E+03  0.43116415399E+03  0.00000000000E+00 0.  1.
<scales pt_clust_3="33.23724" pt_clust_4="129.05319" pt_clust_5="14000.00000" pt_clust_6="65.86392"></scales>
<clustering>
<clus scale="   33.237">  1  3  2 -1</clus>
<clus scale="   65.864">  2  6  1 -1</clus>
<clus scale="  129.053">  1  4  2 -1</clus>
<clus scale="   33.237">  1  3  2 -1</clus>
</clustering>
</event>
<event>
 6    0  0.8610502E+002  0.1000205E+03  0.7546771E-02  0.1280253E+00
         21   -1    0    0  503  501  0.00000000000E+00  0.00000000000E+00  0.40710901074E+03  0.40710901074E+03  0.00000000000E+00 0.  1.
         21   -1    0    0  506  502 -0.00000000000E+00 -0.00000000000E+00 -0.15410855681E+04  0.15410855681E+04  0.00000000000E+00 0. -1.
         21    1    1    2  503  502  0.11456809704E+02 -0.44485578592E+02  0.14194240907E+02  0.48080158757E+02  0.00000000000E+00 0.  1.
         21    1    1    2  504  501  0.87496417148E+02  0.96119479044E+02  0.22264769543E+03  0.25781111990E+03  0.00000000000E+00 0.  1.
         21    1    1    2  505  504 -0.93472897495E+02  0.35804788957E+01  0.11904935308E+03  0.15140261181E+03  0.00000000000E+00 0.  1.
         21    1    1    2  506  505 -0.54803293572E+01 -0.55214379348E+02 -0.14898678468E+04  0.14909006884E+04  0.00000000000E+00 0. -1.
<scales pt_clust_3="45.93719" pt_clust_4="100.02050" pt_clust_5="14000.00000" pt_clust_6="55.54494"></scales>
<clustering>
<clus scale="   45.937">  1  3  2 -1</clus>
<clus scale="   55.545">  2  6  1 -1</clus>
<clus scale="  100.020">  1  4  2 -1</clus>
<clus scale="   45.937">  1  3  2 -1</clus>
</clustering>
</event>
<event>
 6    0  0.8610502E+002  0.2213979E+03  0.7546771E-02  0.1132845E+00
         21   -1    0    0  505  501  0.00000000000E+00  0.00000000000E+00  0.24708895936E+03  0.24708895936E+03  0.00000000000E+00 0. -1.
         21   -1    0    0  504  502 -0.00000000000E+00 -0.00000000000E+00 -0.35615013469E+03  0.35615013469E+03  0.00000000000E+00 0.  1.
         21    1    1    2  503  501  0.81610047272E+02  0.72959703907E+01 -0.27196070060E+01  0.81980651753E+02  0.00000000000E+00 0. -1.
         21    1    1    2  504  506 -0.20071792252E+03 -0.50492304809E+02 -0.14414248615E+03  0.25221858294E+03  0.00000000000E+00 0.  1.
         21    1    1    2  505  502  0.92370462484E+00 -0.31789463474E+02  0.10790871981E+03  0.11249762233E+03  0.00000000000E+00 0. -1.
         21    1    1    2  506  503  0.11818417063E+03  0.74985797892E+02 -0.70107801984E+02  0.15654223702E+03  0.00000000000E+00 0. -1.
<scales pt_clust_3="54.50703" pt_clust_4="210.03737" pt_clust_5="31.80288" pt_clust_6="54.50703"></scales>
<clustering>
<clus scale="   31.803">  1  5  2 -1</clus>
<clus scale="   54.507">  3  6 -1 -1</clus>
<clus scale="  210.037">  2  4  1 -1</clus>
<clus scale="   31.803">  1  3  2 -1</clus>
</clustering>
</event>
<event>
 6    0  0.8610502E+002  0.1163662E+03  0.7546771E-02  0.1249215E+00
         21   -1    0    0  506  501  0.00000000000E+00  0.00000000000E+00  0.15042068337E+03  0.15042068337E+03  0.00000000000E+00 0.  1.
         21   -1    0    0  504  502 -0.00000000000E+00 -0.00000000000E+00 -0.23187243735E+03  0.23187243735E+03  0.00000000000E+00 0.  1.
         21    1    1    2  503  501  0.45164744747E+02  0.14635090888E+02  0.82535055743E+02  0.95215941312E+02  0.00000000000E+00 0.  1.
         21    1    1    2  504  505 -0.67322024189E+02 -0.28435138687E+02 -0.59260475261E+02  0.94088341367E+02  0.00000000000E+00 0.  1.
         21    1    1    2  505  503 -0.58636384917E+02 -0.99635004174E+01 -0.89419108113E+02  0.10739308112E+03  0.00000000000E+00 0.  1.
         21    1    1    2  506  502  0.80793664359E+02  0.23763548217E+02 -0.15307226352E+02  0.85595756922E+02  0.00000000000E+00 0.  1.
<scales pt_clust_3="47.47673" pt_clust_4="30.58187" pt_clust_5="30.58187" pt_clust_6="111.31901"></scales>
<clustering>
<clus scale="   30.582">  4  5 -1 -1</clus>
<clus scale="   47.477">  1  3  2 -1</clus>
<clus scale="  111.319">  1  6  2 -1</clus>
<clus scale="   47.477">  1  3  2 -1</clus>
</clustering>
</event>
<event>
 6    0  0.2619165E+003  0.1108736E+03  0.7546771E-02  0.1258961E+00
         21   -1    0    0  503  501  0.00000000000E+00  0.00000000000E+00  0.61138884630E+03  0.61138884630E+03  0.00000000000E+00 0. -1.
         21   -1    0    0  505  502 -0.00000000000E+00 -0.00000000000E+00 -0.16987044509E+04  0.16987044509E+04  0.00000000000E+00 0. -1.
         21    1    1    2  503  504 -0.49155669989E+02  0.40450426635E+02 -0.84725001500E+01  0.64220714460E+02  0.00000000000E+00 0.  1.
         21    1    1    2  504  506  0.19027316156E+02  0.71325509723E+02 -0.29909475531E+02  0.79648878359E+02  0.00000000000E+00 0. -1.
         21    1    1    2  505  501  0.48140896902E+02  0.70252793379E+00  0.55558469852E+03  0.55766692275E+03  0.00000000000E+00 0. -1.
         21    1    1    2  506  502 -0.18012543068E+02 -0.11247846429E+03 -0.16045183275E+04  0.16085567817E+04  0.00000000000E+00 0. -1.
<scales pt_clust_3="47.67625" pt_clust_4="110.87360" pt_clust_5="48.14602" pt_clust_6="14000.00000"></scales>
<clustering>
<clus scale="   48.146">  1  5  2 -1</clus>
<clus scale="   47.676">  1  3  2 -1</clus>
<clus scale="  110.874">  1  4  2 -1</clus>
<clus scale="   48.146">  1  3  2 -1</clus>
</clustering>
</event>
<event>
 6    0  0.8610502E+002  0.2183532E+03  0.7546771E-02  0.1135117E+00
         21   -1    0    0  503  501  0.00000000000E+00  0.00000000000E+00  0.10820395628E+04  0.10820395628E+04  0.00000000000E+00 0. -1.
         21   -1    0    0  501  502 -0.00000000000E+00 -0.00000000000E+00 -0.60304364686E+02  0.60304364686E+02  0.00000000000E+00 0. -1.
         21    1    1    2  503  504 -0.32037526036E+01  0.38950014680E+02  0.19541188338E+03  0.19928163949E+03  0.00000000000E+00 0.  1.
         21    1    1    2  504  506  0.47161320500E+02  0.17874786378E+03  0.44665962144E+03  0.48340439218E+03  0.00000000000E+00 0. -1.
         21    1    1    2  505  502  0.42143477672E+02 -0.44893493231E+02  0.58521472329E+02  0.84948579555E+02  0.00000000000E+00 0.  1.
         21    1    1    2  506  505 -0.86101045568E+02 -0.17280438523E+03  0.32114222098E+03  0.37470931627E+03  0.00000000000E+00 0. -1.
<scales pt_clust_3="30.77418" pt_clust_4="30.77418" pt_clust_5="61.57514" pt_clust_6="207.84210"></scales>
<clustering>
<clus scale="   30.774">  3  4 -1 -1</clus>
<clus scale="   61.575">  2  5  1 -1</clus>
<clus scale="  207.842">  2  6  1 -1</clus>
<clus scale="  218.353">  1  3  2 -1</clus>
</clustering>
</event>
<event>
 6    0  0.8610502E+002  0.1470775E+03  0.7546771E-02  0.1204111E+00
         21   -1    0    0  506  501  0.00000000000E+00  0.00000000000E+00  0.19401679690E+03  0.19401679690E+03  0.00000000000E+00 0.  1.
         21   -1    0    0  504  502 -0.00000000000E+00 -0.00000000000E+00 -0.10325878544E+04  0.10325878544E+04  0.00000000000E+00 0. -1.
         21    1    1    2  503  505 -0.83348763658E+02  0.21485882639E+02  0.55808704512E+02  0.10258299594E+03  0.00000000000E+00 0.  1.
         21    1    1    2  504  501 -0.57637231454E+00 -0.45505890843E+02 -0.41381873719E+02  0.61510794003E+02  0.00000000000E+00 0. -1.
         21    1    1    2  505  502  0.14069823179E+03 -0.13471977187E+00 -0.94297412662E+03  0.95341292946E+03  0.00000000000E+00 0. -1.
         21    1    1    2  506  503 -0.56773095817E+02  0.24154727975E+02  0.89976238305E+02  0.10909793193E+03  0.00000000000E+00 0.  1.
<scales pt_clust_3="36.30081" pt_clust_4="45.50954" pt_clust_5="140.68910" pt_clust_6="36.30081"></scales>
<clustering>
<clus scale="   36.301">  3  6 -1 -1</clus>
<clus scale="   45.510">  1  4  2 -1</clus>
<clus scale="  140.689">  2  5  1 -1</clus>
<clus scale="   45.510">  1  3  2 -1</clus>
</clustering>
</event>
<event>
 6    0  0.8610502E+002  0.1667953E+03  0.7546771E-02  0.1181232E+00
         21   -1    0    0  505  501  0.00000000000E+00  0.00000000000E+00  0.99743560872E+03  0.99743560872E+03  0.00000000000E+00 0. -1.
         21   -1    0    0  506  502 -0.00000000000E+00 -0.00000000000E+00 -0.17771713743E+03  0.17771713743E+03  0.00000000000E+00 0.  1.
         21    1    1    2  503  502 -0.14927834797E+02  0.14799743796E+03  0.23727209267E+03  0.28004308214E+03  0.00000000000E+00 0. -1.
         21    1    1    2  504  501 -0.29495733337E+02 -0.15229694067E+03 -0.68491874415E+02  0.16957444762E+03  0.00000000000E+00 0.  1.
         21    1    1    2  505  503  0.44273867070E+01  0.29835873302E+02  0.67266766122E+03  0.67334357020E+03  0.00000000000E+00 0. -1.
         21    1    1    2  506  504  0.39996181428E+02 -0.25536370590E+02 -0.21729408182E+02  0.52191646186E+02  0.00000000000E+00 0.  1.
<scales pt_clust_3="166.79530" pt_clust_4="14000.00000" pt_clust_5="30.16258" pt_clust_6="46.89237"></scales>
<clustering>
<clus scale="   30.163">  1  5  2 -1</clus>
<clus scale="   46.892">  2  6  1 -1</clus>
<clus scale="  166.795">  1  3  2 -1</clus>
<clus scale="   30.163">  1  3  2 -1</clus>
</clustering>
</event>
<event>
 6    0  0.8610502E+002  0.1511297E+03  0.7546771E-02  0.1199092E+00
         21   -1    0    0  506  501  0.00000000000E+00  0.00000000000E+00  0.12735196184E+03  0.12735196184E+03  0.00000000000E+00 0. -1.
         21   -1    0    0  504  502 -0.00000000000E+00 -0.00000000000E+00 -0.58040191934E+03  0.58040191934E+03  0.00000000000E+00 0.  1.
         21    1    1    2  503  505 -0.96504132898E+02 -0.85067230089E+02 -0.20789186203E+03  0.24447598573E+03  0.00000000000E+00 0.  1.
         21    1    1    2  504  503 -0.18817274451E+02 -0.24857070164E+02 -0.25640792910E+03  0.25829632181E+03  0.00000000000E+00 0.  1.
         21    1    1    2  505  501  0.25730901786E+02 -0.29323068845E+02  0.44300628532E+01  0.39262541055E+02  0.00000000000E+00 0. -1.
         21    1    1    2  506  502  0.89590505563E+02  0.13924736910E+03  0.68197707686E+01  0.16571903259E+03  0.00000000000E+00 0. -1.
<scales pt_clust_3="151.12971" pt_clust_4="31.17633" pt_clust_5="39.38440" pt_clust_6="14000.00000"></scales>
<clustering>
<clus scale="   31.176">  2  4  1 -1</clus>
<clus scale="   39.384">  1  5  2 -1</clus>
<clus scale="  151.130">  2  3  1 -1</clus>
<clus scale="   39.384">  1  3  2 -1</clus>
</clustering>
</event>
<event>
 6    0  0.8610502E+002  0.1237383E+03  0.7546771E-02  0.1237054E+00
         21   -1    0    0  505  501  0.00000000000E+00  0.00000000000E+00  0.28245505413E+03  0.28245505413E+03  0.00000000000E+00 0. -1.
         21   -1    0    0  504  502 -0.00000000000E+00 -0.00000000000E+00 -0.23355203362E+03  0.23355203362E+03  0.00000000000E+00 0. -1.
         21    1    1    2  503  501 -0.71621915727E+02 -0.34092346051E+02  0.96096611991E+02  0.12460556050E+03  0.00000000000E+00 0. -1.
         21    1    1    2  504  506  0.77265205643E+02  0.82335144920E+02 -0.18505582751E+03  0.21678248866E+03  0.00000000000E+00 0. -1.
         21    1    1    2  505  502  0.30566845655E+02  0.14844804689E+02  0.51559610650E+02  0.61750252874E+02  0.00000000000E+00 0. -1.
         21    1    1    2  506  503 -0.36210135571E+02 -0.63087603558E+02  0.86302625381E+02  0.11286878571E+03  0.00000000000E+00 0. -1.
<scales pt_clust_3="44.66202" pt_clust_4="115.14455" pt_clust_5="33.98088" pt_clust_6="44.66202"></scales>
<clustering>
<clus scale="   33.981">  1  5  2 -1</clus>
<clus scale="   44.662">  3  6 -1 -1</clus>
<clus scale="  115.145">  2  4  1 -1</clus>
<clus scale="   33.981">  1  3  2 -1</clus>
</clustering>
</event>
<event>
 6    0  0.8610502E+002  0.3219518E+03  0.7546771E-02  0.1074755E+00
         21   -1    0    0  506  501  0.00000000000E+00  0.00000000000E+00  0.14643995276E+04  0.14643995276E+04  0.00000000000E+00 0.  1.
         21   -1    0    0  503  502 -0.00000000000E+00 -0.00000000000E+00 -0.44729839868E+03  0.44729839868E+03  0.00000000000E+00 0. -1.
         21    1    1    2  503  505  0.33059303190E+02  0.26089755745E+00 -0.22002086886E+02  0.39712434101E+02  0.00000000000E+00 0. -1.
         21    1    1    2  504  502 -0.97973995792E+02  0.27465656813E+03 -0.32256418731E+03  0.43483650859E+03  0.00000000000E+00 0. -1.
         21    1    1    2  505  501 -0.55316619569E+01  0.40902572050E+02  0.40168409601E+01  0.41469925194E+02  0.00000000000E+00 0.  1.
         21    1    1    2  506  504  0.70446354560E+02 -0.31582003774E+03  0.13576505621E+04  0.13956790584E+04  0.00000000000E+00 0.  1.
<scales pt_clust_3="33.06033" pt_clust_4="14000.00000" pt_clust_5="41.11378" pt_clust_6="321.95180"></scales>
<clustering>
<clus scale="   33.060">  2  3  1 -1</clus>
<clus scale="   41.114">  2  5  1 -1</clus>
<clus scale="  321.952">  1  6  2 -1</clus>
<clus scale="  321.952">  1  3  2 -1</clus>
</clustering>
</event>
<event>
 6    0  0.8610502E+002  0.1719188E+03  0.7546771E-02  0.1175862E+00
         21   -1    0    0  503  501  0.00000000000E+00  0.00000000000E+00  0.11356443291E+04  0.11356443291E+04  0.00000000000E+00 0.  1.
         21   -1    0    0  506  502 -0.00000000000E+00 -0.00000000000E+00 -0.25974809170E+02  0.25974809170E+02  0.00000000000E+00 0.  1.
         21    1    1    2  503  504  0.32277029386E+02 -0.76936352721E+02  0.22686126118E+03  0.24171686085E+03  0.00000000000E+00 0.  1.
         21    1    1    2  504  502  0.52798772535E+02 -0.60791439029E+02  0.41692694139E+03  0.42463087959E+03  0.00000000000E+00 0.  1.
         21    1    1    2  505  501 -0.21595435038E+02  0.49664023275E+02  0.21863267650E+03  0.22524015018E+03  0.00000000000E+00 0.  1.
         21    1    1    2  506  505 -0.63480366883E+02  0.88063768475E+02  0.24724864084E+03  0.27003124762E+03  0.00000000000E+00 0.  1.
<scales pt_clust_3="56.85299" pt_clust_4="56.85299" pt_clust_5="31.91302" pt_clust_6="168.07247"></scales>
<clustering>
<clus scale="   31.913">  5  6 -1 -1</clus>
<clus scale="   56.853">  3  4 -1 -1</clus>
<clus scale="  168.072">  2  5  1 -1</clus>
<clus scale="  171.919">  1  3  2 -1</clus>
</clustering>
</event>
<event>
 6    0  0.8610502E+002  0.6935069E+02  0.7546771E-02  0.1362315E+00
         21   -1    0    0  503  501  0.00000000000E+00  0.00000000000E+00  0.11547028002E+04  0.11547028002E+04  0.00000000000E+00 0. -1.
         21   -1    0    0  505  502 -0.00000000000E+00 -0.00000000000E+00 -0.64470247295E+03  0.64470247295E+03  0.00000000000E+00 0.  1.
         21    1    1    2  503  504 -0.81004202511E+01  0.50910754253E+02  0.11317438082E+04  0.11329172826E+04  0.00000000000E+00 0. -1.
         21    1    1    2  504  502 -0.60076701557E+02  0.26794654751E+02 -0.20058344466E+03  0.21109448563E+03  0.00000000000E+00 0.  1.
         21    1    1    2  505  506 -0.19898043861E+00 -0.79851847468E+02 -0.33998538771E+03  0.34923691241E+03  0.00000000000E+00 0.  1.
         21    1    1    2  506  501  0.68376102246E+02  0.21464384644E+01 -0.81174648617E+02  0.10615659252E+03  0.00000000000E+00 0.  1.
<scales pt_clust_3="51.55116" pt_clust_4="63.96800" pt_clust_5="69.35069" pt_clust_6="14000.00000"></scales>
<clustering>
<clus scale="   51.551">  1  3  2 -1</clus>
<clus scale="   69.351">  2  5  1 -1</clus>
<clus scale="   63.968">  2  4  1 -1</clus>
<clus scale="   51.551">  1  3  2 -1</clus>
</clustering>
</event>
<event>
 6    0  0.8610502E+002  0.1320994E+03  0.7546771E-02  0.1224373E+00
         21   -1    0    0  504  501  0.00000000000E+00  0.00000000000E+00  0.72913252915E+03  0.72913252915E+03  0.00000000000E+00 0. -1.
         21   -1    0    0  505  502 -0.00000000000E+00 -0.00000000000E+00 -0.45383720619E+03  0.45383720619E+03  0.00000000000E+00 0. -1.
         21    1    1    2  503  506  0.15456771682E+03  0.10175294875E+03 -0.79360967452E+02  0.20135293596E+03  0.00000000000E+00 0. -1.
         21    1    1    2  504  503 -0.50243900062E+02 -0.22172517387E+02  0.61419502254E+03  0.61664543762E+03  0.00000000000E+00 0. -1.
         21    1    1    2  505  501 -0.23301330975E+02 -0.10636562445E+03 -0.20030508875E+02  0.11071503681E+03  0.00000000000E+00 0. -1.
         21    1    1    2  506  502 -0.81022485783E+02  0.26785193085E+02 -0.23950822326E+03  0.25425632495E+03  0.00000000000E+00 0. -1.
<scales pt_clust_3="132.09938" pt_clust_4="54.91876" pt_clust_5="14000.00000" pt_clust_6="88.00981"></scales>
<clustering>
<clus scale="   54.919">  1  4  2 -1</clus>
<clus scale="   88.010">  2  6  1 -1</clus>
<clus scale="  132.099">  2  3  1 -1</clus>
<clus scale="   54.919">  1  3  2 -1</clus>
</clustering>
</event>
<event>
 6    0  0.8610502E+002  0.8070088E+02  0.7546771E-02  0.1327074E+00
         21   -1    0    0  506  501  0.00000000000E+00  0.00000000000E+00  0.54822161564E+02  0.54822161564E+02  0.00000000000E+00 0. -1.
         21   -1    0    0  503  502 -0.00000000000E+00 -0.00000000000E+00 -0.13101901016E+04  0.13101901016E+04  0.00000000000E+00 0.  1.
         21    1    1    2  503  505  0.45670791457E+01  0.44683577695E+02 -0.10057583923E+04  0.10067608574E+04  0.00000000000E+00 0.  1.
         21    1    1    2  504  502 -0.24614888963E+02 -0.10891612575E+03 -0.20747172245E+03  0.23561224676E+03  0.00000000000E+00 0.  1.
         21    1    1    2  505  501  0.50164823409E+02  0.67010319825E+02 -0.22858476069E+02  0.86772129159E+02  0.00000000000E+00 0. -1.
         21    1    1    2  506  504 -0.30117013591E+02 -0.27777717688E+01 -0.19279349233E+02  0.35867029853E+02  0.00000000000E+00 0. -1.
<scales pt_clust_3="44.85475" pt_clust_4="14000.00000" pt_clust_5="80.70088" pt_clust_6="30.24484"></scales>
<clustering>
<clus scale="   30.245">  1  6  2 -1</clus>
<clus scale="   44.855">  2  3  1 -1</clus>
<clus scale="   80.701">  1  5  2 -1</clus>
<clus scale="   30.245">  1  3  2 -1</clus>
</clustering>
</event>
<event>
 6    0  0.8610502E+002  0.1294098E+03  0.7546771E-02  0.1228334E+00
         21   -1    0    0  504  501  0.00000000000E+00  0.00000000000E+00  0.38088930913E+03  0.38088930913E+03  0.00000000000E+00 0. -1.
         21   -1    0    0  505  502 -0.00000000000E+00 -0.00000000000E+00 -0.37030233923E+03  0.37030233923E+03  0.00000000000E+00 0.  1.
         21    1    1    2  503  501  0.11804060263E+03  0.50972993784E+02  0.32933596580E+03  0.35354491700E+03  0.00000000000E+00 0. -1.
         21    1    1    2  504  502  0.39685532294E+02 -0.26807563694E+02 -0.87713883909E+02  0.99936541741E+02  0.00000000000E+00 0.  1.
         21    1    1    2  505  506 -0.23918782422E+02  0.31537225718E+02 -0.29023843319E+02  0.49082463666E+02  0.00000000000E+00 0.  1.
         21    1    1    2  506  503 -0.13380735250E+03 -0.55702655809E+02 -0.20201126867E+03  0.24862772596E+03  0.00000000000E+00 0.  1.
<scales pt_clust_3="14000.00000" pt_clust_4="37.45151" pt_clust_5="39.58162" pt_clust_6="129.40976"></scales>
<clustering>
<clus scale="   39.582">  2  5  1 -1</clus>
<clus scale="   37.452">  2  4  1 -1</clus>
<clus scale="  129.410">  2  6  1 -1</clus>
<clus scale="  129.410">  1  3  2 -1</clus>
</clustering>
</event>
<event>
 6    0  0.8610502E+002  0.2071296E+03  0.7546771E-02  0.1143859E+00
         21   -1    0    0  503  501  0.00000000000E+00  0.00000000000E+00  0.46639155060E+03  0.46639155060E+03  0.00000000000E+00 0. -1.
         21   -1    0    0  506  502 -0.00000000000E+00 -0.00000000000E+00 -0.25876843444E+03  0.25876843444E+03  0.00000000000E+00 0. -1.
         21    1    1    2  503  505 -0.17012601882E+03  0.11199748930E+03  0.20299615646E+03  0.28756519161E+03  0.00000000000E+00 0. -1.
         21    1    1    2  504  502  0.81937015128E+01  0.47843697367E+02 -0.13066640138E+03  0.13939104911E+03  0.00000000000E+00 0. -1.
         21    1    1    2  505  504  0.18078564847E+03 -0.11117716719E+03  0.12004551446E+03  0.24383342416E+03  0.00000000000E+00 0. -1.
         21    1    1    2  506  501 -0.18853331157E+02 -0.48664019469E+02  0.15247846623E+02  0.54370320151E+02  0.00000000000E+00 0. -1.
<scales pt_clust_3="207.12962" pt_clust_4="48.54025" pt_clust_5="14000.00000" pt_clust_6="44.69399"></scales>
<clustering>
<clus scale="   48.540">  2  4  1 -1</clus>
<clus scale="   44.694">  2  6  1 -1</clus>
<clus scale="  207.130">  1  3  2 -1</clus>
<clus scale="  207.130">  1  3  2 -1</clus>
</clustering>
</event>
<event>
 6    0  0.8610502E+002  0.1939204E+03  0.7546771E-02  0.1154972E+00
         21   -1    0    0  506  501  0.00000000000E+00  0.00000000000E+00  0.41755578640E+03  0.41755578640E+03  0.00000000000E+00 0. -1.
         21   -1    0    0  504  502 -0.00000000000E+00 -0.00000000000E+00 -0.16836821934E+04  0.16836821934E+04  0.00000000000E+00 0.  1.
         21    1    1    2  503  502  0.20113638244E+02 -0.50341497777E+02  0.88712998070E+02  0.10396547922E+03  0.00000000000E+00 0. -1.
         21    1    1    2  504  505 -0.16226695965E+03  0.87271742306E+02 -0.16446765105E+04  0.16549645759E+04  0.00000000000E+00 0.  1.
         21    1    1    2  505  501  0.17789875181E+02  0.29961403113E+02  0.27538912270E+02  0.44413477960E+02  0.00000000000E+00 0. -1.
         21    1    1    2  506  503  0.12436344622E+03 -0.66891647642E+02  0.26229819315E+03  0.29789444676E+03  0.00000000000E+00 0. -1.
<scales pt_clust_3="35.37140" pt_clust_4="184.22761" pt_clust_5="34.84488" pt_clust_6="35.37140"></scales>
<clustering>
<clus scale="   34.845">  1  5  2 -1</clus>
<clus scale="   35.371">  3  6 -1 -1</clus>
<clus scale="  184.228">  2  4  1 -1</clus>
<clus scale="   34.845">  1  3  2 -1</clus>
</clustering>
</event>
<event>
 6    0  0.8610502E+002  0.1453576E+03  0.7546771E-02  0.1206296E+00
         21   -1    0    0  505  501  0.00000000000E+00  0.00000000000E+00  0.14064188770E+04  0.14064188770E+04  0.00000000000E+00 0. -1.
         21   -1    0    0  503  502 -0.00000000000E+00 -0.00000000000E+00 -0.53430073252E+03  0.53430073252E+03  0.00000000000E+00 0. -1.
         21    1    1    2  503  504 -0.55253295344E+02  0.72790399057E+02 -0.77502860989E+02  0.11982513218E+03  0.00000000000E+00 0. -1.
         21    1    1    2  504  501 -0.58503195901E+02  0.57370215908E+02  0.13650474187E+04  0.13675044501E+04  0.00000000000E+00 0. -1.
         21    1    1    2  505  506  0.94596940802E+02 -0.92871749290E+02 -0.25283510311E+03  0.28548087920E+03  0.00000000000E+00 0. -1.
         21    1    1    2  506  502  0.19159550443E+02 -0.37288865674E+02 -0.16259131013E+03  0.16790914807E+03  0.00000000000E+00 0. -1.
<scales pt_clust_3="134.26746" pt_clust_4="81.93879" pt_clust_5="31.31610" pt_clust_6="31.31610"></scales>
<clustering>
<clus scale="   31.316">  5  6 -1 -1</clus>
<clus scale="   81.939">  1  4  2 -1</clus>
<clus scale="  134.267">  1  3  2 -1</clus>
<clus scale="   81.939">  1  3  2 -1</clus>
</clustering>
</event>
<event>
 6    0  0.8610502E+002  0.1316649E+03  0.7546771E-02  0.1225006E+00
         21   -1    0    0  506  501  0.00000000000E+00  0.00000000000E+00  0.23249634927E+04  0.23249634927E+04  0.00000000000E+00 0. -1.
         21   -1    0    0  504  502 -0.00000000000E+00 -0.00000000000E+00 -0.42916408354E+02  0.42916408354E+02  0.00000000000E+00 0. -1.
         21    1    1    2  503  502  0.10523978052E+03 -0.21726018900E+02  0.55901603977E+02  0.12112976772E+03  0.00000000000E+00 0. -1.
         21    1    1    2  504  505  0.24013919131E+02  0.58956201496E+02  0.17081380806E+03  0.18229058953E+03  0.00000000000E+00 0. -1.
         21    1    1    2  505  501 -0.12772838414E+03 -0.79794683620E+02  0.15239511712E+04  0.15313748411E+04  0.00000000000E+00 0. -1.
         21    1    1    2  506  503 -0.15253155069E+01  0.42564501023E+02  0.53138050115E+03  0.53308470278E+03  0.00000000000E+00 0. -1.
<scales pt_clust_3="131.66486" pt_clust_4="67.50668" pt_clust_5="14000.00000" pt_clust_6="42.59182"></scales>
<clustering>
<clus scale="   42.592">  1  6  2 -1</clus>
<clus scale="   67.507">  2  4  1 -1</clus>
<clus scale="  131.665">  2  3  1 -1</clus>
<clus scale="   42.592">  1  3  2 -1</clus>
</clustering>
</event>
<event>
 6    0  0.8610502E+002  0.8885690E+02  0.7546771E-02  0.1305644E+00
         21   -1    0    0  504  501  0.00000000000E+00  0.00000000000E+00  0.10530847347E+03  0.10530847347E+03  0.00000000000E+00 0. -1.
         21   -1    0    0  506  502 -0.00000000000E+00 -0.00000000000E+00 -0.10001381734E+04  0.10001381734E+04  0.00000000000E+00 0. -1.
         21    1    1    2  503  501  0.38321889793E+02  0.80286223818E+01  0.64055076272E+02  0.75073822407E+02  0.00000000000E+00 0. -1.
         21    1    1    2  504  505  0.79144595634E+02  0.43246824596E+02 -0.97458366514E+02  0.13278662606E+03  0.00000000000E+00 0. -1.
         21    1    1    2  505  502 -0.72773419194E+02  0.35058991801E+02 -0.72816892800E+03  0.73263571517E+03  0.00000000000E+00 0. -1.
         21    1    1    2  506  503 -0.44693066232E+02 -0.86334438779E+02 -0.13325748168E+03  0.16495048321E+03  0.00000000000E+00 0. -1.
<scales pt_clust_3="39.15388" pt_clust_4="14000.00000" pt_clust_5="78.85275" pt_clust_6="88.85690"></scales>
<clustering>
<clus scale="   39.154">  1  3  2 -1</clus>
<clus scale="   78.853">  2  5  1 -1</clus>
<clus scale="   88.857">  1  6  2 -1</clus>
<clus scale="   39.154">  1  3  2 -1</clus>
</clustering>
</event>
<event>
 6    0  0.8610502E+002  0.1198555E+03  0.7546771E-02  0.1243336E+00
         21   -1    0    0  506  501  0.00000000000E+00  0.00000000000E+00  0.15512090547E+04  0.15512090547E+04  0.00000000000E+00 0.  1.
         21   -1    0    0  504  502 -0.00000000000E+00 -0.00000000000E+00 -0.51736554013E+03  0.51736554013E+03  0.00000000000E+00 0. -1.
         21    1    1    2  503  502 -0.10401538582E+02  0.33017185706E+02  0.71163262914E+01  0.35340750653E+02  0.00000000000E+00 0.  1.
         21    1    1    2  504  505  0.46755644218E+02 -0.65389904660E+02 -0.59856262713E+02  0.10022326119E+03  0.00000000000E+00 0. -1.
         21    1    1    2  505  501 -0.80686110010E+02  0.14346278115E+03 -0.40472443231E+03  0.43691381763E+03  0.00000000000E+00 0. -1.
         21    1    1    2  506  503  0.44332004373E+02 -0.11109006219E+03  0.14913078833E+04  0.14960967654E+04  0.00000000000E+00 0.  1.
<scales pt_clust_3="34.61685" pt_clust_4="75.17176" pt_clust_5="119.85548" pt_clust_6="14000.00000"></scales>
<clustering>
<clus scale="   34.617">  2  3  1 -1</clus>
<clus scale="   75.172">  2  4  1 -1</clus>
<clus scale="  119.855">  2  5  1 -1</clus>
<clus scale="  119.855">  1  3  2 -1</clus>
</clustering>
</event>
<event>
 6    0  0.8610502E+002  0.2328413E+03  0.7546771E-02  0.1124656E+00
         21   -1    0    0  503  501  0.00000000000E+00  0.00000000000E+00  0.41500888798E+03  0.41500888798E+03  0.00000000000E+00 0.  1.
         21   -1    0    0  506  502 -0.00000000000E+00 -0.00000000000E+00 -0.20369177350E+04  0.20369177350E+04  0.00000000000E+00 0. -1.
         21    1    1    2  503  504  0.17993800087E+03 -0.14774061944E+03  0.36469917737E+03  0.43267824624E+03  0.00000000000E+00 0.  1.
         21    1    1    2  504  502  0.40351284022E+02 -0.51450305051E+01 -0.58021240799E+03  0.58163660119E+03  0.00000000000E+00 0. -1.
         21    1    1    2  505  501 -0.19355863566E+03  0.13204963069E+03 -0.89727322215E+03  0.92736254269E+03  0.00000000000E+00 0. -1.
         21    1    1    2  506  505 -0.26730649232E+02  0.20836019250E+02 -0.50912239423E+03  0.51024923284E+03  0.00000000000E+00 0. -1.
<scales pt_clust_3="232.84128" pt_clust_4="30.31135" pt_clust_5="14000.00000" pt_clust_6="33.89199"></scales>
<clustering>
<clus scale="   33.892">  2  6  1 -1</clus>
<clus scale="   30.311">  2  4  1 -1</clus>
<clus scale="  232.841">  1  3  2 -1</clus>
<clus scale="  232.841">  1  3  2 -1</clus>
</clustering>
</event>
<event>
 6    0  0.8610502E+002  0.1057492E+03  0.7546771E-02  0.1268651E+00
         21   -1    0    0  506  501  0.00000000000E+00  0.00000000000E+00  0.70714897892E+03  0.70714897892E+03  0.00000000000E+00 0. -1.
         21   -1    0    0  503  502 -0.00000000000E+00 -0.00000000000E+00 -0.33257863516E+02  0.33257863516E+02  0.00000000000E+00 0. -1.
         21    1    1    2  503  505  0.70365074703E+02 -0.85393522155E+01  0.16549470088E+03  0.18003516404E+03  0.00000000000E+00 0. -1.
         21    1    1    2  504  502 -0.58933092559E+02  0.10733358677E+01  0.36247050688E+02  0.69196171368E+02  0.00000000000E+00 0. -1.
         21    1    1    2  505  501  0.57989459984E+02  0.17275075108E+02  0.28432746186E+03  0.29069453255E+03  0.00000000000E+00 0. -1.
         21    1    1    2  506  504 -0.69421442128E+02 -0.98090587599E+01  0.18782190198E+03  0.20048097447E+03  0.00000000000E+00 0. -1.
<scales pt_clust_3="47.96685" pt_clust_4="58.94287" pt_clust_5="47.96685" pt_clust_6="92.12829"></scales>
<clustering>
<clus scale="   47.967">  3  5 -1 -1</clus>
<clus scale="   58.943">  2  4  1 -1</clus>
<clus scale="   92.128">  1  6  2 -1</clus>
<clus scale="   92.128">  1  3  2 -1</clus>
</clustering>
</event>
<event>
 6    0  0.8610502E+002  0.3074054E+03  0.7546771E-02  0.1081596E+00
         21   -1    0    0  505  501  0.00000000000E+00  0.00000000000E+00  0.18695513944E+04  0.18695513944E+04  0.00000000000E+00 0.  1.
         21   -1    0    0  501  502 -0.00000000000E+00 -0.00000000000E+00 -0.83228411017E+02  0.83228411017E+02  0.00000000000E+00 0.  1.
         21    1    1    2  503  502 -0.66478562485E+02  0.56318300885E+01  0.27198976138E+02  0.72047908250E+02  0.00000000000E+00 0. -1.
         21    1    1    2  504  506  0.15802850825E+02  0.48729904406E+02  0.10761340413E+03  0.11918464006E+03  0.00000000000E+00 0. -1.
         21    1    1    2  505  504  0.68786264416E+02  0.23555045509E+03  0.11988116187E+04  0.12236686088E+04  0.00000000000E+00 0.  1.
         21    1    1    2  506  503 -0.18110552756E+02 -0.28991218958E+03  0.45269898433E+03  0.53787864822E+03  0.00000000000E+00 0.  1.
<scales pt_clust_3="66.71669" pt_clust_4="42.21845" pt_clust_5="42.21845" pt_clust_6="293.18975"></scales>
<clustering>
<clus scale="   42.218">  4  5 -1 -1</clus>
<clus scale="   66.717">  2  3  1 -1</clus>
<clus scale="  293.190">  2  6  1 -1</clus>
<clus scale="  307.405">  1  3  2 -1</clus>
</clustering>
</event>
<event>
 6    0  0.8610502E+002  0.9002749E+02  0.7546771E-02  0.1302785E+00
         21   -1    0    0  503  501  0.00000000000E+00  0.00000000000E+00  0.20300329258E+03  0.20300329258E+03  0.00000000000E+00 0.  1.
         21   -1    0    0  504  502 -0.00000000000E+00 -0.00000000000E+00 -0.11670917561E+03  0.11670917561E+03  0.00000000000E+00 0.  1.
         21    1    1    2  503  506 -0.33262404478E+02 -0.84358126120E+02  0.73823450647E+02  0.11692982023E+03  0.00000000000E+00 0.  1.
         21    1    1    2  504  505 -0.18792555351E+02  0.45098940221E+02  0.16755026227E+02  0.51650802990E+02  0.00000000000E+00 0. -1.
         21    1    1    2  505  501  0.79022549253E+02  0.58299732425E+02  0.30839300934E+02  0.10292951265E+03  0.00000000000E+00 0.  1.
         21    1    1    2  506  502 -0.26967589425E+02 -0.19040546525E+02 -0.35123660839E+02  0.48202332330E+02  0.00000000000E+00 0.  1.
<scales pt_clust_3="14000.00000" pt_clust_4="47.77388" pt_clust_5="90.02749" pt_clust_6="33.01202"></scales>
<clustering>
<clus scale="   33.012">  2  6  1 -1</clus>
<clus scale="   47.774">  2  4  1 -1</clus>
<clus scale="   90.027">  2  5  1 -1</clus>
<clus scale="   90.027">  1  3  2 -1</clus>
</clustering>
</event>
<event>
 6    0  0.8610502E+002  0.1343562E+03  0.7546771E-02  0.1221131E+00
         21   -1    0    0  505  501  0.00000000000E+00  0.00000000000E+00  0.18327095025E+03  0.18327095025E+03  0.00000000000E+00 0. -1.
         21   -1    0    0  506  502 -0.00000000000E+00 -0.00000000000E+00 -0.31113717008E+03  0.31113717008E+03  0.00000000000E+00 0. -1.
         21    1    1    2  503  501 -0.26842971206E+02  0.17084185418E+02  0.77538501523E+02  0.83813087957E+02  0.00000000000E+00 0. -1.
         21    1    1    2  504  503  0.23538695533E+02  0.30981893592E+02  0.24186054317E+02  0.45813896814E+02  0.00000000000E+00 0. -1.
         21    1    1    2  505  502 -0.10723962335E+03 -0.96790164560E+02 -0.18783814103E+03  0.23696379470E+03  0.00000000000E+00 0. -1.
         21    1    1    2  506  504  0.11054389903E+03  0.48724085551E+02 -0.41752634641E+02  0.12781734086E+03  0.00000000000E+00 0. -1.
<scales pt_clust_3="31.81846" pt_clust_4="39.51969" pt_clust_5="134.35617" pt_clust_6="14000.00000"></scales>
<clustering>
<clus scale="   31.818">  1  3  2 -1</clus>
<clus scale="   39.520">  1  4  2 -1</clus>
<clus scale="  134.356">  2  5  1 -1</clus>
<clus scale="   31.818">  1  3  2 -1</clus>
</clustering>
</event>
<event>
 6    0  0.8610502E+002  0.1718168E+03  0.7546771E-02  0.1175966E+00
         21   -1    0    0  503  501  0.00000000000E+00  0.00000000000E+00  0.99137247886E+03  0.99137247886E+03  0.00000000000E+00 0.  1.
         21   -1    0    0  504  502 -0.00000000000E+00 -0.00000000000E+00 -0.28981247198E+03  0.28981247198E+03  0.00000000000E+00 0. -1.
         21    1    1    2  503  506 -0.19704214903E+02  0.23861261817E+02  0.71796072691E+03  0.71862731738E+03  0.00000000000E+00 0.  1.
         21    1    1    2  504  501  0.15371692280E+02 -0.13374519662E+03 -0.12626669022E+03  0.18457340979E+03  0.00000000000E+00 0. -1.
         21    1    1    2  505  502  0.83304709977E+02 -0.28965441248E+02 -0.87391473931E+02  0.12416094880E+03  0.00000000000E+00 0. -1.
         21    1    1    2  506  505 -0.78972187354E+02  0.13884937605E+03  0.19725744411E+03  0.25382327487E+03  0.00000000000E+00 0.  1.
<scales pt_clust_3="30.94537" pt_clust_4="14000.00000" pt_clust_5="86.42298" pt_clust_6="171.81675"></scales>
<clustering>
<clus scale="   30.945">  1  3  2 -1</clus>
<clus scale="   86.423">  2  5  1 -1</clus>
<clus scale="  171.817">  1  6  2 -1</clus>
<clus scale="   30.945">  1  3  2 -1</clus>
</clustering>
</event>
<event>
 6    0  0.8610502E+002  0.7653090E+02  0.7546771E-02  0.1339195E+00
         21   -1    0    0  504  501  0.00000000000E+00  0.00000000000E+00  0.31610911917E+02  0.31610911917E+02  0.00000000000E+00 0. -1.
         21   -1    0    0  505  502 -0.00000000000E+00 -0.00000000000E+00 -0.62653993264E+03  0.62653993264E+03  0.00000000000E+00 0. -1.
         21    1    1    2  503  506 -0.45827308501E+02 -0.20287987143E+02 -0.80374157594E+02  0.94719321343E+02  0.00000000000E+00 0. -1.
         21    1    1    2  504  502 -0.25904610206E+02 -0.74157970765E+02 -0.28494358325E+03  0.29557283213E+03  0.00000000000E+00 0. -1.
         21    1    1    2  505  503  0.33897317811E+02  0.66174058374E+02 -0.19672517958E+03  0.21030651544E+03  0.00000000000E+00 0. -1.
         21    1    1    2  506  501  0.37834600896E+02  0.28271899533E+02 -0.32886100295E+02  0.57552175639E+02  0.00000000000E+00 0. -1.
<scales pt_clust_3="33.21936" pt_clust_4="14000.00000" pt_clust_5="76.53090" pt_clust_6="47.23089"></scales>
<clustering>
<clus scale="   47.231">  1  6  2 -1</clus>
<clus scale="   33.219">  1  3  2 -1</clus>
<clus scale="   76.531">  1  5  2 -1</clus>
<clus scale="   47.231">  1  3  2 -1</clus>
</clustering>
</event>
<event>
 6    0  0.8610502E+002  0.1301696E+03  0.7546771E-02  0.1227204E+00
         21   -1    0    0  504  501  0.00000000000E+00  0.00000000000E+00  0.14933167027E+03  0.14933167027E+03  0.00000000000E+00 0.  1.
         21   -1    0    0  506  502 -0.00000000000E+00 -0.00000000000E+00 -0.12110090999E+04  0.12110090999E+04  0.00000000000E+00 0.  1.
         21    1    1    2  503  502 -0.74852935393E+02 -0.22773026445E+02 -0.80258478530E+02  0.11208477170E+03  0.00000000000E+00 0. -1.
         21    1    1    2  504  503 -0.49325807245E+02 -0.12669078440E+02  0.12395699066E+03  0.13401073219E+03  0.00000000000E+00 0.  1.
         21    1    1    2  505  501  0.38972683335E+02  0.28082267317E+02 -0.57663132478E+03  0.57862869658E+03  0.00000000000E+00 0. -1.
         21    1    1    2  506  505  0.85206059303E+02  0.73598375685E+01 -0.52874461693E+03  0.53561656965E+03  0.00000000000E+00 0.  1.
<scales pt_clust_3="118.04269" pt_clust_4="50.92682" pt_clust_5="41.11766" pt_clust_6="41.11766"></scales>
<clustering>
<clus scale="   41.118">  5  6 -1 -1</clus>
<clus scale="   50.927">  1  4  2 -1</clus>
<clus scale="  118.043">  1  3  2 -1</clus>
<clus scale="   50.927">  1  3  2 -1</clus>
</clustering>
</event>
<event>
 6    0  0.8610502E+002  0.9393833E+02  0.7546771E-02  0.1293585E+00
         21   -1    0    0  503  501  0.00000000000E+00  0.00000000000E+00  0.60947877938E+03  0.60947877938E+03  0.00000000000E+00 0. -1.
         21   -1    0    0  506  502 -0.00000000000E+00 -0.00000000000E+00 -0.12254783812E+03  0.12254783812E+03  0.00000000000E+00 0. -1.
         21    1    1    2  503  502  0.10809557245E+03  0.29140898769E+02  0.17648417028E+03  0.20899882086E+03  0.00000000000E+00 0. -1.
         21    1    1    2  504  505 -0.44311792778E+02 -0.64860355617E+02  0.43478149480E+02  0.89781680716E+02  0.00000000000E+00 0. -1.
         21    1    1    2  505  501 -0.42348958102E+01  0.29726319241E+02  0.33858508652E+03  0.33991388500E+03  0.00000000000E+00 0. -1.
         21    1    1    2  506  504 -0.59548883857E+02  0.59931376070E+01 -0.71616465019E+02  0.93332230922E+02  0.00000000000E+00 0. -1.
<scales pt_clust_3="93.93833" pt_clust_4="14000.00000" pt_clust_5="30.02646" pt_clust_6="60.15002"></scales>
<clustering>
<clus scale="   30.026">  1  5  2 -1</clus>
<clus scale="   60.150">  2  6  1 -1</clus>
<clus scale="   93.938">  1  3  2 -1</clus>
<clus scale="   30.026">  1  3  2 -1</clus>
</clustering>
</event>
<event>
 6    0  0.8610502E+002  0.1069829E+03  0.7546771E-02  0.1266261E+00
         21   -1    0    0  506  501  0.00000000000E+00  0.00000000000E+00  0.12728915525E+03  0.12728915525E+03  0.00000000000E+00 0.  1.
         21   -1    0    0  505  502 -0.00000000000E+00 -0.00000000000E+00 -0.46761090597E+03  0.46761090597E+03  0.00000000000E+00 0. -1.
         21    1    1    2  503  501  0.18785195783E+01 -0.10530328406E+03  0.29862945720E+02  0.10947194159E+03  0.00000000000E+00 0.  1.
         21    1    1    2  504  503 -0.51113821693E+02 -0.21338619451E+02 -0.26409336412E+02  0.61362957050E+02  0.00000000000E+00 0. -1.
         21    1    1    2  505  504  0.38911490625E+02  0.16382188967E+02 -0.30319775406E+03  0.30612310969E+03  0.00000000000E+00 0. -1.
         21    1    1    2  506  502  0.10323811490E+02  0.11025971454E+03 -0.40577605965E+02  0.11794205289E+03  0.00000000000E+00 0. -1.
<scales pt_clust_3="14000.00000" pt_clust_4="44.01861" pt_clust_5="42.21943" pt_clust_6="106.98291"></scales>
<clustering>
<clus scale="   42.219">  2  5  1 -1</clus>
<clus scale="   44.019">  2  4  1 -1</clus>
<clus scale="  106.983">  2  6  1 -1</clus>
<clus scale="  106.983">  1  3  2 -1</clus>
</clustering>
</event>
<event>
 6    0  0.8610502E+002  0.1001784E+03  0.7546771E-02  0.1279921E+00
         21   -1    0    0  506  501  0.00000000000E+00  0.00000000000E+00  0.17640465695E+03  0.17640465695E+03  0.00000000000E+00 0. -1.
         21   -1    0    0  503  502 -0.00000000000E+00 -0.00000000000E+00 -0.42292940611E+03  0.42292940611E+03  0.00000000000E+00 0. -1.
         21    1    1    2  503  504 -0.17771590303E+00  0.15419701938E+03 -0.90344197310E+02  0.17871437087E+03  0.00000000000E+00 0. -1.
         21    1    1    2  504  505  0.54622839339E+02 -0.66302378129E+02 -0.77896017785E+01  0.86257392836E+02  0.00000000000E+00 0. -1.
         21    1    1    2  505  501 -0.69517698637E+02 -0.20245533249E+02  0.72734303787E+02  0.10262977632E+03  0.00000000000E+00 0. -1.
         21    1    1    2  506  502  0.15072575201E+02 -0.67649107998E+02 -0.22112525386E+03  0.23173252303E+03  0.00000000000E+00 0. -1.
<scales pt_clust_3="100.17842" pt_clust_4="14000.00000" pt_clust_5="72.93383" pt_clust_6="69.30790"></scales>
<clustering>
<clus scale="   69.308">  2  6  1 -1</clus>
<clus scale="   72.934">  1  5  2 -1</clus>
<clus scale="  100.178">  2  3  1 -1</clus>
<clus scale="   72.934">  1  3  2 -1</clus>
</clustering>
</event>
<event>
 6    0  0.8610502E+002  0.1005485E+03  0.7546771E-02  0.1279147E+00
         21   -1    0    0  502  501  0.00000000000E+00  0.00000000000E+00  0.66341659360E+03  0.66341659360E+03  0.00000000000E+00 0.  1.
         21   -1    0    0  503  502 -0.00000000000E+00 -0.00000000000E+00 -0.22102768357E+03  0.22102768357E+03  0.00000000000E+00 0. -1.
         21    1    1    2  503  505 -0.22453235903E+02 -0.27813273339E+02 -0.45444601738E+02  0.57818144241E+02  0.00000000000E+00 0. -1.
         21    1    1    2  504  506  0.76729041650E+02  0.49462031537E+02 -0.82266827039E+02  0.12288884908E+03  0.00000000000E+00 0. -1.
         21    1    1    2  505  504  0.27836300509E+01  0.61930003715E+02 -0.47376191255E+02  0.78022929029E+02  0.00000000000E+00 0. -1.
         21    1    1    2  506  501 -0.57059435798E+02 -0.83578761913E+02  0.61747653006E+03  0.62571435482E+03  0.00000000000E+00 0.  1.
<scales pt_clust_3="35.74529" pt_clust_4="100.54850" pt_clust_5="51.93030" pt_clust_6="14000.00000"></scales>
<clustering>
<clus scale="   35.745">  2  3  1 -1</clus>
<clus scale="   51.930">  2  5  1 -1</clus>
<clus scale="  100.548">  2  4  1 -1</clus>
<clus scale="  100.548">  1  3  2 -1</clus>
</clustering>
</event>
<event>
 6    0  0.8610502E+002  0.1032997E+03  0.7546771E-02  0.1273506E+00
         21   -1    0    0  505  501  0.00000000000E+00  0.00000000000E+00  0.41970616566E+03  0.41970616566E+03  0.00000000000E+00 0.  1.
         21   -1    0    0  503  502 -0.00000000000E+00 -0.00000000000E+00 -0.69160786655E+03  0.69160786655E+03  0.00000000000E+00 0.  1.
         21    1    1    2  503  501  0.54434373009E+02  0.80803053842E+02 -0.53396544515E+03  0.54278110790E+03  0.00000000000E+00 0.  1.
         21    1    1    2  504  506 -0.54897380909E+02  0.25884520051E+01 -0.28445728362E+02  0.61883616382E+02  0.00000000000E+00 0.  1.
         21    1    1    2  505  504  0.38045972834E+02 -0.96688966984E+02  0.38781539260E+03  0.40149350073E+03  0.00000000000E+00 0.  1.
         21    1    1    2  506  502 -0.37582964934E+02  0.13297461137E+02 -0.97305919974E+02  0.10515580720E+03  0.00000000000E+00 0.  1.
<scales pt_clust_3="14000.00000" pt_clust_4="57.88494" pt_clust_5="103.29972" pt_clust_6="39.86605"></scales>
<clustering>
<clus scale="   39.866">  2  6  1 -1</clus>
<clus scale="   57.885">  2  4  1 -1</clus>
<clus scale="  103.300">  1  5  2 -1</clus>
<clus scale="  103.300">  1  3  2 -1</clus>
</clustering>
</event>
<event>
 6    0  0.8610502E+002  0.6703723E+02  0.7546771E-02  0.1370468E+00
         21   -1    0    0  506  501  0.00000000000E+00  0.00000000000E+00  0.35568075877E+03  0.35568075877E+03  0.00000000000E+00 0. -1.
         21   -1    0    0  503  502 -0.00000000000E+00 -0.00000000000E+00 -0.35216793457E+03  0.35216793457E+03  0.00000000000E+00 0.  1.
         21    1    1    2  503  504  0.13913533233E+01  0.45340064291E+02 -0.18805801340E+03  0.19345147634E+03  0.00000000000E+00 0.  1.
         21    1    1    2  504  505  0.57535410758E+02 -0.60805045414E+02 -0.88895203205E+02  0.12210624141E+03  0.00000000000E+00 0. -1.
         21    1    1    2  505  501 -0.28637239579E+02  0.63651698543E+02 -0.30492149875E+02  0.76166931290E+02  0.00000000000E+00 0.  1.
         21    1    1    2  506  502 -0.30289524503E+02 -0.48186717420E+02  0.31095819069E+03  0.31612404430E+03  0.00000000000E+00 0. -1.
<scales pt_clust_3="45.36141" pt_clust_4="14000.00000" pt_clust_5="67.03723" pt_clust_6="56.29095"></scales>
<clustering>
<clus scale="   45.361">  2  3  1 -1</clus>
<clus scale="   56.291">  1  6  2 -1</clus>
<clus scale="   67.037">  1  5  2 -1</clus>
<clus scale="   56.291">  1  3  2 -1</clus>
</clustering>
</event>
<event>
 6    0  0.8610502E+002  0.2266777E+03  0.7546771E-02  0.1129000E+00
         21   -1    0    0  503  501  0.00000000000E+00  0.00000000000E+00  0.69008434708E+03  0.69008434708E+03  0.00000000000E+00 0.  1.
         21   -1    0    0  505  502 -0.00000000000E+00 -0.00000000000E+00 -0.49024673894E+03  0.49024673894E+03  0.00000000000E+00 0.  1.
         21    1    1    2  503  504 -0.62389299100E+02 -0.96185104119E+02 -0.82597658876E+02  0.14130241381E+03  0.00000000000E+00 0.  1.
         21    1    1    2  504  502 -0.18141277188E+02  0.26275322373E+02 -0.24810781857E+03  0.25015392889E+03  0.00000000000E+00 0.  1.
         21    1    1    2  505  506 -0.15500930483E+03  0.11112590814E+03 -0.16912815006E+02  0.19147557379E+03  0.00000000000E+00 0.  1.
         21    1    1    2  506  501  0.23553988112E+03 -0.41216126397E+02  0.54745590059E+03  0.59739916954E+03  0.00000000000E+00 0.  1.
<scales pt_clust_3="109.85418" pt_clust_4="31.92959" pt_clust_5="226.67767" pt_clust_6="14000.00000"></scales>
<clustering>
<clus scale="   31.930">  2  4  1 -1</clus>
<clus scale="  109.854">  2  3  1 -1</clus>
<clus scale="  226.678">  2  5  1 -1</clus>
<clus scale="  226.678">  1  3  2 -1</clus>
</clustering>
</event>
<event>
 6    0  0.8610502E+002  0.1052921E+03  0.7546771E-02  0.1269545E+00
         21   -1    0    0  505  501  0.00000000000E+00  0.00000000000E+00  0.69374290600E+02  0.69374290600E+02  0.00000000000E+00 0. -1.
         21   -1    0    0  506  502 -0.00000000000E+00 -0.00000000000E+00 -0.59256058049E+03  0.59256058049E+03  0.00000000000E+00 0.  1.
         21    1    1    2  503  501 -0.55864065592E+02  0.21537578458E+02 -0.14010085374E+03  0.15235783646E+03  0.00000000000E+00 0.  1.
         21    1    1    2  504  503 -0.64532434350E+02 -0.19819240412E+02 -0.21641409933E+03  0.22669869820E+03  0.00000000000E+00 0.  1.
         21    1    1    2  505  502  0.91189959342E+02 -0.14877713491E+02  0.19113546177E+02  0.94351908783E+02  0.00000000000E+00 0. -1.
         21    1    1    2  506  504  0.29206540600E+02  0.13159375446E+02 -0.18578488299E+03  0.18852642765E+03  0.00000000000E+00 0. -1.
<scales pt_clust_3="44.66224" pt_clust_4="44.66224" pt_clust_5="94.88805" pt_clust_6="32.03422"></scales>
<clustering>
<clus scale="   32.034">  2  6  1 -1</clus>
<clus scale="   44.662">  3  4 -1 -1</clus>
<clus scale="   94.888">  1  5  2 -1</clus>
<clus scale="   94.888">  1  3  2 -1</clus>
</clustering>
</event>
<event>
 6    0  0.8610502E+002  0.7651783E+02  0.7546771E-02  0.1339234E+00
         21   -1    0    0  506  501  0.00000000000E+00  0.00000000000E+00  0.48420623181E+02  0.48420623181E+02  0.00000000000E+00 0.  1.
         21   -1    0    0  505  502 -0.00000000000E+00 -0.00000000000E+00 -0.22010577320E+04  0.22010577320E+04  0.00000000000E+00 0.  1.
         21    1    1    2  503  504 -0.69659843665E+02 -0.50381060692E+01 -0.44305011238E+03  0.44852121289E+03  0.00000000000E+00 0.  1.
         21    1    1    2  504  502 -0.95134344677E+00  0.34002305579E+02 -0.15648999371E+04  0.15652695854E+04  0.00000000000E+00 0.  1.
         21    1    1    2  505  501 -0.29508974352E+02  0.43898037211E+02 -0.80208929673E+02  0.96079600528E+02  0.00000000000E+00 0.  1.
         21    1    1    2  506  503  0.10012016146E+03 -0.72862236720E+02 -0.64478129641E+02  0.13960795634E+03  0.00000000000E+00 0.  1.
<scales pt_clust_3="76.51783" pt_clust_4="34.01561" pt_clust_5="56.93484" pt_clust_6="14000.00000"></scales>
<clustering>
<clus scale="   34.016">  2  4  1 -1</clus>
<clus scale="   56.935">  1  5  2 -1</clus>
<clus scale="   76.518">  2  3  1 -1</clus>
<clus scale="   56.935">  1  3  2 -1</clus>
</clustering>
</event>
<event>
 6    0  0.8610502E+002  0.7055388E+02  0.7546771E-02  0.1358220E+00
         21   -1    0    0  505  501  0.00000000000E+00  0.00000000000E+00  0.40590389325E+03  0.40590389325E+03  0.00000000000E+00 0. -1.
         21   -1    0    0  503  502 -0.00000000000E+00 -0.00000000000E+00 -0.12839151606E+03  0.12839151606E+03  0.00000000000E+00 0. -1.
         21    1    1    2  503  504  0.61425675204E+01 -0.68546654573E+02 -0.19528759863E+02  0.71538433381E+02  0.00000000000E+00 0. -1.
         21    1    1    2  504  501 -0.25471543980E+02  0.43167223691E+02  0.30818373446E+03  0.31223296261E+03  0.00000000000E+00 0. -1.
         21    1    1    2  505  506  0.82808035596E+02  0.18791273151E+02  0.37251397497E+01  0.84995054986E+02  0.00000000000E+00 0. -1.
         21    1    1    2  506  502 -0.63479059137E+02  0.65881577304E+01 -0.14867737157E+02  0.65528958326E+02  0.00000000000E+00 0. -1.
<scales pt_clust_3="56.82150" pt_clust_4="50.12194" pt_clust_5="70.55388" pt_clust_6="14000.00000"></scales>
<clustering>
<clus scale="   50.122">  1  4  2 -1</clus>
<clus scale="   56.821">  1  3  2 -1</clus>
<clus scale="   70.554">  1  5  2 -1</clus>
<clus scale="   50.122">  1  3  2 -1</clus>
</clustering>
</event>
<event>
 6    0  0.8610502E+002  0.1736835E+03  0.7546771E-02  0.1174060E+00
         21   -1    0    0  505  501  0.00000000000E+00  0.00000000000E+00  0.14602201928E+03  0.14602201928E+03  0.00000000000E+00 0.  1.
         21   -1    0    0  506  502 -0.00000000000E+00 -0.00000000000E+00 -0.14447839816E+04  0.14447839816E+04  0.00000000000E+00 0.  1.
         21    1    1    2  503  504 -0.56275432373E+02  0.11108446774E+03 -0.33638130601E+03  0.35869076695E+03  0.00000000000E+00 0.  1.
         21    1    1    2  504  502 -0.57576852421E+02  0.73051435637E+02 -0.70161590554E+03  0.70775453731E+03  0.00000000000E+00 0. -1.
         21    1    1    2  505  503  0.33117451748E+02 -0.18099432380E+03  0.60032807553E+02  0.19354495302E+03  0.00000000000E+00 0.  1.
         21    1    1    2  506  501  0.80734833046E+02 -0.31415795826E+01 -0.32079755832E+03  0.33081574360E+03  0.00000000000E+00 0.  1.
<scales pt_clust_3="14000.00000" pt_clust_4="71.39125" pt_clust_5="173.68352" pt_clust_6="80.79593"></scales>
<clustering>
<clus scale="   80.796">  2  6  1 -1</clus>
<clus scale="   71.391">  2  4  1 -1</clus>
<clus scale="  173.684">  1  5  2 -1</clus>
<clus scale="  173.684">  1  3  2 -1</clus>
</clustering>
</event>
<event>
 6    0  0.8610502E+002  0.8225795E+02  0.7546771E-02  0.1322763E+00
         21   -1    0    0  505  501  0.00000000000E+00  0.00000000000E+00  0.35051953094E+03  0.35051953094E+03  0.00000000000E+00 0. -1.
         21   -1    0    0  503  502 -0.00000000000E+00 -0.00000000000E+00 -0.20462538374E+03  0.20462538374E+03  0.00000000000E+00 0. -1.
         21    1    1    2  503  506 -0.32584350893E+02 -0.37543961331E+02  0.91173121536E+02  0.10384520714E+03  0.00000000000E+00 0. -1.
         21    1    1    2  504  502 -0.24106048192E+02  0.76796470054E+02 -0.14192419408E+03  0.16316027775E+03  0.00000000000E+00 0. -1.
         21    1    1    2  505  504  0.96652234120E+02 -0.66221733984E+02  0.39306008812E+02  0.12357966961E+03  0.00000000000E+00 0. -1.
         21    1    1    2  506  501 -0.39961835035E+02  0.26969225261E+02  0.15733921094E+03  0.16455976018E+03  0.00000000000E+00 0. -1.
<scales pt_clust_3="58.17356" pt_clust_4="14000.00000" pt_clust_5="82.25795" pt_clust_6="48.21086"></scales>
<clustering>
<clus scale="   48.211">  1  6  2 -1</clus>
<clus scale="   58.174">  1  3  2 -1</clus>
<clus scale="   82.258">  1  5  2 -1</clus>
<clus scale="   48.211">  1  3  2 -1</clus>
</clustering>
</event>
<event>
 6    0  0.8610502E+002  0.6001966E+02  0.7546771E-02  0.1397749E+00
         21   -1    0    0  503  501  0.00000000000E+00  0.00000000000E+00  0.28012140292E+03  0.28012140292E+03  0.00000000000E+00 0. -1.
         21   -1    0    0  504  502 -0.00000000000E+00 -0.00000000000E+00 -0.27434486208E+03  0.27434486208E+03  0.00000000000E+00 0. -1.
         21    1    1    2  503  505 -0.69371613326E+02  0.14788411746E+02 -0.39032185279E+02  0.80960665419E+02  0.00000000000E+00 0. -1.
         21    1    1    2  504  506 -0.10228157074E+02 -0.67346114655E+02 -0.16508906214E+03  0.17859034911E+03  0.00000000000E+00 0. -1.
         21    1    1    2  505  502  0.57689596103E+02 -0.31635301432E+01 -0.17020146412E+02  0.60231078401E+02  0.00000000000E+00 0. -1.
         21    1    1    2  506  501  0.21910174297E+02  0.55721233052E+02  0.22691793467E+03  0.23468417208E+03  0.00000000000E+00 0. -1.
<scales pt_clust_3="56.44756" pt_clust_4="14000.00000" pt_clust_5="57.77627" pt_clust_6="60.01966"></scales>
<clustering>
<clus scale="   57.776">  2  5  1 -1</clus>
<clus scale="   56.448">  2  3  1 -1</clus>
<clus scale="   60.020">  1  6  2 -1</clus>
<clus scale="   60.020">  1  3  2 -1</clus>
</clustering>
</event>
<event>
 6    0  0.8610502E+002  0.5012135E+02  0.7546771E-02  0.1444688E+00
         21   -1    0    0  506  501  0.00000000000E+00  0.00000000000E+00  0.13080771539E+03  0.13080771539E+03  0.00000000000E+00 0.  1.
         21   -1    0    0  503  502 -0.00000000000E+00 -0.00000000000E+00 -0.31882405630E+03  0.31882405630E+03  0.00000000000E+00 0. -1.
         21    1    1    2  503  505  0.21730714425E+02 -0.37408433660E+02 -0.44725653980E+02  0.62225388566E+02  0.00000000000E+00 0.  1.
         21    1    1    2  504  502 -0.35041389431E+02  0.77050770507E+02 -0.21426649793E+03  0.23037980021E+03  0.00000000000E+00 0. -1.
         21    1    1    2  505  501  0.37413452994E+02  0.30396998510E+02 -0.78724914030E+01  0.48843833841E+02  0.00000000000E+00 0.  1.
         21    1    1    2  506  504 -0.24102777987E+02 -0.70039335357E+02  0.78848302410E+02  0.10818274907E+03  0.00000000000E+00 0.  1.
<scales pt_clust_3="43.26216" pt_clust_4="50.12135" pt_clust_5="47.70587" pt_clust_6="14000.00000"></scales>
<clustering>
<clus scale="   43.262">  2  3  1 -1</clus>
<clus scale="   47.706">  1  5  2 -1</clus>
<clus scale="   50.121">  2  4  1 -1</clus>
<clus scale="   47.706">  1  3  2 -1</clus>
</clustering>
</event>
<event>
 6    0  0.8610502E+002  0.1377890E+03  0.7546771E-02  0.1216335E+00
         21   -1    0    0  503  501  0.00000000000E+00  0.00000000000E+00  0.57183588421E+03  0.57183588421E+03  0.00000000000E+00 0. -1.
         21   -1    0    0  504  502 -0.00000000000E+00 -0.00000000000E+00 -0.12549649188E+03  0.12549649188E+03  0.00000000000E+00 0. -1.
         21    1    1    2  503  502 -0.48372157779E+01 -0.35458541175E+02 -0.34398451517E+02  0.49638294345E+02  0.00000000000E+00 0. -1.
         21    1    1    2  504  505  0.26890572513E+02  0.11788852216E+03 -0.59738164587E+01  0.12106400386E+03  0.00000000000E+00 0. -1.
         21    1    1    2  505  506 -0.14803487236E+02  0.38690608422E+02  0.23158572346E+02  0.47459729113E+02  0.00000000000E+00 0. -1.
         21    1    1    2  506  501 -0.72498694988E+01 -0.12112058941E+03  0.46355308796E+03  0.47917034877E+03  0.00000000000E+00 0. -1.
<scales pt_clust_3="35.78696" pt_clust_4="34.33893" pt_clust_5="34.33893" pt_clust_6="124.67557"></scales>
<clustering>
<clus scale="   34.339">  4  5 -1 -1</clus>
<clus scale="   35.787">  2  3  1 -1</clus>
<clus scale="  124.676">  1  6  2 -1</clus>
<clus scale="  124.676">  1  3  2 -1</clus>
</clustering>
</event>
<event>
 6    0  0.8610502E+002  0.1589977E+03  0.7546771E-02  0.1189833E+00
         21   -1    0    0  506  501  0.00000000000E+00  0.00000000000E+00  0.56343756710E+03  0.56343756710E+03  0.00000000000E+00 0.  1.
         21   -1    0    0  504  502 -0.00000000000E+00 -0.00000000000E+00 -0.80507329509E+03  0.80507329509E+03  0.00000000000E+00 0. -1.
         21    1    1    2  503  501 -0.15648589732E+03 -0.28427211132E+02  0.52406348868E+03  0.54766639714E+03  0.00000000000E+00 0.  1.
         21    1    1    2  504  503  0.16052787909E+03 -0.98090402702E+01 -0.64298608692E+03  0.66279448187E+03  0.00000000000E+00 0. -1.
         21    1    1    2  505  502 -0.32930704200E+02  0.58531388851E+01 -0.10665767141E+03  0.11177902033E+03  0.00000000000E+00 0. -1.
         21    1    1    2  506  505  0.28888722439E+02  0.32383112518E+02 -0.16055458341E+02  0.46270962849E+02  0.00000000000E+00 0. -1.
<scales pt_clust_3="158.99771" pt_clust_4="14000.00000" pt_clust_5="33.44683" pt_clust_6="42.62906"></scales>
<clustering>
<clus scale="   33.447">  2  5  1 -1</clus>
<clus scale="   42.629">  2  6  1 -1</clus>
<clus scale="  158.998">  1  3  2 -1</clus>
<clus scale="  158.998">  1  3  2 -1</clus>
</clustering>
</event>
<event>
 6    0  0.8610502E+002  0.8669065E+02  0.7546771E-02  0.1311070E+00
         21   -1    0    0  504  501  0.00000000000E+00  0.00000000000E+00  0.22732635854E+02  0.22732635854E+02  0.00000000000E+00 0.  1.
         21   -1    0    0  506  502 -0.00000000000E+00 -0.00000000000E+00 -0.33255965451E+04  0.33255965451E+04  0.00000000000E+00 0.  1.
         21    1    1    2  503  501  0.86741280576E+02 -0.42711810427E+02 -0.19388680967E+04  0.19412773746E+04  0.00000000000E+00 0.  1.
         21    1    1    2  504  505 -0.82140894265E+02 -0.30546117711E+02 -0.77218240903E+02  0.11680260505E+03  0.00000000000E+00 0.  1.
         21    1    1    2  505  502  0.19536848380E+02  0.36574204050E+02 -0.35080554332E+03  0.35324763279E+03  0.00000000000E+00 0.  1.
         21    1    1    2  506  503 -0.24137234691E+02  0.36683724088E+02 -0.93597202826E+03  0.93700156851E+03  0.00000000000E+00 0. -1.
<scales pt_clust_3="86.69065" pt_clust_4="14000.00000" pt_clust_5="41.46518" pt_clust_6="51.44801"></scales>
<clustering>
<clus scale="   41.465">  2  5  1 -1</clus>
<clus scale="   51.448">  2  6  1 -1</clus>
<clus scale="   86.691">  2  3  1 -1</clus>
<clus scale="   86.691">  1  3  2 -1</clus>
</clustering>
</event>
<event>
 6    0  0.8610502E+002  0.1207758E+03  0.7546771E-02  0.1241823E+00
         21   -1    0    0  506  501  0.00000000000E+00  0.00000000000E+00  0.49418218799E+02  0.49418218799E+02  0.00000000000E+00 0. -1.
         21   -1    0    0  504  502 -0.00000000000E+00 -0.00000000000E+00 -0.13455336244E+04  0.13455336244E+04  0.00000000000E+00 0. -1.
         21    1    1    2  503  501  0.12629374448E+02 -0.90058817725E+02 -0.74760191958E+02  0.11772501030E+03  0.00000000000E+00 0. -1.
         21    1    1    2  504  503 -0.27043385365E+02 -0.43669022250E+02 -0.46018313196E+02  0.68963855356E+02  0.00000000000E+00 0.  1.
         21    1    1    2  505  502  0.49511950498E+02  0.44866437247E+02 -0.10424826508E+04  0.10446217055E+04  0.00000000000E+00 0. -1.
         21    1    1    2  506  505 -0.35097939581E+02  0.88861402728E+02 -0.13285424964E+03  0.16364127201E+03  0.00000000000E+00 0. -1.
<scales pt_clust_3="35.04475" pt_clust_4="35.04475" pt_clust_5="66.81639" pt_clust_6="111.41098"></scales>
<clustering>
<clus scale="   35.045">  3  4 -1 -1</clus>
<clus scale="   66.816">  2  5  1 -1</clus>
<clus scale="  111.411">  2  6  1 -1</clus>
<clus scale="  120.776">  1  3  2 -1</clus>
</clustering>
</event>
<event>
 6    0  0.8610502E+002  0.1269785E+03  0.7546771E-02  0.1232009E+00
         21   -1    0    0  503  501  0.00000000000E+00  0.00000000000E+00  0.15349635427E+04  0.15349635427E+04  0.00000000000E+00 0. -1.
         21   -1    0    0  501  502 -0.00000000000E+00 -0.00000000000E+00 -0.56124075950E+02  0.56124075950E+02  0.00000000000E+00 0.  1.
         21    1    1    2  503  505 -0.78770890826E+02  0.11809527398E+03  0.11440676932E+04  0.11528409403E+04  0.00000000000E+00 0. -1.
         21    1    1    2  504  502  0.60071942783E+02 -0.24764357588E+02 -0.21025730570E+02  0.68293433524E+02  0.00000000000E+00 0.  1.
         21    1    1    2  505  506  0.23018405801E+01 -0.46847192229E+02  0.23219444056E+03  0.23688439399E+03  0.00000000000E+00 0.  1.
         21    1    1    2  506  504  0.16397107462E+02 -0.46483724161E+02  0.12360306361E+03  0.13306885089E+03  0.00000000000E+00 0.  1.
<scales pt_clust_3="122.10775" pt_clust_4="64.97624" pt_clust_5="33.97748" pt_clust_6="33.97748"></scales>
<clustering>
<clus scale="   33.977">  5  6 -1 -1</clus>
<clus scale="   64.976">  2  4  1 -1</clus>
<clus scale="  122.108">  1  3  2 -1</clus>
<clus scale="  122.108">  1  3  2 -1</clus>
</clustering>
</event>
<event>
 6    0  0.8610502E+002  0.1269870E+03  0.7546771E-02  0.1231996E+00
         21   -1    0    0  504  501  0.00000000000E+00  0.00000000000E+00  0.17651995260E+03  0.17651995260E+03  0.00000000000E+00 0.  1.
         21   -1    0    0  503  502 -0.00000000000E+00 -0.00000000000E+00 -0.48330673563E+03  0.48330673563E+03  0.00000000000E+00 0.  1.
         21    1    1    2  503  505  0.54175918464E+01 -0.62750583982E+02 -0.50045653047E+02  0.80445966216E+02  0.00000000000E+00 0.  1.
         21    1    1    2  504  506 -0.27359901914E+02 -0.64014734574E+02  0.36702724713E+02  0.78699050036E+02  0.00000000000E+00 0.  1.
         21    1    1    2  505  501 -0.97639417515E+02  0.10779109625E+03  0.35885580211E+02  0.14980037099E+03  0.00000000000E+00 0.  1.
         21    1    1    2  506  502  0.11958172758E+03  0.18974222308E+02 -0.32932943491E+03  0.35088130099E+03  0.00000000000E+00 0.  1.
<scales pt_clust_3="62.98401" pt_clust_4="72.42301" pt_clust_5="126.98704" pt_clust_6="14000.00000"></scales>
<clustering>
<clus scale="   62.984">  2  3  1 -1</clus>
<clus scale="   72.423">  1  4  2 -1</clus>
<clus scale="  126.987">  1  5  2 -1</clus>
<clus scale="   72.423">  1  3  2 -1</clus>
</clustering>
</event>
<event>
 6    0  0.8610502E+002  0.9674816E+02  0.7546771E-02  0.1287287E+00
         21   -1    0    0  506  501  0.00000000000E+00  0.00000000000E+00  0.78637215947E+03  0.78637215947E+03  0.00000000000E+00 0.  1.
         21   -1    0    0  505  502 -0.00000000000E+00 -0.00000000000E+00 -0.22775938629E+04  0.22775938629E+04  0.00000000000E+00 0. -1.
         21    1    1    2  503  502 -0.24839073378E+02 -0.12093879691E+03  0.20997129339E+03  0.24357979435E+03  0.00000000000E+00 0.  1.
         21    1    1    2  504  501 -0.59577978130E+02  0.12376712526E+01  0.16375699133E+02  0.61799925811E+02  0.00000000000E+00 0. -1.
         21    1    1    2  505  504  0.57841845732E+02  0.47043066359E+02 -0.22345775346E+04  0.22358209873E+04  0.00000000000E+00 0. -1.
         21    1    1    2  506  503  0.26575205776E+02  0.72658059301E+02  0.51700883868E+03  0.52276531486E+03  0.00000000000E+00 0.  1.
<scales pt_clust_3="96.74816" pt_clust_4="59.59083" pt_clust_5="74.51909" pt_clust_6="14000.00000"></scales>
<clustering>
<clus scale="   59.591">  1  4  2 -1</clus>
<clus scale="   74.519">  2  5  1 -1</clus>
<clus scale="   96.748">  2  3  1 -1</clus>
<clus scale="   59.591">  1  3  2 -1</clus>
</clustering>
</event>
<event>
 6    0  0.8610502E+002  0.1025282E+03  0.7546771E-02  0.1275067E+00
         21   -1    0    0  505  501  0.00000000000E+00  0.00000000000E+00  0.39117495412E+02  0.39117495412E+02  0.00000000000E+00 0. -1.
         21   -1    0    0  506  502 -0.00000000000E+00 -0.00000000000E+00 -0.90314877896E+03  0.90314877896E+03  0.00000000000E+00 0.  1.
         21    1    1    2  503  501 -0.13426012374E+02 -0.62047431795E+02 -0.29371714018E+03  0.30049941770E+03  0.00000000000E+00 0. -1.
         21    1    1    2  504  502 -0.27077220672E+01  0.79965129996E+02 -0.34099705191E+03  0.35025810937E+03  0.00000000000E+00 0.  1.
         21    1    1    2  505  504 -0.27466925712E+01  0.43181642132E+02  0.94814805052E+01  0.44295564223E+02  0.00000000000E+00 0. -1.
         21    1    1    2  506  503  0.18880427012E+02 -0.61099340332E+02 -0.23879857197E+03  0.24721318308E+03  0.00000000000E+00 0. -1.
<scales pt_clust_3="34.81840" pt_clust_4="96.38885" pt_clust_5="43.26891" pt_clust_6="34.81840"></scales>
<clustering>
<clus scale="   34.818">  3  6 -1 -1</clus>
<clus scale="   43.269">  1  5  2 -1</clus>
<clus scale="   96.389">  2  4  1 -1</clus>
<clus scale="   43.269">  1  3  2 -1</clus>
</clustering>
</event>
<event>
 6    0  0.8610502E+002  0.1401196E+03  0.7546771E-02  0.1213168E+00
         21   -1    0    0  503  501  0.00000000000E+00  0.00000000000E+00  0.63095009547E+03  0.63095009547E+03  0.00000000000E+00 0. -1.
         21   -1    0    0  501  502 -0.00000000000E+00 -0.00000000000E+00 -0.32426389839E+03  0.32426389839E+03  0.00000000000E+00 0.  1.
         21    1    1    2  503  506  0.60867886448E+02 -0.58510386478E+01  0.38850581102E+03  0.39328857020E+03  0.00000000000E+00 0. -1.
         21    1    1    2  504  502  0.12059151582E+03 -0.16130187665E+02 -0.26745767112E+03  0.29383005715E+03  0.00000000000E+00 0.  1.
         21    1    1    2  505  504 -0.40580847743E+02  0.23336028895E+02  0.20718749073E+02  0.51192206548E+02  0.00000000000E+00 0.  1.
         21    1    1    2  506  505 -0.14087855452E+03 -0.13548025829E+01  0.16491930810E+03  0.21690315996E+03  0.00000000000E+00 0. -1.
<scales pt_clust_3="61.14846" pt_clust_4="125.02216" pt_clust_5="36.47008" pt_clust_6="36.47008"></scales>
<clustering>
<clus scale="   36.470">  5  6 -1 -1</clus>
<clus scale="   61.148">  1  3  2 -1</clus>
<clus scale="  125.022">  2  4  1 -1</clus>
<clus scale="   61.148">  1  3  2 -1</clus>
</clustering>
</event>
<event>
 6    0  0.8610502E+002  0.1058761E+03  0.7546771E-02  0.1268403E+00
         21   -1    0    0  504  501  0.00000000000E+00  0.00000000000E+00  0.10057100256E+04  0.10057100256E+04  0.00000000000E+00 0.  1.
         21   -1    0    0  505  502 -0.00000000000E+00 -0.00000000000E+00 -0.97175569435E+03  0.97175569435E+03  0.00000000000E+00 0.  1.
         21    1    1    2  503  501  0.22307663710E+02  0.42757910135E+02  0.92399731545E+03  0.92525505116E+03  0.00000000000E+00 0.  1.
         21    1    1    2  504  506 -0.36939676906E+02  0.68864725404E+02 -0.69623155054E+02  0.10466266696E+03  0.00000000000E+00 0. -1.
         21    1    1    2  505  503  0.11812571334E+03 -0.12349927570E+03 -0.61675091657E+02  0.18168536590E+03  0.00000000000E+00 0.  1.
         21    1    1    2  506  502 -0.10349370014E+03  0.11876640159E+02 -0.75874473746E+03  0.76586263597E+03  0.00000000000E+00 0.  1.
<scales pt_clust_3="48.22728" pt_clust_4="84.45008" pt_clust_5="14000.00000" pt_clust_6="105.87614"></scales>
<clustering>
<clus scale="   48.227">  1  3  2 -1</clus>
<clus scale="   84.450">  1  4  2 -1</clus>
<clus scale="  105.876">  2  6  1 -1</clus>
<clus scale="   48.227">  1  3  2 -1</clus>
</clustering>
</event>
<event>
 6    0  0.8610502E+002  0.1487911E+03  0.7546771E-02  0.1201966E+00
         21   -1    0    0  506  501  0.00000000000E+00  0.00000000000E+00  0.77348814274E+02  0.77348814274E+02  0.00000000000E+00 0. -1.
         21   -1    0    0  503  502 -0.00000000000E+00 -0.00000000000E+00 -0.10099742217E+04  0.10099742217E+04  0.00000000000E+00 0.  1.
         21    1    1    2  503  504  0.33970472590E+02 -0.30162305997E+02 -0.22863788221E+02  0.50857747913E+02  0.00000000000E+00 0. -1.
         21    1    1    2  504  501  0.48591491941E+02 -0.88040113625E+02  0.11642363261E+02  0.10123111833E+03  0.00000000000E+00 0. -1.
         21    1    1    2  505  502 -0.29010656483E+02  0.21044522092E+02 -0.97190387791E+02  0.10358794128E+03  0.00000000000E+00 0.  1.
         21    1    1    2  506  505 -0.53551308047E+02  0.97157897530E+02 -0.82421359468E+03  0.83164622845E+03  0.00000000000E+00 0.  1.
<scales pt_clust_3="31.64593" pt_clust_4="31.64593" pt_clust_5="35.83978" pt_clust_6="141.14526"></scales>
<clustering>
<clus scale="   31.646">  3  4 -1 -1</clus>
<clus scale="   35.840">  2  5  1 -1</clus>
<clus scale="  141.145">  2  6  1 -1</clus>
<clus scale="  148.791">  1  3  2 -1</clus>
</clustering>
</event>
<event>
 6    0  0.8610502E+002  0.2887939E+03  0.7546771E-02  0.1090981E+00
         21   -1    0    0  506  501  0.00000000000E+00  0.00000000000E+00  0.10793744594E+04  0.10793744594E+04  0.00000000000E+00 0.  1.
         21   -1    0    0  504  502 -0.00000000000E+00 -0.00000000000E+00 -0.21915001705E+03  0.21915001705E+03  0.00000000000E+00 0. -1.
         21    1    1    2  503  502  0.21962036879E+03 -0.76585284479E+01 -0.41724757292E+02  0.22367993834E+03  0.00000000000E+00 0. -1.
         21    1    1    2  504  505 -0.24624154889E+03  0.11540205546E+02  0.47087959791E+03  0.53150321963E+03  0.00000000000E+00 0.  1.
         21    1    1    2  505  501 -0.12605050700E+03  0.61488478024E+02  0.97792127451E+02  0.17097620722E+03  0.00000000000E+00 0. -1.
         21    1    1    2  506  503  0.15267168710E+03 -0.65370155122E+02  0.33327747430E+03  0.37236511128E+03  0.00000000000E+00 0.  1.
<scales pt_clust_3="239.26280" pt_clust_4="121.98579" pt_clust_5="121.98579" pt_clust_6="166.07800"></scales>
<clustering>
<clus scale="  121.986">  4  5 -1 -1</clus>
<clus scale="  166.078">  1  6  2 -1</clus>
<clus scale="  239.263">  2  3  1 -1</clus>
<clus scale="  166.078">  1  3  2 -1</clus>
</clustering>
</event>
<event>
 6    0  0.8610502E+002  0.1083746E+03  0.7546771E-02  0.1263610E+00
         21   -1    0    0  503  501  0.00000000000E+00  0.00000000000E+00  0.33121708690E+03  0.33121708690E+03  0.00000000000E+00 0.  1.
         21   -1    0    0  505  502 -0.00000000000E+00 -0.00000000000E+00 -0.17585573030E+03  0.17585573030E+03  0.00000000000E+00 0.  1.
         21    1    1    2  503  506 -0.16594993616E+02 -0.52667246590E+02  0.26423817878E+03  0.26994637949E+03  0.00000000000E+00 0.  1.
         21    1    1    2  504  502 -0.11143857865E+02  0.81618664290E+02 -0.58564416564E+02  0.10107216638E+03  0.00000000000E+00 0.  1.
         21    1    1    2  505  501 -0.77525286392E+01 -0.70516509854E+02 -0.36011262787E+02  0.79558097701E+02  0.00000000000E+00 0.  1.
         21    1    1    2  506  504  0.35491380120E+02  0.41565092154E+02 -0.14301142835E+02  0.56496173631E+02  0.00000000000E+00 0.  1.
<scales pt_clust_3="55.21986" pt_clust_4="49.88998" pt_clust_5="89.40749" pt_clust_6="49.88998"></scales>
<clustering>
<clus scale="   49.890">  4  6 -1 -1</clus>
<clus scale="   55.220">  1  3  2 -1</clus>
<clus scale="   89.407">  2  5  1 -1</clus>
<clus scale="   55.220">  1  3  2 -1</clus>
</clustering>
</event>
<event>
 6    0  0.8610502E+002  0.8225459E+02  0.7546771E-02  0.1322772E+00
         21   -1    0    0  506  501  0.00000000000E+00  0.00000000000E+00  0.33936251606E+03  0.33936251606E+03  0.00000000000E+00 0. -1.
         21   -1    0    0  504  502 -0.00000000000E+00 -0.00000000000E+00 -0.82214766395E+02  0.82214766395E+02  0.00000000000E+00 0. -1.
         21    1    1    2  503  502 -0.25667002310E+02 -0.78144463279E+02  0.42909889670E+02  0.92771821046E+02  0.00000000000E+00 0. -1.
         21    1    1    2  504  505  0.25487817345E+02  0.27059326228E+02 -0.22667339095E+01  0.37242100525E+02  0.00000000000E+00 0. -1.
         21    1    1    2  505  501 -0.28999937023E+02  0.89005500713E+02  0.28925283372E+02  0.97977790966E+02  0.00000000000E+00 0. -1.
         21    1    1    2  506  503  0.29179121988E+02 -0.37920363662E+02  0.18757931053E+03  0.19358556992E+03  0.00000000000E+00 0. -1.
<scales pt_clust_3="14000.00000" pt_clust_4="37.17305" pt_clust_5="82.25459" pt_clust_6="47.59637"></scales>
<clustering>
<clus scale="   37.173">  2  4  1 -1</clus>
<clus scale="   47.596">  1  6  2 -1</clus>
<clus scale="   82.255">  1  5  2 -1</clus>
<clus scale="   47.596">  1  3  2 -1</clus>
</clustering>
</event>
<event>
 6    0  0.8610502E+002  0.1445390E+03  0.7546771E-02  0.1207349E+00
         21   -1    0    0  502  501  0.00000000000E+00  0.00000000000E+00  0.61884051254E+02  0.61884051254E+02  0.00000000000E+00 0.  1.
         21   -1    0    0  504  502 -0.00000000000E+00 -0.00000000000E+00 -0.95912519044E+03  0.95912519044E+03  0.00000000000E+00 0.  1.
         21    1    1    2  503  506 -0.68837282276E+02 -0.39067729293E+02 -0.39898979299E+03  0.40676493681E+03  0.00000000000E+00 0.  1.
         21    1    1    2  504  503 -0.69174035587E+02 -0.27996844357E+01 -0.34898517171E+03  0.35578580004E+03  0.00000000000E+00 0.  1.
         21    1    1    2  505  501  0.23690869537E+02 -0.21438590847E+02  0.25048890127E+02  0.40599475040E+02  0.00000000000E+00 0.  1.
         21    1    1    2  506  505  0.11432044833E+03  0.63306004576E+02 -0.17431506461E+03  0.21785902981E+03  0.00000000000E+00 0.  1.
<scales pt_clust_3="32.25726" pt_clust_4="32.25726" pt_clust_5="31.95106" pt_clust_6="140.26566"></scales>
<clustering>
<clus scale="   31.951">  1  5  2 -1</clus>
<clus scale="   32.257">  3  4 -1 -1</clus>
<clus scale="  140.266">  1  6  2 -1</clus>
<clus scale="   31.951">  1  3  2 -1</clus>
</clustering>
</event>
<event>
 6    0  0.8610502E+002  0.9874096E+02  0.7546771E-02  0.1282966E+00
         21   -1    0    0  504  501  0.00000000000E+00  0.00000000000E+00  0.11949944402E+04  0.11949944402E+04  0.00000000000E+00 0. -1.
         21   -1    0    0  506  502 -0.00000000000E+00 -0.00000000000E+00 -0.10919783135E+03  0.10919783135E+03  0.00000000000E+00 0. -1.
         21    1    1    2  503  501 -0.16659555071E+02  0.33181317153E+02  0.97496804124E+03  0.97567475217E+03  0.00000000000E+00 0. -1.
         21    1    1    2  504  505  0.36982549322E+02  0.35175063412E+02  0.89789028439E+02  0.10328147786E+03  0.00000000000E+00 0.  1.
         21    1    1    2  505  502 -0.37006899858E+02  0.72360243073E+02 -0.38458109247E+01  0.81365260870E+02  0.00000000000E+00 0. -1.
         21    1    1    2  506  503  0.16683905607E+02 -0.14071662364E+03  0.24885350086E+02  0.14387078065E+03  0.00000000000E+00 0. -1.
<scales pt_clust_3="37.12870" pt_clust_4="57.92688" pt_clust_5="14000.00000" pt_clust_6="98.74096"></scales>
<clustering>
<clus scale="   37.129">  1  3  2 -1</clus>
<clus scale="   57.927">  1  4  2 -1</clus>
<clus scale="   98.741">  1  6  2 -1</clus>
<clus scale="   37.129">  1  3  2 -1</clus>
</clustering>
</event>
<event>
 6    0  0.8610502E+002  0.1599739E+03  0.7546771E-02  0.1188726E+00
         21   -1    0    0  505  501  0.00000000000E+00  0.00000000000E+00  0.20980536394E+02  0.20980536394E+02  0.00000000000E+00 0.  1.
         21   -1    0    0  504  502 -0.00000000000E+00 -0.00000000000E+00 -0.22661088226E+04  0.22661088226E+04  0.00000000000E+00 0.  1.
         21    1    1    2  503  502 -0.97338466907E+02  0.28466587796E+02 -0.15791513769E+04  0.15824045611E+04  0.00000000000E+00 0.  1.
         21    1    1    2  504  506  0.92874848921E+02 -0.17126559245E+02 -0.24202720615E+03  0.25980035625E+03  0.00000000000E+00 0.  1.
         21    1    1    2  505  503 -0.46303901103E+02  0.13690774326E+02 -0.34137044887E+03  0.34476843232E+03  0.00000000000E+00 0.  1.
         21    1    1    2  506  501  0.50767519088E+02 -0.25030802877E+02 -0.82579254246E+02  0.10011600930E+03  0.00000000000E+00 0.  1.
<scales pt_clust_3="38.91863" pt_clust_4="155.46844" pt_clust_5="38.91863" pt_clust_6="32.47906"></scales>
<clustering>
<clus scale="   32.479">  4  6 -1 -1</clus>
<clus scale="   38.919">  3  5 -1 -1</clus>
<clus scale="  155.468">  1  4  2 -1</clus>
<clus scale="  155.468">  1  3  2 -1</clus>
</clustering>
</event>
<event>
 6    0  0.8610502E+002  0.5514601E+02  0.7546771E-02  0.1419410E+00
         21   -1    0    0  505  501  0.00000000000E+00  0.00000000000E+00  0.49159078643E+03  0.49159078643E+03  0.00000000000E+00 0.  1.
         21   -1    0    0  504  502 -0.00000000000E+00 -0.00000000000E+00 -0.47663057419E+03  0.47663057419E+03  0.00000000000E+00 0.  1.
         21    1    1    2  503  502 -0.61186675628E+02 -0.50609848471E+02 -0.37492197579E+03  0.38323837747E+03  0.00000000000E+00 0.  1.
         21    1    1    2  504  506  0.30990289715E+02  0.71360427584E+01 -0.67918877732E+02  0.74995300621E+02  0.00000000000E+00 0. -1.
         21    1    1    2  505  503  0.69234681299E+02  0.81613896124E+02  0.43962308824E+03  0.45246295854E+03  0.00000000000E+00 0.  1.
         21    1    1    2  506  501 -0.39038295385E+02 -0.38140090411E+02  0.18177977512E+02  0.57524723985E+02  0.00000000000E+00 0. -1.
<scales pt_clust_3="14000.00000" pt_clust_4="31.80128" pt_clust_5="55.14601" pt_clust_6="53.26465"></scales>
<clustering>
<clus scale="   31.801">  2  4  1 -1</clus>
<clus scale="   53.265">  1  6  2 -1</clus>
<clus scale="   55.146">  1  5  2 -1</clus>
<clus scale="   53.265">  1  3  2 -1</clus>
</clustering>
</event>
<event>
 6    0  0.8610502E+002  0.1049837E+03  0.7546771E-02  0.1270152E+00
         21   -1    0    0  506  501  0.00000000000E+00  0.00000000000E+00  0.98562653717E+02  0.98562653717E+02  0.00000000000E+00 0. -1.
         21   -1    0    0  504  502 -0.00000000000E+00 -0.00000000000E+00 -0.37450361926E+03  0.37450361926E+03  0.00000000000E+00 0. -1.
         21    1    1    2  503  505  0.75428799856E+02 -0.32999509377E+02 -0.72706922272E+02  0.10983973786E+03  0.00000000000E+00 0. -1.
         21    1    1    2  504  503 -0.50153720997E+02 -0.17299947530E+02 -0.11247160760E+03  0.12435652950E+03  0.00000000000E+00 0. -1.
         21    1    1    2  505  501  0.66552711080E+02  0.95946140929E+02 -0.62769932116E+02  0.13257069695E+03  0.00000000000E+00 0. -1.
         21    1    1    2  506  502 -0.91827789939E+02 -0.45646684022E+02 -0.27992503555E+02  0.10629930866E+03  0.00000000000E+00 0. -1.
<scales pt_clust_3="69.61556" pt_clust_4="53.05359" pt_clust_5="14000.00000" pt_clust_6="104.98372"></scales>
<clustering>
<clus scale="   53.054">  2  4  1 -1</clus>
<clus scale="   69.616">  2  3  1 -1</clus>
<clus scale="  104.984">  1  6  2 -1</clus>
<clus scale="  104.984">  1  3  2 -1</clus>
</clustering>
</event>
<event>
 6    0  0.8610502E+002  0.1665693E+03  0.7546771E-02  0.1181473E+00
         21   -1    0    0  504  501  0.00000000000E+00  0.00000000000E+00  0.23731474039E+03  0.23731474039E+03  0.00000000000E+00 0.  1.
         21   -1    0    0  503  502 -0.00000000000E+00 -0.00000000000E+00 -0.68337622618E+03  0.68337622618E+03  0.00000000000E+00 0.  1.
         21    1    1    2  503  501 -0.14775675648E+03 -0.16061162039E+03 -0.38370779669E+03  0.44142929777E+03  0.00000000000E+00 0.  1.
         21    1    1    2  504  506  0.13789368990E+03  0.86368420064E+02  0.15013125365E+03  0.22139007887E+03  0.00000000000E+00 0.  1.
         21    1    1    2  505  502 -0.41452738052E+02  0.21032091955E+02 -0.16153656485E+03  0.16809146370E+03  0.00000000000E+00 0.  1.
         21    1    1    2  506  505  0.51315804625E+02  0.53211108368E+02 -0.50948377893E+02  0.89780126241E+02  0.00000000000E+00 0.  1.
<scales pt_clust_3="166.56933" pt_clust_4="14000.00000" pt_clust_5="46.48310" pt_clust_6="72.32532"></scales>
<clustering>
<clus scale="   46.483">  2  5  1 -1</clus>
<clus scale="   72.325">  2  6  1 -1</clus>
<clus scale="  166.569">  2  3  1 -1</clus>
<clus scale="  166.569">  1  3  2 -1</clus>
</clustering>
</event>
<event>
 6    0  0.8610502E+002  0.1792837E+03  0.7546771E-02  0.1168498E+00
         21   -1    0    0  504  501  0.00000000000E+00  0.00000000000E+00  0.19389493323E+03  0.19389493323E+03  0.00000000000E+00 0.  1.
         21   -1    0    0  506  502 -0.00000000000E+00 -0.00000000000E+00 -0.11746188100E+04  0.11746188100E+04  0.00000000000E+00 0.  1.
         21    1    1    2  503  501  0.17929624285E+02  0.12356890119E+03  0.14309042435E+03  0.18990948978E+03  0.00000000000E+00 0.  1.
         21    1    1    2  504  502  0.29904702721E+02  0.43919610301E+02 -0.15210979898E+02  0.55268411623E+02  0.00000000000E+00 0.  1.
         21    1    1    2  505  503 -0.40883580832E+02 -0.11131412011E+03 -0.87361162562E+03  0.88162326020E+03  0.00000000000E+00 0.  1.
         21    1    1    2  506  505 -0.69507461737E+01 -0.56174391378E+02 -0.23499169559E+03  0.24171258162E+03  0.00000000000E+00 0.  1.
<scales pt_clust_3="172.04961" pt_clust_4="53.13401" pt_clust_5="34.83016" pt_clust_6="34.83016"></scales>
<clustering>
<clus scale="   34.830">  5  6 -1 -1</clus>
<clus scale="   53.134">  1  4  2 -1</clus>
<clus scale="  172.050">  1  3  2 -1</clus>
<clus scale="   53.134">  1  3  2 -1</clus>
</clustering>
</event>
<event>
 6    0  0.8610502E+002  0.6503111E+02  0.7546771E-02  0.1377855E+00
         21   -1    0    0  506  501  0.00000000000E+00  0.00000000000E+00  0.15961579888E+03  0.15961579888E+03  0.00000000000E+00 0.  1.
         21   -1    0    0  504  502 -0.00000000000E+00 -0.00000000000E+00 -0.18073975904E+03  0.18073975904E+03  0.00000000000E+00 0.  1.
         21    1    1    2  503  502  0.38445601850E+02 -0.47656893484E+02 -0.11116816547E+03  0.12691573903E+03  0.00000000000E+00 0.  1.
         21    1    1    2  504  501 -0.76868538361E+02  0.77798450405E+02  0.57969815973E+02  0.12378154402E+03  0.00000000000E+00 0.  1.
         21    1    1    2  505  503  0.36148343857E+01 -0.43937442629E+02  0.71073533524E+01  0.44655126963E+02  0.00000000000E+00 0.  1.
         21    1    1    2  506  505  0.34808102125E+02  0.13795885707E+02  0.24967035993E+02  0.45003147915E+02  0.00000000000E+00 0.  1.
<scales pt_clust_3="14000.00000" pt_clust_4="65.03111" pt_clust_5="42.47975" pt_clust_6="37.44236"></scales>
<clustering>
<clus scale="   37.442">  1  6  2 -1</clus>
<clus scale="   42.480">  1  5  2 -1</clus>
<clus scale="   65.031">  1  4  2 -1</clus>
<clus scale="   37.442">  1  3  2 -1</clus>
</clustering>
</event>
<event>
 6    0  0.8610502E+002  0.7380699E+02  0.7546771E-02  0.1347606E+00
         21   -1    0    0  505  501  0.00000000000E+00  0.00000000000E+00  0.10687762977E+04  0.10687762977E+04  0.00000000000E+00 0.  1.
         21   -1    0    0  506  502 -0.00000000000E+00 -0.00000000000E+00 -0.35552435450E+02  0.35552435450E+02  0.00000000000E+00 0.  1.
         21    1    1    2  503  501  0.65484561333E+02 -0.44517858171E+02  0.11272861906E+03  0.13775996887E+03  0.00000000000E+00 0.  1.
         21    1    1    2  504  502 -0.16307223087E+02  0.59237361860E+02  0.10994895959E+03  0.12595143620E+03  0.00000000000E+00 0.  1.
         21    1    1    2  505  504 -0.51293427929E+02  0.52254382016E+02  0.73890145753E+03  0.74252063953E+03  0.00000000000E+00 0.  1.
         21    1    1    2  506  503  0.21160896834E+01 -0.66973885704E+02  0.71644826068E+02  0.98096688548E+02  0.00000000000E+00 0.  1.
<scales pt_clust_3="73.80699" pt_clust_4="61.44095" pt_clust_5="14000.00000" pt_clust_6="38.95808"></scales>
<clustering>
<clus scale="   61.441">  2  4  1 -1</clus>
<clus scale="   38.958">  2  6  1 -1</clus>
<clus scale="   73.807">  2  3  1 -1</clus>
<clus scale="   73.807">  1  3  2 -1</clus>
</clustering>
</event>
<event>
 6    0  0.1150290E+003  0.1483839E+03  0.7546771E-02  0.1202473E+00
         21   -1    0    0  506  501  0.00000000000E+00  0.00000000000E+00  0.35641541189E+03  0.35641541189E+03  0.00000000000E+00 0.  1.
         21   -1    0    0  505  502 -0.00000000000E+00 -0.00000000000E+00 -0.15432851444E+04  0.15432851444E+04  0.00000000000E+00 0. -1.
         21    1    1    2  503  502  0.14139510263E+02 -0.44140208727E+02 -0.72357964819E+02  0.85929964795E+02  0.00000000000E+00 0. -1.
         21    1    1    2  504  503  0.13395139068E+03  0.42629523029E+02 -0.14230659592E+04  0.14299919494E+04  0.00000000000E+00 0. -1.
         21    1    1    2  505  501  0.20442274331E+02  0.25251161357E+02  0.12756885439E+01  0.32513614240E+02  0.00000000000E+00 0. -1.
         21    1    1    2  506  504 -0.16853317528E+03 -0.23740475659E+02  0.30727850298E+03  0.35126502778E+03  0.00000000000E+00 0.  1.
<scales pt_clust_3="45.99679" pt_clust_4="14000.00000" pt_clust_5="32.48858" pt_clust_6="148.38387"></scales>
<clustering>
<clus scale="   32.489">  1  5  2 -1</clus>
<clus scale="   45.997">  2  3  1 -1</clus>
<clus scale="  148.384">  1  6  2 -1</clus>
<clus scale="   32.489">  1  3  2 -1</clus>
</clustering>
</event>
<event>
 6    0  0.8610502E+002  0.1816662E+03  0.7546771E-02  0.1166200E+00
         21   -1    0    0  504  501  0.00000000000E+00  0.00000000000E+00  0.21032610700E+03  0.21032610700E+03  0.00000000000E+00 0.  1.
         21   -1    0    0  506  502 -0.00000000000E+00 -0.00000000000E+00 -0.11995240720E+04  0.11995240720E+04  0.00000000000E+00 0. -1.
         21    1    1    2  503  501  0.35746694953E+02  0.13351724080E+02 -0.29370394424E+02  0.48153035258E+02  0.00000000000E+00 0. -1.
         21    1    1    2  504  505 -0.51510734337E+02  0.53381725109E+02  0.95767920326E+02  0.12113818098E+03  0.00000000000E+00 0.  1.
         21    1    1    2  505  502 -0.16580054201E+03 -0.83956966442E+02 -0.17616021274E+02  0.18667864406E+03  0.00000000000E+00 0.  1.
         21    1    1    2  506  503  0.18156458139E+03  0.17223517254E+02 -0.10379794697E+04  0.10538803187E+04  0.00000000000E+00 0. -1.
<scales pt_clust_3="38.15881" pt_clust_4="68.62106" pt_clust_5="181.66619" pt_clust_6="14000.00000"></scales>
<clustering>
<clus scale="   38.159">  1  3  2 -1</clus>
<clus scale="   68.621">  1  4  2 -1</clus>
<clus scale="  181.666">  1  5  2 -1</clus>
<clus scale="   38.159">  1  3  2 -1</clus>
</clustering>
</event>
<event>
 6    0  0.8610502E+002  0.1009510E+03  0.7546771E-02  0.1278309E+00
         21   -1    0    0  505  501  0.00000000000E+00  0.00000000000E+00  0.22565414120E+03  0.22565414120E+03  0.00000000000E+00 0.  1.
         21   -1    0    0  504  502 -0.00000000000E+00 -0.00000000000E+00 -0.19807380669E+03  0.19807380669E+03  0.00000000000E+00 0. -1.
         21    1    1    2  503  501 -0.90544615420E+02 -0.24244635773E+02  0.87477238579E+02  0.12821231226E+03  0.00000000000E+00 0.  1.
         21    1    1    2  504  503 -0.29721356855E+02 -0.12871899453E+02 -0.55148747867E+01  0.32855116690E+02  0.00000000000E+00 0. -1.
         21    1    1    2  505  506 -0.77992869793E+01  0.38971224559E+02  0.72306958548E+02  0.82509887138E+02  0.00000000000E+00 0.  1.
         21    1    1    2  506  502  0.12806525925E+03 -0.18546893335E+01 -0.12668898784E+03  0.18015063180E+03  0.00000000000E+00 0. -1.
<scales pt_clust_3="100.95101" pt_clust_4="32.38896" pt_clust_5="39.56070" pt_clust_6="14000.00000"></scales>
<clustering>
<clus scale="   32.389">  2  4  1 -1</clus>
<clus scale="   39.561">  1  5  2 -1</clus>
<clus scale="  100.951">  1  3  2 -1</clus>
<clus scale="   39.561">  1  3  2 -1</clus>
</clustering>
</event>
<event>
 6    0  0.8610502E+002  0.1359152E+03  0.7546771E-02  0.1218934E+00
         21   -1    0    0  504  501  0.00000000000E+00  0.00000000000E+00  0.11839967197E+03  0.11839967197E+03  0.00000000000E+00 0.  1.
         21   -1    0    0  506  502 -0.00000000000E+00 -0.00000000000E+00 -0.12896342989E+04  0.12896342989E+04  0.00000000000E+00 0.  1.
         21    1    1    2  503  502 -0.11504139427E+03  0.10379147317E+03 -0.10920090579E+04  0.11029464968E+04  0.00000000000E+00 0.  1.
         21    1    1    2  504  505  0.53128339457E+02  0.48856609742E+02  0.32625580189E+02  0.79208694293E+02  0.00000000000E+00 0.  1.
         21    1    1    2  505  503  0.65105402141E+02 -0.47460637770E+02 -0.85322643266E+02  0.11735066672E+03  0.00000000000E+00 0.  1.
         21    1    1    2  506  501 -0.31923473239E+01 -0.10518744514E+03 -0.26528505986E+02  0.10852811307E+03  0.00000000000E+00 0.  1.
<scales pt_clust_3="14000.00000" pt_clust_4="72.17748" pt_clust_5="135.91518" pt_clust_6="79.69165"></scales>
<clustering>
<clus scale="   72.177">  1  4  2 -1</clus>
<clus scale="   79.692">  1  6  2 -1</clus>
<clus scale="  135.915">  1  5  2 -1</clus>
<clus scale="   72.177">  1  3  2 -1</clus>
</clustering>
</event>
<event>
 6    0  0.8610502E+002  0.2093628E+03  0.7546771E-02  0.1142072E+00
         21   -1    0    0  504  501  0.00000000000E+00  0.00000000000E+00  0.68586960741E+02  0.68586960741E+02  0.00000000000E+00 0.  1.
         21   -1    0    0  506  502 -0.00000000000E+00 -0.00000000000E+00 -0.69374291960E+03  0.69374291960E+03  0.00000000000E+00 0.  1.
         21    1    1    2  503  501  0.94521861364E+02  0.10244617182E+03 -0.26098691199E+03  0.29587796239E+03  0.00000000000E+00 0.  1.
         21    1    1    2  504  502 -0.16532358784E+03 -0.10955634225E+03 -0.28055584414E+03  0.34357832077E+03  0.00000000000E+00 0.  1.
         21    1    1    2  505  503  0.43229907849E+02  0.24162124413E+02 -0.24039413933E+02  0.55050218992E+02  0.00000000000E+00 0.  1.
         21    1    1    2  506  505  0.27571818627E+02 -0.17051953989E+02 -0.59573788800E+02  0.67823378191E+02  0.00000000000E+00 0. -1.
<scales pt_clust_3="49.43680" pt_clust_4="192.16511" pt_clust_5="49.43680" pt_clust_6="32.41873"></scales>
<clustering>
<clus scale="   32.419">  2  6  1 -1</clus>
<clus scale="   49.437">  3  5 -1 -1</clus>
<clus scale="  192.165">  2  4  1 -1</clus>
<clus scale="  209.363">  1  3  2 -1</clus>
</clustering>
</event>
<event>
 6    0  0.8610502E+002  0.8604402E+02  0.7546771E-02  0.1312725E+00
         21   -1    0    0  504  501  0.00000000000E+00  0.00000000000E+00  0.13343089458E+02  0.13343089458E+02  0.00000000000E+00 0.  1.
         21   -1    0    0  506  502 -0.00000000000E+00 -0.00000000000E+00 -0.19959468941E+04  0.19959468941E+04  0.00000000000E+00 0.  1.
         21    1    1    2  503  505 -0.29303738612E+02 -0.58649829672E+02 -0.34939122606E+03  0.35548943791E+03  0.00000000000E+00 0.  1.
         21    1    1    2  504  502  0.48554982835E+02 -0.47318957928E+02 -0.53103567471E+03  0.53534620383E+03  0.00000000000E+00 0.  1.
         21    1    1    2  505  501 -0.38775811631E+02  0.24250821808E+01 -0.63471709980E+02  0.74418428894E+02  0.00000000000E+00 0.  1.
         21    1    1    2  506  503  0.19524567408E+02  0.10354370542E+03 -0.10387051939E+04  0.10440359129E+04  0.00000000000E+00 0.  1.
<scales pt_clust_3="14000.00000" pt_clust_4="60.13133" pt_clust_5="38.85157" pt_clust_6="86.04402"></scales>
<clustering>
<clus scale="   38.852">  1  5  2 -1</clus>
<clus scale="   60.131">  1  4  2 -1</clus>
<clus scale="   86.044">  2  6  1 -1</clus>
<clus scale="   38.852">  1  3  2 -1</clus>
</clustering>
</event>
<event>
 6    0  0.8610502E+002  0.7858394E+02  0.7546771E-02  0.1333119E+00
         21   -1    0    0  506  501  0.00000000000E+00  0.00000000000E+00  0.10885954337E+03  0.10885954337E+03  0.00000000000E+00 0. -1.
         21   -1    0    0  503  502 -0.00000000000E+00 -0.00000000000E+00 -0.61465064165E+03  0.61465064165E+03  0.00000000000E+00 0.  1.
         21    1    1    2  503  504 -0.14957912092E+02 -0.69857331468E+02 -0.15475389291E+03  0.17044809552E+03  0.00000000000E+00 0.  1.
         21    1    1    2  504  501 -0.57252284922E+02 -0.52465659450E+02  0.69203744380E+02  0.10401743982E+03  0.00000000000E+00 0. -1.
         21    1    1    2  505  502  0.17691521590E+02  0.35652123048E+02 -0.44957618050E+02  0.60043744344E+02  0.00000000000E+00 0.  1.
         21    1    1    2  506  505  0.54518675424E+02  0.86670867870E+02 -0.37528333170E+03  0.38900090534E+03  0.00000000000E+00 0.  1.
<scales pt_clust_3="60.35269" pt_clust_4="14000.00000" pt_clust_5="39.80030" pt_clust_6="78.58394"></scales>
<clustering>
<clus scale="   39.800">  2  5  1 -1</clus>
<clus scale="   60.353">  2  3  1 -1</clus>
<clus scale="   78.584">  2  6  1 -1</clus>
<clus scale="   78.584">  1  3  2 -1</clus>
</clustering>
</event>
<event>
 6    0  0.8610502E+002  0.2210279E+03  0.7546771E-02  0.1133119E+00
         21   -1    0    0  503  501  0.00000000000E+00  0.00000000000E+00  0.50077396984E+03  0.50077396984E+03  0.00000000000E+00 0.  1.
         21   -1    0    0  504  502 -0.00000000000E+00 -0.00000000000E+00 -0.15630388972E+03  0.15630388972E+03  0.00000000000E+00 0. -1.
         21    1    1    2  503  502 -0.15742298461E+03 -0.11788899089E+03  0.35909564428E+02  0.19992325296E+03  0.00000000000E+00 0. -1.
         21    1    1    2  504  505  0.10923085035E+03  0.73300955724E+02  0.51171104621E+02  0.14114847050E+03  0.00000000000E+00 0.  1.
         21    1    1    2  505  506  0.68938663392E+02  0.88816545468E+02  0.97497490312E+02  0.14881760204E+03  0.00000000000E+00 0.  1.
         21    1    1    2  506  501 -0.20746529125E+02 -0.44228510301E+02  0.15989192076E+03  0.16718853405E+03  0.00000000000E+00 0.  1.
<scales pt_clust_3="211.90049" pt_clust_4="56.00425" pt_clust_5="56.00425" pt_clust_6="48.85263"></scales>
<clustering>
<clus scale="   48.853">  1  6  2 -1</clus>
<clus scale="   56.004">  4  5 -1 -1</clus>
<clus scale="  211.900">  2  3  1 -1</clus>
<clus scale="   48.853">  1  3  2 -1</clus>
</clustering>
</event>
<event>
 6    0  0.8610502E+002  0.1244090E+03  0.7546771E-02  0.1235996E+00
         21   -1    0    0  502  501  0.00000000000E+00  0.00000000000E+00  0.48689428224E+03  0.48689428224E+03  0.00000000000E+00 0.  1.
         21   -1    0    0  506  502 -0.00000000000E+00 -0.00000000000E+00 -0.84704886005E+02  0.84704886005E+02  0.00000000000E+00 0. -1.
         21    1    1    2  503  501 -0.12363828087E+03 -0.25782055786E+02  0.32643716629E+03  0.35001766017E+03  0.00000000000E+00 0.  1.
         21    1    1    2  504  505  0.29578342928E+02  0.38763664691E+02  0.13337347548E+02  0.50550815129E+02  0.00000000000E+00 0. -1.
         21    1    1    2  505  503  0.12343472678E+03 -0.24879944789E+02  0.59308946691E+02  0.13918582753E+03  0.00000000000E+00 0. -1.
         21    1    1    2  506  504 -0.29374788841E+02  0.11898335884E+02  0.31059357077E+01  0.31844865408E+02  0.00000000000E+00 0. -1.
<scales pt_clust_3="14000.00000" pt_clust_4="47.24533" pt_clust_5="124.40895" pt_clust_6="31.69304"></scales>
<clustering>
<clus scale="   31.693">  2  6  1 -1</clus>
<clus scale="   47.245">  2  4  1 -1</clus>
<clus scale="  124.409">  2  5  1 -1</clus>
<clus scale="  124.409">  1  3  2 -1</clus>
</clustering>
</event>
<event>
 6    0  0.8610502E+002  0.1270256E+03  0.7546771E-02  0.1231937E+00
         21   -1    0    0  503  501  0.00000000000E+00  0.00000000000E+00  0.22545262990E+03  0.22545262990E+03  0.00000000000E+00 0.  1.
         21   -1    0    0  504  502 -0.00000000000E+00 -0.00000000000E+00 -0.33901750612E+03  0.33901750612E+03  0.00000000000E+00 0. -1.
         21    1    1    2  503  506 -0.56638121409E+02 -0.28176939998E+02  0.10349245482E+03  0.12129511511E+03  0.00000000000E+00 0.  1.
         21    1    1    2  504  505  0.10065360487E+03  0.35977711723E+02 -0.26076898717E+03  0.28182620280E+03  0.00000000000E+00 0. -1.
         21    1    1    2  505  501  0.30996246685E+02  0.48174369125E+02 -0.17195502260E+01  0.57310505163E+02  0.00000000000E+00 0. -1.
         21    1    1    2  506  502 -0.75011730148E+02 -0.55975140850E+02  0.45431206350E+02  0.10403831296E+03  0.00000000000E+00 0.  1.
<scales pt_clust_3="53.17601" pt_clust_4="109.32463" pt_clust_5="57.28470" pt_clust_6="53.17601"></scales>
<clustering>
<clus scale="   53.176">  3  6 -1 -1</clus>
<clus scale="   57.285">  1  5  2 -1</clus>
<clus scale="  109.325">  2  4  1 -1</clus>
<clus scale="   57.285">  1  3  2 -1</clus>
</clustering>
</event>
<event>
 6    0  0.8610502E+002  0.8320851E+02  0.7546771E-02  0.1320185E+00
         21   -1    0    0  503  501  0.00000000000E+00  0.00000000000E+00  0.56346225614E+03  0.56346225614E+03  0.00000000000E+00 0. -1.
         21   -1    0    0  504  502 -0.00000000000E+00 -0.00000000000E+00 -0.15830778767E+04  0.15830778767E+04  0.00000000000E+00 0. -1.
         21    1    1    2  503  506  0.28649865616E+02  0.42024622036E+02  0.54659661066E+03  0.54895786581E+03  0.00000000000E+00 0. -1.
         21    1    1    2  504  505 -0.26226835192E+01  0.88751957702E+02 -0.11182963104E+04  0.11218156829E+04  0.00000000000E+00 0. -1.
         21    1    1    2  505  501  0.46442969249E+01 -0.71562609330E+02 -0.35018083970E+03  0.35744845369E+03  0.00000000000E+00 0. -1.
         21    1    1    2  506  502 -0.30671479021E+02 -0.59213970408E+02 -0.97735081096E+02  0.11831813045E+03  0.00000000000E+00 0. -1.
<scales pt_clust_3="50.86142" pt_clust_4="14000.00000" pt_clust_5="83.20851" pt_clust_6="33.79447"></scales>
<clustering>
<clus scale="   50.861">  1  3  2 -1</clus>
<clus scale="   33.794">  1  6  2 -1</clus>
<clus scale="   83.209">  1  5  2 -1</clus>
<clus scale="   50.861">  1  3  2 -1</clus>
</clustering>
</event>
<event>
 6    0  0.8610502E+002  0.1184634E+03  0.7546771E-02  0.1245654E+00
         21   -1    0    0  505  501  0.00000000000E+00  0.00000000000E+00  0.74446535219E+03  0.74446535219E+03  0.00000000000E+00 0.  1.
         21   -1    0    0  504  502 -0.00000000000E+00 -0.00000000000E+00 -0.56451627126E+02  0.56451627126E+02  0.00000000000E+00 0.  1.
         21    1    1    2  503  506  0.56371001587E+02  0.10721094236E+02  0.27297223288E+02  0.63543450337E+02  0.00000000000E+00 0.  1.
         21    1    1    2  504  501 -0.71002528966E+02 -0.77882175844E+02  0.13851342977E+03  0.17404873645E+03  0.00000000000E+00 0.  1.
         21    1    1    2  505  503 -0.37370814458E+02  0.21830678835E+02  0.48105680893E+03  0.48299980303E+03  0.00000000000E+00 0.  1.
         21    1    1    2  506  502  0.52002341838E+02  0.45330402773E+02  0.41146263075E+02  0.80324989494E+02  0.00000000000E+00 0.  1.
<scales pt_clust_3="30.61818" pt_clust_4="113.60683" pt_clust_5="43.27998" pt_clust_6="30.61818"></scales>
<clustering>
<clus scale="   30.618">  3  6 -1 -1</clus>
<clus scale="   43.280">  1  5  2 -1</clus>
<clus scale="  113.607">  1  4  2 -1</clus>
<clus scale="   43.280">  1  3  2 -1</clus>
</clustering>
</event>
<event>
 6    0  0.8610502E+002  0.9360987E+02  0.7546771E-02  0.1294338E+00
         21   -1    0    0  506  501  0.00000000000E+00  0.00000000000E+00  0.11248226654E+04  0.11248226654E+04  0.00000000000E+00 0. -1.
         21   -1    0    0  505  502 -0.00000000000E+00 -0.00000000000E+00 -0.74391081987E+02  0.74391081987E+02  0.00000000000E+00 0.  1.
         21    1    1    2  503  501 -0.79788110905E+02  0.86816631663E+01  0.98987487694E+03  0.99312324809E+03  0.00000000000E+00 0. -1.
         21    1    1    2  504  502  0.94837914614E+02  0.76077482350E+01  0.36038443044E+02  0.10173926115E+03  0.00000000000E+00 0.  1.
         21    1    1    2  505  503 -0.52736427248E+02  0.10163803786E+02  0.37429231506E+01  0.53837191048E+02  0.00000000000E+00 0.  1.
         21    1    1    2  506  504  0.37686623539E+02 -0.26453215187E+02  0.20775340233E+02  0.50514047049E+02  0.00000000000E+00 0.  1.
<scales pt_clust_3="82.02102" pt_clust_4="31.38483" pt_clust_5="53.70692" pt_clust_6="31.38483"></scales>
<clustering>
<clus scale="   31.385">  4  6 -1 -1</clus>
<clus scale="   53.707">  2  5  1 -1</clus>
<clus scale="   82.021">  1  3  2 -1</clus>
<clus scale="   82.021">  1  3  2 -1</clus>
</clustering>
</event>
<event>
 6    0  0.8610502E+002  0.1580391E+03  0.7546771E-02  0.1190928E+00
         21   -1    0    0  504  501  0.00000000000E+00  0.00000000000E+00  0.58125487867E+03  0.58125487867E+03  0.00000000000E+00 0. -1.
         21   -1    0    0  505  502 -0.00000000000E+00 -0.00000000000E+00 -0.26854184756E+03  0.26854184756E+03  0.00000000000E+00 0. -1.
         21    1    1    2  503  502 -0.90787260668E+02  0.68055148219E+01 -0.15018220691E+03  0.17562271209E+03  0.00000000000E+00 0. -1.
         21    1    1    2  504  503 -0.65493831116E+02 -0.36681410061E+02 -0.59415175638E+02  0.95734689922E+02  0.00000000000E+00 0. -1.
         21    1    1    2  505  506  0.98013084708E+02 -0.56243712802E+01  0.68936996939E+02  0.11996044295E+03  0.00000000000E+00 0. -1.
         21    1    1    2  506  501  0.58268007076E+02  0.35500266520E+02  0.45337341672E+03  0.45847888126E+03  0.00000000000E+00 0. -1.
<scales pt_clust_3="60.14604" pt_clust_4="60.14604" pt_clust_5="143.48847" pt_clust_6="68.23071"></scales>
<clustering>
<clus scale="   60.146">  3  4 -1 -1</clus>
<clus scale="   68.231">  1  6  2 -1</clus>
<clus scale="  143.488">  1  5  2 -1</clus>
<clus scale="   68.231">  1  3  2 -1</clus>
</clustering>
</event>
<event>
 6    0  0.8610502E+002  0.7672252E+02  0.7546771E-02  0.1338618E+00
         21   -1    0    0  505  501  0.00000000000E+00  0.00000000000E+00  0.20025074562E+04  0.20025074562E+04  0.00000000000E+00 0. -1.
         21   -1    0    0  506  502 -0.00000000000E+00 -0.00000000000E+00 -0.50630567213E+03  0.50630567213E+03  0.00000000000E+00 0.  1.
         21    1    1    2  503  502  0.10465699289E+03  0.51212442900E+02  0.53397555199E+02  0.12816824634E+03  0.00000000000E+00 0. -1.
         21    1    1    2  504  501  0.39276247370E+01 -0.72276884998E+02  0.21095967626E+02  0.75395054156E+02  0.00000000000E+00 0. -1.
         21    1    1    2  505  503 -0.74168869363E+02  0.18520967853E+02  0.18620195951E+04  0.18635882110E+04  0.00000000000E+00 0. -1.
         21    1    1    2  506  504 -0.34415748265E+02  0.25434742452E+01 -0.44031133392E+03  0.44166161682E+03  0.00000000000E+00 0.  1.
<scales pt_clust_3="76.72252" pt_clust_4="71.97173" pt_clust_5="14000.00000" pt_clust_6="34.50961"></scales>
<clustering>
<clus scale="   34.510">  2  6  1 -1</clus>
<clus scale="   71.972">  2  4  1 -1</clus>
<clus scale="   76.723">  2  3  1 -1</clus>
<clus scale="   76.723">  1  3  2 -1</clus>
</clustering>
</event>
<event>
 6    0  0.8610502E+002  0.6283920E+02  0.7546771E-02  0.1386289E+00
         21   -1    0    0  505  501  0.00000000000E+00  0.00000000000E+00  0.62276240249E+02  0.62276240249E+02  0.00000000000E+00 0.  1.
         21   -1    0    0  504  502 -0.00000000000E+00 -0.00000000000E+00 -0.60870884841E+03  0.60870884841E+03  0.00000000000E+00 0.  1.
         21    1    1    2  503  502 -0.92338696054E+02  0.66327274044E+00 -0.81798007373E+02  0.12336040179E+03  0.00000000000E+00 0.  1.
         21    1    1    2  504  506  0.51481481535E+02 -0.32773835922E+02 -0.42420113946E+03  0.42856863392E+03  0.00000000000E+00 0.  1.
         21    1    1    2  505  503  0.53460931074E+01  0.63958775393E+02 -0.25644718946E+02  0.69115535671E+02  0.00000000000E+00 0.  1.
         21    1    1    2  506  501  0.35511121412E+02 -0.31848212211E+02 -0.14788742386E+02  0.49940517281E+02  0.00000000000E+00 0.  1.
<scales pt_clust_3="62.83920" pt_clust_4="14000.00000" pt_clust_5="53.48795" pt_clust_6="47.70061"></scales>
<clustering>
<clus scale="   47.701">  1  6  2 -1</clus>
<clus scale="   53.488">  1  5  2 -1</clus>
<clus scale="   62.839">  1  3  2 -1</clus>
<clus scale="   47.701">  1  3  2 -1</clus>
</clustering>
</event>
<event>
 6    0  0.8610502E+002  0.1285952E+03  0.7546771E-02  0.1229555E+00
         21   -1    0    0  504  501  0.00000000000E+00  0.00000000000E+00  0.74021442920E+02  0.74021442920E+02  0.00000000000E+00 0. -1.
         21   -1    0    0  506  502 -0.00000000000E+00 -0.00000000000E+00 -0.10867645520E+04  0.10867645520E+04  0.00000000000E+00 0. -1.
         21    1    1    2  503  501 -0.75952573191E+02  0.39589773832E+02 -0.39401475876E+03  0.40321678250E+03  0.00000000000E+00 0. -1.
         21    1    1    2  504  505  0.43826188130E+02 -0.44237051337E+02  0.40183453683E+02  0.74110467728E+02  0.00000000000E+00 0. -1.
         21    1    1    2  505  502  0.79529562671E+02 -0.19511837066E+02 -0.14281068864E+03  0.16462246479E+03  0.00000000000E+00 0. -1.
         21    1    1    2  506  503 -0.47403177610E+02  0.24159114571E+02 -0.51610111541E+03  0.51883627995E+03  0.00000000000E+00 0. -1.
<scales pt_clust_3="40.11340" pt_clust_4="62.27079" pt_clust_5="118.09458" pt_clust_6="40.11340"></scales>
<clustering>
<clus scale="   40.113">  3  6 -1 -1</clus>
<clus scale="   62.271">  1  4  2 -1</clus>
<clus scale="  118.095">  1  5  2 -1</clus>
<clus scale="   62.271">  1  3  2 -1</clus>
</clustering>
</event>
<event>
 6    0  0.8610502E+002  0.1211470E+03  0.7546771E-02  0.1241217E+00
         21   -1    0    0  505  501  0.00000000000E+00  0.00000000000E+00  0.12271423368E+04  0.12271423368E+04  0.00000000000E+00 0.  1.
         21   -1    0    0  504  502 -0.00000000000E+00 -0.00000000000E+00 -0.33117471002E+02  0.33117471002E+02  0.00000000000E+00 0.  1.
         21    1    1    2  503  502 -0.79885865093E+02  0.10337878638E+03  0.17266326713E+03  0.21652142788E+03  0.00000000000E+00 0.  1.
         21    1    1    2  504  501  0.93711842136E+01 -0.11211632420E+03  0.44408555251E+03  0.45811556097E+03  0.00000000000E+00 0.  1.
         21    1    1    2  505  506  0.18766120561E+02 -0.25348780168E+02  0.29176555176E+03  0.29346527074E+03  0.00000000000E+00 0.  1.
         21    1    1    2  506  503  0.51748560319E+02  0.34086317988E+02  0.28551049434E+03  0.29215754816E+03  0.00000000000E+00 0.  1.
<scales pt_clust_3="14000.00000" pt_clust_4="121.14700" pt_clust_5="31.53931" pt_clust_6="63.25344"></scales>
<clustering>
<clus scale="   31.539">  1  5  2 -1</clus>
<clus scale="   63.253">  1  6  2 -1</clus>
<clus scale="  121.147">  1  4  2 -1</clus>
<clus scale="   31.539">  1  3  2 -1</clus>
</clustering>
</event>
<event>
 6    0  0.8610502E+002  0.8278129E+02  0.7546771E-02  0.1321339E+00
         21   -1    0    0  504  501  0.00000000000E+00  0.00000000000E+00  0.10823193972E+03  0.10823193972E+03  0.00000000000E+00 0. -1.
         21   -1    0    0  503  502 -0.00000000000E+00 -0.00000000000E+00 -0.32940498959E+03  0.32940498959E+03  0.00000000000E+00 0. -1.
         21    1    1    2  503  506  0.28064182413E+02 -0.31790007115E+02 -0.11514511726E+03  0.12270534184E+03  0.00000000000E+00 0. -1.
         21    1    1    2  504  502 -0.54797344014E+02 -0.69155774345E+02 -0.21960062659E+02  0.90925873041E+02  0.00000000000E+00 0. -1.
         21    1    1    2  505  501 -0.36369157122E+02  0.52934128177E+02  0.40801606188E+02  0.76088820356E+02  0.00000000000E+00 0. -1.
         21    1    1    2  506  505  0.63102318723E+02  0.48011653283E+02 -0.12486947614E+03  0.14791689406E+03  0.00000000000E+00 0. -1.
<scales pt_clust_3="42.40522" pt_clust_4="82.78129" pt_clust_5="60.69709" pt_clust_6="14000.00000"></scales>
<clustering>
<clus scale="   42.405">  2  3  1 -1</clus>
<clus scale="   60.697">  1  5  2 -1</clus>
<clus scale="   82.781">  1  4  2 -1</clus>
<clus scale="   60.697">  1  3  2 -1</clus>
</clustering>
</event>
<event>
 6    0  0.8610502E+002  0.1060715E+03  0.7546771E-02  0.1268023E+00
         21   -1    0    0  504  501  0.00000000000E+00  0.00000000000E+00  0.10221090771E+04  0.10221090771E+04  0.00000000000E+00 0.  1.
         21   -1    0    0  505  502 -0.00000000000E+00 -0.00000000000E+00 -0.26645842814E+03  0.26645842814E+03  0.00000000000E+00 0. -1.
         21    1    1    2  503  501  0.26891276312E+01  0.12332209533E+03 -0.49247626679E+02  0.13281904735E+03  0.00000000000E+00 0. -1.
         21    1    1    2  504  506  0.41477998813E+02 -0.97390757868E+02  0.95351996629E+03  0.95937777243E+03  0.00000000000E+00 0.  1.
         21    1    1    2  505  503 -0.66490750380E+02 -0.21960472340E+01 -0.14964949697E+03  0.16377061535E+03  0.00000000000E+00 0. -1.
         21    1    1    2  506  502  0.22323623935E+02 -0.23735290230E+02  0.10278063469E+01  0.32600070150E+02  0.00000000000E+00 0. -1.
<scales pt_clust_3="14000.00000" pt_clust_4="106.07152" pt_clust_5="55.22761" pt_clust_6="32.58386"></scales>
<clustering>
<clus scale="   32.584">  2  6  1 -1</clus>
<clus scale="   55.228">  2  5  1 -1</clus>
<clus scale="  106.072">  1  4  2 -1</clus>
<clus scale="  106.072">  1  3  2 -1</clus>
</clustering>
</event>
<event>
 6    0  0.8610502E+002  0.8433350E+02  0.7546771E-02  0.1317185E+00
         21   -1    0    0  506  501  0.00000000000E+00  0.00000000000E+00  0.42414330838E+02  0.42414330838E+02  0.00000000000E+00 0. -1.
         21   -1    0    0  504  502 -0.00000000000E+00 -0.00000000000E+00 -0.54620199551E+03  0.54620199551E+03  0.00000000000E+00 0. -1.
         21    1    1    2  503  505 -0.32672850308E+02 -0.85277917762E+02 -0.11045108693E+03  0.14331532022E+03  0.00000000000E+00 0. -1.
         21    1    1    2  504  501  0.11063771025E+02  0.77902514120E+02 -0.19118703422E+03  0.20674547345E+03  0.00000000000E+00 0. -1.
         21    1    1    2  505  502  0.50508158703E+02 -0.97173485649E+01 -0.19818046270E+03  0.20474617641E+03  0.00000000000E+00 0. -1.
         21    1    1    2  506  503 -0.28899079419E+02  0.17092752208E+02 -0.39690808204E+01  0.33809356277E+02  0.00000000000E+00 0. -1.
<scales pt_clust_3="14000.00000" pt_clust_4="84.33350" pt_clust_5="47.67957" pt_clust_6="33.57557"></scales>
<clustering>
<clus scale="   33.576">  1  6  2 -1</clus>
<clus scale="   47.680">  2  5  1 -1</clus>
<clus scale="   84.333">  2  4  1 -1</clus>
<clus scale="   33.576">  1  3  2 -1</clus>
</clustering>
</event>
<event>
 6    0  0.8610502E+002  0.8964627E+02  0.7546771E-02  0.1303711E+00
         21   -1    0    0  503  501  0.00000000000E+00  0.00000000000E+00  0.17273597907E+03  0.17273597907E+03  0.00000000000E+00 0. -1.
         21   -1    0    0  505  502 -0.00000000000E+00 -0.00000000000E+00 -0.16492392272E+03  0.16492392272E+03  0.00000000000E+00 0.  1.
         21    1    1    2  503  506 -0.17688913806E+02 -0.58046660522E+02  0.87129670157E+02  0.10617858490E+03  0.00000000000E+00 0.  1.
         21    1    1    2  504  501  0.43117522420E+02  0.28927523495E+02  0.97580254827E+01  0.52831254164E+02  0.00000000000E+00 0. -1.
         21    1    1    2  505  504  0.39690617956E+02  0.62373911204E+02 -0.16753068926E+02  0.75805773336E+02  0.00000000000E+00 0. -1.
         21    1    1    2  506  502 -0.65119226571E+02 -0.33254774177E+02 -0.72322570371E+02  0.10284428939E+03  0.00000000000E+00 0.  1.
<scales pt_clust_3="60.68206" pt_clust_4="30.27865" pt_clust_5="30.27865" pt_clust_6="82.04292"></scales>
<clustering>
<clus scale="   30.279">  4  5 -1 -1</clus>
<clus scale="   60.682">  1  3  2 -1</clus>
<clus scale="   82.043">  2  6  1 -1</clus>
<clus scale="   60.682">  1  3  2 -1</clus>
</clustering>
</event>
<event>
 6    0  0.8610502E+002  0.9573994E+02  0.7546771E-02  0.1289518E+00
         21   -1    0    0  504  501  0.00000000000E+00  0.00000000000E+00  0.51722626299E+02  0.51722626299E+02  0.00000000000E+00 0.  1.
         21   -1    0    0  506  502 -0.00000000000E+00 -0.00000000000E+00 -0.93435960736E+03  0.93435960736E+03  0.00000000000E+00 0.  1.
         21    1    1    2  503  502  0.91299941847E+02 -0.24271840026E+02 -0.76698161339E+03  0.77277784446E+03  0.00000000000E+00 0.  1.
         21    1    1    2  504  505 -0.26783446260E+02 -0.14186693045E+02 -0.35276790342E+01  0.30513272071E+02  0.00000000000E+00 0.  1.
         21    1    1    2  505  503 -0.98226573884E+02  0.47995710191E+02 -0.84511635089E+02  0.13818199767E+03  0.00000000000E+00 0.  1.
         21    1    1    2  506  501  0.33710078297E+02 -0.95371771209E+01 -0.27616053549E+02  0.44609119469E+02  0.00000000000E+00 0.  1.
<scales pt_clust_3="95.73994" pt_clust_4="30.30867" pt_clust_5="14000.00000" pt_clust_6="30.52078"></scales>
<clustering>
<clus scale="   30.309">  1  4  2 -1</clus>
<clus scale="   30.521">  1  6  2 -1</clus>
<clus scale="   95.740">  2  3  1 -1</clus>
<clus scale="   30.309">  1  3  2 -1</clus>
</clustering>
</event>
<event>
 6    0  0.8610502E+002  0.2167235E+03  0.7546771E-02  0.1136350E+00
         21   -1    0    0  505  501  0.00000000000E+00  0.00000000000E+00  0.26923794169E+03  0.26923794169E+03  0.00000000000E+00 0. -1.
         21   -1    0    0  506  502 -0.00000000000E+00 -0.00000000000E+00 -0.13845959362E+04  0.13845959362E+04  0.00000000000E+00 0.  1.
         21    1    1    2  503  501  0.13836446659E+03 -0.38082729369E+01  0.13613078571E+03  0.19414123564E+03  0.00000000000E+00 0. -1.
         21    1    1    2  504  502 -0.19717086508E+03  0.78295778134E+02 -0.12457901035E+04  0.12637244799E+04  0.00000000000E+00 0.  1.
         21    1    1    2  505  504 -0.31414437416E+02 -0.74129779189E+02 -0.50701282061E+02  0.95145735813E+02  0.00000000000E+00 0. -1.
         21    1    1    2  506  503  0.90220835904E+02 -0.35772600830E+00  0.45002605413E+02  0.10082242654E+03  0.00000000000E+00 0. -1.
<scales pt_clust_3="35.42831" pt_clust_4="212.23439" pt_clust_5="80.51143" pt_clust_6="35.42831"></scales>
<clustering>
<clus scale="   35.428">  3  6 -1 -1</clus>
<clus scale="   80.511">  1  5  2 -1</clus>
<clus scale="  212.234">  2  4  1 -1</clus>
<clus scale="   80.511">  1  3  2 -1</clus>
</clustering>
</event>
<event>
 6    0  0.8610502E+002  0.1372604E+03  0.7546771E-02  0.1217064E+00
         21   -1    0    0  506  501  0.00000000000E+00  0.00000000000E+00  0.26954460345E+03  0.26954460345E+03  0.00000000000E+00 0.  1.
         21   -1    0    0  505  502 -0.00000000000E+00 -0.00000000000E+00 -0.17670791404E+04  0.17670791404E+04  0.00000000000E+00 0. -1.
         21    1    1    2  503  501  0.63699936741E+02 -0.67703959068E+02  0.12010239882E+03  0.15187525874E+03  0.00000000000E+00 0.  1.
         21    1    1    2  504  503  0.10954194692E+02 -0.53669161064E+02  0.82464443965E+02  0.98998776503E+02  0.00000000000E+00 0.  1.
         21    1    1    2  505  504 -0.28157901799E+02  0.29672136124E+02 -0.16806044506E+04  0.16811022047E+04  0.00000000000E+00 0. -1.
         21    1    1    2  506  502 -0.46496229634E+02  0.91700984008E+02 -0.19496929111E+02  0.10464750395E+03  0.00000000000E+00 0. -1.
<scales pt_clust_3="30.70272" pt_clust_4="30.70272" pt_clust_5="40.90603" pt_clust_6="131.30362"></scales>
<clustering>
<clus scale="   30.703">  3  4 -1 -1</clus>
<clus scale="   40.906">  2  5  1 -1</clus>
<clus scale="  131.304">  2  6  1 -1</clus>
<clus scale="  137.260">  1  3  2 -1</clus>
</clustering>
</event>
<event>
 6    0  0.8610502E+002  0.2281379E+03  0.7546771E-02  0.1127957E+00
         21   -1    0    0  505  501  0.00000000000E+00  0.00000000000E+00  0.23749507987E+04  0.23749507987E+04  0.00000000000E+00 0. -1.
         21   -1    0    0  506  502 -0.00000000000E+00 -0.00000000000E+00 -0.42245066562E+02  0.42245066562E+02  0.00000000000E+00 0. -1.
         21    1    1    2  503  501  0.13598783531E+02  0.22870413876E+03  0.16386591707E+04  0.16545979535E+04  0.00000000000E+00 0. -1.
         21    1    1    2  504  503  0.48592502423E+02 -0.25514991661E+02  0.89248388213E+02  0.10477366506E+03  0.00000000000E+00 0.  1.
         21    1    1    2  505  502 -0.39492468435E+02 -0.22284670128E+03  0.50052684705E+03  0.54931542119E+03  0.00000000000E+00 0. -1.
         21    1    1    2  506  504 -0.22698817520E+02  0.19657554186E+02  0.10427132619E+03  0.10850882553E+03  0.00000000000E+00 0. -1.
<scales pt_clust_3="228.13793" pt_clust_4="49.24604" pt_clust_5="14000.00000" pt_clust_6="30.02758"></scales>
<clustering>
<clus scale="   30.028">  2  6  1 -1</clus>
<clus scale="   49.246">  2  4  1 -1</clus>
<clus scale="  228.138">  1  3  2 -1</clus>
<clus scale="  228.138">  1  3  2 -1</clus>
</clustering>
</event>
<event>
 6    0  0.8610502E+002  0.1033665E+03  0.7546771E-02  0.1273372E+00
         21   -1    0    0  504  501  0.00000000000E+00  0.00000000000E+00  0.57811414521E+03  0.57811414521E+03  0.00000000000E+00 0.  1.
         21   -1    0    0  503  502 -0.00000000000E+00 -0.00000000000E+00 -0.57759708942E+02  0.57759708942E+02  0.00000000000E+00 0.  1.
         21    1    1    2  503  506 -0.99791985226E+02 -0.69177327591E+02  0.93211733691E+02  0.15307635436E+03  0.00000000000E+00 0.  1.
         21    1    1    2  504  505  0.31813176884E+02 -0.32090892372E+01  0.24255041824E+03  0.24464889508E+03  0.00000000000E+00 0.  1.
         21    1    1    2  505  502  0.28747281469E+02 -0.10875582731E+02 -0.12513836138E+01  0.30761184186E+02  0.00000000000E+00 0. -1.
         21    1    1    2  506  501  0.39231526873E+02  0.83261999559E+02  0.18584366795E+03  0.20738742052E+03  0.00000000000E+00 0.  1.
<scales pt_clust_3="103.36646" pt_clust_4="32.72141" pt_clust_5="30.73572" pt_clust_6="14000.00000"></scales>
<clustering>
<clus scale="   30.736">  2  5  1 -1</clus>
<clus scale="   32.721">  1  4  2 -1</clus>
<clus scale="  103.366">  2  3  1 -1</clus>
<clus scale="   32.721">  1  3  2 -1</clus>
</clustering>
</event>
<event>
 6    0  0.8610502E+002  0.1228121E+03  0.7546771E-02  0.1238529E+00
         21   -1    0    0  504  501  0.00000000000E+00  0.00000000000E+00  0.63237098685E+03  0.63237098685E+03  0.00000000000E+00 0.  1.
         21   -1    0    0  503  502 -0.00000000000E+00 -0.00000000000E+00 -0.21126630118E+03  0.21126630118E+03  0.00000000000E+00 0.  1.
         21    1    1    2  503  505 -0.61098677801E+02 -0.82360354183E+01  0.20874518687E+03  0.21765898499E+03  0.00000000000E+00 0.  1.
         21    1    1    2  504  502  0.95177883751E+02  0.56514735281E+02 -0.17518269029E+03  0.20722383993E+03  0.00000000000E+00 0.  1.
         21    1    1    2  505  506 -0.77019335155E+02 -0.71666932885E+02  0.30706359987E+03  0.32458616980E+03  0.00000000000E+00 0.  1.
         21    1    1    2  506  501  0.42940129204E+02  0.23388233022E+02  0.80478589220E+02  0.94168293299E+02  0.00000000000E+00 0. -1.
<scales pt_clust_3="38.35238" pt_clust_4="112.12835" pt_clust_5="38.35238" pt_clust_6="48.89646"></scales>
<clustering>
<clus scale="   38.352">  3  5 -1 -1</clus>
<clus scale="   48.896">  1  6  2 -1</clus>
<clus scale="  112.128">  2  4  1 -1</clus>
<clus scale="   48.896">  1  3  2 -1</clus>
</clustering>
</event>
<event>
 6    0  0.8610502E+002  0.7934589E+02  0.7546771E-02  0.1330918E+00
         21   -1    0    0  506  501  0.00000000000E+00  0.00000000000E+00  0.36149723003E+03  0.36149723003E+03  0.00000000000E+00 0. -1.
         21   -1    0    0  503  502 -0.00000000000E+00 -0.00000000000E+00 -0.66793545178E+03  0.66793545178E+03  0.00000000000E+00 0. -1.
         21    1    1    2  503  504 -0.14224238423E+02 -0.32042336745E+02 -0.19661060622E+02  0.40194497230E+02  0.00000000000E+00 0. -1.
         21    1    1    2  504  501  0.10555181818E+03 -0.26965238032E+02  0.32588429675E+03  0.34361153248E+03  0.00000000000E+00 0. -1.
         21    1    1    2  505  502 -0.57546412838E+02  0.63273196387E+02 -0.60462155259E+03  0.61064090009E+03  0.00000000000E+00 0. -1.
         21    1    1    2  506  505 -0.33781166914E+02 -0.42656216104E+01 -0.80399052927E+01  0.34985751999E+02  0.00000000000E+00 0.  1.
<scales pt_clust_3="35.58741" pt_clust_4="79.34589" pt_clust_5="14000.00000" pt_clust_6="34.04942"></scales>
<clustering>
<clus scale="   34.049">  1  6  2 -1</clus>
<clus scale="   35.587">  2  3  1 -1</clus>
<clus scale="   79.346">  1  4  2 -1</clus>
<clus scale="   34.049">  1  3  2 -1</clus>
</clustering>
</event>
<event>
 6    0  0.8610502E+002  0.1152100E+03  0.7546771E-02  0.1251215E+00
         21   -1    0    0  506  501  0.00000000000E+00  0.00000000000E+00  0.17086264114E+02  0.17086264114E+02  0.00000000000E+00 0.  1.
         21   -1    0    0  504  502 -0.00000000000E+00 -0.00000000000E+00 -0.18277000399E+04  0.18277000399E+04  0.00000000000E+00 0. -1.
         21    1    1    2  503  502  0.62256005286E+02  0.29611265977E+02 -0.27898187619E+03  0.28737349305E+03  0.00000000000E+00 0. -1.
         21    1    1    2  504  505 -0.38249594907E+02  0.94117153638E+01 -0.95570427458E+03  0.95651569373E+03  0.00000000000E+00 0. -1.
         21    1    1    2  505  501 -0.42724837846E+02 -0.89291229790E+02 -0.22388505964E+03  0.24479145291E+03  0.00000000000E+00 0.  1.
         21    1    1    2  506  503  0.18718427467E+02  0.50268248449E+02 -0.35204256535E+03  0.35610566430E+03  0.00000000000E+00 0. -1.
<scales pt_clust_3="51.67185" pt_clust_4="39.39051" pt_clust_5="101.67279" pt_clust_6="51.67185"></scales>
<clustering>
<clus scale="   39.391">  2  4  1 -1</clus>
<clus scale="   51.672">  3  6 -1 -1</clus>
<clus scale="  101.673">  1  5  2 -1</clus>
<clus scale="  101.673">  1  3  2 -1</clus>
</clustering>
</event>
<event>
 6    0  0.8610502E+002  0.1048840E+03  0.7546771E-02  0.1270348E+00
         21   -1    0    0  503  501  0.00000000000E+00  0.00000000000E+00  0.26714527901E+03  0.26714527901E+03  0.00000000000E+00 0.  1.
         21   -1    0    0  506  502 -0.00000000000E+00 -0.00000000000E+00 -0.34881393310E+03  0.34881393310E+03  0.00000000000E+00 0.  1.
         21    1    1    2  503  502  0.30038178555E+02  0.50214284432E+02 -0.49566390685E+02  0.76685028640E+02  0.00000000000E+00 0.  1.
         21    1    1    2  504  501 -0.10191533480E+03 -0.30301847365E+02  0.23051517280E+03  0.25385464800E+03  0.00000000000E+00 0.  1.
         21    1    1    2  505  504  0.77738591722E+02  0.99094675942E+01 -0.21592962269E+03  0.22971087947E+03  0.00000000000E+00 0.  1.
         21    1    1    2  506  505 -0.58614354814E+01 -0.29821904662E+02 -0.46687813503E+02  0.55708656000E+02  0.00000000000E+00 0.  1.
<scales pt_clust_3="52.49177" pt_clust_4="14000.00000" pt_clust_5="104.88405" pt_clust_6="30.39247"></scales>
<clustering>
<clus scale="   30.392">  2  6  1 -1</clus>
<clus scale="   52.492">  2  3  1 -1</clus>
<clus scale="  104.884">  2  5  1 -1</clus>
<clus scale="  104.884">  1  3  2 -1</clus>
</clustering>
</event>
<event>
 6    0  0.8610502E+002  0.1497007E+03  0.7546771E-02  0.1200841E+00
         21   -1    0    0  505  501  0.00000000000E+00  0.00000000000E+00  0.46484984800E+02  0.46484984800E+02  0.00000000000E+00 0.  1.
         21   -1    0    0  503  502 -0.00000000000E+00 -0.00000000000E+00 -0.51267756966E+03  0.51267756966E+03  0.00000000000E+00 0.  1.
         21    1    1    2  503  506 -0.74591937533E+02  0.19605828584E+02 -0.11894406150E+03  0.14176048612E+03  0.00000000000E+00 0.  1.
         21    1    1    2  504  502  0.31847283916E+02  0.11865026134E+02 -0.38137784430E+02  0.51083450738E+02  0.00000000000E+00 0.  1.
         21    1    1    2  505  504  0.10587041178E+03 -0.28958206049E+02 -0.27137431288E+03  0.29273048949E+03  0.00000000000E+00 0.  1.
         21    1    1    2  506  501 -0.63125758164E+02 -0.25126486693E+01 -0.37736426049E+02  0.73588128106E+02  0.00000000000E+00 0.  1.
<scales pt_clust_3="147.73710" pt_clust_4="31.24041" pt_clust_5="31.24041" pt_clust_6="45.86338"></scales>
<clustering>
<clus scale="   31.240">  4  5 -1 -1</clus>
<clus scale="   45.863">  3  6 -1 -1</clus>
<clus scale="  147.737">  1  3  2 -1</clus>
<clus scale="  147.737">  1  3  2 -1</clus>
</clustering>
</event>
<event>
 6    0  0.8610502E+002  0.8668036E+02  0.7546771E-02  0.1311096E+00
         21   -1    0    0  504  501  0.00000000000E+00  0.00000000000E+00  0.45638653363E+03  0.45638653363E+03  0.00000000000E+00 0. -1.
         21   -1    0    0  506  502 -0.00000000000E+00 -0.00000000000E+00 -0.51545759258E+03  0.51545759258E+03  0.00000000000E+00 0. -1.
         21    1    1    2  503  502  0.51144740962E+02 -0.54156952876E+02 -0.29949981503E+03  0.30862420397E+03  0.00000000000E+00 0. -1.
         21    1    1    2  504  505  0.44579732231E+02 -0.47497206298E+00  0.38794932996E+03  0.39050257456E+03  0.00000000000E+00 0. -1.
         21    1    1    2  505  503 -0.93468149304E+02 -0.34921819727E+02 -0.15334117213E+03  0.18294628583E+03  0.00000000000E+00 0.  1.
         21    1    1    2  506  501 -0.22563238890E+01  0.89553744666E+02  0.58205982461E+01  0.89771061847E+02  0.00000000000E+00 0. -1.
<scales pt_clust_3="76.62368" pt_clust_4="44.58226" pt_clust_5="86.68036" pt_clust_6="14000.00000"></scales>
<clustering>
<clus scale="   44.582">  1  4  2 -1</clus>
<clus scale="   76.624">  2  3  1 -1</clus>
<clus scale="   86.680">  2  5  1 -1</clus>
<clus scale="   44.582">  1  3  2 -1</clus>
</clustering>
</event>
<event>
 6    0  0.8610502E+002  0.2497895E+03  0.7546771E-02  0.1113438E+00
         21   -1    0    0  505  501  0.00000000000E+00  0.00000000000E+00  0.53598459535E+03  0.53598459535E+03  0.00000000000E+00 0. -1.
         21   -1    0    0  503  502 -0.00000000000E+00 -0.00000000000E+00 -0.15166022411E+03  0.15166022411E+03  0.00000000000E+00 0. -1.
         21    1    1    2  503  506 -0.70523281945E+02  0.20717474199E+02  0.47526505611E+02  0.87530084937E+02  0.00000000000E+00 0.  1.
         21    1    1    2  504  502  0.19071225808E+03  0.11473100894E+03  0.17314276845E+03  0.28198011997E+03  0.00000000000E+00 0. -1.
         21    1    1    2  505  504  0.21815356751E+02  0.39577194794E+02  0.12968702356E+02  0.47015437664E+02  0.00000000000E+00 0.  1.
         21    1    1    2  506  501 -0.14200433289E+03 -0.17502567793E+03  0.15068639482E+03  0.27111917689E+03  0.00000000000E+00 0. -1.
<scales pt_clust_3="73.50338" pt_clust_4="30.63352" pt_clust_5="30.63352" pt_clust_6="240.36058"></scales>
<clustering>
<clus scale="   30.634">  4  5 -1 -1</clus>
<clus scale="   73.503">  2  3  1 -1</clus>
<clus scale="  240.361">  1  6  2 -1</clus>
<clus scale="  240.361">  1  3  2 -1</clus>
</clustering>
</event>
<event>
 6    0  0.8610502E+002  0.1566190E+03  0.7546771E-02  0.1192568E+00
         21   -1    0    0  504  501  0.00000000000E+00  0.00000000000E+00  0.16010607818E+03  0.16010607818E+03  0.00000000000E+00 0. -1.
         21   -1    0    0  506  502 -0.00000000000E+00 -0.00000000000E+00 -0.31616713472E+03  0.31616713472E+03  0.00000000000E+00 0. -1.
         21    1    1    2  503  501  0.12577277300E+03 -0.43147700893E+02  0.78458416610E+02  0.15438988846E+03  0.00000000000E+00 0. -1.
         21    1    1    2  504  505 -0.40059674334E+02  0.59026594990E+02 -0.67789407912E+02  0.98408943948E+02  0.00000000000E+00 0.  1.
         21    1    1    2  505  502 -0.11010583612E+03  0.13066508291E+02 -0.12724692898E+03  0.16877739695E+03  0.00000000000E+00 0. -1.
         21    1    1    2  506  503  0.24392737450E+02 -0.28945402388E+02 -0.39483136266E+02  0.54696983547E+02  0.00000000000E+00 0.  1.
<scales pt_clust_3="137.57626" pt_clust_4="58.81230" pt_clust_5="58.81230" pt_clust_6="37.85290"></scales>
<clustering>
<clus scale="   37.853">  2  6  1 -1</clus>
<clus scale="   58.812">  4  5 -1 -1</clus>
<clus scale="  137.576">  1  3  2 -1</clus>
<clus scale="  137.576">  1  3  2 -1</clus>
</clustering>
</event>
<event>
 6    0  0.8610502E+002  0.1126688E+03  0.7546771E-02  0.1255706E+00
         21   -1    0    0  503  501  0.00000000000E+00  0.00000000000E+00  0.69264097236E+03  0.69264097236E+03  0.00000000000E+00 0.  1.
         21   -1    0    0  504  502 -0.00000000000E+00 -0.00000000000E+00 -0.46281216446E+02  0.46281216446E+02  0.00000000000E+00 0.  1.
         21    1    1    2  503  505 -0.18114379934E+02  0.51743621568E+02  0.67609504673E+02  0.87043542297E+02  0.00000000000E+00 0.  1.
         21    1    1    2  504  501  0.36179099378E+02 -0.97321838174E+02  0.52475286653E+03  0.53492619898E+03  0.00000000000E+00 0.  1.
         21    1    1    2  505  506 -0.51976018434E+02  0.20436241887E+02  0.49265776856E+02  0.74473238441E+02  0.00000000000E+00 0.  1.
         21    1    1    2  506  502  0.33911298990E+02  0.25141974718E+02  0.47316078506E+01  0.42479209089E+02  0.00000000000E+00 0.  1.
<scales pt_clust_3="42.80333" pt_clust_4="101.92648" pt_clust_5="42.80333" pt_clust_6="42.21487"></scales>
<clustering>
<clus scale="   42.215">  2  6  1 -1</clus>
<clus scale="   42.803">  3  5 -1 -1</clus>
<clus scale="  101.926">  1  4  2 -1</clus>
<clus scale="  101.926">  1  3  2 -1</clus>
</clustering>
</event>
<event>
 6    0  0.8610502E+002  0.9781693E+02  0.7546771E-02  0.1284955E+00
         21   -1    0    0  504  501  0.00000000000E+00  0.00000000000E+00  0.56955483379E+02  0.56955483379E+02  0.00000000000E+00 0.  1.
         21   -1    0    0  506  502 -0.00000000000E+00 -0.00000000000E+00 -0.67178961249E+03  0.67178961249E+03  0.00000000000E+00 0. -1.
         21    1    1    2  503  501 -0.35590980950E+02 -0.12158512504E+03 -0.14232067076E+03  0.19053827406E+03  0.00000000000E+00 0. -1.
         21    1    1    2  504  505  0.33921849234E+02 -0.19009200432E+02  0.17581814314E+00  0.38885376024E+02  0.00000000000E+00 0.  1.
         21    1    1    2  505  502 -0.13971612842E+02  0.50247753725E+02 -0.76003769053E+02  0.92177088423E+02  0.00000000000E+00 0. -1.
         21    1    1    2  506  503  0.15640744558E+02  0.90346571747E+02 -0.39668550745E+03  0.40714435737E+03  0.00000000000E+00 0. -1.
<scales pt_clust_3="97.81693" pt_clust_4="38.88498" pt_clust_5="46.61590" pt_clust_6="14000.00000"></scales>
<clustering>
<clus scale="   38.885">  1  4  2 -1</clus>
<clus scale="   46.616">  1  5  2 -1</clus>
<clus scale="   97.817">  1  3  2 -1</clus>
<clus scale="   38.885">  1  3  2 -1</clus>
</clustering>
</event>
<event>
 6    0  0.8610502E+002  0.1014648E+03  0.7546771E-02  0.1277245E+00
         21   -1    0    0  502  501  0.00000000000E+00  0.00000000000E+00  0.37389551225E+02  0.37389551225E+02  0.00000000000E+00 0.  1.
         21   -1    0    0  503  502 -0.00000000000E+00 -0.00000000000E+00 -0.45877260222E+03  0.45877260222E+03  0.00000000000E+00 0.  1.
         21    1    1    2  503  505 -0.42316243121E+02  0.29540777362E+02 -0.14628638370E+03  0.15512262251E+03  0.00000000000E+00 0.  1.
         21    1    1    2  504  506  0.41305052276E+02  0.21151209380E+02 -0.54760117593E+02  0.71778488982E+02  0.00000000000E+00 0.  1.
         21    1    1    2  505  504  0.73501321431E+02 -0.21938491136E+02 -0.11354637109E+03  0.13702744262E+03  0.00000000000E+00 0.  1.
         21    1    1    2  506  501 -0.72490130587E+02 -0.28753495605E+02 -0.10679017862E+03  0.13223359933E+03  0.00000000000E+00 0.  1.
<scales pt_clust_3="51.60738" pt_clust_4="35.57325" pt_clust_5="35.57325" pt_clust_6="90.57258"></scales>
<clustering>
<clus scale="   35.573">  4  5 -1 -1</clus>
<clus scale="   51.607">  2  3  1 -1</clus>
<clus scale="   90.573">  1  6  2 -1</clus>
<clus scale="   90.573">  1  3  2 -1</clus>
</clustering>
</event>
<event>
 6    0  0.8610502E+002  0.9224591E+02  0.7546771E-02  0.1297502E+00
         21   -1    0    0  505  501  0.00000000000E+00  0.00000000000E+00  0.11677829868E+03  0.11677829868E+03  0.00000000000E+00 0. -1.
         21   -1    0    0  504  502 -0.00000000000E+00 -0.00000000000E+00 -0.66053618461E+03  0.66053618461E+03  0.00000000000E+00 0. -1.
         21    1    1    2  503  501 -0.20374787224E+02 -0.31908829806E+02 -0.35107057309E+02  0.51631490845E+02  0.00000000000E+00 0. -1.
         21    1    1    2  504  503  0.21648464487E+02  0.79627915809E+02  0.95045450541E+01  0.83063815030E+02  0.00000000000E+00 0. -1.
         21    1    1    2  505  506  0.55858173288E+02  0.26358420986E+02  0.42008901013E+02  0.74697052446E+02  0.00000000000E+00 0. -1.
         21    1    1    2  506  502 -0.57131850550E+02 -0.74077506989E+02 -0.56016427469E+03  0.56792212497E+03  0.00000000000E+00 0. -1.
<scales pt_clust_3="37.85902" pt_clust_4="14000.00000" pt_clust_5="45.83471" pt_clust_6="92.24591"></scales>
<clustering>
<clus scale="   37.859">  1  3  2 -1</clus>
<clus scale="   45.835">  1  5  2 -1</clus>
<clus scale="   92.246">  2  6  1 -1</clus>
<clus scale="   37.859">  1  3  2 -1</clus>
</clustering>
</event>
<event>
 6    0  0.8610502E+002  0.9063743E+02  0.7546771E-02  0.1301315E+00
         21   -1    0    0  502  501  0.00000000000E+00  0.00000000000E+00  0.89501309325E+03  0.89501309325E+03  0.00000000000E+00 0.  1.
         21   -1    0    0  505  502 -0.00000000000E+00 -0.00000000000E+00 -0.44778582798E+02  0.44778582798E+02  0.00000000000E+00 0.  1.
         21    1    1    2  503  506 -0.63485716028E+02 -0.60136228327E+02  0.21669776625E+03  0.23367653710E+03  0.00000000000E+00 0.  1.
         21    1    1    2  504  503  0.11046498421E+03 -0.22741666678E+02  0.13449850471E+03  0.17552647637E+03  0.00000000000E+00 0.  1.
         21    1    1    2  505  504 -0.14810259875E+02  0.62542982048E+02  0.54056844346E+02  0.83982800749E+02  0.00000000000E+00 0.  1.
         21    1    1    2  506  501 -0.32169008305E+02  0.20334912957E+02  0.44498139516E+03  0.44660586183E+03  0.00000000000E+00 0.  1.
<scales pt_clust_3="90.63743" pt_clust_4="14000.00000" pt_clust_5="68.57384" pt_clust_6="38.05724"></scales>
<clustering>
<clus scale="   38.057">  1  6  2 -1</clus>
<clus scale="   68.574">  2  5  1 -1</clus>
<clus scale="   90.637">  1  3  2 -1</clus>
<clus scale="   38.057">  1  3  2 -1</clus>
</clustering>
</event>
<event>
 6    0  0.8610502E+002  0.1163274E+03  0.7546771E-02  0.1249282E+00
         21   -1    0    0  504  501  0.00000000000E+00  0.00000000000E+00  0.16937260314E+03  0.16937260314E+03  0.00000000000E+00 0. -1.
         21   -1    0    0  506  502 -0.00000000000E+00 -0.00000000000E+00 -0.29308172194E+03  0.29308172194E+03  0.00000000000E+00 0. -1.
         21    1    1    2  503  502 -0.11005654146E+03  0.46239875600E+01 -0.15486475213E+03  0.19004450803E+03  0.00000000000E+00 0. -1.
         21    1    1    2  504  503  0.38580786894E+02 -0.62239382067E+02  0.27100781244E+02  0.78081176615E+02  0.00000000000E+00 0. -1.
         21    1    1    2  505  501  0.86849491657E+02  0.13465536892E+01  0.66113908006E+02  0.10915904104E+03  0.00000000000E+00 0. -1.
         21    1    1    2  506  505 -0.15373737086E+02  0.56268840818E+02 -0.62059055926E+02  0.85169599397E+02  0.00000000000E+00 0.  1.
<scales pt_clust_3="116.32736" pt_clust_4="66.75943" pt_clust_5="14000.00000" pt_clust_6="58.33125"></scales>
<clustering>
<clus scale="   58.331">  2  6  1 -1</clus>
<clus scale="   66.759">  1  4  2 -1</clus>
<clus scale="  116.327">  2  3  1 -1</clus>
<clus scale="   66.759">  1  3  2 -1</clus>
</clustering>
</event>
<event>
 6    0  0.8610502E+002  0.8036985E+02  0.7546771E-02  0.1328005E+00
         21   -1    0    0  503  501  0.00000000000E+00  0.00000000000E+00  0.16225378449E+03  0.16225378449E+03  0.00000000000E+00 0.  1.
         21   -1    0    0  504  502 -0.00000000000E+00 -0.00000000000E+00 -0.21407350939E+03  0.21407350939E+03  0.00000000000E+00 0.  1.
         21    1    1    2  503  505 -0.67442067972E+02 -0.67727164836E+02 -0.27706075378E+02  0.99513958830E+02  0.00000000000E+00 0.  1.
         21    1    1    2  504  506  0.11006191203E+02  0.87758011296E+02 -0.55439408034E+02  0.10438454270E+03  0.00000000000E+00 0.  1.
         21    1    1    2  505  502  0.36214243428E+02 -0.53804757190E+02 -0.50121827438E+02  0.81967194102E+02  0.00000000000E+00 0.  1.
         21    1    1    2  506  501  0.20221633342E+02  0.33773910729E+02  0.81447585947E+02  0.90461598248E+02  0.00000000000E+00 0.  1.
<scales pt_clust_3="80.36985" pt_clust_4="14000.00000" pt_clust_5="61.81508" pt_clust_6="39.36485"></scales>
<clustering>
<clus scale="   39.365">  1  6  2 -1</clus>
<clus scale="   61.815">  2  5  1 -1</clus>
<clus scale="   80.370">  1  3  2 -1</clus>
<clus scale="   39.365">  1  3  2 -1</clus>
</clustering>
</event>
<event>
 6    0  0.8610502E+002  0.1003750E+03  0.7546771E-02  0.1279509E+00
         21   -1    0    0  505  501  0.00000000000E+00  0.00000000000E+00  0.64462850526E+02  0.64462850526E+02  0.00000000000E+00 0. -1.
         21   -1    0    0  504  502 -0.00000000000E+00 -0.00000000000E+00 -0.57709885174E+03  0.57709885174E+03  0.00000000000E+00 0. -1.
         21    1    1    2  503  501 -0.27606503722E+02  0.97732432095E+02 -0.25912293536E+02  0.10481027758E+03  0.00000000000E+00 0. -1.
         21    1    1    2  504  503 -0.42098237202E+02  0.23473713661E+02 -0.55066669244E+02  0.73182066588E+02  0.00000000000E+00 0. -1.
         21    1    1    2  505  506  0.39234611169E+02 -0.89795293467E+02 -0.15433957131E+03  0.18282027435E+03  0.00000000000E+00 0. -1.
         21    1    1    2  506  502  0.30470129755E+02 -0.31410852288E+02 -0.27731746712E+03  0.28074908373E+03  0.00000000000E+00 0. -1.
<scales pt_clust_3="100.37499" pt_clust_4="39.27769" pt_clust_5="14000.00000" pt_clust_6="43.76152"></scales>
<clustering>
<clus scale="   43.762">  2  6  1 -1</clus>
<clus scale="   39.278">  2  4  1 -1</clus>
<clus scale="  100.375">  1  3  2 -1</clus>
<clus scale="  100.375">  1  3  2 -1</clus>
</clustering>
</event>
<event>
 6    0  0.8610502E+002  0.1329552E+03  0.7546771E-02  0.1223135E+00
         21   -1    0    0  506  501  0.00000000000E+00  0.00000000000E+00  0.39928728388E+04  0.39928728388E+04  0.00000000000E+00 0.  1.
         21   -1    0    0  504  502 -0.00000000000E+00 -0.00000000000E+00 -0.31663182166E+03  0.31663182166E+03  0.00000000000E+00 0.  1.
         21    1    1    2  503  502  0.90681698589E+02 -0.85752906219E+02 -0.17149488163E+03  0.21210192316E+03  0.00000000000E+00 0.  1.
         21    1    1    2  504  501  0.63235659098E+02  0.10465697327E+02  0.33838898891E+01  0.64185123766E+02  0.00000000000E+00 0.  1.
         21    1    1    2  505  503 -0.60266845612E+02  0.11853982788E+03 -0.46592050874E+02  0.14090636139E+03  0.00000000000E+00 0. -1.
         21    1    1    2  506  505 -0.93650512075E+02 -0.43252618992E+02  0.38909440598E+04  0.38923112522E+04  0.00000000000E+00 0.  1.
<scales pt_clust_3="14000.00000" pt_clust_4="64.09586" pt_clust_5="132.95522" pt_clust_6="103.00865"></scales>
<clustering>
<clus scale="   64.096">  2  4  1 -1</clus>
<clus scale="  103.009">  1  6  2 -1</clus>
<clus scale="  132.955">  1  5  2 -1</clus>
<clus scale="  103.009">  1  3  2 -1</clus>
</clustering>
</event>
<event>
 6    0  0.8610502E+002  0.1818952E+03  0.7546771E-02  0.1165981E+00
         21   -1    0    0  503  501  0.00000000000E+00  0.00000000000E+00  0.10986657898E+04  0.10986657898E+04  0.00000000000E+00 0. -1.
         21   -1    0    0  505  502 -0.00000000000E+00 -0.00000000000E+00 -0.96474066700E+02  0.96474066700E+02  0.00000000000E+00 0.  1.
         21    1    1    2  503  506  0.37045248694E+02 -0.86929055946E+01  0.27281581427E+03  0.27545668548E+03  0.00000000000E+00 0. -1.
         21    1    1    2  504  502 -0.15842676226E+03  0.38862928858E+02  0.12393244895E+02  0.16359388362E+03  0.00000000000E+00 0.  1.
         21    1    1    2  505  501 -0.53086419151E+02 -0.37232355492E+02  0.17192739874E+03  0.18374832416E+03  0.00000000000E+00 0. -1.
         21    1    1    2  506  504  0.17446793272E+03  0.70623322287E+01  0.54505526515E+03  0.57234096320E+03  0.00000000000E+00 0. -1.
<scales pt_clust_3="33.36142" pt_clust_4="167.26800" pt_clust_5="64.84147" pt_clust_6="33.36142"></scales>
<clustering>
<clus scale="   33.361">  3  6 -1 -1</clus>
<clus scale="   64.841">  1  5  2 -1</clus>
<clus scale="  167.268">  2  4  1 -1</clus>
<clus scale="   64.841">  1  3  2 -1</clus>
</clustering>
</event>
<event>
 6    0  0.8610502E+002  0.1143445E+03  0.7546771E-02  0.1252730E+00
         21   -1    0    0  505  501  0.00000000000E+00  0.00000000000E+00  0.73580161095E+02  0.73580161095E+02  0.00000000000E+00 0. -1.
         21   -1    0    0  504  502 -0.00000000000E+00 -0.00000000000E+00 -0.95540701836E+03  0.95540701836E+03  0.00000000000E+00 0. -1.
         21    1    1    2  503  502  0.63615858548E+02  0.45824276896E+02 -0.21614827486E+03  0.22992807253E+03  0.00000000000E+00 0. -1.
         21    1    1    2  504  506 -0.11101529494E+02 -0.99932124457E+02 -0.43546774885E+03  0.44692486364E+03  0.00000000000E+00 0. -1.
         21    1    1    2  505  503  0.30697075522E+02  0.50931148331E+02 -0.25767669638E+03  0.26444956452E+03  0.00000000000E+00 0. -1.
         21    1    1    2  506  501 -0.83211404577E+02  0.31766992309E+01  0.27465862823E+02  0.87684678766E+02  0.00000000000E+00 0. -1.
<scales pt_clust_3="35.29720" pt_clust_4="106.92079" pt_clust_5="35.29720" pt_clust_6="83.27202"></scales>
<clustering>
<clus scale="   35.297">  3  5 -1 -1</clus>
<clus scale="   83.272">  1  6  2 -1</clus>
<clus scale="  106.921">  2  4  1 -1</clus>
<clus scale="   83.272">  1  3  2 -1</clus>
</clustering>
</event>
<event>
 6    0  0.8610502E+002  0.3131689E+03  0.7546771E-02  0.1078837E+00
         21   -1    0    0  504  501  0.00000000000E+00  0.00000000000E+00  0.11356738400E+04  0.11356738400E+04  0.00000000000E+00 0. -1.
         21   -1    0    0  506  502 -0.00000000000E+00 -0.00000000000E+00 -0.32927613901E+03  0.32927613901E+03  0.00000000000E+00 0.  1.
         21    1    1    2  503  505 -0.11559524294E+03 -0.68694875948E+01  0.68242233250E+01  0.11600008652E+03  0.00000000000E+00 0. -1.
         21    1    1    2  504  503 -0.22966575510E+03 -0.47457719628E+01  0.10286286523E+03  0.25169356460E+03  0.00000000000E+00 0. -1.
         21    1    1    2  505  502  0.28709743018E+03 -0.53532762633E+02 -0.90088539635E+02  0.30562499254E+03  0.00000000000E+00 0.  1.
         21    1    1    2  506  501  0.58163567856E+02  0.65148022191E+02  0.78679915207E+03  0.79163133536E+03  0.00000000000E+00 0. -1.
<scales pt_clust_3="43.92422" pt_clust_4="43.92422" pt_clust_5="306.99747" pt_clust_6="87.33422"></scales>
<clustering>
<clus scale="   43.924">  3  4 -1 -1</clus>
<clus scale="   87.334">  1  6  2 -1</clus>
<clus scale="  306.997">  2  5  1 -1</clus>
<clus scale="   87.334">  1  3  2 -1</clus>
</clustering>
</event>
<event>
 6    0  0.8610502E+002  0.1713489E+03  0.7546771E-02  0.1176448E+00
         21   -1    0    0  505  501  0.00000000000E+00  0.00000000000E+00  0.10205294232E+04  0.10205294232E+04  0.00000000000E+00 0.  1.
         21   -1    0    0  504  502 -0.00000000000E+00 -0.00000000000E+00 -0.73229356195E+02  0.73229356195E+02  0.00000000000E+00 0.  1.
         21    1    1    2  503  502 -0.36885019440E+02 -0.36477345724E+02  0.28593826949E+02  0.59234351096E+02  0.00000000000E+00 0.  1.
         21    1    1    2  504  501  0.40406900601E+02 -0.14470497319E+03  0.77898615361E+03  0.79334209166E+03  0.00000000000E+00 0.  1.
         21    1    1    2  505  506  0.24838048006E+02  0.14959544135E+03  0.92243721328E+02  0.17749543326E+03  0.00000000000E+00 0.  1.
         21    1    1    2  506  503 -0.28359929167E+02  0.31586877559E+02  0.47476365076E+02  0.63686903340E+02  0.00000000000E+00 0. -1.
<scales pt_clust_3="51.87583" pt_clust_4="153.46878" pt_clust_5="40.32116" pt_clust_6="40.32116"></scales>
<clustering>
<clus scale="   40.321">  5  6 -1 -1</clus>
<clus scale="   51.876">  2  3  1 -1</clus>
<clus scale="  153.469">  1  4  2 -1</clus>
<clus scale="  153.469">  1  3  2 -1</clus>
</clustering>
</event>
<event>
 6    0  0.8610502E+002  0.1132392E+03  0.7546771E-02  0.1254686E+00
         21   -1    0    0  504  501  0.00000000000E+00  0.00000000000E+00  0.41915071806E+03  0.41915071806E+03  0.00000000000E+00 0. -1.
         21   -1    0    0  503  502 -0.00000000000E+00 -0.00000000000E+00 -0.33131524618E+03  0.33131524618E+03  0.00000000000E+00 0. -1.
         21    1    1    2  503  505 -0.30488062751E+02 -0.19774424255E+02  0.20860882148E+01  0.36399197642E+02  0.00000000000E+00 0.  1.
         21    1    1    2  504  506 -0.44232920233E+02 -0.62931144911E+02  0.34600076067E+03  0.35444803091E+03  0.00000000000E+00 0. -1.
         21    1    1    2  505  501  0.10959938987E+02 -0.46716316409E+02  0.13782826564E+02  0.49924951573E+02  0.00000000000E+00 0. -1.
         21    1    1    2  506  502  0.63761043997E+02  0.12942188558E+03 -0.27403420357E+03  0.30969378412E+03  0.00000000000E+00 0. -1.
<scales pt_clust_3="36.33937" pt_clust_4="14000.00000" pt_clust_5="48.73129" pt_clust_6="113.23924"></scales>
<clustering>
<clus scale="   36.339">  2  3  1 -1</clus>
<clus scale="   48.731">  1  5  2 -1</clus>
<clus scale="  113.239">  2  6  1 -1</clus>
<clus scale="   48.731">  1  3  2 -1</clus>
</clustering>
</event>
<event>
 6    0  0.8610502E+002  0.7322352E+02  0.7546771E-02  0.1349462E+00
         21   -1    0    0  505  501  0.00000000000E+00  0.00000000000E+00  0.39185307269E+02  0.39185307269E+02  0.00000000000E+00 0.  1.
         21   -1    0    0  504  502 -0.00000000000E+00 -0.00000000000E+00 -0.21241006949E+04  0.21241006949E+04  0.00000000000E+00 0. -1.
         21    1    1    2  503  506 -0.85739804621E+01  0.71848555677E+02 -0.69941165598E+03  0.70314464558E+03  0.00000000000E+00 0.  1.
         21    1    1    2  504  503  0.54081751043E+02  0.41582642222E+01 -0.97541644554E+03  0.97692342033E+03  0.00000000000E+00 0. -1.
         21    1    1    2  505  502  0.30375943763E+02 -0.26806765891E+02  0.18968961181E+02  0.44733903756E+02  0.00000000000E+00 0.  1.
         21    1    1    2  506  501 -0.75883714343E+02 -0.49200054009E+02 -0.42905624727E+03  0.43848403248E+03  0.00000000000E+00 0.  1.
<scales pt_clust_3="14000.00000" pt_clust_4="57.21983" pt_clust_5="40.51297" pt_clust_6="73.22352"></scales>
<clustering>
<clus scale="   40.513">  1  5  2 -1</clus>
<clus scale="   57.220">  2  4  1 -1</clus>
<clus scale="   73.224">  1  6  2 -1</clus>
<clus scale="   40.513">  1  3  2 -1</clus>
</clustering>
</event>
<event>
 6    0  0.8610502E+002  0.1312383E+03  0.7546771E-02  0.1225630E+00
         21   -1    0    0  503  501  0.00000000000E+00  0.00000000000E+00  0.14186044834E+03  0.14186044834E+03  0.00000000000E+00 0. -1.
         21   -1    0    0  506  502 -0.00000000000E+00 -0.00000000000E+00 -0.49176906454E+03  0.49176906454E+03  0.00000000000E+00 0. -1.
         21    1    1    2  503  505  0.41298618822E+02 -0.86622837410E+02  0.20958997011E+01  0.95986898445E+02  0.00000000000E+00 0. -1.
         21    1    1    2  504  501 -0.47706539300E+02  0.81916156138E+02 -0.99058769182E+01  0.95311578131E+02  0.00000000000E+00 0. -1.
         21    1    1    2  505  502  0.58726150725E+02 -0.18453616371E+02 -0.37249193302E+03  0.37754408604E+03  0.00000000000E+00 0. -1.
         21    1    1    2  506  504 -0.52318230247E+02  0.23160297643E+02  0.30393294028E+02  0.64786950268E+02  0.00000000000E+00 0. -1.
<scales pt_clust_3="114.27031" pt_clust_4="50.14311" pt_clust_5="61.55726" pt_clust_6="50.14311"></scales>
<clustering>
<clus scale="   50.143">  4  6 -1 -1</clus>
<clus scale="   61.557">  2  5  1 -1</clus>
<clus scale="  114.270">  1  3  2 -1</clus>
<clus scale="  114.270">  1  3  2 -1</clus>
</clustering>
</event>
<event>
 6    0  0.8610502E+002  0.1202503E+03  0.7546771E-02  0.1242685E+00
         21   -1    0    0  503  501  0.00000000000E+00  0.00000000000E+00  0.10231749851E+04  0.10231749851E+04  0.00000000000E+00 0. -1.
         21   -1    0    0  504  502 -0.00000000000E+00 -0.00000000000E+00 -0.18790257779E+02  0.18790257779E+02  0.00000000000E+00 0. -1.
         21    1    1    2  503  502 -0.27633118435E+02 -0.13302614678E+02  0.47280240763E+02  0.56355744679E+02  0.00000000000E+00 0. -1.
         21    1    1    2  504  505  0.38903757819E+02  0.31716436185E+02  0.13513868368E+03  0.14415928178E+03  0.00000000000E+00 0. -1.
         21    1    1    2  505  506  0.14720085800E+02  0.78367795801E+02  0.35175903976E+03  0.36068353774E+03  0.00000000000E+00 0. -1.
         21    1    1    2  506  501 -0.25990725184E+02 -0.96781617309E+02  0.47020676309E+03  0.48076667865E+03  0.00000000000E+00 0. -1.
<scales pt_clust_3="30.66837" pt_clust_4="39.20079" pt_clust_5="39.20079" pt_clust_6="107.96898"></scales>
<clustering>
<clus scale="   30.668">  2  3  1 -1</clus>
<clus scale="   39.201">  4  5 -1 -1</clus>
<clus scale="  107.969">  1  6  2 -1</clus>
<clus scale="  107.969">  1  3  2 -1</clus>
</clustering>
</event>
<event>
 6    0  0.8610502E+002  0.9031668E+02  0.7546771E-02  0.1302087E+00
         21   -1    0    0  503  501  0.00000000000E+00  0.00000000000E+00  0.50992905591E+03  0.50992905591E+03  0.00000000000E+00 0.  1.
         21   -1    0    0  504  502 -0.00000000000E+00 -0.00000000000E+00 -0.17441159109E+03  0.17441159109E+03  0.00000000000E+00 0.  1.
         21    1    1    2  503  502  0.19940683064E+02  0.11682508964E+03 -0.10743228486E+03  0.15996070843E+03  0.00000000000E+00 0.  1.
         21    1    1    2  504  505  0.20788066699E+02 -0.31216873931E+02 -0.22764726327E+02  0.43873337003E+02  0.00000000000E+00 0. -1.
         21    1    1    2  505  506 -0.12916784745E+02 -0.59541663477E+02  0.14150473096E+03  0.15406375921E+03  0.00000000000E+00 0.  1.
         21    1    1    2  506  501 -0.27811965018E+02 -0.26066552231E+02  0.32420974504E+03  0.32644284235E+03  0.00000000000E+00 0.  1.
<scales pt_clust_3="90.31668" pt_clust_4="37.50516" pt_clust_5="14000.00000" pt_clust_6="38.16788"></scales>
<clustering>
<clus scale="   37.505">  2  4  1 -1</clus>
<clus scale="   38.168">  1  6  2 -1</clus>
<clus scale="   90.317">  2  3  1 -1</clus>
<clus scale="   38.168">  1  3  2 -1</clus>
</clustering>
</event>
<event>
 6    0  0.8610502E+002  0.1521070E+03  0.7546771E-02  0.1197908E+00
         21   -1    0    0  506  501  0.00000000000E+00  0.00000000000E+00  0.11434182281E+04  0.11434182281E+04  0.00000000000E+00 0.  1.
         21   -1    0    0  503  502 -0.00000000000E+00 -0.00000000000E+00 -0.13653869614E+03  0.13653869614E+03  0.00000000000E+00 0.  1.
         21    1    1    2  503  504 -0.12725684039E+03  0.31060067016E+01  0.45798565163E+02  0.13528288612E+03  0.00000000000E+00 0.  1.
         21    1    1    2  504  501  0.15176501399E+03 -0.45492398637E+02  0.84306416677E+03  0.85782245663E+03  0.00000000000E+00 0.  1.
         21    1    1    2  505  502 -0.29080545147E+02  0.11872365669E+02 -0.80260441512E+02  0.86187990140E+02  0.00000000000E+00 0.  1.
         21    1    1    2  506  505  0.45723715542E+01  0.30514026267E+02  0.19827724151E+03  0.20066359132E+03  0.00000000000E+00 0.  1.
<scales pt_clust_3="14000.00000" pt_clust_4="152.10703" pt_clust_5="31.43375" pt_clust_6="30.85470"></scales>
<clustering>
<clus scale="   30.855">  1  6  2 -1</clus>
<clus scale="   31.434">  2  5  1 -1</clus>
<clus scale="  152.107">  1  4  2 -1</clus>
<clus scale="   30.855">  1  3  2 -1</clus>
</clustering>
</event>
<event>
 6    0  0.8610502E+002  0.1729410E+03  0.7546771E-02  0.1174815E+00
         21   -1    0    0  502  501  0.00000000000E+00  0.00000000000E+00  0.31529006739E+03  0.31529006739E+03  0.00000000000E+00 0. -1.
         21   -1    0    0  503  502 -0.00000000000E+00 -0.00000000000E+00 -0.23584245492E+03  0.23584245492E+03  0.00000000000E+00 0. -1.
         21    1    1    2  503  506  0.17052108468E+02 -0.14810783973E+03 -0.18348805712E+03  0.23642033266E+03  0.00000000000E+00 0. -1.
         21    1    1    2  504  501  0.16005835321E+02  0.57418128915E+02  0.14253924546E+03  0.15450069511E+03  0.00000000000E+00 0. -1.
         21    1    1    2  505  504 -0.19888210839E+02  0.58457170702E+02  0.10570727830E+03  0.12242062907E+03  0.00000000000E+00 0. -1.
         21    1    1    2  506  505 -0.13169732950E+02  0.32232540108E+02  0.14689145822E+02  0.37790865467E+02  0.00000000000E+00 0.  1.
<scales pt_clust_3="149.08624" pt_clust_4="49.99112" pt_clust_5="49.99112" pt_clust_6="32.34207"></scales>
<clustering>
<clus scale="   32.342">  5  6 -1 -1</clus>
<clus scale="   49.991">  4  5 -1 -1</clus>
<clus scale="  149.086">  2  3  1 -1</clus>
<clus scale="  172.941">  1  3  2 -1</clus>
</clustering>
</event>
<event>
 6    0  0.8610502E+002  0.1420751E+03  0.7546771E-02  0.1210564E+00
         21   -1    0    0  505  501  0.00000000000E+00  0.00000000000E+00  0.12247779978E+04  0.12247779978E+04  0.00000000000E+00 0. -1.
         21   -1    0    0  504  502 -0.00000000000E+00 -0.00000000000E+00 -0.21352291233E+03  0.21352291233E+03  0.00000000000E+00 0. -1.
         21    1    1    2  503  501 -0.53116796057E+02 -0.12552902203E+03  0.47276052739E+03  0.49201772900E+03  0.00000000000E+00 0. -1.
         21    1    1    2  504  503  0.57154500026E+02  0.13944635706E+03  0.28049543970E+03  0.31841735987E+03  0.00000000000E+00 0. -1.
         21    1    1    2  505  506  0.32352955376E+02 -0.14948572398E+02  0.44041398393E+03  0.44185365313E+03  0.00000000000E+00 0. -1.
         21    1    1    2  506  502 -0.36390659345E+02  0.10312373680E+01 -0.18241486552E+03  0.18601216815E+03  0.00000000000E+00 0. -1.
<scales pt_clust_3="14000.00000" pt_clust_4="142.07510" pt_clust_5="35.63949" pt_clust_6="36.33008"></scales>
<clustering>
<clus scale="   35.639">  1  5  2 -1</clus>
<clus scale="   36.330">  2  6  1 -1</clus>
<clus scale="  142.075">  2  4  1 -1</clus>
<clus scale="   35.639">  1  3  2 -1</clus>
</clustering>
</event>
<event>
 6    0  0.8610502E+002  0.1067461E+03  0.7546771E-02  0.1266717E+00
         21   -1    0    0  506  501  0.00000000000E+00  0.00000000000E+00  0.75402376489E+03  0.75402376489E+03  0.00000000000E+00 0. -1.
         21   -1    0    0  503  502 -0.00000000000E+00 -0.00000000000E+00 -0.93926433285E+03  0.93926433285E+03  0.00000000000E+00 0. -1.
         21    1    1    2  503  501 -0.47219912196E+02 -0.87554124530E+01 -0.90120598871E+03  0.90248468765E+03  0.00000000000E+00 0. -1.
         21    1    1    2  504  505  0.13506549262E+03 -0.39565328222E+02  0.34841672619E+03  0.37576896836E+03  0.00000000000E+00 0. -1.
         21    1    1    2  505  502 -0.72036266713E+02  0.99022634361E+01  0.36447214248E+02  0.81336818044E+02  0.00000000000E+00 0. -1.
         21    1    1    2  506  504 -0.15809313710E+02  0.38418477239E+02  0.33110148031E+03  0.33369762369E+03  0.00000000000E+00 0.  1.
<scales pt_clust_3="48.03775" pt_clust_4="14000.00000" pt_clust_5="106.74612" pt_clust_6="41.54412"></scales>
<clustering>
<clus scale="   41.544">  1  6  2 -1</clus>
<clus scale="   48.038">  2  3  1 -1</clus>
<clus scale="  106.746">  2  5  1 -1</clus>
<clus scale="   41.544">  1  3  2 -1</clus>
</clustering>
</event>
<event>
 6    0  0.8610502E+002  0.7702024E+02  0.7546771E-02  0.1337727E+00
         21   -1    0    0  504  501  0.00000000000E+00  0.00000000000E+00  0.11260895117E+03  0.11260895117E+03  0.00000000000E+00 0. -1.
         21   -1    0    0  501  502 -0.00000000000E+00 -0.00000000000E+00 -0.68609120206E+03  0.68609120206E+03  0.00000000000E+00 0. -1.
         21    1    1    2  503  502  0.17166868611E+02 -0.57305180429E+02 -0.55789183440E+03  0.56108990721E+03  0.00000000000E+00 0. -1.
         21    1    1    2  504  505 -0.11122874901E+02  0.58234106787E+02  0.23206858197E+02  0.63667007207E+02  0.00000000000E+00 0. -1.
         21    1    1    2  505  506 -0.75272636272E+02 -0.16503319965E+02  0.22389228987E+02  0.80247161419E+02  0.00000000000E+00 0. -1.
         21    1    1    2  506  503  0.69228642562E+02  0.15574393607E+02 -0.61186503664E+02  0.93696077388E+02  0.00000000000E+00 0. -1.
<scales pt_clust_3="58.45809" pt_clust_4="59.28684" pt_clust_5="77.02024" pt_clust_6="14000.00000"></scales>
<clustering>
<clus scale="   59.287">  1  4  2 -1</clus>
<clus scale="   58.458">  2  3  1 -1</clus>
<clus scale="   77.020">  1  5  2 -1</clus>
<clus scale="   59.287">  1  3  2 -1</clus>
</clustering>
</event>
<event>
 6    0  0.8610502E+002  0.1055012E+03  0.7546771E-02  0.1269135E+00
         21   -1    0    0  506  501  0.00000000000E+00  0.00000000000E+00  0.58255561873E+02  0.58255561873E+02  0.00000000000E+00 0.  1.
         21   -1    0    0  504  502 -0.00000000000E+00 -0.00000000000E+00 -0.14672890291E+04  0.14672890291E+04  0.00000000000E+00 0.  1.
         21    1    1    2  503  501 -0.84149448352E+02 -0.23739634044E+02 -0.12581095067E+03  0.15320931822E+03  0.00000000000E+00 0.  1.
         21    1    1    2  504  503  0.71513440500E+02  0.34320655860E+02 -0.11243702970E+04  0.11271648700E+04  0.00000000000E+00 0.  1.
         21    1    1    2  505  502  0.31206748555E+02  0.27792156012E+02 -0.18860816000E+03  0.19318204656E+03  0.00000000000E+00 0.  1.
         21    1    1    2  506  505 -0.18570740703E+02 -0.38373177828E+02  0.29755940394E+02  0.51988356154E+02  0.00000000000E+00 0.  1.
<scales pt_clust_3="14000.00000" pt_clust_4="105.50123" pt_clust_5="41.78834" pt_clust_6="42.29462"></scales>
<clustering>
<clus scale="   41.788">  2  5  1 -1</clus>
<clus scale="   42.295">  1  6  2 -1</clus>
<clus scale="  105.501">  2  4  1 -1</clus>
<clus scale="   42.295">  1  3  2 -1</clus>
</clustering>
</event>
<event>
 6    0  0.8610502E+002  0.1033057E+03  0.7546771E-02  0.1273494E+00
         21   -1    0    0  505  501  0.00000000000E+00  0.00000000000E+00  0.19060391941E+03  0.19060391941E+03  0.00000000000E+00 0. -1.
         21   -1    0    0  503  502 -0.00000000000E+00 -0.00000000000E+00 -0.84470556514E+03  0.84470556514E+03  0.00000000000E+00 0. -1.
         21    1    1    2  503  506 -0.43056806691E+02 -0.28505064739E+02 -0.61395684623E+03  0.61612452991E+03  0.00000000000E+00 0. -1.
         21    1    1    2  504  502  0.69166919559E+02 -0.20628259148E+02 -0.12187004575E+03  0.14164002219E+03  0.00000000000E+00 0. -1.
         21    1    1    2  505  504  0.58193400319E+02  0.27292676854E+02 -0.74678454705E+02  0.98530369164E+02  0.00000000000E+00 0. -1.
         21    1    1    2  506  501 -0.84303513187E+02  0.21840647033E+02  0.15640370095E+03  0.17901456329E+03  0.00000000000E+00 0. -1.
<scales pt_clust_3="51.63746" pt_clust_4="49.80458" pt_clust_5="49.80458" pt_clust_6="88.80669"></scales>
<clustering>
<clus scale="   49.805">  4  5 -1 -1</clus>
<clus scale="   51.637">  2  3  1 -1</clus>
<clus scale="   88.807">  1  6  2 -1</clus>
<clus scale="   88.807">  1  3  2 -1</clus>
</clustering>
</event>
<event>
 6    0  0.8610502E+002  0.2403015E+03  0.7546771E-02  0.1119592E+00
         21   -1    0    0  503  501  0.00000000000E+00  0.00000000000E+00  0.30461270770E+03  0.30461270770E+03  0.00000000000E+00 0.  1.
         21   -1    0    0  504  502 -0.00000000000E+00 -0.00000000000E+00 -0.42005315500E+03  0.42005315500E+03  0.00000000000E+00 0. -1.
         21    1    1    2  503  505 -0.79007196937E+02 -0.20461601873E+03  0.14995919654E+03  0.26570211312E+03  0.00000000000E+00 0.  1.
         21    1    1    2  504  506  0.76635983805E+02  0.20518542742E+03 -0.74916632794E+02  0.23148787335E+03  0.00000000000E+00 0. -1.
         21    1    1    2  505  502  0.23107723511E+02 -0.30128226475E+02 -0.18743294687E+03  0.19124012782E+03  0.00000000000E+00 0. -1.
         21    1    1    2  506  501 -0.20736510379E+02  0.29558817783E+02 -0.30500641732E+01  0.36235748410E+02  0.00000000000E+00 0.  1.
<scales pt_clust_3="224.44891" pt_clust_4="34.85022" pt_clust_5="37.96942" pt_clust_6="34.85022"></scales>
<clustering>
<clus scale="   34.850">  4  6 -1 -1</clus>
<clus scale="   37.969">  2  5  1 -1</clus>
<clus scale="  224.449">  1  3  2 -1</clus>
<clus scale="  224.449">  1  3  2 -1</clus>
</clustering>
</event>
<event>
 6    0  0.8610502E+002  0.1789558E+03  0.7546771E-02  0.1168817E+00
         21   -1    0    0  504  501  0.00000000000E+00  0.00000000000E+00  0.73227767967E+03  0.73227767967E+03  0.00000000000E+00 0.  1.
         21   -1    0    0  503  502 -0.00000000000E+00 -0.00000000000E+00 -0.21729191419E+03  0.21729191419E+03  0.00000000000E+00 0.  1.
         21    1    1    2  503  505 -0.55516603067E+02 -0.35658650298E+02  0.18428585201E+03  0.19574194187E+03  0.00000000000E+00 0.  1.
         21    1    1    2  504  502  0.16229088598E+03  0.75661415618E+02 -0.15859017425E+03  0.23919411542E+03  0.00000000000E+00 0.  1.
         21    1    1    2  505  506 -0.37649881265E+02 -0.72783138468E+02  0.22332827377E+03  0.23788740335E+03  0.00000000000E+00 0. -1.
         21    1    1    2  506  501 -0.69124401647E+02  0.32780373148E+02  0.26596181395E+03  0.27674613321E+03  0.00000000000E+00 0.  1.
<scales pt_clust_3="34.11653" pt_clust_4="174.87042" pt_clust_5="34.11653" pt_clust_6="76.50317"></scales>
<clustering>
<clus scale="   34.117">  3  5 -1 -1</clus>
<clus scale="   76.503">  1  6  2 -1</clus>
<clus scale="  174.870">  2  4  1 -1</clus>
<clus scale="   76.503">  1  3  2 -1</clus>
</clustering>
</event>
<event>
 6    0  0.8610502E+002  0.8024168E+02  0.7546771E-02  0.1328367E+00
         21   -1    0    0  504  501  0.00000000000E+00  0.00000000000E+00  0.55963364271E+02  0.55963364271E+02  0.00000000000E+00 0.  1.
         21   -1    0    0  501  502 -0.00000000000E+00 -0.00000000000E+00 -0.12730291979E+04  0.12730291979E+04  0.00000000000E+00 0.  1.
         21    1    1    2  503  502 -0.14386489586E+02 -0.76995982879E+02 -0.10857399575E+04  0.10885617152E+04  0.00000000000E+00 0.  1.
         21    1    1    2  504  506  0.28279305709E+02 -0.27566025807E+02 -0.24418254272E+02  0.46431196968E+02  0.00000000000E+00 0.  1.
         21    1    1    2  505  503  0.24360191278E+02  0.11594492991E+03 -0.96369674500E+02  0.15272118339E+03  0.00000000000E+00 0.  1.
         21    1    1    2  506  505 -0.38253007401E+02 -0.11382921228E+02 -0.10537947330E+02  0.41278466600E+02  0.00000000000E+00 0.  1.
<scales pt_clust_3="80.24168" pt_clust_4="39.49183" pt_clust_5="14000.00000" pt_clust_6="35.35577"></scales>
<clustering>
<clus scale="   39.492">  1  4  2 -1</clus>
<clus scale="   35.356">  1  6  2 -1</clus>
<clus scale="   80.242">  2  3  1 -1</clus>
<clus scale="   39.492">  1  3  2 -1</clus>
</clustering>
</event>
<event>
 6    0  0.8610502E+002  0.1404032E+03  0.7546771E-02  0.1212788E+00
         21   -1    0    0  503  501  0.00000000000E+00  0.00000000000E+00  0.17078834968E+03  0.17078834968E+03  0.00000000000E+00 0. -1.
         21   -1    0    0  504  502 -0.00000000000E+00 -0.00000000000E+00 -0.36073711443E+03  0.36073711443E+03  0.00000000000E+00 0. -1.
         21    1    1    2  503  506  0.76994300535E+02 -0.54559028673E+02  0.71067566023E+02  0.11813301344E+03  0.00000000000E+00 0. -1.
         21    1    1    2  504  501 -0.38210846290E+02  0.32488663767E+02 -0.28655419279E+01  0.50237370334E+02  0.00000000000E+00 0. -1.
         21    1    1    2  505  502 -0.10013281398E+03  0.69579914821E+02 -0.25821870975E+03  0.28556058384E+03  0.00000000000E+00 0. -1.
         21    1    1    2  506  505  0.61349359733E+02 -0.47509549915E+02  0.67920905760E-01  0.77594496493E+02  0.00000000000E+00 0. -1.
<scales pt_clust_3="59.77686" pt_clust_4="50.15558" pt_clust_5="126.57412" pt_clust_6="59.77686"></scales>
<clustering>
<clus scale="   50.156">  1  4  2 -1</clus>
<clus scale="   59.777">  3  6 -1 -1</clus>
<clus scale="  126.574">  2  5  1 -1</clus>
<clus scale="   50.156">  1  3  2 -1</clus>
</clustering>
</event>
<event>
 6    0  0.8610502E+002  0.1585903E+03  0.7546771E-02  0.1190297E+00
         21   -1    0    0  505  501  0.00000000000E+00  0.00000000000E+00  0.10779176755E+03  0.10779176755E+03  0.00000000000E+00 0.  1.
         21   -1    0    0  504  502 -0.00000000000E+00 -0.00000000000E+00 -0.81959252476E+03  0.81959252476E+03  0.00000000000E+00 0.  1.
         21    1    1    2  503  501  0.54107767316E+01  0.42645265607E+02  0.65548848085E+02  0.78387158826E+02  0.00000000000E+00 0.  1.
         21    1    1    2  504  506 -0.29206892980E+01  0.85717843701E+02 -0.75698367079E+02  0.11439546290E+03  0.00000000000E+00 0.  1.
         21    1    1    2  505  502 -0.38465031939E+02 -0.15215108903E+03 -0.64254687876E+03  0.66143480705E+03  0.00000000000E+00 0.  1.
         21    1    1    2  506  503  0.35974944505E+02  0.23787979724E+02 -0.59104359459E+02  0.73166863528E+02  0.00000000000E+00 0. -1.
<scales pt_clust_3="42.98715" pt_clust_4="42.06807" pt_clust_5="145.69542" pt_clust_6="42.06807"></scales>
<clustering>
<clus scale="   42.987">  1  3  2 -1</clus>
<clus scale="   42.068">  4  6 -1 -1</clus>
<clus scale="  145.695">  2  5  1 -1</clus>
<clus scale="   42.987">  1  3  2 -1</clus>
</clustering>
</event>
<event>
 6    0  0.8610502E+002  0.9034450E+02  0.7546771E-02  0.1302020E+00
         21   -1    0    0  506  501  0.00000000000E+00  0.00000000000E+00  0.99676575467E+03  0.99676575467E+03  0.00000000000E+00 0.  1.
         21   -1    0    0  504  502 -0.00000000000E+00 -0.00000000000E+00 -0.69713739649E+02  0.69713739649E+02  0.00000000000E+00 0.  1.
         21    1    1    2  503  502  0.47630649566E+01 -0.40839692413E+02  0.70448004892E+02  0.81568919678E+02  0.00000000000E+00 0.  1.
         21    1    1    2  504  505  0.25475425276E+02  0.92122488554E+02  0.29507954620E+02  0.10003134297E+03  0.00000000000E+00 0.  1.
         21    1    1    2  505  501 -0.84837364691E+02 -0.67964357911E+02  0.78440745934E+02  0.13405030032E+03  0.00000000000E+00 0.  1.
         21    1    1    2  506  503  0.54598874458E+02  0.16681561770E+02  0.74865530958E+03  0.75082893135E+03  0.00000000000E+00 0.  1.
<scales pt_clust_3="41.11651" pt_clust_4="90.34450" pt_clust_5="14000.00000" pt_clust_6="56.96951"></scales>
<clustering>
<clus scale="   41.117">  2  3  1 -1</clus>
<clus scale="   56.970">  1  6  2 -1</clus>
<clus scale="   90.345">  2  4  1 -1</clus>
<clus scale="   56.970">  1  3  2 -1</clus>
</clustering>
</event>
<event>
 6    0  0.8610502E+002  0.3159626E+03  0.7546771E-02  0.1077523E+00
         21   -1    0    0  504  501  0.00000000000E+00  0.00000000000E+00  0.30716795748E+03  0.30716795748E+03  0.00000000000E+00 0. -1.
         21   -1    0    0  503  502 -0.00000000000E+00 -0.00000000000E+00 -0.24510756110E+04  0.24510756110E+04  0.00000000000E+00 0. -1.
         21    1    1    2  503  505  0.11412561679E+03  0.15128853532E+03 -0.19910040435E+04  0.20000024946E+04  0.00000000000E+00 0. -1.
         21    1    1    2  504  502 -0.16980281933E+03 -0.31029606856E+03  0.85586607371E+02  0.36392542503E+03  0.00000000000E+00 0. -1.
         21    1    1    2  505  506  0.34039597335E+02  0.23232446334E+03 -0.20141368783E+03  0.30935549793E+03  0.00000000000E+00 0. -1.
         21    1    1    2  506  501  0.21637605209E+02 -0.73316930094E+02 -0.37076529597E+02  0.84960150921E+02  0.00000000000E+00 0.  1.
<scales pt_clust_3="188.78665" pt_clust_4="315.96257" pt_clust_5="14000.00000" pt_clust_6="76.44317"></scales>
<clustering>
<clus scale="   76.443">  1  6  2 -1</clus>
<clus scale="  188.787">  2  3  1 -1</clus>
<clus scale="  315.963">  1  4  2 -1</clus>
<clus scale="   76.443">  1  3  2 -1</clus>
</clustering>
</event>
<event>
 6    0  0.8610502E+002  0.1721760E+03  0.7546771E-02  0.1175597E+00
         21   -1    0    0  502  501  0.00000000000E+00  0.00000000000E+00  0.81824417638E+03  0.81824417638E+03  0.00000000000E+00 0. -1.
         21   -1    0    0  504  502 -0.00000000000E+00 -0.00000000000E+00 -0.33952429452E+03  0.33952429452E+03  0.00000000000E+00 0. -1.
         21    1    1    2  503  501  0.61146820955E+02  0.11464680263E+02  0.28512177987E+03  0.29183009092E+03  0.00000000000E+00 0. -1.
         21    1    1    2  504  505  0.31475808540E+02 -0.17247313353E+03 -0.28158315486E+03  0.33170285108E+03  0.00000000000E+00 0. -1.
         21    1    1    2  505  506 -0.12462071422E+03  0.11463032790E+03  0.24882829839E+03  0.30097500987E+03  0.00000000000E+00 0.  1.
         21    1    1    2  506  503  0.31998084722E+02  0.46378125362E+02  0.22635295845E+03  0.23326051903E+03  0.00000000000E+00 0. -1.
<scales pt_clust_3="118.80127" pt_clust_4="172.17597" pt_clust_5="14000.00000" pt_clust_6="43.52809"></scales>
<clustering>
<clus scale="   43.528">  3  6 -1 -1</clus>
<clus scale="  118.801">  1  3  2 -1</clus>
<clus scale="  172.176">  2  4  1 -1</clus>
<clus scale="  118.801">  1  3  2 -1</clus>
</clustering>
</event>
<event>
 6    0  0.8610502E+002  0.7551871E+02  0.7546771E-02  0.1342272E+00
         21   -1    0    0  505  501  0.00000000000E+00  0.00000000000E+00  0.64379826641E+03  0.64379826641E+03  0.00000000000E+00 0. -1.
         21   -1    0    0  506  502 -0.00000000000E+00 -0.00000000000E+00 -0.28656260788E+03  0.28656260788E+03  0.00000000000E+00 0.  1.
         21    1    1    2  503  504 -0.46294577364E+02 -0.95822217895E+02  0.21490662344E+02  0.10856764667E+03  0.00000000000E+00 0.  1.
         21    1    1    2  504  501  0.39936954284E+01  0.31108840960E+02  0.54115463100E+03  0.54206276781E+03  0.00000000000E+00 0. -1.
         21    1    1    2  505  502 -0.23485962806E+02  0.30008504456E+02  0.19524833736E+02  0.42817285307E+02  0.00000000000E+00 0. -1.
         21    1    1    2  506  503  0.65786844742E+02  0.34704872479E+02 -0.22493446855E+03  0.23691317451E+03  0.00000000000E+00 0.  1.
<scales pt_clust_3="14000.00000" pt_clust_4="31.36414" pt_clust_5="45.34226" pt_clust_6="75.51871"></scales>
<clustering>
<clus scale="   31.364">  1  4  2 -1</clus>
<clus scale="   45.342">  1  5  2 -1</clus>
<clus scale="   75.519">  2  6  1 -1</clus>
<clus scale="   31.364">  1  3  2 -1</clus>
</clustering>
</event>
<event>
 6    0  0.8610502E+002  0.7354026E+02  0.7546771E-02  0.1348452E+00
         21   -1    0    0  504  501  0.00000000000E+00  0.00000000000E+00  0.25381186408E+02  0.25381186408E+02  0.00000000000E+00 0.  1.
         21   -1    0    0  506  502 -0.00000000000E+00 -0.00000000000E+00 -0.11181355746E+04  0.11181355746E+04  0.00000000000E+00 0. -1.
         21    1    1    2  503  505  0.90846205216E+02 -0.41360823571E+02 -0.12357641033E+03  0.15885490209E+03  0.00000000000E+00 0.  1.
         21    1    1    2  504  502 -0.19916064936E+02  0.42875374464E+02 -0.42436359258E+03  0.42698876576E+03  0.00000000000E+00 0. -1.
         21    1    1    2  505  501 -0.13354565284E+02  0.40705139073E+02 -0.13341121844E+03  0.14012068358E+03  0.00000000000E+00 0. -1.
         21    1    1    2  506  503 -0.57575574996E+02 -0.42219689966E+02 -0.41140316686E+03  0.41755240960E+03  0.00000000000E+00 0. -1.
<scales pt_clust_3="14000.00000" pt_clust_4="49.81132" pt_clust_5="42.83985" pt_clust_6="73.54026"></scales>
<clustering>
<clus scale="   42.840">  1  5  2 -1</clus>
<clus scale="   49.811">  2  4  1 -1</clus>
<clus scale="   73.540">  2  6  1 -1</clus>
<clus scale="   42.840">  1  3  2 -1</clus>
</clustering>
</event>
<event>
 6    0  0.8610502E+002  0.1079352E+03  0.7546771E-02  0.1264442E+00
         21   -1    0    0  504  501  0.00000000000E+00  0.00000000000E+00  0.21425824179E+03  0.21425824179E+03  0.00000000000E+00 0.  1.
         21   -1    0    0  503  502 -0.00000000000E+00 -0.00000000000E+00 -0.69450970119E+03  0.69450970119E+03  0.00000000000E+00 0. -1.
         21    1    1    2  503  505 -0.28494831937E+02 -0.31857694778E+02  0.47977743256E+01  0.43010310417E+02  0.00000000000E+00 0.  1.
         21    1    1    2  504  506 -0.87473341898E+02  0.82226338163E+02 -0.33394600439E+00  0.12005360365E+03  0.00000000000E+00 0.  1.
         21    1    1    2  505  501  0.85788751379E+02 -0.58946036170E+02  0.10925793362E+03  0.15090275379E+03  0.00000000000E+00 0.  1.
         21    1    1    2  506  502  0.30179422456E+02  0.85773927854E+01 -0.59397322134E+03  0.59480127512E+03  0.00000000000E+00 0. -1.
<scales pt_clust_3="37.81818" pt_clust_4="107.93524" pt_clust_5="14000.00000" pt_clust_6="31.37466"></scales>
<clustering>
<clus scale="   31.375">  2  6  1 -1</clus>
<clus scale="   37.818">  2  3  1 -1</clus>
<clus scale="  107.935">  2  4  1 -1</clus>
<clus scale="  107.935">  1  3  2 -1</clus>
</clustering>
</event>
<event>
 6    0  0.8610502E+002  0.7620075E+02  0.7546771E-02  0.1340193E+00
         21   -1    0    0  506  501  0.00000000000E+00  0.00000000000E+00  0.17590689895E+03  0.17590689895E+03  0.00000000000E+00 0. -1.
         21   -1    0    0  503  502 -0.00000000000E+00 -0.00000000000E+00 -0.15714461645E+03  0.15714461645E+03  0.00000000000E+00 0.  1.
         21    1    1    2  503  504 -0.50606829278E+02  0.32217289430E+02 -0.13066301315E+02  0.61398152560E+02  0.00000000000E+00 0. -1.
         21    1    1    2  504  501 -0.32930783908E+02 -0.12000926431E+02  0.81171436943E+02  0.88415275487E+02  0.00000000000E+00 0. -1.
         21    1    1    2  505  502  0.10728716833E+03  0.36892423792E+02 -0.41894094067E+02  0.12094090516E+03  0.00000000000E+00 0.  1.
         21    1    1    2  506  505 -0.23749555148E+02 -0.57108786791E+02 -0.74487590667E+01  0.62297182200E+02  0.00000000000E+00 0. -1.
<scales pt_clust_3="66.06320" pt_clust_4="35.04938" pt_clust_5="76.20075" pt_clust_6="14000.00000"></scales>
<clustering>
<clus scale="   35.049">  1  4  2 -1</clus>
<clus scale="   66.063">  2  3  1 -1</clus>
<clus scale="   76.201">  2  5  1 -1</clus>
<clus scale="   35.049">  1  3  2 -1</clus>
</clustering>
</event>
<event>
 6    0  0.8610502E+002  0.1160432E+03  0.7546771E-02  0.1249771E+00
         21   -1    0    0  506  501  0.00000000000E+00  0.00000000000E+00  0.68841436924E+03  0.68841436924E+03  0.00000000000E+00 0. -1.
         21   -1    0    0  505  502 -0.00000000000E+00 -0.00000000000E+00 -0.17814432288E+03  0.17814432288E+03  0.00000000000E+00 0. -1.
         21    1    1    2  503  501 -0.65341909416E+02  0.81124398496E+02  0.63562287600E+03  0.64410183485E+03  0.00000000000E+00 0. -1.
         21    1    1    2  504  503  0.49002990308E+02 -0.48988200463E+02 -0.31746728435E+02  0.76216741009E+02  0.00000000000E+00 0. -1.
         21    1    1    2  505  504  0.32275852358E+02 -0.60769923711E+02 -0.89973494347E+02  0.11326934253E+03  0.00000000000E+00 0. -1.
         21    1    1    2  506  502 -0.15936933250E+02  0.28633725677E+02 -0.36326068651E+01  0.32970773728E+02  0.00000000000E+00 0. -1.
<scales pt_clust_3="105.02356" pt_clust_4="44.61354" pt_clust_5="44.61354" pt_clust_6="32.77005"></scales>
<clustering>
<clus scale="   32.770">  2  6  1 -1</clus>
<clus scale="   44.614">  4  5 -1 -1</clus>
<clus scale="  105.024">  1  3  2 -1</clus>
<clus scale="  105.024">  1  3  2 -1</clus>
</clustering>
</event>
<event>
 6    0  0.8610502E+002  0.1611172E+03  0.7546771E-02  0.1187441E+00
         21   -1    0    0  506  501  0.00000000000E+00  0.00000000000E+00  0.70894232511E+03  0.70894232511E+03  0.00000000000E+00 0.  1.
         21   -1    0    0  505  502 -0.00000000000E+00 -0.00000000000E+00 -0.99233630839E+03  0.99233630839E+03  0.00000000000E+00 0.  1.
         21    1    1    2  503  501  0.67003534254E+02  0.14804941197E+03  0.68424578134E+03  0.70327831708E+03  0.00000000000E+00 0.  1.
         21    1    1    2  504  503 -0.50589393875E+02 -0.96789575603E+02 -0.34854400379E+03  0.36525392715E+03  0.00000000000E+00 0.  1.
         21    1    1    2  505  504 -0.54376719660E+02  0.23384842178E+01 -0.16064455271E+03  0.16961417531E+03  0.00000000000E+00 0.  1.
         21    1    1    2  506  502  0.37962579281E+02 -0.53598320588E+02 -0.45845120811E+03  0.46313221397E+03  0.00000000000E+00 0.  1.
<scales pt_clust_3="161.11716" pt_clust_4="14000.00000" pt_clust_5="54.42698" pt_clust_6="52.85548"></scales>
<clustering>
<clus scale="   54.427">  2  5  1 -1</clus>
<clus scale="   52.855">  2  6  1 -1</clus>
<clus scale="  161.117">  1  3  2 -1</clus>
<clus scale="  161.117">  1  3  2 -1</clus>
</clustering>
</event>
<event>
 6    0  0.8610502E+002  0.8828693E+02  0.7546771E-02  0.1307054E+00
         21   -1    0    0  505  501  0.00000000000E+00  0.00000000000E+00  0.30296609489E+02  0.30296609489E+02  0.00000000000E+00 0. -1.
         21   -1    0    0  503  502 -0.00000000000E+00 -0.00000000000E+00 -0.14556124192E+04  0.14556124192E+04  0.00000000000E+00 0. -1.
         21    1    1    2  503  506 -0.25835630395E+02 -0.31392040529E+02 -0.11383422203E+03  0.12087667315E+03  0.00000000000E+00 0.  1.
         21    1    1    2  504  502 -0.59369653270E+02 -0.59746375268E+02 -0.87077259682E+03  0.87483672789E+03  0.00000000000E+00 0. -1.
         21    1    1    2  505  504  0.79381716676E+02  0.60709925382E+02 -0.44746321607E+03  0.45848716636E+03  0.00000000000E+00 0. -1.
         21    1    1    2  506  501  0.58235669892E+01  0.30428490415E+02  0.67542251809E+01  0.31708461319E+02  0.00000000000E+00 0. -1.
<scales pt_clust_3="32.34868" pt_clust_4="88.28693" pt_clust_5="14000.00000" pt_clust_6="30.98075"></scales>
<clustering>
<clus scale="   30.981">  1  6  2 -1</clus>
<clus scale="   32.349">  1  3  2 -1</clus>
<clus scale="   88.287">  2  4  1 -1</clus>
<clus scale="   30.981">  1  3  2 -1</clus>
</clustering>
</event>
<event>
 6    0  0.8610502E+002  0.1347278E+03  0.7546771E-02  0.1220604E+00
         21   -1    0    0  503  501  0.00000000000E+00  0.00000000000E+00  0.15076077093E+04  0.15076077093E+04  0.00000000000E+00 0. -1.
         21   -1    0    0  506  502 -0.00000000000E+00 -0.00000000000E+00 -0.48695031819E+02  0.48695031819E+02  0.00000000000E+00 0.  1.
         21    1    1    2  503  505 -0.34589848253E+02 -0.62725133787E+02  0.82171522840E+03  0.82483138676E+03  0.00000000000E+00 0. -1.
         21    1    1    2  504  501  0.50942551249E+02  0.51868194285E+02  0.24248607988E+03  0.25315005834E+03  0.00000000000E+00 0. -1.
         21    1    1    2  505  502 -0.27521416914E+02 -0.12787817640E+03  0.20006695572E+03  0.23903356074E+03  0.00000000000E+00 0. -1.
         21    1    1    2  506  504  0.11168713918E+02  0.13873511590E+03  0.19464441354E+03  0.23928773532E+03  0.00000000000E+00 0.  1.
<scales pt_clust_3="71.63030" pt_clust_4="48.22612" pt_clust_5="134.72784" pt_clust_6="14000.00000"></scales>
<clustering>
<clus scale="   71.630">  1  3  2 -1</clus>
<clus scale="   48.226">  1  4  2 -1</clus>
<clus scale="  134.728">  1  5  2 -1</clus>
<clus scale="   71.630">  1  3  2 -1</clus>
</clustering>
</event>
<event>
 6    0  0.8610502E+002  0.8902484E+02  0.7546771E-02  0.1305231E+00
         21   -1    0    0  504  501  0.00000000000E+00  0.00000000000E+00  0.23205320799E+03  0.23205320799E+03  0.00000000000E+00 0.  1.
         21   -1    0    0  503  502 -0.00000000000E+00 -0.00000000000E+00 -0.73955807554E+03  0.73955807554E+03  0.00000000000E+00 0.  1.
         21    1    1    2  503  506  0.10518587931E+03 -0.26348201849E+02 -0.83164272588E+02  0.13665501521E+03  0.00000000000E+00 0.  1.
         21    1    1    2  504  505 -0.61196383276E+02  0.15544533714E+02  0.97802231153E+02  0.11641265512E+03  0.00000000000E+00 0.  1.
         21    1    1    2  505  502 -0.82194113388E+02 -0.33998881671E+02 -0.60798038556E+03  0.61445255753E+03  0.00000000000E+00 0.  1.
         21    1    1    2  506  501  0.38204617353E+02  0.44802549807E+02  0.85837559450E+02  0.10409105566E+03  0.00000000000E+00 0.  1.
<scales pt_clust_3="89.02484" pt_clust_4="59.47956" pt_clust_5="14000.00000" pt_clust_6="58.88006"></scales>
<clustering>
<clus scale="   58.880">  1  6  2 -1</clus>
<clus scale="   59.480">  1  4  2 -1</clus>
<clus scale="   89.025">  1  3  2 -1</clus>
<clus scale="   58.880">  1  3  2 -1</clus>
</clustering>
</event>
<event>
 6    0  0.8610502E+002  0.9181766E+02  0.7546771E-02  0.1298509E+00
         21   -1    0    0  506  501  0.00000000000E+00  0.00000000000E+00  0.12735443898E+04  0.12735443898E+04  0.00000000000E+00 0.  1.
         21   -1    0    0  503  502 -0.00000000000E+00 -0.00000000000E+00 -0.67793074504E+02  0.67793074504E+02  0.00000000000E+00 0.  1.
         21    1    1    2  503  501  0.48376135781E+02  0.36901290662E+02 -0.21028110010E+02  0.64374973213E+02  0.00000000000E+00 0.  1.
         21    1    1    2  504  502 -0.65164961716E+02 -0.27792214680E+02  0.51051711138E+02  0.87322142910E+02  0.00000000000E+00 0.  1.
         21    1    1    2  505  504 -0.50573637768E+02  0.60777466460E+01  0.10515207601E+03  0.11684002281E+03  0.00000000000E+00 0.  1.
         21    1    1    2  506  505  0.67362463704E+02 -0.15186822628E+02  0.10705756382E+04  0.10728003254E+04  0.00000000000E+00 0.  1.
<scales pt_clust_3="60.84370" pt_clust_4="49.55670" pt_clust_5="49.55670" pt_clust_6="70.81566"></scales>
<clustering>
<clus scale="   49.557">  4  5 -1 -1</clus>
<clus scale="   60.844">  2  3  1 -1</clus>
<clus scale="   70.816">  1  6  2 -1</clus>
<clus scale="   70.816">  1  3  2 -1</clus>
</clustering>
</event>
<event>
 6    0  0.8610502E+002  0.1832551E+03  0.7546771E-02  0.1164689E+00
         21   -1    0    0  505  501  0.00000000000E+00  0.00000000000E+00  0.12527548479E+04  0.12527548479E+04  0.00000000000E+00 0. -1.
         21   -1    0    0  503  502 -0.00000000000E+00 -0.00000000000E+00 -0.11932106927E+03  0.11932106927E+03  0.00000000000E+00 0.  1.
         21    1    1    2  503  501 -0.20165436725E+02  0.31111637441E+02  0.16311578776E+02  0.40504893837E+02  0.00000000000E+00 0. -1.
         21    1    1    2  504  502 -0.10798852386E+03 -0.90944030948E+01 -0.48429613375E+02  0.11869986059E+03  0.00000000000E+00 0.  1.
         21    1    1    2  505  506  0.17496760727E+03 -0.20640129937E+02  0.11501562606E+04  0.11635717006E+04  0.00000000000E+00 0. -1.
         21    1    1    2  506  504 -0.46813646686E+02 -0.13771044091E+01  0.15395552674E+02  0.49299462216E+02  0.00000000000E+00 0. -1.
<scales pt_clust_3="37.07531" pt_clust_4="36.36010" pt_clust_5="174.70910" pt_clust_6="36.36010"></scales>
<clustering>
<clus scale="   36.360">  4  6 -1 -1</clus>
<clus scale="   37.075">  2  3  1 -1</clus>
<clus scale="  174.709">  1  5  2 -1</clus>
<clus scale="  174.709">  1  3  2 -1</clus>
</clustering>
</event>
<event>
 6    0  0.8610502E+002  0.2415824E+03  0.7546771E-02  0.1118743E+00
         21   -1    0    0  504  501  0.00000000000E+00  0.00000000000E+00  0.64472650320E+03  0.64472650320E+03  0.00000000000E+00 0.  1.
         21   -1    0    0  505  502 -0.00000000000E+00 -0.00000000000E+00 -0.53662764918E+03  0.53662764918E+03  0.00000000000E+00 0. -1.
         21    1    1    2  503  502  0.17951402986E+03  0.15278362461E+03 -0.47763317848E+03  0.53263643891E+03  0.00000000000E+00 0. -1.
         21    1    1    2  504  506 -0.95989462927E+02 -0.13452638328E+03  0.43382110359E+03  0.46423278074E+03  0.00000000000E+00 0.  1.
         21    1    1    2  505  501 -0.31461455478E+02  0.31033241180E+00  0.11352359448E+02  0.33448401337E+02  0.00000000000E+00 0.  1.
         21    1    1    2  506  503 -0.52063111453E+02 -0.18567573747E+02  0.14055856947E+03  0.15103653141E+03  0.00000000000E+00 0.  1.
<scales pt_clust_3="234.68080" pt_clust_4="33.78647" pt_clust_5="31.46299" pt_clust_6="33.78647"></scales>
<clustering>
<clus scale="   31.463">  1  5  2 -1</clus>
<clus scale="   33.786">  4  6 -1 -1</clus>
<clus scale="  234.681">  2  3  1 -1</clus>
<clus scale="   31.463">  1  3  2 -1</clus>
</clustering>
</event>
<event>
 6    0  0.8610502E+002  0.1052389E+03  0.7546771E-02  0.1269650E+00
         21   -1    0    0  503  501  0.00000000000E+00  0.00000000000E+00  0.23244730861E+03  0.23244730861E+03  0.00000000000E+00 0. -1.
         21   -1    0    0  506  502 -0.00000000000E+00 -0.00000000000E+00 -0.11318548539E+04  0.11318548539E+04  0.00000000000E+00 0.  1.
         21    1    1    2  503  502  0.35518243258E+02  0.18292168160E+02 -0.20160202466E+03  0.20552256656E+03  0.00000000000E+00 0.  1.
         21    1    1    2  504  505 -0.32504581522E+02  0.66063398839E+02 -0.26525586499E+03  0.27528456985E+03  0.00000000000E+00 0.  1.
         21    1    1    2  505  501 -0.41136380724E+02 -0.99769130189E+02  0.21186676046E+03  0.23776796535E+03  0.00000000000E+00 0. -1.
         21    1    1    2  506  504  0.38122718988E+02  0.15413563190E+02 -0.64441641612E+03  0.64572706076E+03  0.00000000000E+00 0.  1.
<scales pt_clust_3="39.95183" pt_clust_4="105.23888" pt_clust_5="14000.00000" pt_clust_6="68.81422"></scales>
<clustering>
<clus scale="   39.952">  2  3  1 -1</clus>
<clus scale="   68.814">  2  6  1 -1</clus>
<clus scale="  105.239">  2  4  1 -1</clus>
<clus scale="  105.239">  1  3  2 -1</clus>
</clustering>
</event>
<event>
 6    0  0.8610502E+002  0.1531220E+03  0.7546771E-02  0.1196688E+00
         21   -1    0    0  503  501  0.00000000000E+00  0.00000000000E+00  0.42380346000E+02  0.42380346000E+02  0.00000000000E+00 0. -1.
         21   -1    0    0  506  502 -0.00000000000E+00 -0.00000000000E+00 -0.37265584344E+04  0.37265584344E+04  0.00000000000E+00 0. -1.
         21    1    1    2  503  502  0.17066186313E+02 -0.28756960559E+02 -0.25633174015E+03  0.25850373015E+03  0.00000000000E+00 0. -1.
         21    1    1    2  504  505 -0.12487847533E+03 -0.11186189715E+03 -0.23211970058E+04  0.23272437039E+04  0.00000000000E+00 0. -1.
         21    1    1    2  505  501  0.51179484824E+02  0.14465097219E+03 -0.11968776470E+03  0.19459805868E+03  0.00000000000E+00 0. -1.
         21    1    1    2  506  504  0.56632804189E+02 -0.40321144763E+01 -0.98696157775E+03  0.98859328767E+03  0.00000000000E+00 0. -1.
<scales pt_clust_3="33.43976" pt_clust_4="14000.00000" pt_clust_5="153.12198" pt_clust_6="62.69459"></scales>
<clustering>
<clus scale="   33.440">  2  3  1 -1</clus>
<clus scale="   62.695">  2  6  1 -1</clus>
<clus scale="  153.122">  1  5  2 -1</clus>
<clus scale="  153.122">  1  3  2 -1</clus>
</clustering>
</event>
<event>
 6    0  0.8610502E+002  0.3164113E+03  0.7546771E-02  0.1077313E+00
         21   -1    0    0  505  501  0.00000000000E+00  0.00000000000E+00  0.18253741809E+03  0.18253741809E+03  0.00000000000E+00 0.  1.
         21   -1    0    0  506  502 -0.00000000000E+00 -0.00000000000E+00 -0.12268045954E+04  0.12268045954E+04  0.00000000000E+00 0.  1.
         21    1    1    2  503  504 -0.80309446354E+02 -0.24813185968E+03 -0.10865081171E+03  0.28253145992E+03  0.00000000000E+00 0.  1.
         21    1    1    2  504  502 -0.60049837325E+02 -0.41641424643E+02 -0.15778837923E+02  0.74759366873E+02  0.00000000000E+00 0.  1.
         21    1    1    2  505  503 -0.28651545707E+02  0.42606220296E+02  0.27692756052E+02  0.58336007895E+02  0.00000000000E+00 0.  1.
         21    1    1    2  506  501  0.16901082939E+03  0.24716706402E+03 -0.94753028371E+03  0.99371517878E+03  0.00000000000E+00 0.  1.
<scales pt_clust_3="48.81546" pt_clust_4="48.81546" pt_clust_5="51.34395" pt_clust_6="302.67378"></scales>
<clustering>
<clus scale="   48.815">  3  4 -1 -1</clus>
<clus scale="   51.344">  1  5  2 -1</clus>
<clus scale="  302.674">  2  6  1 -1</clus>
<clus scale="   51.344">  1  3  2 -1</clus>
</clustering>
</event>
<event>
 6    0  0.8610502E+002  0.1117505E+03  0.7546771E-02  0.1257362E+00
         21   -1    0    0  506  501  0.00000000000E+00  0.00000000000E+00  0.61807103260E+02  0.61807103260E+02  0.00000000000E+00 0. -1.
         21   -1    0    0  503  502 -0.00000000000E+00 -0.00000000000E+00 -0.48702503492E+03  0.48702503492E+03  0.00000000000E+00 0. -1.
         21    1    1    2  503  501  0.14478810534E+02  0.11836769341E+03 -0.19741440898E+03  0.23063606759E+03  0.00000000000E+00 0. -1.
         21    1    1    2  504  502 -0.41930077584E+02 -0.98217248097E+02 -0.16452238196E+03  0.19614375696E+03  0.00000000000E+00 0. -1.
         21    1    1    2  505  504  0.28061025520E+02 -0.57681080775E+02 -0.52800984407E+02  0.83081118113E+02  0.00000000000E+00 0. -1.
         21    1    1    2  506  505 -0.60975847000E+00  0.37530635458E+02 -0.10480156308E+02  0.38971195511E+02  0.00000000000E+00 0.  1.
<scales pt_clust_3="111.75053" pt_clust_4="14000.00000" pt_clust_5="53.55535" pt_clust_6="37.53559"></scales>
<clustering>
<clus scale="   37.536">  1  6  2 -1</clus>
<clus scale="   53.555">  1  5  2 -1</clus>
<clus scale="  111.751">  1  3  2 -1</clus>
<clus scale="   37.536">  1  3  2 -1</clus>
</clustering>
</event>
<event>
 6    0  0.8610502E+002  0.8959832E+02  0.7546771E-02  0.1303827E+00
         21   -1    0    0  504  501  0.00000000000E+00  0.00000000000E+00  0.35805279926E+02  0.35805279926E+02  0.00000000000E+00 0.  1.
         21   -1    0    0  503  502 -0.00000000000E+00 -0.00000000000E+00 -0.16096616586E+04  0.16096616586E+04  0.00000000000E+00 0.  1.
         21    1    1    2  503  505  0.45290922751E+02 -0.38726160857E+01 -0.60553863949E+02  0.75716809746E+02  0.00000000000E+00 0.  1.
         21    1    1    2  504  506  0.65409314538E+02  0.50019590549E+02 -0.34314996072E+03  0.35289124870E+03  0.00000000000E+00 0.  1.
         21    1    1    2  505  501 -0.17037656933E+02 -0.29313836967E+02  0.80266879414E+01  0.34842653613E+02  0.00000000000E+00 0.  1.
         21    1    1    2  506  502 -0.93662580356E+02 -0.16833137496E+02 -0.11781792420E+04  0.11820162265E+04  0.00000000000E+00 0.  1.
<scales pt_clust_3="41.13161" pt_clust_4="89.59832" pt_clust_5="33.90550" pt_clust_6="14000.00000"></scales>
<clustering>
<clus scale="   33.905">  1  5  2 -1</clus>
<clus scale="   41.132">  1  3  2 -1</clus>
<clus scale="   89.598">  1  4  2 -1</clus>
<clus scale="   33.905">  1  3  2 -1</clus>
</clustering>
</event>
<event>
 6    0  0.8610502E+002  0.6857215E+02  0.7546771E-02  0.1365017E+00
         21   -1    0    0  503  501  0.00000000000E+00  0.00000000000E+00  0.69257633071E+03  0.69257633071E+03  0.00000000000E+00 0. -1.
         21   -1    0    0  504  502 -0.00000000000E+00 -0.00000000000E+00 -0.24926459350E+03  0.24926459350E+03  0.00000000000E+00 0. -1.
         21    1    1    2  503  505  0.34440576594E+02  0.28740143176E+02  0.41689383325E+02  0.61238499556E+02  0.00000000000E+00 0.  1.
         21    1    1    2  504  506  0.68746038917E+02 -0.63576255829E+02 -0.20594224566E+03  0.22623033996E+03  0.00000000000E+00 0. -1.
         21    1    1    2  505  502 -0.38827293832E+01  0.51627351012E+02  0.15846185876E+02  0.54143887622E+02  0.00000000000E+00 0.  1.
         21    1    1    2  506  501 -0.99303886128E+02 -0.16791238359E+02  0.59171841366E+03  0.60022819707E+03  0.00000000000E+00 0. -1.
<scales pt_clust_3="44.85699" pt_clust_4="68.57215" pt_clust_5="53.23382" pt_clust_6="14000.00000"></scales>
<clustering>
<clus scale="   44.857">  1  3  2 -1</clus>
<clus scale="   53.234">  2  5  1 -1</clus>
<clus scale="   68.572">  2  4  1 -1</clus>
<clus scale="   44.857">  1  3  2 -1</clus>
</clustering>
</event>
<event>
 6    0  0.8610502E+002  0.1560966E+03  0.7546771E-02  0.1193175E+00
         21   -1    0    0  503  501  0.00000000000E+00  0.00000000000E+00  0.29277149250E+04  0.29277149250E+04  0.00000000000E+00 0. -1.
         21   -1    0    0  506  502 -0.00000000000E+00 -0.00000000000E+00 -0.96726789893E+03  0.96726789893E+03  0.00000000000E+00 0. -1.
         21    1    1    2  503  504 -0.59300561494E+02  0.26352689817E+01  0.29020056834E+04  0.29026127002E+04  0.00000000000E+00 0. -1.
         21    1    1    2  504  502 -0.55315837325E+02  0.12093756371E+03 -0.45613843325E+03  0.47512946284E+03  0.00000000000E+00 0. -1.
         21    1    1    2  505  501  0.32991373221E+02 -0.76559746993E+02 -0.20001989485E+03  0.21669744784E+03  0.00000000000E+00 0. -1.
         21    1    1    2  506  505  0.81625025598E+02 -0.47013085699E+02 -0.28540032915E+03  0.30054321305E+03  0.00000000000E+00 0. -1.
<scales pt_clust_3="59.35909" pt_clust_4="144.45831" pt_clust_5="55.63957" pt_clust_6="55.63957"></scales>
<clustering>
<clus scale="   55.640">  5  6 -1 -1</clus>
<clus scale="   59.359">  1  3  2 -1</clus>
<clus scale="  144.458">  2  4  1 -1</clus>
<clus scale="   59.359">  1  3  2 -1</clus>
</clustering>
</event>
<event>
 6    0  0.8610502E+002  0.2141087E+03  0.7546771E-02  0.1138353E+00
         21   -1    0    0  506  501  0.00000000000E+00  0.00000000000E+00  0.53640204670E+03  0.53640204670E+03  0.00000000000E+00 0. -1.
         21   -1    0    0  504  502 -0.00000000000E+00 -0.00000000000E+00 -0.82627367504E+03  0.82627367504E+03  0.00000000000E+00 0. -1.
         21    1    1    2  503  505  0.12746645434E+03 -0.49855564612E+02 -0.23120933971E+03  0.26868389061E+03  0.00000000000E+00 0. -1.
         21    1    1    2  504  503  0.54730536780E+02 -0.53918335633E+02 -0.22965748376E+03  0.24216766592E+03  0.00000000000E+00 0. -1.
         21    1    1    2  505  501 -0.81504420879E+02 -0.84074191196E+02  0.47014869358E+03  0.48451133560E+03  0.00000000000E+00 0. -1.
         21    1    1    2  506  502 -0.10069257024E+03  0.18784809144E+03 -0.29915349845E+03  0.36731282961E+03  0.00000000000E+00 0. -1.
<scales pt_clust_3="50.84927" pt_clust_4="50.84927" pt_clust_5="117.09586" pt_clust_6="203.06700"></scales>
<clustering>
<clus scale="   50.849">  3  4 -1 -1</clus>
<clus scale="  117.096">  1  5  2 -1</clus>
<clus scale="  203.067">  1  6  2 -1</clus>
<clus scale="  117.096">  1  3  2 -1</clus>
</clustering>
</event>
<event>
 6    0  0.8610502E+002  0.8488699E+02  0.7546771E-02  0.1315728E+00
         21   -1    0    0  506  501  0.00000000000E+00  0.00000000000E+00  0.78839299396E+02  0.78839299396E+02  0.00000000000E+00 0. -1.
         21   -1    0    0  503  502 -0.00000000000E+00 -0.00000000000E+00 -0.13776827090E+04  0.13776827090E+04  0.00000000000E+00 0.  1.
         21    1    1    2  503  505  0.81134533601E+02 -0.19607179651E+02 -0.11047119685E+04  0.11078609061E+04  0.00000000000E+00 0.  1.
         21    1    1    2  504  501 -0.41317057197E+02 -0.27592396796E+02 -0.29521981005E+02  0.57792620107E+02  0.00000000000E+00 0. -1.
         21    1    1    2  505  504  0.75539610499E+02 -0.29619441666E+02 -0.12078945852E+03  0.14551163997E+03  0.00000000000E+00 0.  1.
         21    1    1    2  506  502 -0.11535708690E+03  0.76819018114E+02 -0.43820001671E+02  0.14535684225E+03  0.00000000000E+00 0. -1.
<scales pt_clust_3="14000.00000" pt_clust_4="49.68339" pt_clust_5="76.11434" pt_clust_6="84.88699"></scales>
<clustering>
<clus scale="   49.683">  1  4  2 -1</clus>
<clus scale="   76.114">  1  5  2 -1</clus>
<clus scale="   84.887">  1  6  2 -1</clus>
<clus scale="   49.683">  1  3  2 -1</clus>
</clustering>
</event>
<event>
 6    0  0.8610502E+002  0.1434406E+03  0.7546771E-02  0.1208773E+00
         21   -1    0    0  505  501  0.00000000000E+00  0.00000000000E+00  0.57829281200E+03  0.57829281200E+03  0.00000000000E+00 0. -1.
         21   -1    0    0  506  502 -0.00000000000E+00 -0.00000000000E+00 -0.65229885779E+03  0.65229885779E+03  0.00000000000E+00 0. -1.
         21    1    1    2  503  501 -0.13626450001E+03  0.17838571860E+02  0.54758755468E+03  0.56456917969E+03  0.00000000000E+00 0. -1.
         21    1    1    2  504  503  0.60183857926E+02 -0.30545448789E+02 -0.26402812024E+03  0.27251783331E+03  0.00000000000E+00 0.  1.
         21    1    1    2  505  502  0.36995646514E+02  0.23195411690E+02 -0.11599891727E+02  0.45180332806E+02  0.00000000000E+00 0. -1.
         21    1    1    2  506  504  0.39084995571E+02 -0.10488534761E+02 -0.34596558852E+03  0.34832432398E+03  0.00000000000E+00 0. -1.
<scales pt_clust_3="136.96946" pt_clust_4="32.98500" pt_clust_5="43.66583" pt_clust_6="32.98500"></scales>
<clustering>
<clus scale="   32.985">  4  6 -1 -1</clus>
<clus scale="   43.666">  2  5  1 -1</clus>
<clus scale="  136.969">  1  3  2 -1</clus>
<clus scale="  136.969">  1  3  2 -1</clus>
</clustering>
</event>
<event>
 6    0  0.8610502E+002  0.2029664E+03  0.7546771E-02  0.1147260E+00
         21   -1    0    0  503  501  0.00000000000E+00  0.00000000000E+00  0.10435733194E+03  0.10435733194E+03  0.00000000000E+00 0. -1.
         21   -1    0    0  505  502 -0.00000000000E+00 -0.00000000000E+00 -0.16584982878E+04  0.16584982878E+04  0.00000000000E+00 0. -1.
         21    1    1    2  503  506 -0.76554027806E+01  0.59813622190E+02  0.99282428095E+01  0.61113374940E+02  0.00000000000E+00 0. -1.
         21    1    1    2  504  502 -0.53001883594E+01 -0.34202102265E+02 -0.89915949374E+02  0.96347048464E+02  0.00000000000E+00 0. -1.
         21    1    1    2  505  501 -0.70772638002E+02 -0.14118532653E+03 -0.14524830430E+04  0.14610438231E+04  0.00000000000E+00 0. -1.
         21    1    1    2  506  504  0.83728229142E+02  0.11557380660E+03 -0.21670206315E+02  0.14435137329E+03  0.00000000000E+00 0. -1.
<scales pt_clust_3="48.39762" pt_clust_4="34.61034" pt_clust_5="188.85256" pt_clust_6="48.39762"></scales>
<clustering>
<clus scale="   34.610">  2  4  1 -1</clus>
<clus scale="   48.398">  3  6 -1 -1</clus>
<clus scale="  188.853">  2  5  1 -1</clus>
<clus scale="  202.966">  1  3  2 -1</clus>
</clustering>
</event>
<event>
 6    0  0.8610502E+002  0.8932537E+02  0.7546771E-02  0.1304494E+00
         21   -1    0    0  503  501  0.00000000000E+00  0.00000000000E+00  0.21213760892E+03  0.21213760892E+03  0.00000000000E+00 0. -1.
         21   -1    0    0  504  502 -0.00000000000E+00 -0.00000000000E+00 -0.93845078256E+02  0.93845078256E+02  0.00000000000E+00 0. -1.
         21    1    1    2  503  502 -0.87305313849E+02 -0.50016775682E+02  0.20698529434E+02  0.10272450923E+03  0.00000000000E+00 0. -1.
         21    1    1    2  504  506 -0.18652207619E+02  0.23658798877E+02 -0.39062218254E+01  0.30379305166E+02  0.00000000000E+00 0. -1.
         21    1    1    2  505  501  0.45710771091E+02 -0.25366295809E+02  0.70202405851E+02  0.87528860064E+02  0.00000000000E+00 0. -1.
         21    1    1    2  506  505  0.60246750378E+02  0.51724272614E+02  0.31297817200E+02  0.85350012712E+02  0.00000000000E+00 0. -1.
<scales pt_clust_3="89.32537" pt_clust_4="30.12712" pt_clust_5="49.15627" pt_clust_6="14000.00000"></scales>
<clustering>
<clus scale="   30.127">  2  4  1 -1</clus>
<clus scale="   49.156">  1  5  2 -1</clus>
<clus scale="   89.325">  1  3  2 -1</clus>
<clus scale="   49.156">  1  3  2 -1</clus>
</clustering>
</event>
<event>
 6    0  0.8610502E+002  0.8179906E+02  0.7546771E-02  0.1324022E+00
         21   -1    0    0  505  501  0.00000000000E+00  0.00000000000E+00  0.11906236172E+03  0.11906236172E+03  0.00000000000E+00 0. -1.
         21   -1    0    0  506  502 -0.00000000000E+00 -0.00000000000E+00 -0.56999748671E+03  0.56999748671E+03  0.00000000000E+00 0. -1.
         21    1    1    2  503  502 -0.36917246376E+02 -0.27808886442E+02 -0.47217802254E+03  0.47443471860E+03  0.00000000000E+00 0. -1.
         21    1    1    2  504  503  0.35879676940E+02 -0.62358971235E+02  0.30663959960E+02  0.78206591482E+02  0.00000000000E+00 0. -1.
         21    1    1    2  505  504  0.43186741014E+02  0.95367481839E+01 -0.10385952257E+02  0.45430300127E+02  0.00000000000E+00 0. -1.
         21    1    1    2  506  501 -0.42149171578E+02  0.80631109493E+02  0.96488983945E+00  0.90988238224E+02  0.00000000000E+00 0. -1.
<scales pt_clust_3="45.77260" pt_clust_4="81.79906" pt_clust_5="44.22719" pt_clust_6="14000.00000"></scales>
<clustering>
<clus scale="   44.227">  1  5  2 -1</clus>
<clus scale="   45.773">  2  3  1 -1</clus>
<clus scale="   81.799">  1  4  2 -1</clus>
<clus scale="   44.227">  1  3  2 -1</clus>
</clustering>
</event>
<event>
 6    0  0.8610502E+002  0.6618944E+02  0.7546771E-02  0.1373552E+00
         21   -1    0    0  506  501  0.00000000000E+00  0.00000000000E+00  0.25837594886E+02  0.25837594886E+02  0.00000000000E+00 0. -1.
         21   -1    0    0  503  502 -0.00000000000E+00 -0.00000000000E+00 -0.92892615883E+03  0.92892615883E+03  0.00000000000E+00 0. -1.
         21    1    1    2  503  505  0.27185401653E+02 -0.48717149215E+02 -0.38909392688E+03  0.39307313649E+03  0.00000000000E+00 0. -1.
         21    1    1    2  504  502 -0.63153587599E+02  0.10182431827E+03 -0.34019050438E+03  0.36067457172E+03  0.00000000000E+00 0. -1.
         21    1    1    2  505  501  0.44368632640E+02 -0.44980166033E+01 -0.12001022628E+03  0.12802836454E+03  0.00000000000E+00 0. -1.
         21    1    1    2  506  504 -0.84004466932E+01 -0.48609152450E+02 -0.53793906403E+02  0.72987680965E+02  0.00000000000E+00 0. -1.
<scales pt_clust_3="14000.00000" pt_clust_4="66.18944" pt_clust_5="44.59605" pt_clust_6="51.79152"></scales>
<clustering>
<clus scale="   44.596">  1  5  2 -1</clus>
<clus scale="   51.792">  1  6  2 -1</clus>
<clus scale="   66.189">  1  4  2 -1</clus>
<clus scale="   44.596">  1  3  2 -1</clus>
</clustering>
</event>
<event>
 6    0  0.8610502E+002  0.1422038E+03  0.7546771E-02  0.1210394E+00
         21   -1    0    0  502  501  0.00000000000E+00  0.00000000000E+00  0.57524897086E+03  0.57524897086E+03  0.00000000000E+00 0. -1.
         21   -1    0    0  504  502 -0.00000000000E+00 -0.00000000000E+00 -0.50675770374E+03  0.50675770374E+03  0.00000000000E+00 0.  1.
         21    1    1    2  503  506  0.33190803135E+02  0.98334870634E+01 -0.40754843667E+02  0.53472274712E+02  0.00000000000E+00 0.  1.
         21    1    1    2  504  505 -0.41030332559E+02  0.39198853912E+02 -0.31456077304E+03  0.31963810517E+03  0.00000000000E+00 0.  1.
         21    1    1    2  505  503  0.22832924277E+02  0.83252539256E+02 -0.12067542898E+03  0.14837414493E+03  0.00000000000E+00 0.  1.
         21    1    1    2  506  501 -0.14993394853E+02 -0.13228488023E+03  0.54448231282E+03  0.56052214979E+03  0.00000000000E+00 0. -1.
<scales pt_clust_3="33.97503" pt_clust_4="56.74538" pt_clust_5="33.97503" pt_clust_6="131.69409"></scales>
<clustering>
<clus scale="   33.975">  3  5 -1 -1</clus>
<clus scale="   56.745">  2  4  1 -1</clus>
<clus scale="  131.694">  1  6  2 -1</clus>
<clus scale="  131.694">  1  3  2 -1</clus>
</clustering>
</event>
<event>
 6    0  0.8610502E+002  0.1376749E+03  0.7546771E-02  0.1216492E+00
         21   -1    0    0  503  501  0.00000000000E+00  0.00000000000E+00  0.20015802504E+03  0.20015802504E+03  0.00000000000E+00 0.  1.
         21   -1    0    0  505  502 -0.00000000000E+00 -0.00000000000E+00 -0.38689555899E+03  0.38689555899E+03  0.00000000000E+00 0.  1.
         21    1    1    2  503  506  0.32392649831E+01  0.42634422837E+02 -0.40568331396E+02  0.58940447577E+02  0.00000000000E+00 0.  1.
         21    1    1    2  504  501  0.20887788870E+02  0.66899499482E+02  0.14229025530E+03  0.15861386922E+03  0.00000000000E+00 0.  1.
         21    1    1    2  505  504 -0.82131236873E+02 -0.13884927392E+03 -0.23654734576E+03  0.28632028870E+03  0.00000000000E+00 0.  1.
         21    1    1    2  506  502  0.58004183021E+02  0.29315351599E+02 -0.51912112094E+02  0.83178978530E+02  0.00000000000E+00 0.  1.
<scales pt_clust_3="42.28474" pt_clust_4="70.08454" pt_clust_5="127.42299" pt_clust_6="42.28474"></scales>
<clustering>
<clus scale="   42.285">  3  6 -1 -1</clus>
<clus scale="   70.085">  1  4  2 -1</clus>
<clus scale="  127.423">  1  5  2 -1</clus>
<clus scale="   70.085">  1  3  2 -1</clus>
</clustering>
</event>
<event>
 6    0  0.8610502E+002  0.9845040E+02  0.7546771E-02  0.1283589E+00
         21   -1    0    0  504  501  0.00000000000E+00  0.00000000000E+00  0.18531187528E+03  0.18531187528E+03  0.00000000000E+00 0. -1.
         21   -1    0    0  503  502 -0.00000000000E+00 -0.00000000000E+00 -0.65121132158E+03  0.65121132158E+03  0.00000000000E+00 0.  1.
         21    1    1    2  503  506 -0.20931698728E+02 -0.34420705317E+02 -0.18711193526E+03  0.19139957493E+03  0.00000000000E+00 0.  1.
         21    1    1    2  504  505 -0.93268236126E+02 -0.29773152075E+02  0.15312865391E+03  0.18175199890E+03  0.00000000000E+00 0. -1.
         21    1    1    2  505  502  0.25443682459E+02 -0.26953947979E+02 -0.62528970020E+02  0.72689534188E+02  0.00000000000E+00 0.  1.
         21    1    1    2  506  501  0.88756252395E+02  0.91147805371E+02 -0.36938719494E+03  0.39068208885E+03  0.00000000000E+00 0.  1.
<scales pt_clust_3="44.98576" pt_clust_4="98.45040" pt_clust_5="37.06611" pt_clust_6="14000.00000"></scales>
<clustering>
<clus scale="   37.066">  2  5  1 -1</clus>
<clus scale="   44.986">  2  3  1 -1</clus>
<clus scale="   98.450">  1  4  2 -1</clus>
<clus scale="   98.450">  1  3  2 -1</clus>
</clustering>
</event>
<event>
 6    0  0.8610502E+002  0.9219604E+02  0.7546771E-02  0.1297619E+00
         21   -1    0    0  505  501  0.00000000000E+00  0.00000000000E+00  0.46871361785E+03  0.46871361785E+03  0.00000000000E+00 0.  1.
         21   -1    0    0  506  502 -0.00000000000E+00 -0.00000000000E+00 -0.37536647202E+03  0.37536647202E+03  0.00000000000E+00 0.  1.
         21    1    1    2  503  502  0.94640326279E+01 -0.58432651225E+02 -0.27642334978E+03  0.28269030925E+03  0.00000000000E+00 0.  1.
         21    1    1    2  504  503 -0.17663852245E+02  0.11793623128E+03  0.54443624842E+01  0.11937590799E+03  0.00000000000E+00 0. -1.
         21    1    1    2  505  504 -0.20928172513E+02 -0.33276403036E+02  0.39204264876E+03  0.39400856064E+03  0.00000000000E+00 0.  1.
         21    1    1    2  506  501  0.29127992130E+02 -0.26227177023E+02 -0.27716515643E+02  0.48005311993E+02  0.00000000000E+00 0. -1.
<scales pt_clust_3="92.19604" pt_clust_4="14000.00000" pt_clust_5="39.33006" pt_clust_6="39.19572"></scales>
<clustering>
<clus scale="   39.196">  2  6  1 -1</clus>
<clus scale="   39.330">  1  5  2 -1</clus>
<clus scale="   92.196">  2  3  1 -1</clus>
<clus scale="   39.330">  1  3  2 -1</clus>
</clustering>
</event>
<event>
 6    0  0.8610502E+002  0.1501869E+03  0.7546771E-02  0.1200244E+00
         21   -1    0    0  505  501  0.00000000000E+00  0.00000000000E+00  0.81592437260E+03  0.81592437260E+03  0.00000000000E+00 0.  1.
         21   -1    0    0  503  502 -0.00000000000E+00 -0.00000000000E+00 -0.19997097047E+03  0.19997097047E+03  0.00000000000E+00 0. -1.
         21    1    1    2  503  506  0.51368510611E+02  0.98263209264E+02  0.18634643874E+02  0.11243501292E+03  0.00000000000E+00 0. -1.
         21    1    1    2  504  502 -0.77609201577E+02 -0.57257158090E+02 -0.16354592192E+02  0.97821485409E+02  0.00000000000E+00 0. -1.
         21    1    1    2  505  504 -0.14359027596E+03 -0.38971062097E+02  0.61808290009E+03  0.63573845441E+03  0.00000000000E+00 0.  1.
         21    1    1    2  506  501  0.16983096693E+03 -0.20349890775E+01 -0.44095496438E+01  0.16990039034E+03  0.00000000000E+00 0. -1.
<scales pt_clust_3="83.58120" pt_clust_4="96.44465" pt_clust_5="150.18686" pt_clust_6="14000.00000"></scales>
<clustering>
<clus scale="   96.445">  2  4  1 -1</clus>
<clus scale="   83.581">  2  3  1 -1</clus>
<clus scale="  150.187">  1  5  2 -1</clus>
<clus scale="  150.187">  1  3  2 -1</clus>
</clustering>
</event>
<event>
 6    0  0.8610502E+002  0.1295032E+03  0.7546771E-02  0.1228195E+00
         21   -1    0    0  505  501  0.00000000000E+00  0.00000000000E+00  0.20601549091E+03  0.20601549091E+03  0.00000000000E+00 0. -1.
         21   -1    0    0  504  502 -0.00000000000E+00 -0.00000000000E+00 -0.36002212160E+03  0.36002212160E+03  0.00000000000E+00 0. -1.
         21    1    1    2  503  502 -0.30156388924E+02 -0.15140460268E+03 -0.26462549571E+02  0.15663022708E+03  0.00000000000E+00 0. -1.
         21    1    1    2  504  506  0.46208556137E+02  0.11491993375E+03 -0.22255857040E+03  0.25470402253E+03  0.00000000000E+00 0. -1.
         21    1    1    2  505  503 -0.43274826210E+02 -0.10621762441E+02 -0.74690046146E+00  0.44565572824E+02  0.00000000000E+00 0. -1.
         21    1    1    2  506  501  0.27222658997E+02  0.47106431370E+02  0.95761389737E+02  0.11013779008E+03  0.00000000000E+00 0. -1.
<scales pt_clust_3="129.50320" pt_clust_4="14000.00000" pt_clust_5="44.55931" pt_clust_6="41.27781"></scales>
<clustering>
<clus scale="   44.559">  1  5  2 -1</clus>
<clus scale="   41.278">  1  6  2 -1</clus>
<clus scale="  129.503">  1  3  2 -1</clus>
<clus scale="   44.559">  1  3  2 -1</clus>
</clustering>
</event>
<event>
 6    0  0.8610502E+002  0.1866447E+03  0.7546771E-02  0.1161523E+00
         21   -1    0    0  503  501  0.00000000000E+00  0.00000000000E+00  0.26919899344E+03  0.26919899344E+03  0.00000000000E+00 0. -1.
         21   -1    0    0  504  502 -0.00000000000E+00 -0.00000000000E+00 -0.25339074692E+03  0.25339074692E+03  0.00000000000E+00 0. -1.
         21    1    1    2  503  506  0.69505673832E+02 -0.43572921837E+02  0.75839532003E+01  0.82384188765E+02  0.00000000000E+00 0. -1.
         21    1    1    2  504  501 -0.75903866708E+02  0.20308612835E+03  0.10323801013E+03  0.24013217037E+03  0.00000000000E+00 0. -1.
         21    1    1    2  505  502 -0.29954825356E+02 -0.33737027707E+02 -0.22680688117E+02  0.50496457441E+02  0.00000000000E+00 0.  1.
         21    1    1    2  506  505  0.36353018231E+02 -0.12577617881E+03 -0.72333028688E+02  0.14957692379E+03  0.00000000000E+00 0. -1.
<scales pt_clust_3="82.03437" pt_clust_4="171.23058" pt_clust_5="43.59959" pt_clust_6="43.59959"></scales>
<clustering>
<clus scale="   43.600">  5  6 -1 -1</clus>
<clus scale="   82.034">  1  3  2 -1</clus>
<clus scale="  171.231">  1  4  2 -1</clus>
<clus scale="   82.034">  1  3  2 -1</clus>
</clustering>
</event>
<event>
 6    0  0.8610502E+002  0.1286384E+03  0.7546771E-02  0.1229490E+00
         21   -1    0    0  503  501  0.00000000000E+00  0.00000000000E+00  0.89799042583E+03  0.89799042583E+03  0.00000000000E+00 0. -1.
         21   -1    0    0  506  502 -0.00000000000E+00 -0.00000000000E+00 -0.37564276963E+02  0.37564276963E+02  0.00000000000E+00 0. -1.
         21    1    1    2  503  505 -0.91096123809E+02 -0.95630538357E+02  0.46864027759E+03  0.48689569050E+03  0.00000000000E+00 0. -1.
         21    1    1    2  504  501  0.60341688594E+02  0.27721608736E+02  0.31205782355E+03  0.31904496895E+03  0.00000000000E+00 0. -1.
         21    1    1    2  505  502  0.60780690619E+00  0.37992964520E+02 -0.14193031448E+01  0.38024323842E+02  0.00000000000E+00 0. -1.
         21    1    1    2  506  504  0.30146628309E+02  0.29915965101E+02  0.81147350871E+02  0.91589719509E+02  0.00000000000E+00 0.  1.
<scales pt_clust_3="118.52230" pt_clust_4="42.70842" pt_clust_5="37.99783" pt_clust_6="42.70842"></scales>
<clustering>
<clus scale="   37.998">  2  5  1 -1</clus>
<clus scale="   42.708">  4  6 -1 -1</clus>
<clus scale="  118.522">  2  3  1 -1</clus>
<clus scale="  128.638">  1  3  2 -1</clus>
</clustering>
</event>
<event>
 6    0  0.8610502E+002  0.1638466E+03  0.7546771E-02  0.1184421E+00
         21   -1    0    0  506  501  0.00000000000E+00  0.00000000000E+00  0.17993575107E+03  0.17993575107E+03  0.00000000000E+00 0.  1.
         21   -1    0    0  505  502 -0.00000000000E+00 -0.00000000000E+00 -0.17103567064E+04  0.17103567064E+04  0.00000000000E+00 0.  1.
         21    1    1    2  503  501  0.71955604483E+02 -0.14888157561E+03  0.10886815437E+03  0.19797880596E+03  0.00000000000E+00 0.  1.
         21    1    1    2  504  502  0.25364208478E+02  0.47106446374E+02 -0.53499611470E+02  0.75660880177E+02  0.00000000000E+00 0. -1.
         21    1    1    2  505  503 -0.67653801844E+02  0.29372904787E+02 -0.14949209450E+04  0.14967392680E+04  0.00000000000E+00 0.  1.
         21    1    1    2  506  504 -0.29666011118E+02  0.72402224446E+02 -0.90868553146E+02  0.11991350329E+03  0.00000000000E+00 0. -1.
<scales pt_clust_3="154.07585" pt_clust_4="46.08715" pt_clust_5="73.75503" pt_clust_6="46.08715"></scales>
<clustering>
<clus scale="   46.087">  4  6 -1 -1</clus>
<clus scale="   73.755">  2  5  1 -1</clus>
<clus scale="  154.076">  1  3  2 -1</clus>
<clus scale="  154.076">  1  3  2 -1</clus>
</clustering>
</event>
<event>
 6    0  0.8610502E+002  0.1244549E+03  0.7546771E-02  0.1235924E+00
         21   -1    0    0  505  501  0.00000000000E+00  0.00000000000E+00  0.12298604811E+04  0.12298604811E+04  0.00000000000E+00 0. -1.
         21   -1    0    0  506  502 -0.00000000000E+00 -0.00000000000E+00 -0.23510476870E+03  0.23510476870E+03  0.00000000000E+00 0. -1.
         21    1    1    2  503  504  0.73787370775E+01  0.52593024487E+02 -0.25265906083E+02  0.58811886517E+02  0.00000000000E+00 0. -1.
         21    1    1    2  504  501  0.44313242109E+02 -0.47552635220E+02  0.11607872784E+04  0.11626057037E+04  0.00000000000E+00 0. -1.
         21    1    1    2  505  502 -0.84134698272E+02 -0.72254538047E+02 -0.39450371837E+02  0.11771022708E+03  0.00000000000E+00 0. -1.
         21    1    1    2  506  503  0.32442719086E+02  0.67214148780E+02 -0.10131528810E+03  0.12583743251E+03  0.00000000000E+00 0. -1.
<scales pt_clust_3="38.95950" pt_clust_4="64.99936" pt_clust_5="115.56795" pt_clust_6="38.95950"></scales>
<clustering>
<clus scale="   38.960">  3  6 -1 -1</clus>
<clus scale="   64.999">  1  4  2 -1</clus>
<clus scale="  115.568">  1  5  2 -1</clus>
<clus scale="   64.999">  1  3  2 -1</clus>
</clustering>
</event>
<event>
 6    0  0.8610502E+002  0.1192337E+03  0.7546771E-02  0.1244367E+00
         21   -1    0    0  504  501  0.00000000000E+00  0.00000000000E+00  0.70406430452E+03  0.70406430452E+03  0.00000000000E+00 0.  1.
         21   -1    0    0  503  502 -0.00000000000E+00 -0.00000000000E+00 -0.97900043478E+03  0.97900043478E+03  0.00000000000E+00 0.  1.
         21    1    1    2  503  501 -0.39967273808E+02 -0.70000249123E+02 -0.78301026819E+03  0.78714833287E+03  0.00000000000E+00 0.  1.
         21    1    1    2  504  506 -0.58054464565E+02 -0.86600306679E+02  0.64893575703E+03  0.65725759845E+03  0.00000000000E+00 0.  1.
         21    1    1    2  505  502  0.89146593833E+02  0.10819253507E+03 -0.12237290906E+03  0.18608564886E+03  0.00000000000E+00 0.  1.
         21    1    1    2  506  505  0.88751445391E+01  0.48408020728E+02 -0.18488710040E+02  0.52573159125E+02  0.00000000000E+00 0.  1.
<scales pt_clust_3="80.60656" pt_clust_4="105.98415" pt_clust_5="32.36640" pt_clust_6="32.36640"></scales>
<clustering>
<clus scale="   32.366">  5  6 -1 -1</clus>
<clus scale="   80.607">  2  3  1 -1</clus>
<clus scale="  105.984">  1  4  2 -1</clus>
<clus scale="  105.984">  1  3  2 -1</clus>
</clustering>
</event>
<event>
 6    0  0.8610502E+002  0.1440526E+03  0.7546771E-02  0.1207978E+00
         21   -1    0    0  503  501  0.00000000000E+00  0.00000000000E+00  0.40239162187E+03  0.40239162187E+03  0.00000000000E+00 0. -1.
         21   -1    0    0  506  502 -0.00000000000E+00 -0.00000000000E+00 -0.41561945853E+03  0.41561945853E+03  0.00000000000E+00 0. -1.
         21    1    1    2  503  505  0.20726925862E+02  0.74710700952E+02 -0.14486526794E+02  0.78874290812E+02  0.00000000000E+00 0. -1.
         21    1    1    2  504  501 -0.23985546479E+02 -0.66576182373E+02  0.22737931530E+03  0.23813661525E+03  0.00000000000E+00 0. -1.
         21    1    1    2  505  502  0.19920661357E+02  0.73375985048E+02 -0.34645852802E+03  0.35470322745E+03  0.00000000000E+00 0. -1.
         21    1    1    2  506  504 -0.16662040740E+02 -0.81510503627E+02  0.12033790286E+03  0.14629694689E+03  0.00000000000E+00 0. -1.
<scales pt_clust_3="132.10282" pt_clust_4="52.98043" pt_clust_5="76.03202" pt_clust_6="52.98043"></scales>
<clustering>
<clus scale="   52.980">  4  6 -1 -1</clus>
<clus scale="   76.032">  2  5  1 -1</clus>
<clus scale="  132.103">  2  3  1 -1</clus>
<clus scale="  144.053">  1  3  2 -1</clus>
</clustering>
</event>
<event>
 6    0  0.8610502E+002  0.1252848E+03  0.7546771E-02  0.1234625E+00
         21   -1    0    0  502  501  0.00000000000E+00  0.00000000000E+00  0.76462760986E+03  0.76462760986E+03  0.00000000000E+00 0.  1.
         21   -1    0    0  505  502 -0.00000000000E+00 -0.00000000000E+00 -0.97703881876E+02  0.97703881876E+02  0.00000000000E+00 0. -1.
         21    1    1    2  503  504 -0.58685549270E+02 -0.56944878698E+02  0.27079170652E+02  0.86139389284E+02  0.00000000000E+00 0. -1.
         21    1    1    2  504  506  0.81320146304E+01  0.73442084147E+02  0.39059091932E+03  0.39751872364E+03  0.00000000000E+00 0.  1.
         21    1    1    2  505  503  0.12550450552E+02 -0.63843493972E+02 -0.44424950391E+02  0.78785035056E+02  0.00000000000E+00 0. -1.
         21    1    1    2  506  501  0.38003084088E+02  0.47346288523E+02  0.29367858840E+03  0.29988834376E+03  0.00000000000E+00 0.  1.
<scales pt_clust_3="119.42653" pt_clust_4="34.32033" pt_clust_5="65.06539" pt_clust_6="34.32033"></scales>
<clustering>
<clus scale="   34.320">  4  6 -1 -1</clus>
<clus scale="   65.065">  2  5  1 -1</clus>
<clus scale="  119.427">  2  3  1 -1</clus>
<clus scale="  125.285">  1  3  2 -1</clus>
</clustering>
</event>
<event>
 6    0  0.8610502E+002  0.1216440E+03  0.7546771E-02  0.1240409E+00
         21   -1    0    0  503  501  0.00000000000E+00  0.00000000000E+00  0.42444272167E+03  0.42444272167E+03  0.00000000000E+00 0.  1.
         21   -1    0    0  504  502 -0.00000000000E+00 -0.00000000000E+00 -0.12995873185E+03  0.12995873185E+03  0.00000000000E+00 0.  1.
         21    1    1    2  503  505  0.93078995134E+02  0.64832715274E+02  0.14388553362E+03  0.18322125174E+03  0.00000000000E+00 0.  1.
         21    1    1    2  504  506 -0.38122487990E+02 -0.65244494241E+02 -0.73400867748E+02  0.10534635972E+03  0.00000000000E+00 0.  1.
         21    1    1    2  505  502 -0.17735933012E+00  0.56957574819E+02  0.53988852632E+02  0.78479251997E+02  0.00000000000E+00 0.  1.
         21    1    1    2  506  501 -0.54779147815E+02 -0.56545795851E+02  0.17001047131E+03  0.18735459007E+03  0.00000000000E+00 0.  1.
<scales pt_clust_3="54.28758" pt_clust_4="75.56565" pt_clust_5="54.28758" pt_clust_6="94.48793"></scales>
<clustering>
<clus scale="   54.288">  3  5 -1 -1</clus>
<clus scale="   75.566">  2  4  1 -1</clus>
<clus scale="   94.488">  1  6  2 -1</clus>
<clus scale="   94.488">  1  3  2 -1</clus>
</clustering>
</event>
<event>
 6    0  0.8610502E+002  0.1186829E+03  0.7546771E-02  0.1245286E+00
         21   -1    0    0  504  501  0.00000000000E+00  0.00000000000E+00  0.58366483459E+03  0.58366483459E+03  0.00000000000E+00 0.  1.
         21   -1    0    0  506  502 -0.00000000000E+00 -0.00000000000E+00 -0.99571976052E+02  0.99571976052E+02  0.00000000000E+00 0.  1.
         21    1    1    2  503  502  0.30064406696E+02  0.56453493385E+02  0.29956610501E+02  0.70627643159E+02  0.00000000000E+00 0. -1.
         21    1    1    2  504  503  0.13260290376E+03 -0.96799526799E+01  0.26104069925E+03  0.29294961723E+03  0.00000000000E+00 0.  1.
         21    1    1    2  505  501 -0.82044185598E+02  0.73366047221E+02  0.83650771834E+02  0.13824354200E+03  0.00000000000E+00 0.  1.
         21    1    1    2  506  505 -0.80623124862E+02 -0.12013958793E+03  0.10944477696E+03  0.18141600826E+03  0.00000000000E+00 0.  1.
<scales pt_clust_3="63.95987" pt_clust_4="118.68294" pt_clust_5="14000.00000" pt_clust_6="115.82448"></scales>
<clustering>
<clus scale="   63.960">  2  3  1 -1</clus>
<clus scale="  115.824">  2  6  1 -1</clus>
<clus scale="  118.683">  1  4  2 -1</clus>
<clus scale="  118.683">  1  3  2 -1</clus>
</clustering>
</event>
<event>
 6    0  0.8610502E+002  0.9087253E+02  0.7546771E-02  0.1300752E+00
         21   -1    0    0  503  501  0.00000000000E+00  0.00000000000E+00  0.47789768995E+03  0.47789768995E+03  0.00000000000E+00 0.  1.
         21   -1    0    0  505  502 -0.00000000000E+00 -0.00000000000E+00 -0.79321424170E+02  0.79321424170E+02  0.00000000000E+00 0. -1.
         21    1    1    2  503  506 -0.21913522459E+02  0.23409583978E+02  0.56012154313E+02  0.64541246652E+02  0.00000000000E+00 0. -1.
         21    1    1    2  504  501 -0.17795033629E+02 -0.43456795682E+02  0.29522695793E+03  0.29893830969E+03  0.00000000000E+00 0.  1.
         21    1    1    2  505  504  0.44637625116E+02 -0.76977400023E+02  0.35769476128E+02  0.95903561523E+02  0.00000000000E+00 0.  1.
         21    1    1    2  506  502 -0.49290690279E+01  0.97024611728E+02  0.11567677409E+02  0.97835996254E+02  0.00000000000E+00 0. -1.
<scales pt_clust_3="32.06573" pt_clust_4="42.81260" pt_clust_5="90.87253" pt_clust_6="14000.00000"></scales>
<clustering>
<clus scale="   32.066">  1  3  2 -1</clus>
<clus scale="   42.813">  1  4  2 -1</clus>
<clus scale="   90.873">  1  5  2 -1</clus>
<clus scale="   32.066">  1  3  2 -1</clus>
</clustering>
</event>
<event>
 6    0  0.8610502E+002  0.1357841E+03  0.7546771E-02  0.1219117E+00
         21   -1    0    0  505  501  0.00000000000E+00  0.00000000000E+00  0.11964480570E+03  0.11964480570E+03  0.00000000000E+00 0. -1.
         21   -1    0    0  503  502 -0.00000000000E+00 -0.00000000000E+00 -0.78978621480E+03  0.78978621480E+03  0.00000000000E+00 0.  1.
         21    1    1    2  503  504 -0.46744858691E+02 -0.15030839246E+03 -0.31374824470E+03  0.35102087646E+03  0.00000000000E+00 0. -1.
         21    1    1    2  504  501  0.43709429448E+02  0.36663937295E+02  0.83621204524E+02  0.10122877242E+03  0.00000000000E+00 0. -1.
         21    1    1    2  505  506  0.14248617733E+02  0.46637316433E+02 -0.11121828737E+03  0.12143957278E+03  0.00000000000E+00 0. -1.
         21    1    1    2  506  502 -0.11213188489E+02  0.67007138735E+02 -0.32879608155E+03  0.33574179883E+03  0.00000000000E+00 0.  1.
<scales pt_clust_3="126.33064" pt_clust_4="57.05049" pt_clust_5="42.17327" pt_clust_6="42.17327"></scales>
<clustering>
<clus scale="   42.173">  5  6 -1 -1</clus>
<clus scale="   57.050">  1  4  2 -1</clus>
<clus scale="  126.331">  1  3  2 -1</clus>
<clus scale="   57.050">  1  3  2 -1</clus>
</clustering>
</event>
<event>
 6    0  0.8610502E+002  0.9291611E+02  0.7546771E-02  0.1295940E+00
         21   -1    0    0  506  501  0.00000000000E+00  0.00000000000E+00  0.12178106455E+04  0.12178106455E+04  0.00000000000E+00 0.  1.
         21   -1    0    0  503  502 -0.00000000000E+00 -0.00000000000E+00 -0.27106767655E+03  0.27106767655E+03  0.00000000000E+00 0.  1.
         21    1    1    2  503  505 -0.30279006634E+01  0.54024829227E+02  0.32554276353E+02  0.63147694053E+02  0.00000000000E+00 0.  1.
         21    1    1    2  504  502 -0.48293772881E+02  0.33758410301E+02 -0.12805345286E+03  0.14095958837E+03  0.00000000000E+00 0.  1.
         21    1    1    2  505  501 -0.73222672463E+02 -0.57534214264E+02  0.11271770826E+04  0.11310172064E+04  0.00000000000E+00 0.  1.
         21    1    1    2  506  504  0.12454434601E+03 -0.30249025264E+02 -0.84934937229E+02  0.15375383317E+03  0.00000000000E+00 0.  1.
<scales pt_clust_3="54.10961" pt_clust_4="79.70979" pt_clust_5="14000.00000" pt_clust_6="92.91611"></scales>
<clustering>
<clus scale="   54.110">  2  3  1 -1</clus>
<clus scale="   79.710">  2  4  1 -1</clus>
<clus scale="   92.916">  2  6  1 -1</clus>
<clus scale="   92.916">  1  3  2 -1</clus>
</clustering>
</event>
<event>
 6    0  0.8610502E+002  0.1230944E+03  0.7546771E-02  0.1238078E+00
         21   -1    0    0  506  501  0.00000000000E+00  0.00000000000E+00  0.95555233893E+03  0.95555233893E+03  0.00000000000E+00 0. -1.
         21   -1    0    0  505  502 -0.00000000000E+00 -0.00000000000E+00 -0.21720133396E+02  0.21720133396E+02  0.00000000000E+00 0. -1.
         21    1    1    2  503  502  0.47910080759E+02 -0.23733077758E+02  0.17252623892E+03  0.18062097866E+03  0.00000000000E+00 0. -1.
         21    1    1    2  504  503  0.68826078800E+02  0.62683496783E+01  0.16250977386E+03  0.17659486949E+03  0.00000000000E+00 0. -1.
         21    1    1    2  505  501 -0.11763159944E+03 -0.15671194733E+02  0.36208783769E+03  0.38103855676E+03  0.00000000000E+00 0. -1.
         21    1    1    2  506  504  0.89543988331E+00  0.33135922813E+02  0.23670835507E+03  0.23901806742E+03  0.00000000000E+00 0. -1.
<scales pt_clust_3="31.94874" pt_clust_4="31.94874" pt_clust_5="117.17741" pt_clust_6="33.14802"></scales>
<clustering>
<clus scale="   33.148">  1  6  2 -1</clus>
<clus scale="   31.949">  3  4 -1 -1</clus>
<clus scale="  117.177">  1  5  2 -1</clus>
<clus scale="   33.148">  1  3  2 -1</clus>
</clustering>
</event>
<event>
 6    0  0.8610502E+002  0.1534048E+03  0.7546771E-02  0.1196351E+00
         21   -1    0    0  504  501  0.00000000000E+00  0.00000000000E+00  0.73713510032E+02  0.73713510032E+02  0.00000000000E+00 0.  1.
         21   -1    0    0  506  502 -0.00000000000E+00 -0.00000000000E+00 -0.10556422280E+04  0.10556422280E+04  0.00000000000E+00 0. -1.
         21    1    1    2  503  505 -0.63245680008E+02  0.52427157243E+02 -0.48000864705E+02  0.95145708620E+02  0.00000000000E+00 0.  1.
         21    1    1    2  504  502  0.55914033480E+02  0.31847042048E+02 -0.86288617815E+02  0.10763985689E+03  0.00000000000E+00 0.  1.
         21    1    1    2  505  501 -0.41441777022E+02  0.55975186702E+02 -0.37829599804E+01  0.69749216449E+02  0.00000000000E+00 0.  1.
         21    1    1    2  506  503  0.48773423551E+02 -0.14024938599E+03 -0.84385627542E+03  0.85682095602E+03  0.00000000000E+00 0. -1.
<scales pt_clust_3="39.04540" pt_clust_4="64.34760" pt_clust_5="39.04540" pt_clust_6="147.42722"></scales>
<clustering>
<clus scale="   39.045">  3  5 -1 -1</clus>
<clus scale="   64.348">  1  4  2 -1</clus>
<clus scale="  147.427">  2  6  1 -1</clus>
<clus scale="   64.348">  1  3  2 -1</clus>
</clustering>
</event>
<event>
 6    0  0.8610502E+002  0.1651271E+03  0.7546771E-02  0.1183027E+00
         21   -1    0    0  506  501  0.00000000000E+00  0.00000000000E+00  0.58086336838E+02  0.58086336838E+02  0.00000000000E+00 0.  1.
         21   -1    0    0  504  502 -0.00000000000E+00 -0.00000000000E+00 -0.17815939331E+04  0.17815939331E+04  0.00000000000E+00 0.  1.
         21    1    1    2  503  502  0.13351792564E+03 -0.10902818779E+03 -0.11869893668E+04  0.11994406776E+04  0.00000000000E+00 0.  1.
         21    1    1    2  504  501  0.94615226016E+01  0.39475970712E+02 -0.14604634099E+03  0.15158300165E+03  0.00000000000E+00 0.  1.
         21    1    1    2  505  503 -0.18817286678E+03  0.99216906606E+01 -0.36292024532E+03  0.40892367527E+03  0.00000000000E+00 0.  1.
         21    1    1    2  506  505  0.45193418539E+02  0.59630526413E+02 -0.27551643164E+02  0.79732915416E+02  0.00000000000E+00 0.  1.
<scales pt_clust_3="14000.00000" pt_clust_4="40.59400" pt_clust_5="165.12705" pt_clust_6="76.04467"></scales>
<clustering>
<clus scale="   40.594">  2  4  1 -1</clus>
<clus scale="   76.045">  1  6  2 -1</clus>
<clus scale="  165.127">  1  5  2 -1</clus>
<clus scale="   76.045">  1  3  2 -1</clus>
</clustering>
</event>
<event>
 6    0  0.8610502E+002  0.1206218E+03  0.7546771E-02  0.1242075E+00
         21   -1    0    0  503  501  0.00000000000E+00  0.00000000000E+00  0.94493480320E+03  0.94493480320E+03  0.00000000000E+00 0.  1.
         21   -1    0    0  505  502 -0.00000000000E+00 -0.00000000000E+00 -0.29631686771E+02  0.29631686771E+02  0.00000000000E+00 0.  1.
         21    1    1    2  503  504  0.20166998169E+02 -0.29917170100E+02  0.23152827969E+03  0.23432261772E+03  0.00000000000E+00 0.  1.
         21    1    1    2  504  506 -0.66111666419E+02 -0.13559730577E+02  0.22000999325E+03  0.23012825958E+03  0.00000000000E+00 0.  1.
         21    1    1    2  505  501  0.96941841051E+02  0.59254005377E+02  0.13234705601E+03  0.17442620484E+03  0.00000000000E+00 0.  1.
         21    1    1    2  506  502 -0.50997172801E+02 -0.15777104700E+02  0.33141778748E+03  0.33568940782E+03  0.00000000000E+00 0.  1.
<scales pt_clust_3="36.07970" pt_clust_4="34.46715" pt_clust_5="114.22662" pt_clust_6="34.46715"></scales>
<clustering>
<clus scale="   34.467">  4  6 -1 -1</clus>
<clus scale="   36.080">  1  3  2 -1</clus>
<clus scale="  114.227">  2  5  1 -1</clus>
<clus scale="   36.080">  1  3  2 -1</clus>
</clustering>
</event>
<event>
 6    0  0.8610502E+002  0.1419590E+03  0.7546771E-02  0.1210717E+00
         21   -1    0    0  505  501  0.00000000000E+00  0.00000000000E+00  0.93822470388E+02  0.93822470388E+02  0.00000000000E+00 0. -1.
         21   -1    0    0  501  502 -0.00000000000E+00 -0.00000000000E+00 -0.67855531899E+03  0.67855531899E+03  0.00000000000E+00 0. -1.
         21    1    1    2  503  504 -0.89050414367E+02  0.11499079376E+02 -0.47346862626E+02  0.10150827812E+03  0.00000000000E+00 0. -1.
         21    1    1    2  504  506  0.14866525190E+03  0.31973213890E+02 -0.85624631193E+02  0.17451424296E+03  0.00000000000E+00 0. -1.
         21    1    1    2  505  503 -0.33165934799E+02 -0.11857331618E+02  0.68613987204E+01  0.35883900800E+02  0.00000000000E+00 0. -1.
         21    1    1    2  506  502 -0.26448902738E+02 -0.31614961649E+02 -0.45862275350E+03  0.46047136750E+03  0.00000000000E+00 0. -1.
<scales pt_clust_3="30.04073" pt_clust_4="133.61054" pt_clust_5="30.04073" pt_clust_6="41.21954"></scales>
<clustering>
<clus scale="   30.041">  3  5 -1 -1</clus>
<clus scale="   41.220">  2  6  1 -1</clus>
<clus scale="  133.611">  2  4  1 -1</clus>
<clus scale="  141.959">  1  3  2 -1</clus>
</clustering>
</event>
<event>
 6    0  0.8610502E+002  0.1063959E+03  0.7546771E-02  0.1267393E+00
         21   -1    0    0  503  501  0.00000000000E+00  0.00000000000E+00  0.10538572264E+04  0.10538572264E+04  0.00000000000E+00 0. -1.
         21   -1    0    0  506  502 -0.00000000000E+00 -0.00000000000E+00 -0.43541728293E+03  0.43541728293E+03  0.00000000000E+00 0.  1.
         21    1    1    2  503  505 -0.44103497414E+02 -0.84778247222E+02  0.10162121339E+04  0.10206956308E+04  0.00000000000E+00 0. -1.
         21    1    1    2  504  502  0.43814564485E+02  0.30043025805E+02 -0.13169495201E+03  0.14200654860E+03  0.00000000000E+00 0.  1.
         21    1    1    2  505  504  0.26059310531E+02  0.78852357138E+02 -0.27735332148E+03  0.28951968297E+03  0.00000000000E+00 0.  1.
         21    1    1    2  506  501 -0.25770377602E+02 -0.24117135722E+02  0.11276083088E+02  0.37052646963E+02  0.00000000000E+00 0. -1.
<scales pt_clust_3="95.74059" pt_clust_4="37.74441" pt_clust_5="37.74441" pt_clust_6="35.29516"></scales>
<clustering>
<clus scale="   35.295">  2  6  1 -1</clus>
<clus scale="   37.744">  4  5 -1 -1</clus>
<clus scale="   95.741">  1  3  2 -1</clus>
<clus scale="   95.741">  1  3  2 -1</clus>
</clustering>
</event>
<event>
 6    0  0.8610502E+002  0.3312225E+03  0.7546771E-02  0.1070597E+00
         21   -1    0    0  505  501  0.00000000000E+00  0.00000000000E+00  0.81238380158E+03  0.81238380158E+03  0.00000000000E+00 0.  1.
         21   -1    0    0  501  502 -0.00000000000E+00 -0.00000000000E+00 -0.22658719459E+04  0.22658719459E+04  0.00000000000E+00 0. -1.
         21    1    1    2  503  504 -0.98375885241E+02 -0.26876809524E+02 -0.80683100020E+03  0.81325053986E+03  0.00000000000E+00 0. -1.
         21    1    1    2  504  502 -0.13863999940E+03 -0.18003946610E+03 -0.14126960215E+04  0.14308547473E+04  0.00000000000E+00 0. -1.
         21    1    1    2  505  506  0.33391427778E+02  0.43242643692E+02  0.24820760579E+03  0.25414942309E+03  0.00000000000E+00 0.  1.
         21    1    1    2  506  503  0.20362445686E+03  0.16367363193E+03  0.51783127164E+03  0.58000103716E+03  0.00000000000E+00 0.  1.
<scales pt_clust_3="69.35370" pt_clust_4="69.35370" pt_clust_5="45.73158" pt_clust_6="330.13850"></scales>
<clustering>
<clus scale="   45.732">  5  6 -1 -1</clus>
<clus scale="   69.354">  3  4 -1 -1</clus>
<clus scale="  330.138">  1  5  2 -1</clus>
<clus scale="  330.138">  1  3  2 -1</clus>
</clustering>
</event>
<event>
 6    0  0.8610502E+002  0.2016849E+03  0.7546771E-02  0.1148325E+00
         21   -1    0    0  506  501  0.00000000000E+00  0.00000000000E+00  0.12183135655E+03  0.12183135655E+03  0.00000000000E+00 0. -1.
         21   -1    0    0  505  502 -0.00000000000E+00 -0.00000000000E+00 -0.38966419689E+03  0.38966419689E+03  0.00000000000E+00 0. -1.
         21    1    1    2  503  504 -0.42270813190E+02  0.86021804057E+02 -0.69117147024E+02  0.11816832246E+03  0.00000000000E+00 0.  1.
         21    1    1    2  504  502 -0.95854366305E+02  0.17145612639E+02 -0.11865160723E+03  0.15349343788E+03  0.00000000000E+00 0. -1.
         21    1    1    2  505  501  0.16899354195E+03 -0.85559445873E+02 -0.75878368160E+02  0.20405088276E+03  0.00000000000E+00 0. -1.
         21    1    1    2  506  503 -0.30868362459E+02 -0.17607970823E+02 -0.41857179187E+01  0.35782910333E+02  0.00000000000E+00 0. -1.
<scales pt_clust_3="91.00197" pt_clust_4="91.00197" pt_clust_5="178.48218" pt_clust_6="35.53725"></scales>
<clustering>
<clus scale="   35.537">  1  6  2 -1</clus>
<clus scale="   91.002">  3  4 -1 -1</clus>
<clus scale="  178.482">  1  5  2 -1</clus>
<clus scale="   35.537">  1  3  2 -1</clus>
</clustering>
</event>
<event>
 6    0  0.8610502E+002  0.1538091E+03  0.7546771E-02  0.1195869E+00
         21   -1    0    0  503  501  0.00000000000E+00  0.00000000000E+00  0.51120605960E+03  0.51120605960E+03  0.00000000000E+00 0.  1.
         21   -1    0    0  506  502 -0.00000000000E+00 -0.00000000000E+00 -0.60291762235E+02  0.60291762235E+02  0.00000000000E+00 0.  1.
         21    1    1    2  503  505 -0.62554776019E+01  0.77518808360E+02  0.10363432761E+03  0.12956994446E+03  0.00000000000E+00 0.  1.
         21    1    1    2  504  502  0.97214470124E+02 -0.10935955551E+03  0.15253845308E+03  0.21137205409E+03  0.00000000000E+00 0.  1.
         21    1    1    2  505  504 -0.55633508641E+02  0.47131706073E+02  0.74250144593E+02  0.10406521500E+03  0.00000000000E+00 0.  1.
         21    1    1    2  506  501 -0.35325483881E+02 -0.15290958927E+02  0.12049137209E+03  0.12649060829E+03  0.00000000000E+00 0.  1.
<scales pt_clust_3="58.85121" pt_clust_4="141.71360" pt_clust_5="58.85121" pt_clust_6="38.49290"></scales>
<clustering>
<clus scale="   38.493">  1  6  2 -1</clus>
<clus scale="   58.851">  3  5 -1 -1</clus>
<clus scale="  141.714">  2  4  1 -1</clus>
<clus scale="   38.493">  1  3  2 -1</clus>
</clustering>
</event>
<event>
 6    0  0.8610502E+002  0.7796118E+02  0.7546771E-02  0.1334939E+00
         21   -1    0    0  503  501  0.00000000000E+00  0.00000000000E+00  0.21992290252E+03  0.21992290252E+03  0.00000000000E+00 0.  1.
         21   -1    0    0  506  502 -0.00000000000E+00 -0.00000000000E+00 -0.15318977626E+03  0.15318977626E+03  0.00000000000E+00 0.  1.
         21    1    1    2  503  502  0.71841399077E+02 -0.30804732232E+02  0.16113996909E+02  0.79810895532E+02  0.00000000000E+00 0.  1.
         21    1    1    2  504  505 -0.33029162860E+02  0.75644140402E+02  0.69929989918E+02  0.10818116780E+03  0.00000000000E+00 0.  1.
         21    1    1    2  505  501 -0.59825324222E+02 -0.44581065132E+01  0.65527298611E+02  0.88841268537E+02  0.00000000000E+00 0.  1.
         21    1    1    2  506  504  0.21013088005E+02 -0.40381301657E+02 -0.84838159176E+02  0.96279346920E+02  0.00000000000E+00 0.  1.
<scales pt_clust_3="14000.00000" pt_clust_4="77.96118" pt_clust_5="57.18206" pt_clust_6="45.52142"></scales>
<clustering>
<clus scale="   45.521">  2  6  1 -1</clus>
<clus scale="   57.182">  1  5  2 -1</clus>
<clus scale="   77.961">  2  4  1 -1</clus>
<clus scale="   57.182">  1  3  2 -1</clus>
</clustering>
</event>
<event>
 6    0  0.8610502E+002  0.1430759E+03  0.7546771E-02  0.1209249E+00
         21   -1    0    0  505  501  0.00000000000E+00  0.00000000000E+00  0.11739282586E+03  0.11739282586E+03  0.00000000000E+00 0.  1.
         21   -1    0    0  506  502 -0.00000000000E+00 -0.00000000000E+00 -0.70294229022E+03  0.70294229022E+03  0.00000000000E+00 0.  1.
         21    1    1    2  503  504 -0.21926747842E+01 -0.44392778441E+02  0.27173724951E+01  0.44529885624E+02  0.00000000000E+00 0.  1.
         21    1    1    2  504  501 -0.78163647344E+02 -0.58678559019E+02  0.53477759986E+02  0.11141184797E+03  0.00000000000E+00 0.  1.
         21    1    1    2  505  502  0.47872872376E+02  0.83936798966E+02 -0.60164169120E+03  0.60935205155E+03  0.00000000000E+00 0.  1.
         21    1    1    2  506  503  0.32483449753E+02  0.19134538494E+02 -0.40102905636E+02  0.55041330940E+02  0.00000000000E+00 0.  1.
<scales pt_clust_3="43.12068" pt_clust_4="43.12068" pt_clust_5="128.02977" pt_clust_6="37.70020"></scales>
<clustering>
<clus scale="   37.700">  2  6  1 -1</clus>
<clus scale="   43.121">  3  4 -1 -1</clus>
<clus scale="  128.030">  2  5  1 -1</clus>
<clus scale="  143.076">  1  3  2 -1</clus>
</clustering>
</event>
<event>
 6    0  0.8610502E+002  0.9823671E+02  0.7546771E-02  0.1284048E+00
         21   -1    0    0  505  501  0.00000000000E+00  0.00000000000E+00  0.85963692410E+02  0.85963692410E+02  0.00000000000E+00 0. -1.
         21   -1    0    0  503  502 -0.00000000000E+00 -0.00000000000E+00 -0.67043850552E+03  0.67043850552E+03  0.00000000000E+00 0. -1.
         21    1    1    2  503  504 -0.10621585940E+03  0.52372815898E+02 -0.19751096046E+03  0.23029394290E+03  0.00000000000E+00 0. -1.
         21    1    1    2  504  501  0.54268312749E+02  0.14666875009E+02  0.31425330080E+02  0.64402782252E+02  0.00000000000E+00 0. -1.
         21    1    1    2  505  506 -0.34753330111E+01 -0.11725141844E+03 -0.21363217705E+03  0.24371844439E+03  0.00000000000E+00 0. -1.
         21    1    1    2  506  502  0.55422879662E+02  0.50211727529E+02 -0.20475700568E+03  0.21798702839E+03  0.00000000000E+00 0. -1.
<scales pt_clust_3="98.23671" pt_clust_4="56.21536" pt_clust_5="14000.00000" pt_clust_6="83.60794"></scales>
<clustering>
<clus scale="   56.215">  1  4  2 -1</clus>
<clus scale="   83.608">  2  6  1 -1</clus>
<clus scale="   98.237">  1  3  2 -1</clus>
<clus scale="   56.215">  1  3  2 -1</clus>
</clustering>
</event>
<event>
 6    0  0.8610502E+002  0.1583121E+03  0.7546771E-02  0.1190616E+00
         21   -1    0    0  505  501  0.00000000000E+00  0.00000000000E+00  0.63190993622E+03  0.63190993622E+03  0.00000000000E+00 0. -1.
         21   -1    0    0  501  502 -0.00000000000E+00 -0.00000000000E+00 -0.46389149095E+02  0.46389149095E+02  0.00000000000E+00 0. -1.
         21    1    1    2  503  502  0.33274249443E+02 -0.21666791621E+02  0.38313149884E+02  0.55177196278E+02  0.00000000000E+00 0. -1.
         21    1    1    2  504  506 -0.63708484352E+02  0.89663462993E+02  0.32980026364E+03  0.34765862778E+03  0.00000000000E+00 0. -1.
         21    1    1    2  505  504  0.87351466471E+01  0.45910847093E+02  0.10033630984E+03  0.11068642076E+03  0.00000000000E+00 0. -1.
         21    1    1    2  506  503  0.21699088262E+02 -0.11390751847E+03  0.11707106376E+03  0.16477684050E+03  0.00000000000E+00 0. -1.
<scales pt_clust_3="31.14683" pt_clust_4="39.43599" pt_clust_5="39.43599" pt_clust_6="155.67763"></scales>
<clustering>
<clus scale="   31.147">  3  6 -1 -1</clus>
<clus scale="   39.436">  4  5 -1 -1</clus>
<clus scale="  155.678">  2  3  1 -1</clus>
<clus scale="  158.312">  1  3  2 -1</clus>
</clustering>
</event>
<event>
 6    0  0.8610502E+002  0.1358640E+03  0.7546771E-02  0.1219005E+00
         21   -1    0    0  506  501  0.00000000000E+00  0.00000000000E+00  0.58555027759E+02  0.58555027759E+02  0.00000000000E+00 0. -1.
         21   -1    0    0  504  502 -0.00000000000E+00 -0.00000000000E+00 -0.19473709140E+04  0.19473709140E+04  0.00000000000E+00 0.  1.
         21    1    1    2  503  505  0.50361642719E+02 -0.57014911016E+02 -0.29620453751E+02  0.81635570776E+02  0.00000000000E+00 0. -1.
         21    1    1    2  504  501 -0.47192809085E+02  0.29550158414E+02 -0.14509692376E+04  0.14520372245E+04  0.00000000000E+00 0.  1.
         21    1    1    2  505  502 -0.72145157376E+02  0.26876941350E+02 -0.39447413261E+03  0.40191682598E+03  0.00000000000E+00 0.  1.
         21    1    1    2  506  503  0.68976323742E+02  0.58781125223E+00 -0.13752062325E+02  0.70336320470E+02  0.00000000000E+00 0. -1.
<scales pt_clust_3="59.29104" pt_clust_4="55.68099" pt_clust_5="121.12113" pt_clust_6="59.29104"></scales>
<clustering>
<clus scale="   55.681">  2  4  1 -1</clus>
<clus scale="   59.291">  3  6 -1 -1</clus>
<clus scale="  121.121">  2  5  1 -1</clus>
<clus scale="  135.864">  1  3  2 -1</clus>
</clustering>
</event>
<event>
 6    0  0.8610502E+002  0.8348894E+02  0.7546771E-02  0.1319432E+00
         21   -1    0    0  506  501  0.00000000000E+00  0.00000000000E+00  0.14021597469E+03  0.14021597469E+03  0.00000000000E+00 0.  1.
         21   -1    0    0  503  502 -0.00000000000E+00 -0.00000000000E+00 -0.28844104985E+03  0.28844104985E+03  0.00000000000E+00 0.  1.
         21    1    1    2  503  501  0.28789266784E+02  0.12764968244E+02 -0.15407921476E+02  0.35059525674E+02  0.00000000000E+00 0. -1.
         21    1    1    2  504  505 -0.10801645632E+02  0.71391417191E+02  0.17491933842E+02  0.74292514740E+02  0.00000000000E+00 0.  1.
         21    1    1    2  505  502 -0.53027428546E+02  0.49616968264E+01 -0.20309399561E+03  0.20996118133E+03  0.00000000000E+00 0.  1.
         21    1    1    2  506  504  0.35039807393E+02 -0.89118082262E+02  0.52784908078E+02  0.10934380279E+03  0.00000000000E+00 0.  1.
<scales pt_clust_3="31.49232" pt_clust_4="83.48894" pt_clust_5="33.92329" pt_clust_6="14000.00000"></scales>
<clustering>
<clus scale="   31.492">  2  3  1 -1</clus>
<clus scale="   33.923">  2  5  1 -1</clus>
<clus scale="   83.489">  2  4  1 -1</clus>
<clus scale="   83.489">  1  3  2 -1</clus>
</clustering>
</event>
<event>
 6    0  0.8610502E+002  0.1794090E+03  0.7546771E-02  0.1168376E+00
         21   -1    0    0  504  501  0.00000000000E+00  0.00000000000E+00  0.79942705060E+03  0.79942705060E+03  0.00000000000E+00 0. -1.
         21   -1    0    0  505  502 -0.00000000000E+00 -0.00000000000E+00 -0.85261047638E+02  0.85261047638E+02  0.00000000000E+00 0. -1.
         21    1    1    2  503  506  0.57555737559E+02 -0.10851372606E+02  0.19094938301E+03  0.19973002299E+03  0.00000000000E+00 0. -1.
         21    1    1    2  504  503  0.12528124622E+03  0.69694816675E+02  0.40094679881E+03  0.42580640390E+03  0.00000000000E+00 0. -1.
         21    1    1    2  505  501 -0.79224835674E+02 -0.70007902751E+02  0.10355760467E+02  0.10623051732E+03  0.00000000000E+00 0. -1.
         21    1    1    2  506  502 -0.10361214810E+03  0.11164458681E+02  0.11191406067E+03  0.15292115402E+03  0.00000000000E+00 0. -1.
<scales pt_clust_3="40.74111" pt_clust_4="40.74111" pt_clust_5="167.70439" pt_clust_6="104.21191"></scales>
<clustering>
<clus scale="   40.741">  3  4 -1 -1</clus>
<clus scale="  104.212">  2  6  1 -1</clus>
<clus scale="  167.704">  2  5  1 -1</clus>
<clus scale="  179.409">  1  3  2 -1</clus>
</clustering>
</event>
<event>
 6    0  0.8610502E+002  0.1207687E+03  0.7546771E-02  0.1241834E+00
         21   -1    0    0  506  501  0.00000000000E+00  0.00000000000E+00  0.41853136746E+03  0.41853136746E+03  0.00000000000E+00 0. -1.
         21   -1    0    0  505  502 -0.00000000000E+00 -0.00000000000E+00 -0.25403272938E+03  0.25403272938E+03  0.00000000000E+00 0. -1.
         21    1    1    2  503  502  0.37394355961E+02  0.62429570169E+02 -0.12694648670E+03  0.14632566274E+03  0.00000000000E+00 0. -1.
         21    1    1    2  504  503  0.51452231055E+02  0.31711304785E+02 -0.51717202457E+02  0.79546263028E+02  0.00000000000E+00 0. -1.
         21    1    1    2  505  501 -0.69470930920E+02  0.14865162858E+02 -0.14307373563E+02  0.72469885111E+02  0.00000000000E+00 0.  1.
         21    1    1    2  506  504 -0.19375656096E+02 -0.10900603781E+03  0.35746970080E+03  0.37422228597E+03  0.00000000000E+00 0. -1.
<scales pt_clust_3="44.09573" pt_clust_4="44.09573" pt_clust_5="71.04353" pt_clust_6="110.65213"></scales>
<clustering>
<clus scale="   44.096">  3  4 -1 -1</clus>
<clus scale="   71.044">  2  5  1 -1</clus>
<clus scale="  110.652">  1  6  2 -1</clus>
<clus scale="  110.652">  1  3  2 -1</clus>
</clustering>
</event>
<event>
 6    0  0.8610502E+002  0.2393937E+03  0.7546771E-02  0.1120197E+00
         21   -1    0    0  502  501  0.00000000000E+00  0.00000000000E+00  0.23921718775E+03  0.23921718775E+03  0.00000000000E+00 0. -1.
         21   -1    0    0  504  502 -0.00000000000E+00 -0.00000000000E+00 -0.72439845992E+03  0.72439845992E+03  0.00000000000E+00 0. -1.
         21    1    1    2  503  506  0.15717568060E+03 -0.88706086996E+02 -0.10987575379E+03  0.21129516254E+03  0.00000000000E+00 0. -1.
         21    1    1    2  504  503  0.46718831834E+02 -0.69934808181E+02 -0.46276801698E+03  0.47034855606E+03  0.00000000000E+00 0. -1.
         21    1    1    2  505  501 -0.13289315422E+03  0.88271051142E+02  0.18677789259E+02  0.16062760883E+03  0.00000000000E+00 0. -1.
         21    1    1    2  506  505 -0.71001358211E+02  0.70369844034E+02  0.68784709339E+02  0.12134432025E+03  0.00000000000E+00 0.  1.
<scales pt_clust_3="228.45302" pt_clust_4="84.10426" pt_clust_5="56.63274" pt_clust_6="56.63274"></scales>
<clustering>
<clus scale="   56.633">  5  6 -1 -1</clus>
<clus scale="   84.104">  2  4  1 -1</clus>
<clus scale="  228.453">  2  3  1 -1</clus>
<clus scale="  239.394">  1  3  2 -1</clus>
</clustering>
</event>
<event>
 6    0  0.8610502E+002  0.1314357E+03  0.7546771E-02  0.1225341E+00
         21   -1    0    0  505  501  0.00000000000E+00  0.00000000000E+00  0.82569578286E+03  0.82569578286E+03  0.00000000000E+00 0.  1.
         21   -1    0    0  504  502 -0.00000000000E+00 -0.00000000000E+00 -0.83910581401E+03  0.83910581401E+03  0.00000000000E+00 0. -1.
         21    1    1    2  503  501 -0.88780059689E+02  0.32145791011E+02  0.20260746501E+03  0.22352860166E+03  0.00000000000E+00 0.  1.
         21    1    1    2  504  503  0.94375649752E+02  0.92030867111E+02 -0.81452118124E+03  0.82511889958E+03  0.00000000000E+00 0. -1.
         21    1    1    2  505  506  0.30054872018E+02 -0.19570272021E+02  0.15307302223E+03  0.15721844998E+03  0.00000000000E+00 0.  1.
         21    1    1    2  506  502 -0.35650462081E+02 -0.10460638610E+03  0.44543066284E+03  0.45893564566E+03  0.00000000000E+00 0.  1.
<scales pt_clust_3="83.36446" pt_clust_4="131.43573" pt_clust_5="35.86490" pt_clust_6="14000.00000"></scales>
<clustering>
<clus scale="   35.865">  1  5  2 -1</clus>
<clus scale="   83.364">  1  3  2 -1</clus>
<clus scale="  131.436">  2  4  1 -1</clus>
<clus scale="   35.865">  1  3  2 -1</clus>
</clustering>
</event>
<event>
 6    0  0.8610502E+002  0.1045185E+03  0.7546771E-02  0.1271071E+00
         21   -1    0    0  505  501  0.00000000000E+00  0.00000000000E+00  0.88723136227E+03  0.88723136227E+03  0.00000000000E+00 0. -1.
         21   -1    0    0  504  502 -0.00000000000E+00 -0.00000000000E+00 -0.10664318736E+03  0.10664318736E+03  0.00000000000E+00 0. -1.
         21    1    1    2  503  502  0.91172255829E+02  0.58696880576E+02  0.72692606286E+02  0.13054470127E+03  0.00000000000E+00 0. -1.
         21    1    1    2  504  506 -0.97108144961E+01 -0.30788357001E+02 -0.30498740951E+02  0.44411665636E+02  0.00000000000E+00 0. -1.
         21    1    1    2  505  503  0.25231234203E+02 -0.29349150834E+02  0.70648826941E+03  0.70754763985E+03  0.00000000000E+00 0. -1.
         21    1    1    2  506  501 -0.10669267554E+03  0.14406272587E+01  0.31906040160E+02  0.11137054287E+03  0.00000000000E+00 0. -1.
<scales pt_clust_3="104.51846" pt_clust_4="32.28348" pt_clust_5="38.83469" pt_clust_6="14000.00000"></scales>
<clustering>
<clus scale="   32.283">  2  4  1 -1</clus>
<clus scale="   38.835">  1  5  2 -1</clus>
<clus scale="  104.518">  1  3  2 -1</clus>
<clus scale="   38.835">  1  3  2 -1</clus>
</clustering>
</event>
<event>
 6    0  0.8610502E+002  0.1046931E+03  0.7546771E-02  0.1270726E+00
         21   -1    0    0  503  501  0.00000000000E+00  0.00000000000E+00  0.35320855228E+03  0.35320855228E+03  0.00000000000E+00 0. -1.
         21   -1    0    0  506  502 -0.00000000000E+00 -0.00000000000E+00 -0.14084203036E+03  0.14084203036E+03  0.00000000000E+00 0. -1.
         21    1    1    2  503  505  0.73729608189E+02  0.78012580902E+02  0.23688836510E+03  0.26007328856E+03  0.00000000000E+00 0. -1.
         21    1    1    2  504  501 -0.26696198586E+02 -0.10322022509E+03  0.42546697347E+02  0.11479252302E+03  0.00000000000E+00 0. -1.
         21    1    1    2  505  502 -0.82381937801E+01  0.39880412784E+02 -0.66171308086E+02  0.77697858236E+02  0.00000000000E+00 0. -1.
         21    1    1    2  506  504 -0.38795215823E+02 -0.14672768596E+02 -0.89723243896E+00  0.41486912817E+02  0.00000000000E+00 0. -1.
<scales pt_clust_3="104.69308" pt_clust_4="14000.00000" pt_clust_5="40.72242" pt_clust_6="41.39890"></scales>
<clustering>
<clus scale="   40.722">  2  5  1 -1</clus>
<clus scale="   41.399">  2  6  1 -1</clus>
<clus scale="  104.693">  1  3  2 -1</clus>
<clus scale="  104.693">  1  3  2 -1</clus>
</clustering>
</event>
<event>
 6    0  0.8610502E+002  0.1243076E+03  0.7546771E-02  0.1236155E+00
         21   -1    0    0  504  501  0.00000000000E+00  0.00000000000E+00  0.12490206705E+03  0.12490206705E+03  0.00000000000E+00 0.  1.
         21   -1    0    0  505  502 -0.00000000000E+00 -0.00000000000E+00 -0.26458234062E+03  0.26458234062E+03  0.00000000000E+00 0. -1.
         21    1    1    2  503  502 -0.50943378090E+02 -0.10046211698E+02 -0.30146675643E+02  0.60041453955E+02  0.00000000000E+00 0.  1.
         21    1    1    2  504  503 -0.88208109379E+02  0.49490311924E+02  0.43143303648E+02  0.10996047555E+03  0.00000000000E+00 0.  1.
         21    1    1    2  505  506  0.86348414978E+02 -0.24607287722E+02 -0.13447252623E+03  0.16169238600E+03  0.00000000000E+00 0. -1.
         21    1    1    2  506  501  0.52803072491E+02 -0.14836812504E+02 -0.18204375345E+02  0.57790092157E+02  0.00000000000E+00 0. -1.
<scales pt_clust_3="51.92450" pt_clust_4="107.28015" pt_clust_5="49.08037" pt_clust_6="49.08037"></scales>
<clustering>
<clus scale="   49.080">  5  6 -1 -1</clus>
<clus scale="   51.925">  2  3  1 -1</clus>
<clus scale="  107.280">  1  4  2 -1</clus>
<clus scale="  107.280">  1  3  2 -1</clus>
</clustering>
</event>
<event>
 6    0  0.8610502E+002  0.1151161E+03  0.7546771E-02  0.1251379E+00
         21   -1    0    0  503  501  0.00000000000E+00  0.00000000000E+00  0.53031544273E+03  0.53031544273E+03  0.00000000000E+00 0.  1.
         21   -1    0    0  505  502 -0.00000000000E+00 -0.00000000000E+00 -0.11826697650E+03  0.11826697650E+03  0.00000000000E+00 0.  1.
         21    1    1    2  503  504  0.35093994508E+02  0.11700772895E+02  0.11706852259E+03  0.12277432760E+03  0.00000000000E+00 0.  1.
         21    1    1    2  504  502  0.65092161051E+02 -0.93838022842E+02  0.14058653815E+03  0.18112741005E+03  0.00000000000E+00 0. -1.
         21    1    1    2  505  506 -0.81029422566E+02 -0.37646026519E+02 -0.53386674674E+02  0.10408231198E+03  0.00000000000E+00 0.  1.
         21    1    1    2  506  501 -0.19156732992E+02  0.11978327647E+03  0.20778008017E+03  0.24059836960E+03  0.00000000000E+00 0.  1.
<scales pt_clust_3="36.99320" pt_clust_4="115.11612" pt_clust_5="87.07769" pt_clust_6="14000.00000"></scales>
<clustering>
<clus scale="   36.993">  1  3  2 -1</clus>
<clus scale="   87.078">  2  5  1 -1</clus>
<clus scale="  115.116">  2  4  1 -1</clus>
<clus scale="   36.993">  1  3  2 -1</clus>
</clustering>
</event>
<event>
 6    0  0.8610502E+002  0.9089164E+02  0.7546771E-02  0.1300707E+00
         21   -1    0    0  506  501  0.00000000000E+00  0.00000000000E+00  0.13769635977E+04  0.13769635977E+04  0.00000000000E+00 0. -1.
         21   -1    0    0  503  502 -0.00000000000E+00 -0.00000000000E+00 -0.39055708851E+02  0.39055708851E+02  0.00000000000E+00 0. -1.
         21    1    1    2  503  504  0.23023555120E-01 -0.39722845148E+02 -0.34444690499E+01  0.39871911464E+02  0.00000000000E+00 0. -1.
         21    1    1    2  504  501  0.93553634713E+00 -0.64807359570E+02  0.11701411543E+03  0.13376536282E+03  0.00000000000E+00 0. -1.
         21    1    1    2  505  502 -0.47626904411E+02  0.16731909060E+02  0.86085772279E+02  0.99794984811E+02  0.00000000000E+00 0. -1.
         21    1    1    2  506  505  0.46668344508E+02  0.87798295658E+02  0.11382524702E+04  0.11425870474E+04  0.00000000000E+00 0. -1.
<scales pt_clust_3="39.72285" pt_clust_4="14000.00000" pt_clust_5="47.63011" pt_clust_6="90.89164"></scales>
<clustering>
<clus scale="   39.723">  2  3  1 -1</clus>
<clus scale="   47.630">  2  5  1 -1</clus>
<clus scale="   90.892">  1  6  2 -1</clus>
<clus scale="   90.892">  1  3  2 -1</clus>
</clustering>
</event>
<event>
 6    0  0.8610502E+002  0.1300322E+03  0.7546771E-02  0.1227408E+00
         21   -1    0    0  504  501  0.00000000000E+00  0.00000000000E+00  0.97024225785E+03  0.97024225785E+03  0.00000000000E+00 0. -1.
         21   -1    0    0  506  502 -0.00000000000E+00 -0.00000000000E+00 -0.24593643877E+03  0.24593643877E+03  0.00000000000E+00 0.  1.
         21    1    1    2  503  502  0.99746038870E+02 -0.43919371119E+02  0.31513220849E+03  0.33344638588E+03  0.00000000000E+00 0. -1.
         21    1    1    2  504  503 -0.91487244845E+01 -0.36159691078E+02  0.62727725053E+03  0.62838520945E+03  0.00000000000E+00 0. -1.
         21    1    1    2  505  501 -0.59202765606E+02  0.25633492639E+02 -0.13958945000E+03  0.15377664957E+03  0.00000000000E+00 0.  1.
         21    1    1    2  506  505 -0.31394548779E+02  0.54445569557E+02 -0.78514189936E+02  0.10057045172E+03  0.00000000000E+00 0.  1.
<scales pt_clust_3="120.02359" pt_clust_4="37.29909" pt_clust_5="49.08520" pt_clust_6="49.08520"></scales>
<clustering>
<clus scale="   37.299">  1  4  2 -1</clus>
<clus scale="   49.085">  5  6 -1 -1</clus>
<clus scale="  120.024">  1  3  2 -1</clus>
<clus scale="   37.299">  1  3  2 -1</clus>
</clustering>
</event>
<event>
 6    0  0.8610502E+002  0.2261055E+03  0.7546771E-02  0.1129411E+00
         21   -1    0    0  503  501  0.00000000000E+00  0.00000000000E+00  0.58337997112E+03  0.58337997112E+03  0.00000000000E+00 0.  1.
         21   -1    0    0  506  502 -0.00000000000E+00 -0.00000000000E+00 -0.31732912579E+03  0.31732912579E+03  0.00000000000E+00 0.  1.
         21    1    1    2  503  505 -0.20983046969E+02 -0.43049595379E+02  0.23469256873E+02  0.53332559854E+02  0.00000000000E+00 0.  1.
         21    1    1    2  504  502 -0.69788445585E+01 -0.98703535319E+02 -0.18949461082E+03  0.21377394529E+03  0.00000000000E+00 0.  1.
         21    1    1    2  505  504 -0.14957705776E+01 -0.96806947500E+02 -0.39288944212E+02  0.10448657115E+03  0.00000000000E+00 0.  1.
         21    1    1    2  506  501  0.29457662105E+02  0.23856007820E+03  0.47136514349E+03  0.52911602061E+03  0.00000000000E+00 0.  1.
<scales pt_clust_3="47.65668" pt_clust_4="98.94995" pt_clust_5="47.65668" pt_clust_6="215.71332"></scales>
<clustering>
<clus scale="   47.657">  3  5 -1 -1</clus>
<clus scale="   98.950">  2  4  1 -1</clus>
<clus scale="  215.713">  1  6  2 -1</clus>
<clus scale="  215.713">  1  3  2 -1</clus>
</clustering>
</event>
<event>
 6    0  0.8610502E+002  0.7819960E+02  0.7546771E-02  0.1334240E+00
         21   -1    0    0  503  501  0.00000000000E+00  0.00000000000E+00  0.47865195560E+02  0.47865195560E+02  0.00000000000E+00 0. -1.
         21   -1    0    0  504  502 -0.00000000000E+00 -0.00000000000E+00 -0.14768565322E+04  0.14768565322E+04  0.00000000000E+00 0. -1.
         21    1    1    2  503  506  0.36188166592E+01 -0.68157752469E+02 -0.66452818057E+01  0.68576488871E+02  0.00000000000E+00 0. -1.
         21    1    1    2  504  505  0.31459362218E+02  0.79685207191E+01 -0.85886094582E+03  0.85947385827E+03  0.00000000000E+00 0. -1.
         21    1    1    2  505  501  0.65911940665E+02  0.32285633690E+02 -0.11745527625E+03  0.13850085914E+03  0.00000000000E+00 0. -1.
         21    1    1    2  506  502 -0.10099011954E+03  0.27903598060E+02 -0.44602983274E+03  0.45817052145E+03  0.00000000000E+00 0. -1.
<scales pt_clust_3="67.89848" pt_clust_4="32.45287" pt_clust_5="78.19960" pt_clust_6="14000.00000"></scales>
<clustering>
<clus scale="   32.453">  2  4  1 -1</clus>
<clus scale="   67.898">  1  3  2 -1</clus>
<clus scale="   78.200">  1  5  2 -1</clus>
<clus scale="   67.898">  1  3  2 -1</clus>
</clustering>
</event>
<event>
 6    0  0.8610502E+002  0.1269321E+03  0.7546771E-02  0.1232080E+00
         21   -1    0    0  504  501  0.00000000000E+00  0.00000000000E+00  0.52738069726E+03  0.52738069726E+03  0.00000000000E+00 0.  1.
         21   -1    0    0  503  502 -0.00000000000E+00 -0.00000000000E+00 -0.13886891203E+03  0.13886891203E+03  0.00000000000E+00 0.  1.
         21    1    1    2  503  505  0.77007354704E+02  0.27439638436E+02  0.78816637664E+02  0.11355672067E+03  0.00000000000E+00 0.  1.
         21    1    1    2  504  506 -0.61209214988E+01 -0.30768929787E+02  0.33850923051E+03  0.33995983860E+03  0.00000000000E+00 0.  1.
         21    1    1    2  505  501  0.34851832688E+02  0.50081930697E+02  0.44779701172E+02  0.75684025138E+02  0.00000000000E+00 0.  1.
         21    1    1    2  506  502 -0.10573826589E+03 -0.46752639346E+02 -0.73593784118E+02  0.13704902488E+03  0.00000000000E+00 0.  1.
<scales pt_clust_3="37.40519" pt_clust_4="31.37185" pt_clust_5="37.40519" pt_clust_6="118.73427"></scales>
<clustering>
<clus scale="   31.372">  1  4  2 -1</clus>
<clus scale="   37.405">  3  5 -1 -1</clus>
<clus scale="  118.734">  2  6  1 -1</clus>
<clus scale="   31.372">  1  3  2 -1</clus>
</clustering>
</event>
<event>
 6    0  0.8610502E+002  0.9824329E+02  0.7546771E-02  0.1284034E+00
         21   -1    0    0  506  501  0.00000000000E+00  0.00000000000E+00  0.14284777045E+03  0.14284777045E+03  0.00000000000E+00 0.  1.
         21   -1    0    0  503  502 -0.00000000000E+00 -0.00000000000E+00 -0.27429991216E+03  0.27429991216E+03  0.00000000000E+00 0.  1.
         21    1    1    2  503  504  0.49090922816E+02  0.37087883005E+02 -0.91962449049E+02  0.11064592990E+03  0.00000000000E+00 0.  1.
         21    1    1    2  504  505  0.51694692124E+02  0.80504714536E+02 -0.78863647592E+01  0.95997630207E+02  0.00000000000E+00 0.  1.
         21    1    1    2  505  501  0.93685384995E+01 -0.42711859108E+02  0.40016858013E+02  0.59274120384E+02  0.00000000000E+00 0.  1.
         21    1    1    2  506  502 -0.11015415344E+03 -0.74880738433E+02 -0.71620185915E+02  0.15123000211E+03  0.00000000000E+00 0.  1.
<scales pt_clust_3="59.82711" pt_clust_4="98.24329" pt_clust_5="43.72725" pt_clust_6="14000.00000"></scales>
<clustering>
<clus scale="   43.727">  1  5  2 -1</clus>
<clus scale="   59.827">  2  3  1 -1</clus>
<clus scale="   98.243">  1  4  2 -1</clus>
<clus scale="   43.727">  1  3  2 -1</clus>
</clustering>
</event>
<event>
 6    0  0.8610502E+002  0.1025647E+03  0.7546771E-02  0.1274993E+00
         21   -1    0    0  502  501  0.00000000000E+00  0.00000000000E+00  0.14866557807E+04  0.14866557807E+04  0.00000000000E+00 0. -1.
         21   -1    0    0  504  502 -0.00000000000E+00 -0.00000000000E+00 -0.16593437052E+03  0.16593437052E+03  0.00000000000E+00 0. -1.
         21    1    1    2  503  505  0.13150271936E+03 -0.44364628862E+02  0.97371374914E+02  0.16953574887E+03  0.00000000000E+00 0. -1.
         21    1    1    2  504  506 -0.39433762772E+02  0.16247744023E+01 -0.74308648376E+02  0.84139388883E+02  0.00000000000E+00 0. -1.
         21    1    1    2  505  501 -0.41796840062E+02  0.30161217387E+02  0.13343967523E+04  0.13353918404E+04  0.00000000000E+00 0. -1.
         21    1    1    2  506  503 -0.50272116523E+02  0.12578637073E+02 -0.36738068740E+02  0.63523172977E+02  0.00000000000E+00 0. -1.
<scales pt_clust_3="96.41336" pt_clust_4="30.53151" pt_clust_5="51.54294" pt_clust_6="30.53151"></scales>
<clustering>
<clus scale="   30.532">  4  6 -1 -1</clus>
<clus scale="   51.543">  1  5  2 -1</clus>
<clus scale="   96.413">  1  3  2 -1</clus>
<clus scale="   51.543">  1  3  2 -1</clus>
</clustering>
</event>
<event>
 6    0  0.8610502E+002  0.1123571E+03  0.7546771E-02  0.1256266E+00
         21   -1    0    0  504  501  0.00000000000E+00  0.00000000000E+00  0.43533555670E+03  0.43533555670E+03  0.00000000000E+00 0. -1.
         21   -1    0    0  503  502 -0.00000000000E+00 -0.00000000000E+00 -0.23973467369E+03  0.23973467369E+03  0.00000000000E+00 0.  1.
         21    1    1    2  503  505 -0.52304564343E+01 -0.54026700516E+02 -0.80114263190E+02  0.96770538955E+02  0.00000000000E+00 0.  1.
         21    1    1    2  504  502  0.23722201152E+02  0.45292193814E+02 -0.15877232398E+01  0.51153167185E+02  0.00000000000E+00 0. -1.
         21    1    1    2  505  506 -0.12938605552E+03  0.15087384414E+02 -0.80073893423E+02  0.15290588262E+03  0.00000000000E+00 0.  1.
         21    1    1    2  506  501  0.11089431080E+03 -0.63528777120E+01  0.35737676286E+03  0.37424064164E+03  0.00000000000E+00 0. -1.
<scales pt_clust_3="35.55167" pt_clust_4="51.12852" pt_clust_5="112.35715" pt_clust_6="14000.00000"></scales>
<clustering>
<clus scale="   51.129">  2  4  1 -1</clus>
<clus scale="   35.552">  2  3  1 -1</clus>
<clus scale="  112.357">  2  5  1 -1</clus>
<clus scale="  112.357">  1  3  2 -1</clus>
</clustering>
</event>
<event>
 6    0  0.8610502E+002  0.1111588E+03  0.7546771E-02  0.1258439E+00
         21   -1    0    0  503  501  0.00000000000E+00  0.00000000000E+00  0.36795784063E+03  0.36795784063E+03  0.00000000000E+00 0.  1.
         21   -1    0    0  506  502 -0.00000000000E+00 -0.00000000000E+00 -0.64149243476E+03  0.64149243476E+03  0.00000000000E+00 0. -1.
         21    1    1    2  503  504  0.83020186155E+02  0.66218616318E+02  0.12165166158E+03  0.16148183558E+03  0.00000000000E+00 0.  1.
         21    1    1    2  504  502 -0.40640875878E+02  0.25751888152E+02 -0.57886615662E+03  0.58086217627E+03  0.00000000000E+00 0. -1.
         21    1    1    2  505  501 -0.10646334779E+03 -0.53152236808E+02  0.11151674699E+03  0.16308154267E+03  0.00000000000E+00 0.  1.
         21    1    1    2  506  505  0.64084037518E+02 -0.38818267663E+02  0.72163153928E+02  0.10402472088E+03  0.00000000000E+00 0.  1.
<scales pt_clust_3="111.15882" pt_clust_4="48.11279" pt_clust_5="14000.00000" pt_clust_6="62.49008"></scales>
<clustering>
<clus scale="   48.113">  2  4  1 -1</clus>
<clus scale="   62.490">  2  6  1 -1</clus>
<clus scale="  111.159">  1  3  2 -1</clus>
<clus scale="  111.159">  1  3  2 -1</clus>
</clustering>
</event>
<event>
 6    0  0.8610502E+002  0.1478673E+03  0.7546771E-02  0.1203118E+00
         21   -1    0    0  504  501  0.00000000000E+00  0.00000000000E+00  0.96916026981E+03  0.96916026981E+03  0.00000000000E+00 0. -1.
         21   -1    0    0  505  502 -0.00000000000E+00 -0.00000000000E+00 -0.19825623551E+03  0.19825623551E+03  0.00000000000E+00 0. -1.
         21    1    1    2  503  501  0.17303841245E+01 -0.32279412287E+02  0.60972681154E+03  0.61058311424E+03  0.00000000000E+00 0. -1.
         21    1    1    2  504  506 -0.64146349955E+02 -0.45546185115E+02  0.81169802252E+02  0.11303869244E+03  0.00000000000E+00 0. -1.
         21    1    1    2  505  503  0.57716202911E+02 -0.80952787611E+02  0.21400868198E+03  0.23597506195E+03  0.00000000000E+00 0. -1.
         21    1    1    2  506  502  0.46997629194E+01  0.15877838501E+03 -0.13400126146E+03  0.20781963669E+03  0.00000000000E+00 0. -1.
<scales pt_clust_3="32.32576" pt_clust_4="83.67161" pt_clust_5="14000.00000" pt_clust_6="147.86733"></scales>
<clustering>
<clus scale="   32.326">  1  3  2 -1</clus>
<clus scale="   83.672">  1  4  2 -1</clus>
<clus scale="  147.867">  2  6  1 -1</clus>
<clus scale="   32.326">  1  3  2 -1</clus>
</clustering>
</event>
<event>
 6    0  0.8610502E+002  0.2492338E+03  0.7546771E-02  0.1113790E+00
         21   -1    0    0  506  501  0.00000000000E+00  0.00000000000E+00  0.19509944375E+03  0.19509944375E+03  0.00000000000E+00 0. -1.
         21   -1    0    0  501  502 -0.00000000000E+00 -0.00000000000E+00 -0.15170810987E+04  0.15170810987E+04  0.00000000000E+00 0. -1.
         21    1    1    2  503  504 -0.20902848512E+02  0.13017169446E+03  0.52343758667E+02  0.14185016103E+03  0.00000000000E+00 0. -1.
         21    1    1    2  504  505  0.22202315557E+02  0.90245196332E+02  0.13473702335E+02  0.93907821462E+02  0.00000000000E+00 0. -1.
         21    1    1    2  505  502 -0.10685146328E+03 -0.22277926304E+03 -0.13363062653E+04  0.13589563164E+04  0.00000000000E+00 0. -1.
         21    1    1    2  506  503  0.10555199624E+03  0.23623722460E+01 -0.51492850729E+02  0.11746624361E+03  0.00000000000E+00 0. -1.
<scales pt_clust_3="43.33966" pt_clust_4="43.33966" pt_clust_5="243.82968" pt_clust_6="105.57843"></scales>
<clustering>
<clus scale="   43.340">  3  4 -1 -1</clus>
<clus scale="  105.578">  1  6  2 -1</clus>
<clus scale="  243.830">  2  5  1 -1</clus>
<clus scale="  105.578">  1  3  2 -1</clus>
</clustering>
</event>
<event>
 6    0  0.8610502E+002  0.9839305E+02  0.7546771E-02  0.1283712E+00
         21   -1    0    0  505  501  0.00000000000E+00  0.00000000000E+00  0.77495152357E+03  0.77495152357E+03  0.00000000000E+00 0. -1.
         21   -1    0    0  503  502 -0.00000000000E+00 -0.00000000000E+00 -0.56420714001E+02  0.56420714001E+02  0.00000000000E+00 0.  1.
         21    1    1    2  503  501 -0.46446323671E+02 -0.67980918278E+02 -0.54245777167E+01  0.82511164553E+02  0.00000000000E+00 0.  1.
         21    1    1    2  504  502 -0.81588513901E+00  0.73348863215E+02  0.28136244972E+03  0.29076717407E+03  0.00000000000E+00 0. -1.
         21    1    1    2  505  506  0.22049127960E+02 -0.47114043166E+02  0.34599024068E+03  0.34987875579E+03  0.00000000000E+00 0. -1.
         21    1    1    2  506  504  0.25213080851E+02  0.41746098229E+02  0.96602696886E+02  0.10821514316E+03  0.00000000000E+00 0. -1.
<scales pt_clust_3="84.81762" pt_clust_4="40.66446" pt_clust_5="52.01824" pt_clust_6="40.66446"></scales>
<clustering>
<clus scale="   40.664">  4  6 -1 -1</clus>
<clus scale="   52.018">  1  5  2 -1</clus>
<clus scale="   84.818">  2  3  1 -1</clus>
<clus scale="   52.018">  1  3  2 -1</clus>
</clustering>
</event>
<event>
 6    0  0.8610502E+002  0.2317489E+03  0.7546771E-02  0.1125415E+00
         21   -1    0    0  506  501  0.00000000000E+00  0.00000000000E+00  0.18829259087E+04  0.18829259087E+04  0.00000000000E+00 0. -1.
         21   -1    0    0  504  502 -0.00000000000E+00 -0.00000000000E+00 -0.26326388618E+03  0.26326388618E+03  0.00000000000E+00 0. -1.
         21    1    1    2  503  502  0.10001125726E+03  0.82153443610E+02  0.28806102661E+03  0.31580151191E+03  0.00000000000E+00 0. -1.
         21    1    1    2  504  501 -0.64652560801E+02  0.27571687790E+02 -0.22020018296E+03  0.23114556487E+03  0.00000000000E+00 0. -1.
         21    1    1    2  505  503  0.12797268203E+03  0.32538657640E+02  0.28558509055E+03  0.31463409785E+03  0.00000000000E+00 0.  1.
         21    1    1    2  506  505 -0.16333137849E+03 -0.14226378904E+03  0.12662160883E+04  0.12846086202E+04  0.00000000000E+00 0. -1.
<scales pt_clust_3="56.42564" pt_clust_4="70.28621" pt_clust_5="56.42564" pt_clust_6="224.63149"></scales>
<clustering>
<clus scale="   56.426">  3  5 -1 -1</clus>
<clus scale="   70.286">  2  4  1 -1</clus>
<clus scale="  224.631">  1  6  2 -1</clus>
<clus scale="  224.631">  1  3  2 -1</clus>
</clustering>
</event>
<event>
 6    0  0.8610502E+002  0.8510264E+02  0.7546771E-02  0.1315164E+00
         21   -1    0    0  503  501  0.00000000000E+00  0.00000000000E+00  0.37197169330E+03  0.37197169330E+03  0.00000000000E+00 0. -1.
         21   -1    0    0  504  502 -0.00000000000E+00 -0.00000000000E+00 -0.26605876316E+03  0.26605876316E+03  0.00000000000E+00 0. -1.
         21    1    1    2  503  505 -0.29547361125E+02 -0.65559645393E+02  0.24242544864E+03  0.25286599574E+03  0.00000000000E+00 0. -1.
         21    1    1    2  504  506 -0.26037037944E+02 -0.48110678462E+02 -0.20442056751E+03  0.21161364121E+03  0.00000000000E+00 0. -1.
         21    1    1    2  505  502  0.22463726444E+02  0.12300386446E+03  0.49078432787E+02  0.13432521075E+03  0.00000000000E+00 0. -1.
         21    1    1    2  506  501  0.33120672625E+02 -0.93335406072E+01  0.18829616224E+02  0.39225608759E+02  0.00000000000E+00 0. -1.
<scales pt_clust_3="14000.00000" pt_clust_4="54.62624" pt_clust_5="85.10264" pt_clust_6="34.41067"></scales>
<clustering>
<clus scale="   34.411">  1  6  2 -1</clus>
<clus scale="   54.626">  2  4  1 -1</clus>
<clus scale="   85.103">  2  5  1 -1</clus>
<clus scale="   34.411">  1  3  2 -1</clus>
</clustering>
</event>
<event>
 6    0  0.8610502E+002  0.1077020E+03  0.7546771E-02  0.1264886E+00
         21   -1    0    0  504  501  0.00000000000E+00  0.00000000000E+00  0.30265867496E+03  0.30265867496E+03  0.00000000000E+00 0.  1.
         21   -1    0    0  506  502 -0.00000000000E+00 -0.00000000000E+00 -0.43894514660E+03  0.43894514660E+03  0.00000000000E+00 0. -1.
         21    1    1    2  503  502  0.65338552735E+02 -0.32678513077E+02 -0.20640257645E+03  0.21894984644E+03  0.00000000000E+00 0. -1.
         21    1    1    2  504  503  0.31792581675E+02 -0.36560648006E+02  0.13775386442E+03  0.14602594426E+03  0.00000000000E+00 0.  1.
         21    1    1    2  505  501 -0.12965010265E+03 -0.18174219726E+02  0.11325484761E+03  0.17310722656E+03  0.00000000000E+00 0.  1.
         21    1    1    2  506  505  0.32518968237E+02  0.87413380809E+02 -0.18089260721E+03  0.20352080430E+03  0.00000000000E+00 0. -1.
<scales pt_clust_3="74.80610" pt_clust_4="48.45048" pt_clust_5="14000.00000" pt_clust_6="107.70196"></scales>
<clustering>
<clus scale="   48.450">  1  4  2 -1</clus>
<clus scale="   74.806">  2  3  1 -1</clus>
<clus scale="  107.702">  2  6  1 -1</clus>
<clus scale="   48.450">  1  3  2 -1</clus>
</clustering>
</event>
<event>
 6    0  0.8610502E+002  0.1673935E+03  0.7546771E-02  0.1180594E+00
         21   -1    0    0  506  501  0.00000000000E+00  0.00000000000E+00  0.16937251784E+03  0.16937251784E+03  0.00000000000E+00 0. -1.
         21   -1    0    0  504  502 -0.00000000000E+00 -0.00000000000E+00 -0.56229739951E+03  0.56229739951E+03  0.00000000000E+00 0. -1.
         21    1    1    2  503  501  0.14752408518E+03 -0.29037715953E+02  0.10020836531E+03  0.18068829828E+03  0.00000000000E+00 0. -1.
         21    1    1    2  504  503 -0.21889647150E+02 -0.64386115093E+02 -0.96769266149E+02  0.11827518480E+03  0.00000000000E+00 0.  1.
         21    1    1    2  505  502 -0.69924411066E+02  0.59406070326E+02 -0.31665791401E+03  0.32968278535E+03  0.00000000000E+00 0. -1.
         21    1    1    2  506  505 -0.55710026966E+02  0.34017760720E+02 -0.79706066818E+02  0.10302364892E+03  0.00000000000E+00 0. -1.
<scales pt_clust_3="149.67346" pt_clust_4="68.00536" pt_clust_5="63.22253" pt_clust_6="63.22253"></scales>
<clustering>
<clus scale="   63.223">  5  6 -1 -1</clus>
<clus scale="   68.005">  2  4  1 -1</clus>
<clus scale="  149.673">  1  3  2 -1</clus>
<clus scale="  149.673">  1  3  2 -1</clus>
</clustering>
</event>
<event>
 6    0  0.8610502E+002  0.1171087E+03  0.7546771E-02  0.1247944E+00
         21   -1    0    0  504  501  0.00000000000E+00  0.00000000000E+00  0.30042902243E+03  0.30042902243E+03  0.00000000000E+00 0. -1.
         21   -1    0    0  506  502 -0.00000000000E+00 -0.00000000000E+00 -0.56619247769E+03  0.56619247769E+03  0.00000000000E+00 0.  1.
         21    1    1    2  503  501 -0.24117345498E+02 -0.27012796608E+02  0.14363929800E+03  0.14813367431E+03  0.00000000000E+00 0. -1.
         21    1    1    2  504  502 -0.43230489155E+01 -0.11617155721E+03  0.34103342308E+02  0.12115096951E+03  0.00000000000E+00 0. -1.
         21    1    1    2  505  503  0.37653925029E+01  0.12133018295E+03  0.28085061627E+02  0.12459519318E+03  0.00000000000E+00 0. -1.
         21    1    1    2  506  505  0.24675001911E+02  0.21854170868E+02 -0.47159115719E+03  0.47274166312E+03  0.00000000000E+00 0.  1.
<scales pt_clust_3="35.43014" pt_clust_4="117.10870" pt_clust_5="14000.00000" pt_clust_6="32.96150"></scales>
<clustering>
<clus scale="   32.962">  2  6  1 -1</clus>
<clus scale="   35.430">  1  3  2 -1</clus>
<clus scale="  117.109">  2  4  1 -1</clus>
<clus scale="   35.430">  1  3  2 -1</clus>
</clustering>
</event>
<event>
 6    0  0.8610502E+002  0.8138466E+02  0.7546771E-02  0.1325167E+00
         21   -1    0    0  506  501  0.00000000000E+00  0.00000000000E+00  0.51282951093E+03  0.51282951093E+03  0.00000000000E+00 0.  1.
         21   -1    0    0  503  502 -0.00000000000E+00 -0.00000000000E+00 -0.18272582933E+03  0.18272582933E+03  0.00000000000E+00 0.  1.
         21    1    1    2  503  504  0.26425529126E+02 -0.20142599004E+02 -0.13229342168E+03  0.13640228115E+03  0.00000000000E+00 0.  1.
         21    1    1    2  504  505  0.63793469672E+02 -0.91558727696E+00  0.10103937265E+02  0.64595159425E+02  0.00000000000E+00 0.  1.
         21    1    1    2  505  501 -0.77124586636E+02  0.81067241660E+02  0.15608392466E+03  0.19204762709E+03  0.00000000000E+00 0.  1.
         21    1    1    2  506  502 -0.13094412162E+02 -0.60009055380E+02  0.29620924136E+03  0.30251027259E+03  0.00000000000E+00 0.  1.
<scales pt_clust_3="33.22699" pt_clust_4="14000.00000" pt_clust_5="81.38466" pt_clust_6="62.36664"></scales>
<clustering>
<clus scale="   33.227">  2  3  1 -1</clus>
<clus scale="   62.367">  1  6  2 -1</clus>
<clus scale="   81.385">  1  5  2 -1</clus>
<clus scale="   62.367">  1  3  2 -1</clus>
</clustering>
</event>
<event>
 6    0  0.8610502E+002  0.1240911E+03  0.7546771E-02  0.1236497E+00
         21   -1    0    0  505  501  0.00000000000E+00  0.00000000000E+00  0.32650419800E+03  0.32650419800E+03  0.00000000000E+00 0.  1.
         21   -1    0    0  506  502 -0.00000000000E+00 -0.00000000000E+00 -0.15029365715E+03  0.15029365715E+03  0.00000000000E+00 0. -1.
         21    1    1    2  503  501  0.93462637591E+02 -0.17673371260E+02  0.24445192467E+03  0.26230584467E+03  0.00000000000E+00 0.  1.
         21    1    1    2  504  503 -0.34228789172E+02  0.15906695190E+02 -0.44061157407E+01  0.38000615995E+02  0.00000000000E+00 0. -1.
         21    1    1    2  505  502  0.35212894936E+01 -0.46001385357E+02  0.29142906060E+02  0.54569551108E+02  0.00000000000E+00 0.  1.
         21    1    1    2  506  504 -0.62755137912E+02  0.47768061427E+02 -0.92978174136E+02  0.12192184338E+03  0.00000000000E+00 0. -1.
<scales pt_clust_3="112.99324" pt_clust_4="35.48542" pt_clust_5="46.13596" pt_clust_6="35.48542"></scales>
<clustering>
<clus scale="   35.485">  4  6 -1 -1</clus>
<clus scale="   46.136">  1  5  2 -1</clus>
<clus scale="  112.993">  1  3  2 -1</clus>
<clus scale="   46.136">  1  3  2 -1</clus>
</clustering>
</event>
<event>
 6    0  0.8610502E+002  0.1717820E+03  0.7546771E-02  0.1176002E+00
         21   -1    0    0  505  501  0.00000000000E+00  0.00000000000E+00  0.15847800688E+03  0.15847800688E+03  0.00000000000E+00 0. -1.
         21   -1    0    0  504  502 -0.00000000000E+00 -0.00000000000E+00 -0.11666967965E+04  0.11666967965E+04  0.00000000000E+00 0. -1.
         21    1    1    2  503  506 -0.35411257954E+02  0.10187871559E+02 -0.79411266271E+02  0.87543698388E+02  0.00000000000E+00 0.  1.
         21    1    1    2  504  501  0.86794162656E+02 -0.44744958483E+02 -0.12301038158E+03  0.15705697042E+03  0.00000000000E+00 0. -1.
         21    1    1    2  505  503  0.88286082732E+02 -0.12214866828E+03  0.79732010891E+02  0.17050490646E+03  0.00000000000E+00 0. -1.
         21    1    1    2  506  502 -0.13966898743E+03  0.15670575520E+03 -0.88552915263E+03  0.91006922809E+03  0.00000000000E+00 0. -1.
<scales pt_clust_3="31.39476" pt_clust_4="97.64906" pt_clust_5="154.57718" pt_clust_6="31.39476"></scales>
<clustering>
<clus scale="   31.395">  3  6 -1 -1</clus>
<clus scale="   97.649">  2  4  1 -1</clus>
<clus scale="  154.577">  1  5  2 -1</clus>
<clus scale="  154.577">  1  3  2 -1</clus>
</clustering>
</event>
<event>
 6    0  0.8610502E+002  0.7867544E+02  0.7546771E-02  0.1332853E+00
         21   -1    0    0  503  501  0.00000000000E+00  0.00000000000E+00  0.47960112405E+03  0.47960112405E+03  0.00000000000E+00 0.  1.
         21   -1    0    0  505  502 -0.00000000000E+00 -0.00000000000E+00 -0.87524277642E+03  0.87524277642E+03  0.00000000000E+00 0.  1.
         21    1    1    2  503  504 -0.80166739189E+02  0.83503948110E+01  0.34581852393E+03  0.35508715361E+03  0.00000000000E+00 0.  1.
         21    1    1    2  504  506  0.57689908224E+02 -0.41837716750E+02 -0.59980064533E+01  0.71515705514E+02  0.00000000000E+00 0.  1.
         21    1    1    2  505  501  0.16284695228E+01  0.63423549985E+02  0.85500374910E+02  0.10646836486E+03  0.00000000000E+00 0.  1.
         21    1    1    2  506  502  0.20848361443E+02 -0.29936228046E+02 -0.82096254476E+03  0.82177267649E+03  0.00000000000E+00 0.  1.
<scales pt_clust_3="14000.00000" pt_clust_4="78.67544" pt_clust_5="57.87795" pt_clust_6="36.48057"></scales>
<clustering>
<clus scale="   36.481">  2  6  1 -1</clus>
<clus scale="   57.878">  2  5  1 -1</clus>
<clus scale="   78.675">  2  4  1 -1</clus>
<clus scale="   78.675">  1  3  2 -1</clus>
</clustering>
</event>
<event>
 6    0  0.8610502E+002  0.1926252E+03  0.7546771E-02  0.1156115E+00
         21   -1    0    0  504  501  0.00000000000E+00  0.00000000000E+00  0.17607774904E+03  0.17607774904E+03  0.00000000000E+00 0. -1.
         21   -1    0    0  503  502 -0.00000000000E+00 -0.00000000000E+00 -0.13206392858E+04  0.13206392858E+04  0.00000000000E+00 0. -1.
         21    1    1    2  503  506 -0.15308786476E+03 -0.73849212848E+02 -0.12061187794E+04  0.12180361697E+04  0.00000000000E+00 0. -1.
         21    1    1    2  504  502 -0.28297670609E+02  0.45306160607E+02  0.51090311353E+02  0.73916346399E+02  0.00000000000E+00 0. -1.
         21    1    1    2  505  501  0.72200142389E+02  0.54696398927E+02  0.17564998008E+02  0.92266384841E+02  0.00000000000E+00 0. -1.
         21    1    1    2  506  505  0.10918539298E+03 -0.26153346685E+02 -0.70980666988E+01  0.11249813391E+03  0.00000000000E+00 0. -1.
<scales pt_clust_3="170.29662" pt_clust_4="53.41729" pt_clust_5="89.92394" pt_clust_6="89.92394"></scales>
<clustering>
<clus scale="   53.417">  1  4  2 -1</clus>
<clus scale="   89.924">  5  6 -1 -1</clus>
<clus scale="  170.297">  2  3  1 -1</clus>
<clus scale="   53.417">  1  3  2 -1</clus>
</clustering>
</event>
<event>
 6    0  0.8610502E+002  0.2067159E+03  0.7546771E-02  0.1144193E+00
         21   -1    0    0  505  501  0.00000000000E+00  0.00000000000E+00  0.42882541427E+03  0.42882541427E+03  0.00000000000E+00 0. -1.
         21   -1    0    0  504  502 -0.00000000000E+00 -0.00000000000E+00 -0.85154393875E+03  0.85154393875E+03  0.00000000000E+00 0. -1.
         21    1    1    2  503  501  0.32185332376E+02 -0.20375409051E+03  0.37409693539E+03  0.42720035357E+03  0.00000000000E+00 0. -1.
         21    1    1    2  504  503 -0.28827774113E+02  0.17277011755E+02 -0.38607366337E+02  0.51186564946E+02  0.00000000000E+00 0. -1.
         21    1    1    2  505  506 -0.36996297705E+02  0.21435988915E+03 -0.64002255950E+03  0.67597911564E+03  0.00000000000E+00 0. -1.
         21    1    1    2  506  502  0.33638739442E+02 -0.27882810394E+02 -0.11818553404E+03  0.12600331886E+03  0.00000000000E+00 0. -1.
<scales pt_clust_3="14000.00000" pt_clust_4="33.60857" pt_clust_5="206.71593" pt_clust_6="38.67177"></scales>
<clustering>
<clus scale="   33.609">  2  4  1 -1</clus>
<clus scale="   38.672">  2  6  1 -1</clus>
<clus scale="  206.716">  2  5  1 -1</clus>
<clus scale="  206.716">  1  3  2 -1</clus>
</clustering>
</event>
<event>
 6    0  0.8610502E+002  0.9048965E+02  0.7546771E-02  0.1301670E+00
         21   -1    0    0  503  501  0.00000000000E+00  0.00000000000E+00  0.60029227567E+03  0.60029227567E+03  0.00000000000E+00 0. -1.
         21   -1    0    0  506  502 -0.00000000000E+00 -0.00000000000E+00 -0.20524075909E+03  0.20524075909E+03  0.00000000000E+00 0.  1.
         21    1    1    2  503  505 -0.25711968204E+02  0.75414446916E+02  0.28277267509E+03  0.29378364469E+03  0.00000000000E+00 0. -1.
         21    1    1    2  504  501 -0.12315538255E+02 -0.63516807596E+02  0.21929228031E+03  0.22863762055E+03  0.00000000000E+00 0. -1.
         21    1    1    2  505  502 -0.17595291698E+02  0.42305346695E+02  0.73493256127E+02  0.86605977536E+02  0.00000000000E+00 0. -1.
         21    1    1    2  506  504  0.55622798156E+02 -0.54202986015E+02 -0.18050669493E+03  0.19650579199E+03  0.00000000000E+00 0.  1.
<scales pt_clust_3="34.22867" pt_clust_4="64.69975" pt_clust_5="34.22867" pt_clust_6="78.42828"></scales>
<clustering>
<clus scale="   34.229">  3  5 -1 -1</clus>
<clus scale="   64.700">  1  4  2 -1</clus>
<clus scale="   78.428">  2  6  1 -1</clus>
<clus scale="   64.700">  1  3  2 -1</clus>
</clustering>
</event>
<event>
 6    0  0.8610502E+002  0.1863462E+03  0.7546771E-02  0.1161799E+00
         21   -1    0    0  506  501  0.00000000000E+00  0.00000000000E+00  0.19624411039E+03  0.19624411039E+03  0.00000000000E+00 0. -1.
         21   -1    0    0  504  502 -0.00000000000E+00 -0.00000000000E+00 -0.89938715053E+03  0.89938715053E+03  0.00000000000E+00 0. -1.
         21    1    1    2  503  502 -0.71462732429E+02 -0.87286028683E+02 -0.33586400757E+03  0.35430270181E+03  0.00000000000E+00 0. -1.
         21    1    1    2  504  505  0.18138224784E+03  0.12291372658E+03 -0.35389805306E+03  0.41623447235E+03  0.00000000000E+00 0. -1.
         21    1    1    2  505  501  0.41741568103E+01  0.58510304208E+02 -0.12613177291E+03  0.13910464917E+03  0.00000000000E+00 0. -1.
         21    1    1    2  506  503 -0.11409367222E+03 -0.94138002111E+02  0.11275079340E+03  0.18598943759E+03  0.00000000000E+00 0. -1.
<scales pt_clust_3="112.80857" pt_clust_4="53.33924" pt_clust_5="53.33924" pt_clust_6="155.23480"></scales>
<clustering>
<clus scale="   53.339">  4  5 -1 -1</clus>
<clus scale="  112.809">  2  3  1 -1</clus>
<clus scale="  155.235">  1  6  2 -1</clus>
<clus scale="  155.235">  1  3  2 -1</clus>
</clustering>
</event>
<event>
 6    0  0.8610502E+002  0.1328834E+03  0.7546771E-02  0.1223239E+00
         21   -1    0    0  503  501  0.00000000000E+00  0.00000000000E+00  0.11397320795E+03  0.11397320795E+03  0.00000000000E+00 0.  1.
         21   -1    0    0  504  502 -0.00000000000E+00 -0.00000000000E+00 -0.99433662514E+03  0.99433662514E+03  0.00000000000E+00 0. -1.
         21    1    1    2  503  502  0.42575379100E+02  0.14920972162E+03 -0.41948079452E+03  0.44725869573E+03  0.00000000000E+00 0. -1.
         21    1    1    2  504  506  0.40810237439E+02 -0.14444707218E+02 -0.46234757914E+03  0.46436990534E+03  0.00000000000E+00 0. -1.
         21    1    1    2  505  501 -0.38962629305E+02 -0.53268310389E+02  0.58118582029E+02  0.87939575568E+02  0.00000000000E+00 0.  1.
         21    1    1    2  506  505 -0.44422987234E+02 -0.81496704016E+02 -0.56653625549E+02  0.10874165645E+03  0.00000000000E+00 0.  1.
<scales pt_clust_3="132.88344" pt_clust_4="43.29117" pt_clust_5="65.65812" pt_clust_6="14000.00000"></scales>
<clustering>
<clus scale="   43.291">  2  4  1 -1</clus>
<clus scale="   65.658">  1  5  2 -1</clus>
<clus scale="  132.883">  2  3  1 -1</clus>
<clus scale="   65.658">  1  3  2 -1</clus>
</clustering>
</event>
<event>
 6    0  0.8610502E+002  0.1286045E+03  0.7546771E-02  0.1229541E+00
         21   -1    0    0  503  501  0.00000000000E+00  0.00000000000E+00  0.18022863928E+03  0.18022863928E+03  0.00000000000E+00 0.  1.
         21   -1    0    0  506  502 -0.00000000000E+00 -0.00000000000E+00 -0.31022896572E+03  0.31022896572E+03  0.00000000000E+00 0. -1.
         21    1    1    2  503  502  0.22591706711E+02  0.31155185538E+02 -0.21381470698E+03  0.21725045390E+03  0.00000000000E+00 0. -1.
         21    1    1    2  504  505  0.25384162479E+02 -0.72369095384E+02  0.56261288976E+02  0.95115583942E+02  0.00000000000E+00 0.  1.
         21    1    1    2  505  501 -0.12549939548E+02 -0.60809303333E+02  0.32297633884E+02  0.69988638428E+02  0.00000000000E+00 0.  1.
         21    1    1    2  506  504 -0.35425929642E+02  0.10202321318E+03 -0.47445423241E+01  0.10810292873E+03  0.00000000000E+00 0.  1.
<scales pt_clust_3="38.48416" pt_clust_4="35.02835" pt_clust_5="35.02835" pt_clust_6="122.57080"></scales>
<clustering>
<clus scale="   35.028">  4  5 -1 -1</clus>
<clus scale="   38.484">  2  3  1 -1</clus>
<clus scale="  122.571">  2  6  1 -1</clus>
<clus scale="  128.605">  1  3  2 -1</clus>
</clustering>
</event>
<event>
 6    0  0.8610502E+002  0.1134157E+03  0.7546771E-02  0.1254372E+00
         21   -1    0    0  505  501  0.00000000000E+00  0.00000000000E+00  0.10060261536E+03  0.10060261536E+03  0.00000000000E+00 0.  1.
         21   -1    0    0  504  502 -0.00000000000E+00 -0.00000000000E+00 -0.65874430541E+03  0.65874430541E+03  0.00000000000E+00 0. -1.
         21    1    1    2  503  502  0.37666957002E+02  0.89452554179E+01 -0.41244755306E+02  0.56568074782E+02  0.00000000000E+00 0.  1.
         21    1    1    2  504  506 -0.11640826783E+03 -0.17021902783E+02 -0.56242059300E+03  0.57459338095E+03  0.00000000000E+00 0. -1.
         21    1    1    2  505  503  0.10392672077E+02  0.36013142868E+02 -0.62566261622E+01  0.38001308702E+02  0.00000000000E+00 0.  1.
         21    1    1    2  506  501  0.68348638756E+02 -0.27936495503E+02  0.51780284419E+02  0.90184156343E+02  0.00000000000E+00 0.  1.
<scales pt_clust_3="40.48900" pt_clust_4="14000.00000" pt_clust_5="37.48272" pt_clust_6="113.41572"></scales>
<clustering>
<clus scale="   37.483">  1  5  2 -1</clus>
<clus scale="   40.489">  1  3  2 -1</clus>
<clus scale="  113.416">  1  6  2 -1</clus>
<clus scale="   37.483">  1  3  2 -1</clus>
</clustering>
</event>
<event>
 6    0  0.8610502E+002  0.9867334E+02  0.7546771E-02  0.1283111E+00
         21   -1    0    0  504  501  0.00000000000E+00  0.00000000000E+00  0.10595356277E+04  0.10595356277E+04  0.00000000000E+00 0. -1.
         21   -1    0    0  506  502 -0.00000000000E+00 -0.00000000000E+00 -0.74766175572E+03  0.74766175572E+03  0.00000000000E+00 0. -1.
         21    1    1    2  503  505  0.67493615223E+02  0.33193636955E+02  0.39306720866E+02  0.84865917395E+02  0.00000000000E+00 0. -1.
         21    1    1    2  504  503  0.46059424292E+02  0.79912159180E+02  0.68064358272E+03  0.68686469588E+03  0.00000000000E+00 0. -1.
         21    1    1    2  505  502 -0.27183283570E+02 -0.18622655844E+02 -0.70831314008E+03  0.70907914835E+03  0.00000000000E+00 0. -1.
         21    1    1    2  506  501 -0.86369755946E+02 -0.94483140292E+02  0.30023670852E+03  0.32638762183E+03  0.00000000000E+00 0. -1.
<scales pt_clust_3="56.21708" pt_clust_4="98.67334" pt_clust_5="32.95048" pt_clust_6="14000.00000"></scales>
<clustering>
<clus scale="   32.950">  2  5  1 -1</clus>
<clus scale="   56.217">  2  3  1 -1</clus>
<clus scale="   98.673">  1  4  2 -1</clus>
<clus scale="   98.673">  1  3  2 -1</clus>
</clustering>
</event>
<event>
 6    0  0.8610502E+002  0.1081317E+03  0.7546771E-02  0.1264069E+00
         21   -1    0    0  504  501  0.00000000000E+00  0.00000000000E+00  0.70007122569E+03  0.70007122569E+03  0.00000000000E+00 0. -1.
         21   -1    0    0  503  502 -0.00000000000E+00 -0.00000000000E+00 -0.41416046205E+03  0.41416046205E+03  0.00000000000E+00 0. -1.
         21    1    1    2  503  501 -0.24821716037E+02  0.82981498438E+02  0.21331280300E+03  0.23022684160E+03  0.00000000000E+00 0. -1.
         21    1    1    2  504  505  0.22237799379E+01 -0.66703329120E+02  0.32230780380E+03  0.32914525624E+03  0.00000000000E+00 0. -1.
         21    1    1    2  505  506 -0.15265418562E+02 -0.51488081077E+02  0.14611523946E+03  0.15567183014E+03  0.00000000000E+00 0. -1.
         21    1    1    2  506  502  0.37863354661E+02  0.35209911758E+02 -0.39582508262E+03  0.39918775976E+03  0.00000000000E+00 0. -1.
<scales pt_clust_3="101.01633" pt_clust_4="34.60447" pt_clust_5="34.60447" pt_clust_6="51.70466"></scales>
<clustering>
<clus scale="   34.604">  4  5 -1 -1</clus>
<clus scale="   51.705">  2  6  1 -1</clus>
<clus scale="  101.016">  2  3  1 -1</clus>
<clus scale="  108.132">  1  3  2 -1</clus>
</clustering>
</event>
<event>
 6    0  0.8610502E+002  0.2014538E+03  0.7546771E-02  0.1148518E+00
         21   -1    0    0  502  501  0.00000000000E+00  0.00000000000E+00  0.19564540573E+04  0.19564540573E+04  0.00000000000E+00 0. -1.
         21   -1    0    0  504  502 -0.00000000000E+00 -0.00000000000E+00 -0.85242766139E+02  0.85242766139E+02  0.00000000000E+00 0. -1.
         21    1    1    2  503  505 -0.12173754557E+03  0.14310517677E+03  0.76836912627E+02  0.20298530184E+03  0.00000000000E+00 0. -1.
         21    1    1    2  504  503 -0.30509664244E+02  0.24955954163E+02  0.86847960916E+02  0.95374040366E+02  0.00000000000E+00 0.  1.
         21    1    1    2  505  506  0.69164016569E+02 -0.17058600296E+03  0.49753578344E+03  0.53049514739E+03  0.00000000000E+00 0. -1.
         21    1    1    2  506  501  0.83083193247E+02  0.25248720212E+01  0.12099906342E+04  0.12128423338E+04  0.00000000000E+00 0. -1.
<scales pt_clust_3="201.45381" pt_clust_4="39.41623" pt_clust_5="14000.00000" pt_clust_6="82.59920"></scales>
<clustering>
<clus scale="   39.416">  2  4  1 -1</clus>
<clus scale="   82.599">  1  6  2 -1</clus>
<clus scale="  201.454">  2  3  1 -1</clus>
<clus scale="   82.599">  1  3  2 -1</clus>
</clustering>
</event>
<event>
 6    0  0.8610502E+002  0.1449836E+03  0.7546771E-02  0.1206776E+00
         21   -1    0    0  503  501  0.00000000000E+00  0.00000000000E+00  0.21201799851E+03  0.21201799851E+03  0.00000000000E+00 0.  1.
         21   -1    0    0  504  502 -0.00000000000E+00 -0.00000000000E+00 -0.86038597153E+03  0.86038597153E+03  0.00000000000E+00 0.  1.
         21    1    1    2  503  505 -0.65772846243E+02  0.56161204852E+02  0.16575068545E+03  0.18695838564E+03  0.00000000000E+00 0.  1.
         21    1    1    2  504  506 -0.28491625702E+02 -0.17986402211E+02 -0.14055479628E+03  0.14453696467E+03  0.00000000000E+00 0.  1.
         21    1    1    2  505  502  0.11605253057E+03 -0.15114821623E+03 -0.46849642778E+03  0.50576958782E+03  0.00000000000E+00 0.  1.
         21    1    1    2  506  501 -0.21788058621E+02  0.11297341359E+03 -0.20506743440E+03  0.23513903191E+03  0.00000000000E+00 0.  1.
<scales pt_clust_3="86.63670" pt_clust_4="33.69397" pt_clust_5="144.98362" pt_clust_6="14000.00000"></scales>
<clustering>
<clus scale="   33.694">  2  4  1 -1</clus>
<clus scale="   86.637">  1  3  2 -1</clus>
<clus scale="  144.984">  1  5  2 -1</clus>
<clus scale="   86.637">  1  3  2 -1</clus>
</clustering>
</event>
<event>
 6    0  0.8610502E+002  0.9455104E+02  0.7546771E-02  0.1292190E+00
         21   -1    0    0  502  501  0.00000000000E+00  0.00000000000E+00  0.86740017392E+03  0.86740017392E+03  0.00000000000E+00 0.  1.
         21   -1    0    0  504  502 -0.00000000000E+00 -0.00000000000E+00 -0.78213813220E+03  0.78213813220E+03  0.00000000000E+00 0.  1.
         21    1    1    2  503  505 -0.52193503547E+02 -0.58861509103E+02  0.18011906105E+03  0.19654952358E+03  0.00000000000E+00 0.  1.
         21    1    1    2  504  506 -0.37312352852E+02  0.47044090056E+02 -0.72748786418E+03  0.72996160900E+03  0.00000000000E+00 0.  1.
         21    1    1    2  505  501  0.42079451229E+02 -0.56027758507E+02  0.63632044861E+03  0.64016677769E+03  0.00000000000E+00 0.  1.
         21    1    1    2  506  503  0.47426405170E+02  0.67845177554E+02 -0.36896037634E+01  0.82860395851E+02  0.00000000000E+00 0.  1.
<scales pt_clust_3="14000.00000" pt_clust_4="60.04463" pt_clust_5="67.90874" pt_clust_6="94.55104"></scales>
<clustering>
<clus scale="   60.045">  2  4  1 -1</clus>
<clus scale="   67.909">  1  5  2 -1</clus>
<clus scale="   94.551">  2  6  1 -1</clus>
<clus scale="   67.909">  1  3  2 -1</clus>
</clustering>
</event>
<event>
 6    0  0.8610502E+002  0.1481191E+03  0.7546771E-02  0.1202803E+00
         21   -1    0    0  506  501  0.00000000000E+00  0.00000000000E+00  0.10113872361E+04  0.10113872361E+04  0.00000000000E+00 0. -1.
         21   -1    0    0  505  502 -0.00000000000E+00 -0.00000000000E+00 -0.18152931330E+03  0.18152931330E+03  0.00000000000E+00 0.  1.
         21    1    1    2  503  502  0.38524224676E+02 -0.26028112048E+01 -0.35371011838E+01  0.38773723033E+02  0.00000000000E+00 0. -1.
         21    1    1    2  504  501  0.53556325780E+02 -0.79043134891E+01  0.88087621468E+03  0.88253819396E+03  0.00000000000E+00 0. -1.
         21    1    1    2  505  504 -0.14618917184E+03  0.55142731408E+02 -0.98650564456E+02  0.18478075835E+03  0.00000000000E+00 0.  1.
         21    1    1    2  506  503  0.54108621380E+02 -0.44635606714E+02  0.51169373751E+02  0.86823874047E+02  0.00000000000E+00 0.  1.
<scales pt_clust_3="38.50666" pt_clust_4="54.13648" pt_clust_5="138.72871" pt_clust_6="38.50666"></scales>
<clustering>
<clus scale="   38.507">  3  6 -1 -1</clus>
<clus scale="   54.136">  1  4  2 -1</clus>
<clus scale="  138.729">  2  5  1 -1</clus>
<clus scale="   54.136">  1  3  2 -1</clus>
</clustering>
</event>
<event>
 6    0  0.8610502E+002  0.1472849E+03  0.7546771E-02  0.1203850E+00
         21   -1    0    0  505  501  0.00000000000E+00  0.00000000000E+00  0.13386485737E+04  0.13386485737E+04  0.00000000000E+00 0.  1.
         21   -1    0    0  504  502 -0.00000000000E+00 -0.00000000000E+00 -0.39880685408E+02  0.39880685408E+02  0.00000000000E+00 0.  1.
         21    1    1    2  503  502  0.11046218926E+03 -0.19284915484E+02  0.27108179886E+03  0.29335838985E+03  0.00000000000E+00 0.  1.
         21    1    1    2  504  506 -0.12498424210E+03  0.13428769890E+02  0.17689340585E+03  0.21700845529E+03  0.00000000000E+00 0.  1.
         21    1    1    2  505  503  0.38596221327E+02 -0.25899350835E+02  0.80929803405E+03  0.81063169972E+03  0.00000000000E+00 0.  1.
         21    1    1    2  506  501 -0.24074168490E+02  0.31755496429E+02  0.41494649523E+02  0.57530714240E+02  0.00000000000E+00 0. -1.
<scales pt_clust_3="135.18307" pt_clust_4="32.91908" pt_clust_5="46.48058" pt_clust_6="32.91908"></scales>
<clustering>
<clus scale="   32.919">  4  6 -1 -1</clus>
<clus scale="   46.481">  1  5  2 -1</clus>
<clus scale="  135.183">  1  3  2 -1</clus>
<clus scale="   46.481">  1  3  2 -1</clus>
</clustering>
</event>
<event>
 6    0  0.8621969E+002  0.1008719E+03  0.7546771E-02  0.1278473E+00
         21   -1    0    0  506  501  0.00000000000E+00  0.00000000000E+00  0.14301422012E+04  0.14301422012E+04  0.00000000000E+00 0.  1.
         21   -1    0    0  503  502 -0.00000000000E+00 -0.00000000000E+00 -0.41969724415E+03  0.41969724415E+03  0.00000000000E+00 0. -1.
         21    1    1    2  503  504 -0.86236467751E+02 -0.10244392924E+02  0.24749625921E+03  0.26229005753E+03  0.00000000000E+00 0.  1.
         21    1    1    2  504  505 -0.69198996959E+02  0.23538020031E+02  0.20527655640E+03  0.21790136341E+03  0.00000000000E+00 0.  1.
         21    1    1    2  505  501  0.63379501348E+02 -0.31604489917E+02  0.95690912754E+03  0.95952638491E+03  0.00000000000E+00 0.  1.
         21    1    1    2  506  502  0.92055963362E+02  0.18310862810E+02 -0.39923698612E+03  0.41012163948E+03  0.00000000000E+00 0. -1.
<scales pt_clust_3="32.35365" pt_clust_4="32.35365" pt_clust_5="70.82235" pt_clust_6="94.50649"></scales>
<clustering>
<clus scale="   32.354">  3  4 -1 -1</clus>
<clus scale="   70.822">  1  5  2 -1</clus>
<clus scale="   94.506">  2  6  1 -1</clus>
<clus scale="   70.822">  1  3  2 -1</clus>
</clustering>
</event>
<event>
 6    0  0.8610502E+002  0.1772387E+03  0.7546771E-02  0.1170503E+00
         21   -1    0    0  504  501  0.00000000000E+00  0.00000000000E+00  0.48798271057E+02  0.48798271057E+02  0.00000000000E+00 0. -1.
         21   -1    0    0  506  502 -0.00000000000E+00 -0.00000000000E+00 -0.23392170094E+04  0.23392170094E+04  0.00000000000E+00 0. -1.
         21    1    1    2  503  502 -0.13876947786E+01 -0.36440684748E+02 -0.63969170747E+03  0.64073030973E+03  0.00000000000E+00 0. -1.
         21    1    1    2  504  505  0.17051258189E+02  0.20817240404E+03 -0.25635215808E+03  0.33067041622E+03  0.00000000000E+00 0. -1.
         21    1    1    2  505  503  0.82409451592E+02 -0.83330772191E+02 -0.71242758295E+03  0.72200304449E+03  0.00000000000E+00 0. -1.
         21    1    1    2  506  501 -0.98073015002E+02 -0.88400947106E+02 -0.68194728982E+03  0.69461150999E+03  0.00000000000E+00 0. -1.
<scales pt_clust_3="36.46710" pt_clust_4="177.23868" pt_clust_5="128.21669" pt_clust_6="14000.00000"></scales>
<clustering>
<clus scale="   36.467">  2  3  1 -1</clus>
<clus scale="  128.217">  2  5  1 -1</clus>
<clus scale="  177.239">  1  4  2 -1</clus>
<clus scale="  177.239">  1  3  2 -1</clus>
</clustering>
</event>
<event>
 6    0  0.8610502E+002  0.1263882E+03  0.7546771E-02  0.1232916E+00
         21   -1    0    0  506  501  0.00000000000E+00  0.00000000000E+00  0.59905978565E+02  0.59905978565E+02  0.00000000000E+00 0.  1.
         21   -1    0    0  503  502 -0.00000000000E+00 -0.00000000000E+00 -0.11974798164E+04  0.11974798164E+04  0.00000000000E+00 0.  1.
         21    1    1    2  503  501 -0.75954123620E+02 -0.21866141053E+02 -0.32553804848E+03  0.33499578807E+03  0.00000000000E+00 0.  1.
         21    1    1    2  504  502  0.59830598956E+02 -0.16825907606E+02 -0.35381913398E+03  0.35923640031E+03  0.00000000000E+00 0.  1.
         21    1    1    2  505  504  0.86539741501E+02  0.58047897292E+02 -0.47659055061E+03  0.48784960609E+03  0.00000000000E+00 0.  1.
         21    1    1    2  506  505 -0.70416216836E+02 -0.19355848633E+02  0.18373895195E+02  0.75304000521E+02  0.00000000000E+00 0.  1.
<scales pt_clust_3="105.46587" pt_clust_4="53.78907" pt_clust_5="53.78907" pt_clust_6="73.02803"></scales>
<clustering>
<clus scale="   53.789">  4  5 -1 -1</clus>
<clus scale="   73.028">  1  6  2 -1</clus>
<clus scale="  105.466">  2  3  1 -1</clus>
<clus scale="   73.028">  1  3  2 -1</clus>
</clustering>
</event>
<event>
 6    0  0.8610502E+002  0.1275989E+03  0.7546771E-02  0.1231063E+00
         21   -1    0    0  502  501  0.00000000000E+00  0.00000000000E+00  0.28898164261E+02  0.28898164261E+02  0.00000000000E+00 0. -1.
         21   -1    0    0  505  502 -0.00000000000E+00 -0.00000000000E+00 -0.23840086137E+04  0.23840086137E+04  0.00000000000E+00 0. -1.
         21    1    1    2  503  504  0.42551519746E+02  0.42459461817E+02 -0.83336842071E+02  0.10275440125E+03  0.00000000000E+00 0. -1.
         21    1    1    2  504  501  0.45529270491E+02  0.48477270829E+02 -0.16560018054E+03  0.17845554084E+03  0.00000000000E+00 0. -1.
         21    1    1    2  505  506 -0.51593926513E+02  0.30896789237E+02 -0.17885041017E+04  0.17895148691E+04  0.00000000000E+00 0. -1.
         21    1    1    2  506  503 -0.36486863723E+02 -0.12183352188E+03 -0.31766932514E+03  0.34218196681E+03  0.00000000000E+00 0. -1.
<scales pt_clust_3="31.26802" pt_clust_4="31.26802" pt_clust_5="60.13772" pt_clust_6="123.28747"></scales>
<clustering>
<clus scale="   31.268">  3  4 -1 -1</clus>
<clus scale="   60.138">  2  5  1 -1</clus>
<clus scale="  123.287">  2  6  1 -1</clus>
<clus scale="  127.599">  1  3  2 -1</clus>
</clustering>
</event>
<event>
 6    0  0.8610502E+002  0.1385891E+03  0.7546771E-02  0.1215240E+00
         21   -1    0    0  503  501  0.00000000000E+00  0.00000000000E+00  0.11677479668E+04  0.11677479668E+04  0.00000000000E+00 0. -1.
         21   -1    0    0  505  502 -0.00000000000E+00 -0.00000000000E+00 -0.17942694973E+03  0.17942694973E+03  0.00000000000E+00 0. -1.
         21    1    1    2  503  502  0.21522059292E+02  0.37272603928E+02  0.60938437505E+02  0.74605222373E+02  0.00000000000E+00 0.  1.
         21    1    1    2  504  506 -0.23383507460E+02  0.47036344821E+02  0.48432012960E+03  0.48716033714E+03  0.00000000000E+00 0. -1.
         21    1    1    2  505  504 -0.32920698541E+02 -0.12133207955E+03 -0.14685005492E+03  0.19331369468E+03  0.00000000000E+00 0. -1.
         21    1    1    2  506  501  0.34782146709E+02  0.37023130802E+02  0.58991250486E+03  0.59209566232E+03  0.00000000000E+00 0. -1.
<scales pt_clust_3="43.04005" pt_clust_4="56.59192" pt_clust_5="124.84036" pt_clust_6="56.59192"></scales>
<clustering>
<clus scale="   43.040">  1  3  2 -1</clus>
<clus scale="   56.592">  4  6 -1 -1</clus>
<clus scale="  124.840">  2  5  1 -1</clus>
<clus scale="   43.040">  1  3  2 -1</clus>
</clustering>
</event>
<event>
 6    0  0.8610502E+002  0.1611215E+03  0.7546771E-02  0.1187436E+00
         21   -1    0    0  506  501  0.00000000000E+00  0.00000000000E+00  0.39010530182E+03  0.39010530182E+03  0.00000000000E+00 0. -1.
         21   -1    0    0  504  502 -0.00000000000E+00 -0.00000000000E+00 -0.16791483318E+03  0.16791483318E+03  0.00000000000E+00 0. -1.
         21    1    1    2  503  501  0.91285949754E+01  0.32059132641E+02  0.11132274851E+03  0.11620616837E+03  0.00000000000E+00 0. -1.
         21    1    1    2  504  505 -0.16572254449E+03 -0.33307112459E+02 -0.46885961845E+02  0.17541841098E+03  0.00000000000E+00 0. -1.
         21    1    1    2  505  503  0.26349890872E+02 -0.60495369068E+02  0.25386909581E+02  0.70700082077E+02  0.00000000000E+00 0. -1.
         21    1    1    2  506  502  0.13024405864E+03  0.61743348886E+02  0.13236677239E+03  0.19569547357E+03  0.00000000000E+00 0. -1.
<scales pt_clust_3="33.33346" pt_clust_4="161.12155" pt_clust_5="61.61872" pt_clust_6="14000.00000"></scales>
<clustering>
<clus scale="   33.333">  1  3  2 -1</clus>
<clus scale="   61.619">  1  5  2 -1</clus>
<clus scale="  161.122">  2  4  1 -1</clus>
<clus scale="   33.333">  1  3  2 -1</clus>
</clustering>
</event>
<event>
 6    0  0.8610502E+002  0.1066731E+03  0.7546771E-02  0.1266858E+00
         21   -1    0    0  503  501  0.00000000000E+00  0.00000000000E+00  0.11568774696E+04  0.11568774696E+04  0.00000000000E+00 0. -1.
         21   -1    0    0  504  502 -0.00000000000E+00 -0.00000000000E+00 -0.60767296469E+02  0.60767296469E+02  0.00000000000E+00 0. -1.
         21    1    1    2  503  502  0.68964024370E+02  0.41797326679E+02  0.38364668446E+02  0.89302300977E+02  0.00000000000E+00 0. -1.
         21    1    1    2  504  506 -0.10972137385E+02 -0.41384845706E+02  0.35230869992E+01  0.42959345838E+02  0.00000000000E+00 0.  1.
         21    1    1    2  505  501 -0.10105059483E+02  0.59149543710E+02  0.96921951119E+03  0.97107530173E+03  0.00000000000E+00 0. -1.
         21    1    1    2  506  505 -0.47886827502E+02 -0.59562024684E+02  0.85002906444E+02  0.11430781748E+03  0.00000000000E+00 0. -1.
<scales pt_clust_3="90.20912" pt_clust_4="42.61365" pt_clust_5="60.00651" pt_clust_6="42.61365"></scales>
<clustering>
<clus scale="   42.614">  4  6 -1 -1</clus>
<clus scale="   60.007">  1  5  2 -1</clus>
<clus scale="   90.209">  2  3  1 -1</clus>
<clus scale="   60.007">  1  3  2 -1</clus>
</clustering>
</event>
<event>
 6    0  0.8610502E+002  0.2225453E+03  0.7546771E-02  0.1132000E+00
         21   -1    0    0  506  501  0.00000000000E+00  0.00000000000E+00  0.11629708446E+04  0.11629708446E+04  0.00000000000E+00 0.  1.
         21   -1    0    0  504  502 -0.00000000000E+00 -0.00000000000E+00 -0.13368630868E+03  0.13368630868E+03  0.00000000000E+00 0.  1.
         21    1    1    2  503  501 -0.83881624065E+02 -0.10796075914E+03  0.48938570042E+03  0.50812401650E+03  0.00000000000E+00 0.  1.
         21    1    1    2  504  503  0.10561559667E+03 -0.17424629353E+03  0.13268015339E+03  0.24314696825E+03  0.00000000000E+00 0.  1.
         21    1    1    2  505  502 -0.49183274395E+02 -0.14122217105E+02  0.15546611881E+02  0.53480170504E+02  0.00000000000E+00 0. -1.
         21    1    1    2  506  505  0.27449301791E+02  0.29632926977E+03  0.39167207022E+03  0.49190599801E+03  0.00000000000E+00 0.  1.
<scales pt_clust_3="140.11433" pt_clust_4="222.54526" pt_clust_5="51.17061" pt_clust_6="14000.00000"></scales>
<clustering>
<clus scale="   51.171">  2  5  1 -1</clus>
<clus scale="  140.114">  1  3  2 -1</clus>
<clus scale="  222.545">  2  4  1 -1</clus>
<clus scale="  140.114">  1  3  2 -1</clus>
</clustering>
</event>
<event>
 6    0  0.8610502E+002  0.2701532E+03  0.7546771E-02  0.1101192E+00
         21   -1    0    0  504  501  0.00000000000E+00  0.00000000000E+00  0.13863853900E+04  0.13863853900E+04  0.00000000000E+00 0. -1.
         21   -1    0    0  506  502 -0.00000000000E+00 -0.00000000000E+00 -0.52271623741E+03  0.52271623741E+03  0.00000000000E+00 0. -1.
         21    1    1    2  503  505  0.43167221773E+02  0.79791161127E+02 -0.12279166736E+03  0.15266902765E+03  0.00000000000E+00 0. -1.
         21    1    1    2  504  502 -0.21639725535E+03 -0.11714959554E+03  0.73919195044E+02  0.25693549240E+03  0.00000000000E+00 0. -1.
         21    1    1    2  505  501  0.47926188582E+01 -0.31811295680E+02  0.11775348047E+04  0.11779741695E+04  0.00000000000E+00 0. -1.
         21    1    1    2  506  503  0.16843741472E+03  0.69169730091E+02 -0.26499317978E+03  0.32152293786E+03  0.00000000000E+00 0. -1.
<scales pt_clust_3="60.73435" pt_clust_4="255.86657" pt_clust_5="32.17029" pt_clust_6="60.73435"></scales>
<clustering>
<clus scale="   32.170">  1  5  2 -1</clus>
<clus scale="   60.734">  3  6 -1 -1</clus>
<clus scale="  255.867">  1  4  2 -1</clus>
<clus scale="   32.170">  1  3  2 -1</clus>
</clustering>
</event>
<event>
 6    0  0.8610502E+002  0.1179264E+03  0.7546771E-02  0.1246558E+00
         21   -1    0    0  505  501  0.00000000000E+00  0.00000000000E+00  0.52252332190E+02  0.52252332190E+02  0.00000000000E+00 0. -1.
         21   -1    0    0  503  502 -0.00000000000E+00 -0.00000000000E+00 -0.13787266099E+04  0.13787266099E+04  0.00000000000E+00 0.  1.
         21    1    1    2  503  501 -0.10145735861E+03 -0.64544679166E+02 -0.34063549806E+03  0.36123697729E+03  0.00000000000E+00 0.  1.
         21    1    1    2  504  506  0.81129735553E+02  0.86324263971E+02 -0.44323188879E+03  0.45879016966E+03  0.00000000000E+00 0. -1.
         21    1    1    2  505  504 -0.30512150758E+02 -0.23843278320E+02  0.21677526864E+02  0.44378017485E+02  0.00000000000E+00 0. -1.
         21    1    1    2  506  502  0.50839773813E+02  0.20636935139E+01 -0.56428441770E+03  0.56657377763E+03  0.00000000000E+00 0.  1.
<scales pt_clust_3="117.92635" pt_clust_4="14000.00000" pt_clust_5="38.72329" pt_clust_6="49.02723"></scales>
<clustering>
<clus scale="   38.723">  1  5  2 -1</clus>
<clus scale="   49.027">  2  6  1 -1</clus>
<clus scale="  117.926">  2  3  1 -1</clus>
<clus scale="   38.723">  1  3  2 -1</clus>
</clustering>
</event>
<event>
 6    0  0.8610502E+002  0.8106269E+02  0.7546771E-02  0.1326062E+00
         21   -1    0    0  503  501  0.00000000000E+00  0.00000000000E+00  0.18500178963E+04  0.18500178963E+04  0.00000000000E+00 0.  1.
         21   -1    0    0  505  502 -0.00000000000E+00 -0.00000000000E+00 -0.24264975185E+03  0.24264975185E+03  0.00000000000E+00 0.  1.
         21    1    1    2  503  502 -0.24560402736E+02 -0.77329483606E+02  0.17215377828E+04  0.17234486938E+04  0.00000000000E+00 0.  1.
         21    1    1    2  504  506 -0.60098293589E+02  0.66707369951E+02  0.20337925575E+02  0.92061443149E+02  0.00000000000E+00 0. -1.
         21    1    1    2  505  504  0.15066891208E+02 -0.49363623610E+02 -0.17075848916E+03  0.17838789244E+03  0.00000000000E+00 0.  1.
         21    1    1    2  506  501  0.69591805117E+02  0.59985737266E+02  0.36250925196E+02  0.98769618772E+02  0.00000000000E+00 0. -1.
<scales pt_clust_3="81.06269" pt_clust_4="66.16312" pt_clust_5="51.61181" pt_clust_6="14000.00000"></scales>
<clustering>
<clus scale="   51.612">  2  5  1 -1</clus>
<clus scale="   66.163">  2  4  1 -1</clus>
<clus scale="   81.063">  1  3  2 -1</clus>
<clus scale="   81.063">  1  3  2 -1</clus>
</clustering>
</event>
<event>
 6    0  0.8610502E+002  0.8657823E+02  0.7546771E-02  0.1311356E+00
         21   -1    0    0  503  501  0.00000000000E+00  0.00000000000E+00  0.22298019568E+03  0.22298019568E+03  0.00000000000E+00 0.  1.
         21   -1    0    0  504  502 -0.00000000000E+00 -0.00000000000E+00 -0.88337620977E+03  0.88337620977E+03  0.00000000000E+00 0. -1.
         21    1    1    2  503  506 -0.85749830055E+01  0.33809501027E+02 -0.23569271083E+02  0.42096594074E+02  0.00000000000E+00 0. -1.
         21    1    1    2  504  505  0.80668975777E+02 -0.68227023218E+02  0.14705802708E+03  0.18107587823E+03  0.00000000000E+00 0.  1.
         21    1    1    2  505  501  0.12286617803E+02  0.55261979322E+02  0.30411016627E+02  0.64262565058E+02  0.00000000000E+00 0.  1.
         21    1    1    2  506  502 -0.84380610574E+02 -0.20844457131E+02 -0.81429578671E+03  0.81892136808E+03  0.00000000000E+00 0. -1.
<scales pt_clust_3="34.87998" pt_clust_4="86.57823" pt_clust_5="63.60447" pt_clust_6="14000.00000"></scales>
<clustering>
<clus scale="   34.880">  1  3  2 -1</clus>
<clus scale="   63.604">  1  5  2 -1</clus>
<clus scale="   86.578">  1  4  2 -1</clus>
<clus scale="   34.880">  1  3  2 -1</clus>
</clustering>
</event>
<event>
 6    0  0.8610502E+002  0.1179442E+03  0.7546771E-02  0.1246528E+00
         21   -1    0    0  502  501  0.00000000000E+00  0.00000000000E+00  0.25662254206E+04  0.25662254206E+04  0.00000000000E+00 0.  1.
         21   -1    0    0  505  502 -0.00000000000E+00 -0.00000000000E+00 -0.23279420161E+03  0.23279420161E+03  0.00000000000E+00 0.  1.
         21    1    1    2  503  501 -0.26098163633E+01 -0.43352356927E+02  0.24433513380E+04  0.24437373015E+04  0.00000000000E+00 0.  1.
         21    1    1    2  504  506  0.86354720294E+02  0.36308876925E+02  0.29153984313E+02  0.98109260837E+02  0.00000000000E+00 0.  1.
         21    1    1    2  505  504 -0.98590033837E+02 -0.26576936526E+02 -0.17701267099E+03  0.20435218134E+03  0.00000000000E+00 0.  1.
         21    1    1    2  506  503  0.14845129906E+02  0.33620416529E+02  0.37938567712E+02  0.52820878538E+02  0.00000000000E+00 0. -1.
<scales pt_clust_3="43.43084" pt_clust_4="35.13743" pt_clust_5="103.74897" pt_clust_6="35.13743"></scales>
<clustering>
<clus scale="   35.137">  4  6 -1 -1</clus>
<clus scale="   43.431">  1  3  2 -1</clus>
<clus scale="  103.749">  2  5  1 -1</clus>
<clus scale="   43.431">  1  3  2 -1</clus>
</clustering>
</event>
<event>
 6    0  0.8610502E+002  0.1549195E+03  0.7546771E-02  0.1194555E+00
         21   -1    0    0  505  501  0.00000000000E+00  0.00000000000E+00  0.11035819652E+04  0.11035819652E+04  0.00000000000E+00 0.  1.
         21   -1    0    0  506  502 -0.00000000000E+00 -0.00000000000E+00 -0.94187366522E+02  0.94187366522E+02  0.00000000000E+00 0.  1.
         21    1    1    2  503  501 -0.66484119176E+02 -0.99601893586E+01  0.32737369938E+03  0.33420485113E+03  0.00000000000E+00 0.  1.
         21    1    1    2  504  503 -0.14316558001E+03  0.67283613652E+01  0.21525027362E+03  0.25860072397E+03  0.00000000000E+00 0.  1.
         21    1    1    2  505  502  0.19126924820E+03 -0.37673723844E+02  0.50795370016E+03  0.54407738078E+03  0.00000000000E+00 0.  1.
         21    1    1    2  506  504  0.18380450980E+02  0.40905551838E+02 -0.41183074426E+02  0.60886375886E+02  0.00000000000E+00 0.  1.
<scales pt_clust_3="65.37584" pt_clust_4="154.91955" pt_clust_5="14000.00000" pt_clust_6="44.84535"></scales>
<clustering>
<clus scale="   44.845">  2  6  1 -1</clus>
<clus scale="   65.376">  1  3  2 -1</clus>
<clus scale="  154.920">  2  4  1 -1</clus>
<clus scale="   65.376">  1  3  2 -1</clus>
</clustering>
</event>
<event>
 6    0  0.8610502E+002  0.9957976E+02  0.7546771E-02  0.1281182E+00
         21   -1    0    0  505  501  0.00000000000E+00  0.00000000000E+00  0.61692568026E+03  0.61692568026E+03  0.00000000000E+00 0.  1.
         21   -1    0    0  506  502 -0.00000000000E+00 -0.00000000000E+00 -0.25152982342E+03  0.25152982342E+03  0.00000000000E+00 0. -1.
         21    1    1    2  503  501 -0.24293025477E+02 -0.15195756648E+03  0.31612234571E+03  0.35158866670E+03  0.00000000000E+00 0.  1.
         21    1    1    2  504  502  0.36968508495E+02 -0.27714643492E+01 -0.20524158650E+03  0.20856284535E+03  0.00000000000E+00 0. -1.
         21    1    1    2  505  504  0.60895535167E+01  0.68830348687E+02  0.18084216205E+03  0.19359387164E+03  0.00000000000E+00 0.  1.
         21    1    1    2  506  503 -0.18765036535E+02  0.85898682145E+02  0.73672935582E+02  0.11471011999E+03  0.00000000000E+00 0.  1.
<scales pt_clust_3="99.57976" pt_clust_4="37.07225" pt_clust_5="69.37269" pt_clust_6="14000.00000"></scales>
<clustering>
<clus scale="   37.072">  2  4  1 -1</clus>
<clus scale="   69.373">  1  5  2 -1</clus>
<clus scale="   99.580">  1  3  2 -1</clus>
<clus scale="   69.373">  1  3  2 -1</clus>
</clustering>
</event>
<event>
 6    0  0.8610502E+002  0.2333917E+03  0.7546771E-02  0.1124275E+00
         21   -1    0    0  503  501  0.00000000000E+00  0.00000000000E+00  0.38106648430E+03  0.38106648430E+03  0.00000000000E+00 0. -1.
         21   -1    0    0  506  502 -0.00000000000E+00 -0.00000000000E+00 -0.23984513108E+03  0.23984513108E+03  0.00000000000E+00 0. -1.
         21    1    1    2  503  504 -0.37055387695E+02 -0.21591625117E+02  0.14330486920E+03  0.14958471035E+03  0.00000000000E+00 0. -1.
         21    1    1    2  504  502 -0.16553466854E+03 -0.11619824138E+03  0.64116764947E+02  0.21216672061E+03  0.00000000000E+00 0. -1.
         21    1    1    2  505  501  0.11999284635E+03  0.74992479167E+02 -0.11761332930E+02  0.14198761939E+03  0.00000000000E+00 0. -1.
         21    1    1    2  506  505  0.82597209884E+02  0.62797387330E+02 -0.54438948002E+02  0.11717256503E+03  0.00000000000E+00 0. -1.
<scales pt_clust_3="42.88706" pt_clust_4="227.41802" pt_clust_5="45.63972" pt_clust_6="45.63972"></scales>
<clustering>
<clus scale="   42.887">  1  3  2 -1</clus>
<clus scale="   45.640">  5  6 -1 -1</clus>
<clus scale="  227.418">  1  4  2 -1</clus>
<clus scale="   42.887">  1  3  2 -1</clus>
</clustering>
</event>
<event>
 6    0  0.8610502E+002  0.2631649E+03  0.7546771E-02  0.1105256E+00
         21   -1    0    0  506  501  0.00000000000E+00  0.00000000000E+00  0.22598237570E+03  0.22598237570E+03  0.00000000000E+00 0. -1.
         21   -1    0    0  503  502 -0.00000000000E+00 -0.00000000000E+00 -0.74020135453E+03  0.74020135453E+03  0.00000000000E+00 0.  1.
         21    1    1    2  503  501  0.80021683668E+01  0.29045322762E+02 -0.22688552838E+02  0.37715194588E+02  0.00000000000E+00 0. -1.
         21    1    1    2  504  505 -0.11170714222E+03 -0.41836182522E+02  0.10580962718E+02  0.11975269751E+03  0.00000000000E+00 0.  1.
         21    1    1    2  505  502  0.23651565073E+03 -0.84577096247E+01 -0.59826838372E+03  0.64337877246E+03  0.00000000000E+00 0.  1.
         21    1    1    2  506  504 -0.13281067688E+03  0.21248569385E+02  0.96156995006E+02  0.16533706567E+03  0.00000000000E+00 0. -1.
<scales pt_clust_3="30.12749" pt_clust_4="92.13807" pt_clust_5="244.10122" pt_clust_6="92.13807"></scales>
<clustering>
<clus scale="   30.127">  2  3  1 -1</clus>
<clus scale="   92.138">  4  6 -1 -1</clus>
<clus scale="  244.101">  2  5  1 -1</clus>
<clus scale="  263.165">  1  3  2 -1</clus>
</clustering>
</event>
<event>
 6    0  0.8610502E+002  0.1331524E+03  0.7546771E-02  0.1222852E+00
         21   -1    0    0  506  501  0.00000000000E+00  0.00000000000E+00  0.25094762732E+03  0.25094762732E+03  0.00000000000E+00 0. -1.
         21   -1    0    0  505  502 -0.00000000000E+00 -0.00000000000E+00 -0.17336234238E+04  0.17336234238E+04  0.00000000000E+00 0.  1.
         21    1    1    2  503  501  0.10002909667E+03  0.37588422155E+02  0.19556930245E+03  0.22285883810E+03  0.00000000000E+00 0. -1.
         21    1    1    2  504  502 -0.33686188284E+02  0.10730218851E+02 -0.13345979295E+04  0.13350661146E+04  0.00000000000E+00 0.  1.
         21    1    1    2  505  503 -0.10049458608E+03 -0.37193395265E+02 -0.36797814619E+03  0.38326286875E+03  0.00000000000E+00 0.  1.
         21    1    1    2  506  504  0.34151677700E+02 -0.11125245742E+02  0.24330976805E+02  0.43383229650E+02  0.00000000000E+00 0. -1.
<scales pt_clust_3="14000.00000" pt_clust_4="35.35388" pt_clust_5="133.15243" pt_clust_6="35.07358"></scales>
<clustering>
<clus scale="   35.354">  2  4  1 -1</clus>
<clus scale="   35.074">  1  6  2 -1</clus>
<clus scale="  133.152">  2  5  1 -1</clus>
<clus scale="   35.074">  1  3  2 -1</clus>
</clustering>
</event>
<event>
 6    0  0.8610502E+002  0.9753398E+02  0.7546771E-02  0.1285569E+00
         21   -1    0    0  504  501  0.00000000000E+00  0.00000000000E+00  0.68845311026E+03  0.68845311026E+03  0.00000000000E+00 0.  1.
         21   -1    0    0  506  502 -0.00000000000E+00 -0.00000000000E+00 -0.57579435418E+02  0.57579435418E+02  0.00000000000E+00 0. -1.
         21    1    1    2  503  502 -0.71298610694E+02 -0.30401948848E+02  0.13510855885E+03  0.15576293864E+03  0.00000000000E+00 0. -1.
         21    1    1    2  504  503  0.11558019212E+02  0.44115738789E+02  0.83390687066E+02  0.95046267188E+02  0.00000000000E+00 0. -1.
         21    1    1    2  505  501 -0.47695178627E+02 -0.30771079395E+02  0.37638850518E+03  0.38064418585E+03  0.00000000000E+00 0.  1.
         21    1    1    2  506  505  0.10743577011E+03  0.17057289453E+02  0.35985923750E+02  0.11457915400E+03  0.00000000000E+00 0. -1.
<scales pt_clust_3="97.53398" pt_clust_4="45.60467" pt_clust_5="40.49867" pt_clust_6="14000.00000"></scales>
<clustering>
<clus scale="   45.605">  1  4  2 -1</clus>
<clus scale="   40.499">  1  5  2 -1</clus>
<clus scale="   97.534">  1  3  2 -1</clus>
<clus scale="   45.605">  1  3  2 -1</clus>
</clustering>
</event>
<event>
 6    0  0.8610502E+002  0.1283842E+03  0.7546771E-02  0.1229873E+00
         21   -1    0    0  504  501  0.00000000000E+00  0.00000000000E+00  0.47445773563E+03  0.47445773563E+03  0.00000000000E+00 0. -1.
         21   -1    0    0  505  502 -0.00000000000E+00 -0.00000000000E+00 -0.32552151465E+03  0.32552151465E+03  0.00000000000E+00 0. -1.
         21    1    1    2  503  501 -0.61987425727E+02 -0.37963499762E+02 -0.44995633630E+02  0.85488451315E+02  0.00000000000E+00 0. -1.
         21    1    1    2  504  502  0.12411100586E+03  0.59080568578E+02  0.43691122507E+03  0.45802344257E+03  0.00000000000E+00 0. -1.
         21    1    1    2  505  506 -0.36333407493E+02  0.13080116160E+02 -0.13111182638E+03  0.13668034590E+03  0.00000000000E+00 0. -1.
         21    1    1    2  506  503 -0.25790172641E+02 -0.34197184976E+02 -0.11186754408E+03  0.11978701050E+03  0.00000000000E+00 0. -1.
<scales pt_clust_3="128.38424" pt_clust_4="14000.00000" pt_clust_5="38.61614" pt_clust_6="54.51097"></scales>
<clustering>
<clus scale="   38.616">  2  5  1 -1</clus>
<clus scale="   54.511">  2  6  1 -1</clus>
<clus scale="  128.384">  2  3  1 -1</clus>
<clus scale="  128.384">  1  3  2 -1</clus>
</clustering>
</event>
<event>
 6    0  0.8610502E+002  0.1989288E+03  0.7546771E-02  0.1150646E+00
         21   -1    0    0  505  501  0.00000000000E+00  0.00000000000E+00  0.19699340484E+03  0.19699340484E+03  0.00000000000E+00 0.  1.
         21   -1    0    0  504  502 -0.00000000000E+00 -0.00000000000E+00 -0.14033846909E+04  0.14033846909E+04  0.00000000000E+00 0. -1.
         21    1    1    2  503  502  0.15388529125E+03 -0.95203434839E+02 -0.34303180168E+03  0.38783397715E+03  0.00000000000E+00 0.  1.
         21    1    1    2  504  501 -0.20107859370E+03  0.62854894490E+02 -0.91033180267E+03  0.93439142203E+03  0.00000000000E+00 0. -1.
         21    1    1    2  505  506 -0.13967911696E+02 -0.27997014145E+02  0.14468953653E+03  0.14803377094E+03  0.00000000000E+00 0.  1.
         21    1    1    2  506  503  0.61161214147E+02  0.60345554494E+02 -0.97717218271E+02  0.13011892564E+03  0.00000000000E+00 0.  1.
<scales pt_clust_3="14000.00000" pt_clust_4="198.92876" pt_clust_5="31.28794" pt_clust_6="76.51544"></scales>
<clustering>
<clus scale="   31.288">  1  5  2 -1</clus>
<clus scale="   76.515">  1  6  2 -1</clus>
<clus scale="  198.929">  2  4  1 -1</clus>
<clus scale="   31.288">  1  3  2 -1</clus>
</clustering>
</event>
<event>
 6    0  0.8610502E+002  0.1194830E+03  0.7546771E-02  0.1243952E+00
         21   -1    0    0  504  501  0.00000000000E+00  0.00000000000E+00  0.25558834452E+02  0.25558834452E+02  0.00000000000E+00 0.  1.
         21   -1    0    0  505  502 -0.00000000000E+00 -0.00000000000E+00 -0.78304714364E+03  0.78304714364E+03  0.00000000000E+00 0.  1.
         21    1    1    2  503  502  0.54433993792E+02 -0.41431279098E+02 -0.14420827093E+03  0.15961088926E+03  0.00000000000E+00 0.  1.
         21    1    1    2  504  506 -0.30430335277E+02 -0.10861484712E+01 -0.24080760515E+02  0.38820974364E+02  0.00000000000E+00 0.  1.
         21    1    1    2  505  501 -0.27390812303E+02  0.98245155018E+02 -0.40893625431E+03  0.42146319788E+03  0.00000000000E+00 0.  1.
         21    1    1    2  506  503  0.33871537887E+01 -0.55727727449E+02 -0.18026302344E+03  0.18871091659E+03  0.00000000000E+00 0.  1.
<scales pt_clust_3="55.70317" pt_clust_4="30.44971" pt_clust_5="104.94227" pt_clust_6="55.70317"></scales>
<clustering>
<clus scale="   30.450">  1  4  2 -1</clus>
<clus scale="   55.703">  3  6 -1 -1</clus>
<clus scale="  104.942">  2  5  1 -1</clus>
<clus scale="   30.450">  1  3  2 -1</clus>
</clustering>
</event>
<event>
 6    0  0.8610502E+002  0.7585232E+02  0.7546771E-02  0.1341252E+00
         21   -1    0    0  504  501  0.00000000000E+00  0.00000000000E+00  0.86521312769E+02  0.86521312769E+02  0.00000000000E+00 0.  1.
         21   -1    0    0  505  502 -0.00000000000E+00 -0.00000000000E+00 -0.39208763827E+03  0.39208763827E+03  0.00000000000E+00 0. -1.
         21    1    1    2  503  501  0.43793510500E+02  0.31990546868E+02  0.45910643606E+02  0.71056694598E+02  0.00000000000E+00 0.  1.
         21    1    1    2  504  506  0.23708875774E+02  0.29978087317E+02 -0.29080276790E+02  0.48025607834E+02  0.00000000000E+00 0.  1.
         21    1    1    2  505  503  0.15178940631E+02 -0.74025879162E+02 -0.15308435908E+03  0.17071921983E+03  0.00000000000E+00 0. -1.
         21    1    1    2  506  502 -0.82681326905E+02  0.12057244978E+02 -0.16931233323E+03  0.18880742877E+03  0.00000000000E+00 0. -1.
<scales pt_clust_3="14000.00000" pt_clust_4="38.22037" pt_clust_5="72.82727" pt_clust_6="75.85232"></scales>
<clustering>
<clus scale="   38.220">  1  4  2 -1</clus>
<clus scale="   72.827">  2  5  1 -1</clus>
<clus scale="   75.852">  2  6  1 -1</clus>
<clus scale="   38.220">  1  3  2 -1</clus>
</clustering>
</event>
<event>
 6    0  0.8610502E+002  0.1020988E+03  0.7546771E-02  0.1275943E+00
         21   -1    0    0  502  501  0.00000000000E+00  0.00000000000E+00  0.49806970955E+03  0.49806970955E+03  0.00000000000E+00 0.  1.
         21   -1    0    0  505  502 -0.00000000000E+00 -0.00000000000E+00 -0.31406420553E+03  0.31406420553E+03  0.00000000000E+00 0.  1.
         21    1    1    2  503  501  0.98601399487E+02  0.31557486596E+02  0.44754078122E+03  0.45935918603E+03  0.00000000000E+00 0.  1.
         21    1    1    2  504  503 -0.40762584225E+02 -0.45517995017E+02 -0.19907729962E+03  0.20824324087E+03  0.00000000000E+00 0.  1.
         21    1    1    2  505  506  0.55705326199E+01 -0.34070588578E+02 -0.54290421635E+02  0.64337280958E+02  0.00000000000E+00 0.  1.
         21    1    1    2  506  504 -0.63409347882E+02  0.48031096999E+02 -0.10167555933E+02  0.80194207218E+02  0.00000000000E+00 0.  1.
<scales pt_clust_3="102.09876" pt_clust_4="14000.00000" pt_clust_5="34.52298" pt_clust_6="75.22944"></scales>
<clustering>
<clus scale="   34.523">  2  5  1 -1</clus>
<clus scale="   75.229">  2  6  1 -1</clus>
<clus scale="  102.099">  1  3  2 -1</clus>
<clus scale="  102.099">  1  3  2 -1</clus>
</clustering>
</event>
<event>
 6    0  0.1969389E+003  0.1217650E+03  0.7546771E-02  0.1240213E+00
         21   -1    0    0  503  501  0.00000000000E+00  0.00000000000E+00  0.53768285731E+03  0.53768285731E+03  0.00000000000E+00 0.  1.
         21   -1    0    0  506  502 -0.00000000000E+00 -0.00000000000E+00 -0.85708758978E+03  0.85708758978E+03  0.00000000000E+00 0.  1.
         21    1    1    2  503  505 -0.14236160229E+01  0.63545311203E+02  0.35057435949E+03  0.35628979047E+03  0.00000000000E+00 0.  1.
         21    1    1    2  504  502 -0.34265017128E+02 -0.11744318143E+03 -0.80139282426E+03  0.81067715586E+03  0.00000000000E+00 0.  1.
         21    1    1    2  505  504  0.70255071761E+02  0.85368677636E+02  0.14190844135E+03  0.17989327935E+03  0.00000000000E+00 0.  1.
         21    1    1    2  506  501 -0.34566438610E+02 -0.31470807409E+02 -0.10494709047E+02  0.47910221405E+02  0.00000000000E+00 0.  1.
<scales pt_clust_3="48.95625" pt_clust_4="14000.00000" pt_clust_5="121.76501" pt_clust_6="46.74666"></scales>
<clustering>
<clus scale="   46.747">  1  6  2 -1</clus>
<clus scale="   48.956">  1  3  2 -1</clus>
<clus scale="  121.765">  1  5  2 -1</clus>
<clus scale="   46.747">  1  3  2 -1</clus>
</clustering>
</event>
<event>
 6    0  0.8610502E+002  0.1165607E+03  0.7546771E-02  0.1248881E+00
         21   -1    0    0  503  501  0.00000000000E+00  0.00000000000E+00  0.62307676845E+03  0.62307676845E+03  0.00000000000E+00 0. -1.
         21   -1    0    0  501  502 -0.00000000000E+00 -0.00000000000E+00 -0.35706241815E+03  0.35706241815E+03  0.00000000000E+00 0.  1.
         21    1    1    2  503  506 -0.18555752831E+02  0.27880199816E+02  0.50254125466E+03  0.50365596804E+03  0.00000000000E+00 0. -1.
         21    1    1    2  504  505  0.50391910657E+02  0.19525900049E+02  0.18197900183E+02  0.57024284331E+02  0.00000000000E+00 0. -1.
         21    1    1    2  505  502 -0.10206048082E+03 -0.39730423332E+02 -0.31062968842E+03  0.32937160110E+03  0.00000000000E+00 0.  1.
         21    1    1    2  506  504  0.70224322991E+02 -0.76756765327E+01  0.55904883870E+02  0.90087333129E+02  0.00000000000E+00 0. -1.
<scales pt_clust_3="33.49062" pt_clust_4="33.44214" pt_clust_5="110.11127" pt_clust_6="33.44214"></scales>
<clustering>
<clus scale="   33.442">  4  6 -1 -1</clus>
<clus scale="   33.491">  1  3  2 -1</clus>
<clus scale="  110.111">  2  5  1 -1</clus>
<clus scale="   33.491">  1  3  2 -1</clus>
</clustering>
</event>
<event>
 6    0  0.8610502E+002  0.1280904E+03  0.7546771E-02  0.1230317E+00
         21   -1    0    0  504  501  0.00000000000E+00  0.00000000000E+00  0.28757504019E+03  0.28757504019E+03  0.00000000000E+00 0. -1.
         21   -1    0    0  505  502 -0.00000000000E+00 -0.00000000000E+00 -0.12263578082E+04  0.12263578082E+04  0.00000000000E+00 0. -1.
         21    1    1    2  503  506  0.56355063051E+02  0.42131477857E+02 -0.85558902115E+02  0.11077581094E+03  0.00000000000E+00 0.  1.
         21    1    1    2  504  502  0.21785346550E+02 -0.35067809482E+02 -0.43712763677E+02  0.60126186429E+02  0.00000000000E+00 0. -1.
         21    1    1    2  505  503  0.39273263128E+02  0.66964692463E+02 -0.10566944499E+04  0.10595422690E+04  0.00000000000E+00 0. -1.
         21    1    1    2  506  501 -0.11741367273E+03 -0.74028360838E+02  0.24718334773E+03  0.28348858204E+03  0.00000000000E+00 0. -1.
<scales pt_clust_3="14000.00000" pt_clust_4="41.28381" pt_clust_5="68.70490" pt_clust_6="128.09045"></scales>
<clustering>
<clus scale="   41.284">  2  4  1 -1</clus>
<clus scale="   68.705">  2  5  1 -1</clus>
<clus scale="  128.090">  1  6  2 -1</clus>
<clus scale="  128.090">  1  3  2 -1</clus>
</clustering>
</event>
<event>
 6    0  0.8610502E+002  0.1000446E+03  0.7546771E-02  0.1280202E+00
         21   -1    0    0  502  501  0.00000000000E+00  0.00000000000E+00  0.19695409993E+03  0.19695409993E+03  0.00000000000E+00 0. -1.
         21   -1    0    0  504  502 -0.00000000000E+00 -0.00000000000E+00 -0.26994525600E+03  0.26994525600E+03  0.00000000000E+00 0.  1.
         21    1    1    2  503  501  0.85755536947E+02 -0.19980817568E+02  0.14479426745E+03  0.16946570471E+03  0.00000000000E+00 0. -1.
         21    1    1    2  504  506  0.25077841608E+02  0.65405656921E+02 -0.10760612187E+03  0.12839733471E+03  0.00000000000E+00 0.  1.
         21    1    1    2  505  503 -0.72511433538E+02 -0.38044605085E+02 -0.45996857945E+02  0.93920236960E+02  0.00000000000E+00 0.  1.
         21    1    1    2  506  505 -0.38321945018E+02 -0.73802342683E+01 -0.64182443700E+02  0.75116079551E+02  0.00000000000E+00 0.  1.
<scales pt_clust_3="89.00888" pt_clust_4="70.04854" pt_clust_5="31.53306" pt_clust_6="31.53306"></scales>
<clustering>
<clus scale="   31.533">  5  6 -1 -1</clus>
<clus scale="   70.049">  2  4  1 -1</clus>
<clus scale="   89.009">  1  3  2 -1</clus>
<clus scale="   89.009">  1  3  2 -1</clus>
</clustering>
</event>
<event>
 6    0  0.8610502E+002  0.9488525E+02  0.7546771E-02  0.1291435E+00
         21   -1    0    0  504  501  0.00000000000E+00  0.00000000000E+00  0.44678031180E+03  0.44678031180E+03  0.00000000000E+00 0. -1.
         21   -1    0    0  506  502 -0.00000000000E+00 -0.00000000000E+00 -0.43093990429E+03  0.43093990429E+03  0.00000000000E+00 0. -1.
         21    1    1    2  503  501 -0.16725952906E+02 -0.44617279211E+02  0.26628822172E+03  0.27051779263E+03  0.00000000000E+00 0. -1.
         21    1    1    2  504  505 -0.40907551023E+02  0.60881929571E+02 -0.28403699980E+03  0.29335482668E+03  0.00000000000E+00 0. -1.
         21    1    1    2  505  502 -0.46603233920E+02 -0.18520804573E+02 -0.11894555104E+03  0.12908495546E+03  0.00000000000E+00 0. -1.
         21    1    1    2  506  503  0.10423673785E+03  0.22561542128E+01  0.15253473664E+03  0.18476264133E+03  0.00000000000E+00 0. -1.
<scales pt_clust_3="47.64933" pt_clust_4="14000.00000" pt_clust_5="51.06853" pt_clust_6="94.88525"></scales>
<clustering>
<clus scale="   47.649">  1  3  2 -1</clus>
<clus scale="   51.069">  2  5  1 -1</clus>
<clus scale="   94.885">  1  6  2 -1</clus>
<clus scale="   47.649">  1  3  2 -1</clus>
</clustering>
</event>
<event>
 6    0  0.8610502E+002  0.8010030E+02  0.7546771E-02  0.1328767E+00
         21   -1    0    0  505  501  0.00000000000E+00  0.00000000000E+00  0.12193749926E+03  0.12193749926E+03  0.00000000000E+00 0.  1.
         21   -1    0    0  503  502 -0.00000000000E+00 -0.00000000000E+00 -0.39139224619E+04  0.39139224619E+04  0.00000000000E+00 0.  1.
         21    1    1    2  503  501 -0.48339669613E+02  0.62810810237E+02 -0.13295552969E+04  0.13319156163E+04  0.00000000000E+00 0.  1.
         21    1    1    2  504  502  0.59203689991E+02 -0.33374662134E+02 -0.44934476526E+03  0.45445534769E+03  0.00000000000E+00 0.  1.
         21    1    1    2  505  506 -0.62527292909E+02  0.49962004120E+02  0.10347163143E+03  0.13081377116E+03  0.00000000000E+00 0.  1.
         21    1    1    2  506  504  0.51663272531E+02 -0.79398152223E+02 -0.21165565319E+04  0.21186752260E+04  0.00000000000E+00 0.  1.
<scales pt_clust_3="56.14898" pt_clust_4="67.96282" pt_clust_5="80.10030" pt_clust_6="14000.00000"></scales>
<clustering>
<clus scale="   67.963">  2  4  1 -1</clus>
<clus scale="   56.149">  2  3  1 -1</clus>
<clus scale="   80.100">  1  5  2 -1</clus>
<clus scale="   80.100">  1  3  2 -1</clus>
</clustering>
</event>
<event>
 6    0  0.8610502E+002  0.1210206E+03  0.7546771E-02  0.1241423E+00
         21   -1    0    0  505  501  0.00000000000E+00  0.00000000000E+00  0.71845422926E+02  0.71845422926E+02  0.00000000000E+00 0.  1.
         21   -1    0    0  503  502 -0.00000000000E+00 -0.00000000000E+00 -0.13893417897E+04  0.13893417897E+04  0.00000000000E+00 0.  1.
         21    1    1    2  503  501 -0.50063656199E+02 -0.44762889274E+01 -0.14695554892E+03  0.15531368321E+03  0.00000000000E+00 0.  1.
         21    1    1    2  504  506  0.64366736255E+02 -0.74607963323E+02 -0.10685797660E+03  0.14535491767E+03  0.00000000000E+00 0.  1.
         21    1    1    2  505  504 -0.25192672101E+02  0.14908856236E+03 -0.74064364823E+02  0.16836745615E+03  0.00000000000E+00 0.  1.
         21    1    1    2  506  502  0.10889592044E+02 -0.70004310113E+02 -0.98961847644E+03  0.99215115560E+03  0.00000000000E+00 0.  1.
<scales pt_clust_3="50.26337" pt_clust_4="14000.00000" pt_clust_5="121.02061" pt_clust_6="79.15875"></scales>
<clustering>
<clus scale="   50.263">  2  3  1 -1</clus>
<clus scale="   79.159">  2  6  1 -1</clus>
<clus scale="  121.021">  1  5  2 -1</clus>
<clus scale="  121.021">  1  3  2 -1</clus>
</clustering>
</event>
<event>
 6    0  0.8610502E+002  0.8069569E+02  0.7546771E-02  0.1327089E+00
         21   -1    0    0  506  501  0.00000000000E+00  0.00000000000E+00  0.11774625055E+03  0.11774625055E+03  0.00000000000E+00 0.  1.
         21   -1    0    0  505  502 -0.00000000000E+00 -0.00000000000E+00 -0.45892533075E+03  0.45892533075E+03  0.00000000000E+00 0.  1.
         21    1    1    2  503  502 -0.35742531482E+02  0.35559224671E+02 -0.38480199623E+02  0.63424859314E+02  0.00000000000E+00 0.  1.
         21    1    1    2  504  501  0.89493599223E+02 -0.38138735647E+02 -0.11595774025E+02  0.97970043554E+02  0.00000000000E+00 0.  1.
         21    1    1    2  505  504 -0.25539922312E+02 -0.74732057723E+02 -0.31880505341E+03  0.32844151711E+03  0.00000000000E+00 0.  1.
         21    1    1    2  506  503 -0.28211145429E+02  0.77311568699E+02  0.27701946860E+02  0.86835161318E+02  0.00000000000E+00 0.  1.
<scales pt_clust_3="50.41812" pt_clust_4="14000.00000" pt_clust_5="71.19669" pt_clust_6="80.69569"></scales>
<clustering>
<clus scale="   50.418">  2  3  1 -1</clus>
<clus scale="   71.197">  2  5  1 -1</clus>
<clus scale="   80.696">  1  6  2 -1</clus>
<clus scale="   80.696">  1  3  2 -1</clus>
</clustering>
</event>
<event>
 6    0  0.8610502E+002  0.8396651E+02  0.7546771E-02  0.1318158E+00
         21   -1    0    0  504  501  0.00000000000E+00  0.00000000000E+00  0.16923093048E+04  0.16923093048E+04  0.00000000000E+00 0.  1.
         21   -1    0    0  506  502 -0.00000000000E+00 -0.00000000000E+00 -0.12294508770E+02  0.12294508770E+02  0.00000000000E+00 0.  1.
         21    1    1    2  503  505 -0.47374578316E+02  0.81013187992E+02  0.33180615229E+03  0.34482286757E+03  0.00000000000E+00 0.  1.
         21    1    1    2  504  502 -0.41055171842E+02 -0.78228095096E+01  0.20340778592E+03  0.20765705106E+03  0.00000000000E+00 0.  1.
         21    1    1    2  505  501  0.61236530806E+02 -0.55015842074E+02  0.10124617642E+04  0.10158028744E+04  0.00000000000E+00 0.  1.
         21    1    1    2  506  503  0.27193219352E+02 -0.18174536408E+02  0.13233909356E+03  0.13632102052E+03  0.00000000000E+00 0.  1.
<scales pt_clust_3="83.96651" pt_clust_4="37.28839" pt_clust_5="14000.00000" pt_clust_6="32.70757"></scales>
<clustering>
<clus scale="   32.708">  2  6  1 -1</clus>
<clus scale="   37.288">  2  4  1 -1</clus>
<clus scale="   83.967">  2  3  1 -1</clus>
<clus scale="   83.967">  1  3  2 -1</clus>
</clustering>
</event>
<event>
 6    0  0.8610502E+002  0.1456725E+03  0.7546771E-02  0.1205894E+00
         21   -1    0    0  505  501  0.00000000000E+00  0.00000000000E+00  0.68165379325E+03  0.68165379325E+03  0.00000000000E+00 0. -1.
         21   -1    0    0  504  502 -0.00000000000E+00 -0.00000000000E+00 -0.30756539848E+03  0.30756539848E+03  0.00000000000E+00 0.  1.
         21    1    1    2  503  506  0.15025391559E+03 -0.34623500091E+02 -0.52400200234E+02  0.16285210128E+03  0.00000000000E+00 0.  1.
         21    1    1    2  504  503  0.59922853999E+02  0.66535500905E+02 -0.10303909280E+03  0.13650925228E+03  0.00000000000E+00 0.  1.
         21    1    1    2  505  502 -0.13877760498E+03  0.17776672762E+02 -0.12894925762E+02  0.14050449405E+03  0.00000000000E+00 0.  1.
         21    1    1    2  506  501 -0.71399164606E+02 -0.49688673575E+02  0.54242261357E+03  0.54935334412E+03  0.00000000000E+00 0. -1.
<scales pt_clust_3="14000.00000" pt_clust_4="79.13846" pt_clust_5="145.67250" pt_clust_6="86.98738"></scales>
<clustering>
<clus scale="   86.987">  1  6  2 -1</clus>
<clus scale="   79.138">  2  4  1 -1</clus>
<clus scale="  145.673">  2  5  1 -1</clus>
<clus scale="   86.987">  1  3  2 -1</clus>
</clustering>
</event>
<event>
 6    0  0.8610502E+002  0.1455411E+03  0.7546771E-02  0.1206062E+00
         21   -1    0    0  506  501  0.00000000000E+00  0.00000000000E+00  0.34572159106E+03  0.34572159106E+03  0.00000000000E+00 0.  1.
         21   -1    0    0  503  502 -0.00000000000E+00 -0.00000000000E+00 -0.12658234433E+04  0.12658234433E+04  0.00000000000E+00 0.  1.
         21    1    1    2  503  505  0.30487245805E+02  0.63194938028E+01 -0.96696964106E+02  0.10158597849E+03  0.00000000000E+00 0.  1.
         21    1    1    2  504  501 -0.47124117890E+02 -0.13861433064E+03  0.31817017140E+03  0.35023830903E+03  0.00000000000E+00 0.  1.
         21    1    1    2  505  504  0.14780291742E+02  0.40993241525E+02 -0.59245288646E+02  0.73545272462E+02  0.00000000000E+00 0.  1.
         21    1    1    2  506  502  0.18565803433E+01  0.91301595312E+02 -0.10823297709E+04  0.10861754744E+04  0.00000000000E+00 0.  1.
<scales pt_clust_3="31.13532" pt_clust_4="145.54110" pt_clust_5="44.52882" pt_clust_6="14000.00000"></scales>
<clustering>
<clus scale="   31.135">  2  3  1 -1</clus>
<clus scale="   44.529">  2  5  1 -1</clus>
<clus scale="  145.541">  1  4  2 -1</clus>
<clus scale="  145.541">  1  3  2 -1</clus>
</clustering>
</event>
<event>
 6    0  0.8610502E+002  0.8592560E+02  0.7546771E-02  0.1313030E+00
         21   -1    0    0  503  501  0.00000000000E+00  0.00000000000E+00  0.10819546304E+03  0.10819546304E+03  0.00000000000E+00 0.  1.
         21   -1    0    0  506  502 -0.00000000000E+00 -0.00000000000E+00 -0.12125323944E+04  0.12125323944E+04  0.00000000000E+00 0. -1.
         21    1    1    2  503  505  0.15706883377E+02 -0.44843443841E+02  0.89888403815E+02  0.10167382053E+03  0.00000000000E+00 0.  1.
         21    1    1    2  504  502 -0.35504091200E+02  0.16467331917E+02 -0.13099357659E+03  0.13671514407E+03  0.00000000000E+00 0. -1.
         21    1    1    2  505  504  0.49832631548E+02  0.95074245546E+02 -0.36993420780E+03  0.38519309630E+03  0.00000000000E+00 0. -1.
         21    1    1    2  506  501 -0.30035423726E+02 -0.66698133622E+02 -0.69329755075E+03  0.69714579650E+03  0.00000000000E+00 0. -1.
<scales pt_clust_3="47.36587" pt_clust_4="39.13711" pt_clust_5="14000.00000" pt_clust_6="85.92560"></scales>
<clustering>
<clus scale="   39.137">  2  4  1 -1</clus>
<clus scale="   47.366">  1  3  2 -1</clus>
<clus scale="   85.926">  2  6  1 -1</clus>
<clus scale="   47.366">  1  3  2 -1</clus>
</clustering>
</event>
<event>
 6    0  0.8610502E+002  0.8328350E+02  0.7546771E-02  0.1319983E+00
         21   -1    0    0  505  501  0.00000000000E+00  0.00000000000E+00  0.85319396144E+03  0.85319396144E+03  0.00000000000E+00 0.  1.
         21   -1    0    0  504  502 -0.00000000000E+00 -0.00000000000E+00 -0.41107820146E+02  0.41107820146E+02  0.00000000000E+00 0.  1.
         21    1    1    2  503  506 -0.48064771150E+02  0.22694251983E+02  0.13640801379E+03  0.14639807897E+03  0.00000000000E+00 0.  1.
         21    1    1    2  504  501  0.11613948463E+03 -0.64733419292E+02  0.28974203890E+03  0.31879341990E+03  0.00000000000E+00 0.  1.
         21    1    1    2  505  503 -0.35823096839E+02  0.26056662829E+01  0.37536844732E+03  0.37708295508E+03  0.00000000000E+00 0.  1.
         21    1    1    2  506  502 -0.32251616643E+02  0.39433501026E+02  0.10567641274E+02  0.52027327640E+02  0.00000000000E+00 0.  1.
<scales pt_clust_3="14000.00000" pt_clust_4="83.28350" pt_clust_5="35.91774" pt_clust_6="52.59116"></scales>
<clustering>
<clus scale="   35.918">  1  5  2 -1</clus>
<clus scale="   52.591">  2  6  1 -1</clus>
<clus scale="   83.284">  2  4  1 -1</clus>
<clus scale="   35.918">  1  3  2 -1</clus>
</clustering>
</event>
<event>
 6    0  0.8610502E+002  0.2417153E+03  0.7546771E-02  0.1118655E+00
         21   -1    0    0  506  501  0.00000000000E+00  0.00000000000E+00  0.40391851939E+03  0.40391851939E+03  0.00000000000E+00 0.  1.
         21   -1    0    0  503  502 -0.00000000000E+00 -0.00000000000E+00 -0.38782177240E+03  0.38782177240E+03  0.00000000000E+00 0.  1.
         21    1    1    2  503  501  0.14613124417E+03 -0.25427430478E+03 -0.39291044824E+02  0.29589448930E+03  0.00000000000E+00 0.  1.
         21    1    1    2  504  505 -0.86162690662E+02 -0.28500324316E+01  0.44487140709E+02  0.97011533518E+02  0.00000000000E+00 0.  1.
         21    1    1    2  505  502  0.37429018703E+02  0.23055468117E+03 -0.95334789306E+02  0.25227983372E+03  0.00000000000E+00 0.  1.
         21    1    1    2  506  504 -0.97397572213E+02  0.26569656044E+02  0.10623544041E+03  0.14655443526E+03  0.00000000000E+00 0.  1.
<scales pt_clust_3="241.71535" pt_clust_4="44.79748" pt_clust_5="14000.00000" pt_clust_6="191.32978"></scales>
<clustering>
<clus scale="   44.797">  4  6 -1 -1</clus>
<clus scale="  191.330">  1  4  2 -1</clus>
<clus scale="  241.715">  1  3  2 -1</clus>
<clus scale="  191.330">  1  3  2 -1</clus>
</clustering>
</event>
<event>
 6    0  0.8610502E+002  0.6926827E+02  0.7546771E-02  0.1362599E+00
         21   -1    0    0  503  501  0.00000000000E+00  0.00000000000E+00  0.22944273543E+03  0.22944273543E+03  0.00000000000E+00 0. -1.
         21   -1    0    0  505  502 -0.00000000000E+00 -0.00000000000E+00 -0.21241680251E+03  0.21241680251E+03  0.00000000000E+00 0. -1.
         21    1    1    2  503  504  0.25397340859E+02  0.24004025872E+02  0.96968580533E+01  0.36266337516E+02  0.00000000000E+00 0. -1.
         21    1    1    2  504  502 -0.12568764683E+03  0.86082067201E+01  0.48136894358E+02  0.13486528978E+03  0.00000000000E+00 0. -1.
         21    1    1    2  505  506  0.62875432567E+02 -0.16885343629E+02 -0.14498121855E+03  0.15892762057E+03  0.00000000000E+00 0. -1.
         21    1    1    2  506  501  0.37414873406E+02 -0.15726888963E+02  0.10417339905E+03  0.11180029006E+03  0.00000000000E+00 0. -1.
<scales pt_clust_3="34.94593" pt_clust_4="14000.00000" pt_clust_5="69.26827" pt_clust_6="50.79775"></scales>
<clustering>
<clus scale="   34.946">  1  3  2 -1</clus>
<clus scale="   50.798">  1  6  2 -1</clus>
<clus scale="   69.268">  2  5  1 -1</clus>
<clus scale="   34.946">  1  3  2 -1</clus>
</clustering>
</event>
<event>
 6    0  0.8610502E+002  0.1083316E+03  0.7546771E-02  0.1263691E+00
         21   -1    0    0  502  501  0.00000000000E+00  0.00000000000E+00  0.24041953984E+04  0.24041953984E+04  0.00000000000E+00 0.  1.
         21   -1    0    0  505  502 -0.00000000000E+00 -0.00000000000E+00 -0.75899447094E+01  0.75899447094E+01  0.00000000000E+00 0.  1.
         21    1    1    2  503  501 -0.22508766455E+02 -0.47429045261E+02  0.73676345446E+03  0.73863153651E+03  0.00000000000E+00 0.  1.
         21    1    1    2  504  506  0.44588365878E+02  0.94394345818E+02  0.91521940194E+03  0.92115415028E+03  0.00000000000E+00 0.  1.
         21    1    1    2  505  504 -0.40408625795E+02  0.42102037978E+01  0.16894523756E+03  0.17376154968E+03  0.00000000000E+00 0.  1.
         21    1    1    2  506  503  0.18329026373E+02 -0.51175504355E+02  0.57567735971E+03  0.57823810661E+03  0.00000000000E+00 0. -1.
<scales pt_clust_3="41.81087" pt_clust_4="99.15290" pt_clust_5="40.62737" pt_clust_6="41.81087"></scales>
<clustering>
<clus scale="   40.627">  2  5  1 -1</clus>
<clus scale="   41.811">  3  6 -1 -1</clus>
<clus scale="   99.153">  2  4  1 -1</clus>
<clus scale="  108.332">  1  3  2 -1</clus>
</clustering>
</event>
<event>
 6    0  0.8610502E+002  0.9621215E+02  0.7546771E-02  0.1288469E+00
         21   -1    0    0  506  501  0.00000000000E+00  0.00000000000E+00  0.85733795105E+03  0.85733795105E+03  0.00000000000E+00 0. -1.
         21   -1    0    0  505  502 -0.00000000000E+00 -0.00000000000E+00 -0.51308055660E+03  0.51308055660E+03  0.00000000000E+00 0. -1.
         21    1    1    2  503  502 -0.84957152852E+02  0.71085564837E+01  0.24472576837E+03  0.25915044106E+03  0.00000000000E+00 0. -1.
         21    1    1    2  504  501  0.23657450349E+02 -0.59395119404E+02  0.26443047320E+02  0.69185908374E+02  0.00000000000E+00 0.  1.
         21    1    1    2  505  504 -0.33550693268E+02 -0.14471122539E+02 -0.47775975165E+03  0.47915492557E+03  0.00000000000E+00 0. -1.
         21    1    1    2  506  503  0.94850395771E+02  0.66757685458E+02  0.55084833040E+03  0.56292723264E+03  0.00000000000E+00 0. -1.
<scales pt_clust_3="14000.00000" pt_clust_4="68.39109" pt_clust_5="36.53851" pt_clust_6="96.21215"></scales>
<clustering>
<clus scale="   36.539">  2  5  1 -1</clus>
<clus scale="   68.391">  2  4  1 -1</clus>
<clus scale="   96.212">  1  6  2 -1</clus>
<clus scale="   96.212">  1  3  2 -1</clus>
</clustering>
</event>
<event>
 6    0  0.8610502E+002  0.6670860E+02  0.7546771E-02  0.1371657E+00
         21   -1    0    0  504  501  0.00000000000E+00  0.00000000000E+00  0.13059066968E+04  0.13059066968E+04  0.00000000000E+00 0.  1.
         21   -1    0    0  503  502 -0.00000000000E+00 -0.00000000000E+00 -0.21296879194E+03  0.21296879194E+03  0.00000000000E+00 0.  1.
         21    1    1    2  503  505  0.51135305038E+02  0.42540402798E+02 -0.19686690913E+03  0.20780058999E+03  0.00000000000E+00 0.  1.
         21    1    1    2  504  502 -0.71625582263E+02 -0.71842761855E+02  0.97593056772E+03  0.98118911504E+03  0.00000000000E+00 0.  1.
         21    1    1    2  505  506  0.54646878809E+02  0.44338474256E+00  0.20565733863E+03  0.21279431122E+03  0.00000000000E+00 0.  1.
         21    1    1    2  506  501 -0.34156601584E+02  0.28858974314E+02  0.10821690761E+03  0.11709147246E+03  0.00000000000E+00 0.  1.
<scales pt_clust_3="14000.00000" pt_clust_4="66.70860" pt_clust_5="48.96809" pt_clust_6="44.71592"></scales>
<clustering>
<clus scale="   44.716">  1  6  2 -1</clus>
<clus scale="   48.968">  1  5  2 -1</clus>
<clus scale="   66.709">  1  4  2 -1</clus>
<clus scale="   44.716">  1  3  2 -1</clus>
</clustering>
</event>
<event>
 6    0  0.8610502E+002  0.2532898E+03  0.7546771E-02  0.1111243E+00
         21   -1    0    0  505  501  0.00000000000E+00  0.00000000000E+00  0.23945862054E+04  0.23945862054E+04  0.00000000000E+00 0. -1.
         21   -1    0    0  506  502 -0.00000000000E+00 -0.00000000000E+00 -0.67893402251E+02  0.67893402251E+02  0.00000000000E+00 0. -1.
         21    1    1    2  503  504  0.12785065896E+03  0.24817762824E+03  0.51259087322E+03  0.58368427208E+03  0.00000000000E+00 0. -1.
         21    1    1    2  504  502 -0.49172575959E+02  0.36792847642E+02  0.13202364771E+03  0.14560872027E+03  0.00000000000E+00 0.  1.
         21    1    1    2  505  503  0.89056696831E+02 -0.12732199853E+03  0.10303779773E+04  0.10420272370E+04  0.00000000000E+00 0. -1.
         21    1    1    2  506  501 -0.16773477984E+03 -0.15764847735E+03  0.65170030487E+03  0.69115937825E+03  0.00000000000E+00 0. -1.
<scales pt_clust_3="253.28980" pt_clust_4="61.41381" pt_clust_5="149.82728" pt_clust_6="14000.00000"></scales>
<clustering>
<clus scale="   61.414">  2  4  1 -1</clus>
<clus scale="  149.827">  1  5  2 -1</clus>
<clus scale="  253.290">  2  3  1 -1</clus>
<clus scale="  149.827">  1  3  2 -1</clus>
</clustering>
</event>
<event>
 6    0  0.8610502E+002  0.6171769E+02  0.7546771E-02  0.1390762E+00
         21   -1    0    0  504  501  0.00000000000E+00  0.00000000000E+00  0.14822247273E+03  0.14822247273E+03  0.00000000000E+00 0.  1.
         21   -1    0    0  503  502 -0.00000000000E+00 -0.00000000000E+00 -0.10089680697E+04  0.10089680697E+04  0.00000000000E+00 0. -1.
         21    1    1    2  503  506  0.16512422043E+02  0.51582552836E+02 -0.76883023063E+03  0.77073558589E+03  0.00000000000E+00 0. -1.
         21    1    1    2  504  505 -0.68110042959E+02 -0.85722887948E+02 -0.12053896712E+03  0.16284051727E+03  0.00000000000E+00 0.  1.
         21    1    1    2  505  502  0.25652772212E+02 -0.19321496484E+02 -0.87478999295E+02  0.93187768866E+02  0.00000000000E+00 0. -1.
         21    1    1    2  506  501  0.25944848704E+02  0.53461831597E+02  0.11610260006E+03  0.13042667040E+03  0.00000000000E+00 0.  1.
<scales pt_clust_3="51.93486" pt_clust_4="14000.00000" pt_clust_5="32.11518" pt_clust_6="61.71769"></scales>
<clustering>
<clus scale="   32.115">  2  5  1 -1</clus>
<clus scale="   51.935">  2  3  1 -1</clus>
<clus scale="   61.718">  1  6  2 -1</clus>
<clus scale="   61.718">  1  3  2 -1</clus>
</clustering>
</event>
<event>
 6    0  0.8610502E+002  0.1093773E+03  0.7546771E-02  0.1261727E+00
         21   -1    0    0  505  501  0.00000000000E+00  0.00000000000E+00  0.77815180045E+03  0.77815180045E+03  0.00000000000E+00 0. -1.
         21   -1    0    0  503  502 -0.00000000000E+00 -0.00000000000E+00 -0.22603400253E+03  0.22603400253E+03  0.00000000000E+00 0. -1.
         21    1    1    2  503  501  0.29378102072E+02  0.33938997311E+02 -0.14777256264E+02  0.47257758332E+02  0.00000000000E+00 0. -1.
         21    1    1    2  504  502  0.41059813105E+02  0.23146051645E+02 -0.87105536863E+02  0.99040509445E+02  0.00000000000E+00 0. -1.
         21    1    1    2  505  506  0.11544585282E+02 -0.11079023982E+03  0.72712455909E+03  0.73560714999E+03  0.00000000000E+00 0. -1.
         21    1    1    2  506  504 -0.81982500459E+02  0.53705190864E+02 -0.73123968038E+02  0.12228038522E+03  0.00000000000E+00 0. -1.
<scales pt_clust_3="44.88795" pt_clust_4="67.68908" pt_clust_5="14000.00000" pt_clust_6="109.37731"></scales>
<clustering>
<clus scale="   44.888">  2  3  1 -1</clus>
<clus scale="   67.689">  2  4  1 -1</clus>
<clus scale="  109.377">  2  6  1 -1</clus>
<clus scale="  109.377">  1  3  2 -1</clus>
</clustering>
</event>
<event>
 6    0  0.8610502E+002  0.8714787E+02  0.7546771E-02  0.1309909E+00
         21   -1    0    0  504  501  0.00000000000E+00  0.00000000000E+00  0.85618448939E+03  0.85618448939E+03  0.00000000000E+00 0.  1.
         21   -1    0    0  505  502 -0.00000000000E+00 -0.00000000000E+00 -0.34877907113E+02  0.34877907113E+02  0.00000000000E+00 0. -1.
         21    1    1    2  503  501  0.24595720066E+02 -0.39021450971E+02  0.12226515141E+03  0.13067666329E+03  0.00000000000E+00 0. -1.
         21    1    1    2  504  506 -0.46442841188E+02  0.18687718433E+02  0.11042629746E+03  0.12124411528E+03  0.00000000000E+00 0.  1.
         21    1    1    2  505  503  0.75856855628E+02 -0.45129299783E+02  0.67386057049E+02  0.11104862417E+03  0.00000000000E+00 0. -1.
         21    1    1    2  506  502 -0.54009734505E+02  0.65463032321E+02  0.52122907636E+03  0.52809299377E+03  0.00000000000E+00 0.  1.
<scales pt_clust_3="46.12616" pt_clust_4="44.33520" pt_clust_5="87.14787" pt_clust_6="14000.00000"></scales>
<clustering>
<clus scale="   46.126">  1  3  2 -1</clus>
<clus scale="   44.335">  1  4  2 -1</clus>
<clus scale="   87.148">  2  5  1 -1</clus>
<clus scale="   46.126">  1  3  2 -1</clus>
</clustering>
</event>
<event>
 6    0  0.8610502E+002  0.1221606E+03  0.7546771E-02  0.1239575E+00
         21   -1    0    0  506  501  0.00000000000E+00  0.00000000000E+00  0.16744670604E+03  0.16744670604E+03  0.00000000000E+00 0.  1.
         21   -1    0    0  504  502 -0.00000000000E+00 -0.00000000000E+00 -0.44223506225E+03  0.44223506225E+03  0.00000000000E+00 0. -1.
         21    1    1    2  503  501 -0.44169996788E+02  0.19121354334E+02  0.20333157634E+02  0.52249900547E+02  0.00000000000E+00 0. -1.
         21    1    1    2  504  503 -0.47657860740E+02 -0.21601801206E+02  0.25153376320E+02  0.58056884570E+02  0.00000000000E+00 0.  1.
         21    1    1    2  505  502  0.11511335179E+03  0.25439723805E+02 -0.39797762081E+03  0.41507162030E+03  0.00000000000E+00 0. -1.
         21    1    1    2  506  505 -0.23285494263E+02 -0.22959276933E+02  0.77702730655E+02  0.84303362872E+02  0.00000000000E+00 0.  1.
<scales pt_clust_3="36.75272" pt_clust_4="36.75272" pt_clust_5="115.16580" pt_clust_6="32.70080"></scales>
<clustering>
<clus scale="   32.701">  1  6  2 -1</clus>
<clus scale="   36.753">  3  4 -1 -1</clus>
<clus scale="  115.166">  2  5  1 -1</clus>
<clus scale="   32.701">  1  3  2 -1</clus>
</clustering>
</event>
<event>
 6    0  0.8610502E+002  0.1472700E+03  0.7546771E-02  0.1203868E+00
         21   -1    0    0  504  501  0.00000000000E+00  0.00000000000E+00  0.43404311070E+03  0.43404311070E+03  0.00000000000E+00 0.  1.
         21   -1    0    0  506  502 -0.00000000000E+00 -0.00000000000E+00 -0.48389166364E+02  0.48389166364E+02  0.00000000000E+00 0.  1.
         21    1    1    2  503  501  0.13118557766E+01 -0.87935144471E+02  0.17228887992E+03  0.19343673059E+03  0.00000000000E+00 0.  1.
         21    1    1    2  504  505 -0.16859699512E+02  0.71376357321E+02  0.57614436517E+02  0.93264447391E+02  0.00000000000E+00 0.  1.
         21    1    1    2  505  502  0.44238696838E+02  0.54594469840E+02  0.10256143013E+03  0.12432403382E+03  0.00000000000E+00 0.  1.
         21    1    1    2  506  503 -0.28690853103E+02 -0.38035682690E+02  0.53189197768E+02  0.71407065257E+02  0.00000000000E+00 0.  1.
<scales pt_clust_3="138.93118" pt_clust_4="69.69780" pt_clust_5="69.69780" pt_clust_6="38.12899"></scales>
<clustering>
<clus scale="   38.129">  3  6 -1 -1</clus>
<clus scale="   69.698">  4  5 -1 -1</clus>
<clus scale="  138.931">  1  3  2 -1</clus>
<clus scale="  138.931">  1  3  2 -1</clus>
</clustering>
</event>
<event>
 6    0  0.8610502E+002  0.2239277E+03  0.7546771E-02  0.1130988E+00
         21   -1    0    0  506  501  0.00000000000E+00  0.00000000000E+00  0.12787417600E+04  0.12787417600E+04  0.00000000000E+00 0. -1.
         21   -1    0    0  504  502 -0.00000000000E+00 -0.00000000000E+00 -0.49439564810E+03  0.49439564810E+03  0.00000000000E+00 0.  1.
         21    1    1    2  503  502  0.36355723514E+02 -0.54904147711E+02 -0.34271124838E+03  0.34898023416E+03  0.00000000000E+00 0.  1.
         21    1    1    2  504  505  0.91439198122E+02 -0.14267778728E+03 -0.76892681319E+02  0.18609288642E+03  0.00000000000E+00 0.  1.
         21    1    1    2  505  501 -0.11486645881E+03  0.14928584090E+03  0.11466506390E+04  0.11620190418E+04  0.00000000000E+00 0. -1.
         21    1    1    2  506  503 -0.12928462822E+02  0.48296094093E+02  0.57299402609E+02  0.76045245709E+02  0.00000000000E+00 0. -1.
<scales pt_clust_3="65.72728" pt_clust_4="14000.00000" pt_clust_5="223.92770" pt_clust_6="49.99658"></scales>
<clustering>
<clus scale="   49.997">  1  6  2 -1</clus>
<clus scale="   65.727">  2  3  1 -1</clus>
<clus scale="  223.928">  1  5  2 -1</clus>
<clus scale="   49.997">  1  3  2 -1</clus>
</clustering>
</event>
<event>
 6    0  0.8610502E+002  0.1193684E+03  0.7546771E-02  0.1244143E+00
         21   -1    0    0  504  501  0.00000000000E+00  0.00000000000E+00  0.65614463291E+03  0.65614463291E+03  0.00000000000E+00 0.  1.
         21   -1    0    0  505  502 -0.00000000000E+00 -0.00000000000E+00 -0.31076189847E+03  0.31076189847E+03  0.00000000000E+00 0. -1.
         21    1    1    2  503  502 -0.49108438074E+02  0.17772012197E+02 -0.25735003502E+03  0.26259574184E+03  0.00000000000E+00 0. -1.
         21    1    1    2  504  506 -0.66959836683E+01 -0.92310579483E+02  0.21796136802E+03  0.23679788265E+03  0.00000000000E+00 0.  1.
         21    1    1    2  505  501  0.57053183667E+02 -0.50059431551E+02  0.31641319178E+03  0.32538949028E+03  0.00000000000E+00 0.  1.
         21    1    1    2  506  503 -0.12487619243E+01  0.12459799884E+03  0.68358209662E+02  0.14212341661E+03  0.00000000000E+00 0. -1.
<scales pt_clust_3="52.22531" pt_clust_4="119.36841" pt_clust_5="71.62329" pt_clust_6="14000.00000"></scales>
<clustering>
<clus scale="   52.225">  2  3  1 -1</clus>
<clus scale="   71.623">  1  5  2 -1</clus>
<clus scale="  119.368">  1  4  2 -1</clus>
<clus scale="   71.623">  1  3  2 -1</clus>
</clustering>
</event>
<event>
 6    0  0.8610502E+002  0.8954351E+02  0.7546771E-02  0.1303961E+00
         21   -1    0    0  502  501  0.00000000000E+00  0.00000000000E+00  0.25675224003E+04  0.25675224003E+04  0.00000000000E+00 0.  1.
         21   -1    0    0  506  502 -0.00000000000E+00 -0.00000000000E+00 -0.46409830906E+03  0.46409830906E+03  0.00000000000E+00 0. -1.
         21    1    1    2  503  505  0.12715748105E+03  0.59590332516E+01  0.23646787494E+03  0.26855463307E+03  0.00000000000E+00 0. -1.
         21    1    1    2  504  503 -0.52803043771E+02  0.59304736341E+02 -0.24090203800E+03  0.25365134554E+03  0.00000000000E+00 0. -1.
         21    1    1    2  505  501 -0.46158272065E+02 -0.44361106550E+02  0.23066550119E+04  0.23075432472E+04  0.00000000000E+00 0.  1.
         21    1    1    2  506  504 -0.28196165218E+02 -0.20902663043E+02 -0.19879675757E+03  0.20187148356E+03  0.00000000000E+00 0. -1.
<scales pt_clust_3="89.54351" pt_clust_4="14000.00000" pt_clust_5="64.07810" pt_clust_6="35.09907"></scales>
<clustering>
<clus scale="   35.099">  2  6  1 -1</clus>
<clus scale="   64.078">  1  5  2 -1</clus>
<clus scale="   89.544">  1  3  2 -1</clus>
<clus scale="   64.078">  1  3  2 -1</clus>
</clustering>
</event>
<event>
 6    0  0.8610502E+002  0.1701556E+03  0.7546771E-02  0.1177686E+00
         21   -1    0    0  504  501  0.00000000000E+00  0.00000000000E+00  0.37692742184E+03  0.37692742184E+03  0.00000000000E+00 0.  1.
         21   -1    0    0  503  502 -0.00000000000E+00 -0.00000000000E+00 -0.99017927508E+03  0.99017927508E+03  0.00000000000E+00 0.  1.
         21    1    1    2  503  505 -0.42902008832E+02 -0.20861364712E+01 -0.75321522055E+03  0.75443893245E+03  0.00000000000E+00 0.  1.
         21    1    1    2  504  506 -0.14657175476E+03  0.14584701568E+03  0.17469914708E+03  0.27069248838E+03  0.00000000000E+00 0.  1.
         21    1    1    2  505  501  0.13997427183E+03 -0.46651393141E+02  0.92727778013E+02  0.17426299111E+03  0.00000000000E+00 0.  1.
         21    1    1    2  506  502  0.49499491763E+02 -0.97109486069E+02 -0.12746355778E+03  0.16771228498E+03  0.00000000000E+00 0.  1.
<scales pt_clust_3="42.95270" pt_clust_4="170.15556" pt_clust_5="14000.00000" pt_clust_6="100.99844"></scales>
<clustering>
<clus scale="   42.953">  2  3  1 -1</clus>
<clus scale="  100.998">  2  6  1 -1</clus>
<clus scale="  170.156">  2  4  1 -1</clus>
<clus scale="  170.156">  1  3  2 -1</clus>
</clustering>
</event>
<event>
 6    0  0.8610502E+002  0.3001194E+03  0.7546771E-02  0.1085181E+00
         21   -1    0    0  504  501  0.00000000000E+00  0.00000000000E+00  0.35268023770E+03  0.35268023770E+03  0.00000000000E+00 0.  1.
         21   -1    0    0  505  502 -0.00000000000E+00 -0.00000000000E+00 -0.46385965445E+03  0.46385965445E+03  0.00000000000E+00 0.  1.
         21    1    1    2  503  501  0.78472937463E+02  0.26381231100E+03  0.99366467992E+02  0.29262370429E+03  0.00000000000E+00 0.  1.
         21    1    1    2  504  506 -0.97375946603E+01 -0.92720004487E+02  0.97767764919E+01  0.93741161399E+02  0.00000000000E+00 0.  1.
         21    1    1    2  505  503  0.29519245851E+02  0.46285311036E+02 -0.18006828905E+03  0.18825064307E+03  0.00000000000E+00 0.  1.
         21    1    1    2  506  502 -0.98254588653E+02 -0.21737761755E+03 -0.40254372186E+02  0.24192438340E+03  0.00000000000E+00 0.  1.
<scales pt_clust_3="293.51668" pt_clust_4="39.13890" pt_clust_5="54.89732" pt_clust_6="39.13890"></scales>
<clustering>
<clus scale="   39.139">  4  6 -1 -1</clus>
<clus scale="   54.897">  2  5  1 -1</clus>
<clus scale="  293.517">  1  3  2 -1</clus>
<clus scale="  293.517">  1  3  2 -1</clus>
</clustering>
</event>
<event>
 6    0  0.8610502E+002  0.1279482E+03  0.7546771E-02  0.1230532E+00
         21   -1    0    0  503  501  0.00000000000E+00  0.00000000000E+00  0.14627602395E+03  0.14627602395E+03  0.00000000000E+00 0.  1.
         21   -1    0    0  504  502 -0.00000000000E+00 -0.00000000000E+00 -0.20530977533E+03  0.20530977533E+03  0.00000000000E+00 0.  1.
         21    1    1    2  503  506 -0.21630079496E+02  0.80256953453E+02  0.11044636328E+02  0.83851195031E+02  0.00000000000E+00 0.  1.
         21    1    1    2  504  505  0.86505810239E+02 -0.79322649767E+02 -0.10594452864E+03  0.15811255839E+03  0.00000000000E+00 0.  1.
         21    1    1    2  505  501 -0.19513665524E+02 -0.37341067129E+02  0.28787184173E+02  0.51027839550E+02  0.00000000000E+00 0.  1.
         21    1    1    2  506  502 -0.45362065218E+02  0.36406763443E+02  0.70789567604E+01  0.58594206318E+02  0.00000000000E+00 0.  1.
<scales pt_clust_3="36.11461" pt_clust_4="120.44454" pt_clust_5="42.13239" pt_clust_6="36.11461"></scales>
<clustering>
<clus scale="   36.115">  3  6 -1 -1</clus>
<clus scale="   42.132">  1  5  2 -1</clus>
<clus scale="  120.445">  2  4  1 -1</clus>
<clus scale="   42.132">  1  3  2 -1</clus>
</clustering>
</event>
<event>
 6    0  0.8610502E+002  0.2026004E+03  0.7546771E-02  0.1147563E+00
         21   -1    0    0  503  501  0.00000000000E+00  0.00000000000E+00  0.17405729704E+03  0.17405729704E+03  0.00000000000E+00 0. -1.
         21   -1    0    0  501  502 -0.00000000000E+00 -0.00000000000E+00 -0.50702604486E+03  0.50702604486E+03  0.00000000000E+00 0.  1.
         21    1    1    2  503  506  0.34368370902E+02 -0.44315939452E+02  0.64304513792E+02  0.85323841346E+02  0.00000000000E+00 0. -1.
         21    1    1    2  504  505 -0.98993787673E+02  0.71242748852E+02 -0.17695558154E+03  0.21491527889E+03  0.00000000000E+00 0.  1.
         21    1    1    2  505  502 -0.62201331620E+02  0.70185412105E+02 -0.19861143889E+03  0.21963948048E+03  0.00000000000E+00 0.  1.
         21    1    1    2  506  504  0.12682674839E+03 -0.97112221506E+02 -0.21706241185E+02  0.16120474118E+03  0.00000000000E+00 0. -1.
<scales pt_clust_3="56.08108" pt_clust_4="37.21816" pt_clust_5="37.21816" pt_clust_6="198.10465"></scales>
<clustering>
<clus scale="   37.218">  4  5 -1 -1</clus>
<clus scale="   56.081">  1  3  2 -1</clus>
<clus scale="  198.105">  1  6  2 -1</clus>
<clus scale="   56.081">  1  3  2 -1</clus>
</clustering>
</event>
<event>
 6    0  0.8610502E+002  0.1237537E+03  0.7546771E-02  0.1237030E+00
         21   -1    0    0  504  501  0.00000000000E+00  0.00000000000E+00  0.78476281377E+03  0.78476281377E+03  0.00000000000E+00 0.  1.
         21   -1    0    0  503  502 -0.00000000000E+00 -0.00000000000E+00 -0.74830627559E+02  0.74830627559E+02  0.00000000000E+00 0. -1.
         21    1    1    2  503  505 -0.45864786003E+02 -0.31448926897E+02  0.52231138266E+02  0.76293547582E+02  0.00000000000E+00 0. -1.
         21    1    1    2  504  506 -0.46373683572E+01  0.30856680002E+02  0.17135540373E+03  0.17417323064E+03  0.00000000000E+00 0. -1.
         21    1    1    2  505  501 -0.84410711366E+02 -0.96530010157E+02  0.40351107562E+03  0.42339626734E+03  0.00000000000E+00 0.  1.
         21    1    1    2  506  502  0.13491286573E+03  0.97122257052E+02  0.82834568596E+02  0.18573039576E+03  0.00000000000E+00 0. -1.
<scales pt_clust_3="54.26068" pt_clust_4="31.20320" pt_clust_5="14000.00000" pt_clust_6="123.75372"></scales>
<clustering>
<clus scale="   31.203">  1  4  2 -1</clus>
<clus scale="   54.261">  2  3  1 -1</clus>
<clus scale="  123.754">  2  6  1 -1</clus>
<clus scale="   31.203">  1  3  2 -1</clus>
</clustering>
</event>
<event>
 6    0  0.8610502E+002  0.1323919E+03  0.7546771E-02  0.1223949E+00
         21   -1    0    0  503  501  0.00000000000E+00  0.00000000000E+00  0.19187638599E+03  0.19187638599E+03  0.00000000000E+00 0.  1.
         21   -1    0    0  504  502 -0.00000000000E+00 -0.00000000000E+00 -0.18266710217E+03  0.18266710217E+03  0.00000000000E+00 0.  1.
         21    1    1    2  503  506  0.75697295301E+02  0.39874101320E+02  0.58685794382E+01  0.85758175684E+02  0.00000000000E+00 0.  1.
         21    1    1    2  504  505 -0.73439015671E+02 -0.91528531081E+02 -0.59831048338E+02  0.13172135503E+03  0.00000000000E+00 0.  1.
         21    1    1    2  505  501 -0.27574038795E+02  0.16192022122E+02  0.96851115358E+02  0.10199337107E+03  0.00000000000E+00 0.  1.
         21    1    1    2  506  502  0.25315759165E+02  0.35462407639E+02 -0.33679362637E+02  0.55070586390E+02  0.00000000000E+00 0.  1.
<scales pt_clust_3="41.96393" pt_clust_4="119.78117" pt_clust_5="31.97670" pt_clust_6="41.96393"></scales>
<clustering>
<clus scale="   31.977">  1  5  2 -1</clus>
<clus scale="   41.964">  3  6 -1 -1</clus>
<clus scale="  119.781">  2  4  1 -1</clus>
<clus scale="   31.977">  1  3  2 -1</clus>
</clustering>
</event>
<event>
 6    0  0.8610502E+002  0.1044001E+03  0.7546771E-02  0.1271306E+00
         21   -1    0    0  503  501  0.00000000000E+00  0.00000000000E+00  0.12601685721E+03  0.12601685721E+03  0.00000000000E+00 0.  1.
         21   -1    0    0  505  502 -0.00000000000E+00 -0.00000000000E+00 -0.12184071417E+04  0.12184071417E+04  0.00000000000E+00 0. -1.
         21    1    1    2  503  506 -0.65114500693E+02  0.30973814924E+02 -0.98699056954E+02  0.12223248036E+03  0.00000000000E+00 0.  1.
         21    1    1    2  504  502  0.50931274502E+01  0.31683403561E+02 -0.42500578011E+03  0.42621554539E+03  0.00000000000E+00 0.  1.
         21    1    1    2  505  501 -0.30408806043E+02  0.36798321756E+02  0.10164717417E+03  0.11229853065E+03  0.00000000000E+00 0.  1.
         21    1    1    2  506  504  0.90430179287E+02 -0.99455540241E+02 -0.67033262159E+03  0.68367744249E+03  0.00000000000E+00 0. -1.
<scales pt_clust_3="14000.00000" pt_clust_4="32.09015" pt_clust_5="47.87945" pt_clust_6="104.40010"></scales>
<clustering>
<clus scale="   32.090">  2  4  1 -1</clus>
<clus scale="   47.879">  1  5  2 -1</clus>
<clus scale="  104.400">  2  6  1 -1</clus>
<clus scale="   47.879">  1  3  2 -1</clus>
</clustering>
</event>
<event>
 6    0  0.8610502E+002  0.1560727E+03  0.7546771E-02  0.1193203E+00
         21   -1    0    0  502  501  0.00000000000E+00  0.00000000000E+00  0.40011126215E+03  0.40011126215E+03  0.00000000000E+00 0. -1.
         21   -1    0    0  504  502 -0.00000000000E+00 -0.00000000000E+00 -0.20572710000E+04  0.20572710000E+04  0.00000000000E+00 0. -1.
         21    1    1    2  503  501 -0.18929649808E+01  0.13841520429E+03  0.30967674151E+03  0.33920795440E+03  0.00000000000E+00 0. -1.
         21    1    1    2  504  506 -0.54207933204E+02  0.40388782679E+02 -0.19116731863E+04  0.19128680365E+04  0.00000000000E+00 0. -1.
         21    1    1    2  505  503  0.67516258252E+02 -0.13417685008E+03 -0.31317732246E+02  0.15343621664E+03  0.00000000000E+00 0. -1.
         21    1    1    2  506  505 -0.11415360068E+02 -0.44627136896E+02 -0.23845560764E+02  0.51870054570E+02  0.00000000000E+00 0. -1.
<scales pt_clust_3="142.72070" pt_clust_4="67.59995" pt_clust_5="34.97810" pt_clust_6="34.97810"></scales>
<clustering>
<clus scale="   34.978">  5  6 -1 -1</clus>
<clus scale="   67.600">  2  4  1 -1</clus>
<clus scale="  142.721">  1  3  2 -1</clus>
<clus scale="  142.721">  1  3  2 -1</clus>
</clustering>
</event>
<event>
 6    0  0.8610502E+002  0.6907362E+02  0.7546771E-02  0.1363272E+00
         21   -1    0    0  506  501  0.00000000000E+00  0.00000000000E+00  0.42337937589E+03  0.42337937589E+03  0.00000000000E+00 0. -1.
         21   -1    0    0  503  502 -0.00000000000E+00 -0.00000000000E+00 -0.30747230815E+03  0.30747230815E+03  0.00000000000E+00 0. -1.
         21    1    1    2  503  505 -0.16177838844E+02  0.57855551432E+02 -0.96833676846E+02  0.11395502741E+03  0.00000000000E+00 0. -1.
         21    1    1    2  504  502  0.82613098874E+02 -0.28095171517E+02 -0.88672484727E+02  0.12440688211E+03  0.00000000000E+00 0. -1.
         21    1    1    2  505  501 -0.38219381614E+02  0.56482172015E+02  0.37157876426E+03  0.37778530270E+03  0.00000000000E+00 0. -1.
         21    1    1    2  506  504 -0.28215878416E+02 -0.86242551930E+02 -0.70165534954E+02  0.11470447181E+03  0.00000000000E+00 0. -1.
<scales pt_clust_3="60.07485" pt_clust_4="63.03993" pt_clust_5="69.07362" pt_clust_6="14000.00000"></scales>
<clustering>
<clus scale="   60.075">  2  3  1 -1</clus>
<clus scale="   69.074">  1  5  2 -1</clus>
<clus scale="   63.040">  2  4  1 -1</clus>
<clus scale="   69.074">  1  3  2 -1</clus>
</clustering>
</event>
<event>
 6    0  0.8610502E+002  0.9758468E+02  0.7546771E-02  0.1285459E+00
         21   -1    0    0  506  501  0.00000000000E+00  0.00000000000E+00  0.15048025621E+02  0.15048025621E+02  0.00000000000E+00 0.  1.
         21   -1    0    0  503  502 -0.00000000000E+00 -0.00000000000E+00 -0.19904781190E+04  0.19904781190E+04  0.00000000000E+00 0.  1.
         21    1    1    2  503  504 -0.85242513018E+02 -0.42568999041E+02 -0.12920324746E+04  0.12955409377E+04  0.00000000000E+00 0.  1.
         21    1    1    2  504  505 -0.32491274991E+02 -0.24196196947E+02 -0.14000797185E+03  0.14575105858E+03  0.00000000000E+00 0.  1.
         21    1    1    2  505  501  0.30718879646E+02  0.68818420470E+01 -0.45925106603E+02  0.55678763753E+02  0.00000000000E+00 0.  1.
         21    1    1    2  506  502  0.87014908363E+02  0.59883353941E+02 -0.49746454030E+03  0.50855538461E+03  0.00000000000E+00 0.  1.
<scales pt_clust_3="97.58468" pt_clust_4="32.59662" pt_clust_5="31.48030" pt_clust_6="14000.00000"></scales>
<clustering>
<clus scale="   31.480">  1  5  2 -1</clus>
<clus scale="   32.597">  1  4  2 -1</clus>
<clus scale="   97.585">  2  3  1 -1</clus>
<clus scale="   31.480">  1  3  2 -1</clus>
</clustering>
</event>
<event>
 6    0  0.8610502E+002  0.1043833E+03  0.7546771E-02  0.1271339E+00
         21   -1    0    0  505  501  0.00000000000E+00  0.00000000000E+00  0.21921727163E+03  0.21921727163E+03  0.00000000000E+00 0.  1.
         21   -1    0    0  503  502 -0.00000000000E+00 -0.00000000000E+00 -0.16427888551E+03  0.16427888551E+03  0.00000000000E+00 0.  1.
         21    1    1    2  503  506  0.33801526082E+02 -0.11701535402E+02 -0.40282703784E+02  0.53871748815E+02  0.00000000000E+00 0.  1.
         21    1    1    2  504  501  0.77938005590E+02 -0.90142514708E+01  0.24878327993E+02  0.82307476262E+02  0.00000000000E+00 0.  1.
         21    1    1    2  505  502 -0.14312875967E+03 -0.46285620233E+02  0.83679316680E+02  0.17213491373E+03  0.00000000000E+00 0.  1.
         21    1    1    2  506  504  0.31389227995E+02  0.67001407106E+02 -0.13336554765E+02  0.75182018338E+02  0.00000000000E+00 0.  1.
<scales pt_clust_3="35.76967" pt_clust_4="14000.00000" pt_clust_5="104.38331" pt_clust_6="76.59067"></scales>
<clustering>
<clus scale="   35.770">  2  3  1 -1</clus>
<clus scale="   76.591">  2  6  1 -1</clus>
<clus scale="  104.383">  2  5  1 -1</clus>
<clus scale="  104.383">  1  3  2 -1</clus>
</clustering>
</event>
<event>
 6    0  0.8610502E+002  0.1458775E+03  0.7546771E-02  0.1205632E+00
         21   -1    0    0  505  501  0.00000000000E+00  0.00000000000E+00  0.20967112058E+03  0.20967112058E+03  0.00000000000E+00 0. -1.
         21   -1    0    0  501  502 -0.00000000000E+00 -0.00000000000E+00 -0.16718249400E+03  0.16718249400E+03  0.00000000000E+00 0. -1.
         21    1    1    2  503  504  0.65342984389E+02  0.54866859276E+02 -0.11213907825E+01  0.85330741078E+02  0.00000000000E+00 0. -1.
         21    1    1    2  504  502  0.47208265482E+02  0.39709605093E+02 -0.55230654595E+02  0.82800351892E+02  0.00000000000E+00 0. -1.
         21    1    1    2  505  506 -0.19337918837E+01 -0.51067195250E+02  0.69539017349E+02  0.86297583487E+02  0.00000000000E+00 0. -1.
         21    1    1    2  506  503 -0.11061745799E+03 -0.43509269120E+02  0.29301654613E+02  0.12242493812E+03  0.00000000000E+00 0. -1.
<scales pt_clust_3="50.16017" pt_clust_4="50.16017" pt_clust_5="51.10380" pt_clust_6="133.41746"></scales>
<clustering>
<clus scale="   50.160">  3  4 -1 -1</clus>
<clus scale="   51.104">  1  5  2 -1</clus>
<clus scale="  133.417">  1  6  2 -1</clus>
<clus scale="   51.104">  1  3  2 -1</clus>
</clustering>
</event>
<event>
 6    0  0.8610502E+002  0.1173240E+03  0.7546771E-02  0.1247578E+00
         21   -1    0    0  505  501  0.00000000000E+00  0.00000000000E+00  0.60886432446E+03  0.60886432446E+03  0.00000000000E+00 0.  1.
         21   -1    0    0  501  502 -0.00000000000E+00 -0.00000000000E+00 -0.42097168794E+03  0.42097168794E+03  0.00000000000E+00 0. -1.
         21    1    1    2  503  506 -0.81956210245E+02 -0.12541550550E+01 -0.27252992634E+03  0.28458909687E+03  0.00000000000E+00 0. -1.
         21    1    1    2  504  503  0.11027684002E+03  0.12259677298E+02  0.15924385685E+03  0.19408731818E+03  0.00000000000E+00 0.  1.
         21    1    1    2  505  504 -0.58903359709E+01 -0.38509116242E+02  0.42273602737E+03  0.42452726287E+03  0.00000000000E+00 0.  1.
         21    1    1    2  506  502 -0.22430293809E+02  0.27503593999E+02 -0.12155732135E+03  0.12663233449E+03  0.00000000000E+00 0. -1.
<scales pt_clust_3="30.95303" pt_clust_4="107.48113" pt_clust_5="38.95700" pt_clust_6="30.95303"></scales>
<clustering>
<clus scale="   30.953">  3  6 -1 -1</clus>
<clus scale="   38.957">  1  5  2 -1</clus>
<clus scale="  107.481">  1  4  2 -1</clus>
<clus scale="   38.957">  1  3  2 -1</clus>
</clustering>
</event>
<event>
 6    0  0.8610502E+002  0.1135242E+03  0.7546771E-02  0.1254179E+00
         21   -1    0    0  504  501  0.00000000000E+00  0.00000000000E+00  0.23559912377E+04  0.23559912377E+04  0.00000000000E+00 0.  1.
         21   -1    0    0  503  502 -0.00000000000E+00 -0.00000000000E+00 -0.59225929539E+02  0.59225929539E+02  0.00000000000E+00 0.  1.
         21    1    1    2  503  501 -0.36616846937E+02  0.16732474654E+02 -0.10783619505E+02  0.41677999440E+02  0.00000000000E+00 0.  1.
         21    1    1    2  504  505 -0.41842713362E+02 -0.31158193521E+02  0.15913424146E+04  0.15921973264E+04  0.00000000000E+00 0.  1.
         21    1    1    2  505  506  0.11541389572E+03  0.10935271892E+03  0.62401700567E+03  0.64395310996E+03  0.00000000000E+00 0.  1.
         21    1    1    2  506  502 -0.36954335419E+02 -0.94927000050E+02  0.92189507300E+02  0.13738873135E+03  0.00000000000E+00 0.  1.
<scales pt_clust_3="40.25878" pt_clust_4="52.42240" pt_clust_5="14000.00000" pt_clust_6="113.52421"></scales>
<clustering>
<clus scale="   40.259">  2  3  1 -1</clus>
<clus scale="   52.422">  1  4  2 -1</clus>
<clus scale="  113.524">  2  6  1 -1</clus>
<clus scale="   52.422">  1  3  2 -1</clus>
</clustering>
</event>
<event>
 6    0  0.8610502E+002  0.1007721E+03  0.7546771E-02  0.1278681E+00
         21   -1    0    0  506  501  0.00000000000E+00  0.00000000000E+00  0.13250873229E+03  0.13250873229E+03  0.00000000000E+00 0.  1.
         21   -1    0    0  504  502 -0.00000000000E+00 -0.00000000000E+00 -0.15587197258E+03  0.15587197258E+03  0.00000000000E+00 0. -1.
         21    1    1    2  503  505  0.10528058239E+02  0.38546978823E+02 -0.17079174693E+02  0.43455814281E+02  0.00000000000E+00 0. -1.
         21    1    1    2  504  501 -0.63118151114E+02 -0.12671511580E+02 -0.32231447323E+02  0.71995377645E+02  0.00000000000E+00 0. -1.
         21    1    1    2  505  502 -0.29396872050E+02  0.38776745908E+02 -0.27224854795E+02  0.55758450733E+02  0.00000000000E+00 0. -1.
         21    1    1    2  506  503  0.81986964924E+02 -0.64652213151E+02  0.53172236518E+02  0.11717106221E+03  0.00000000000E+00 0.  1.
<scales pt_clust_3="35.62647" pt_clust_4="64.37754" pt_clust_5="35.62647" pt_clust_6="92.78679"></scales>
<clustering>
<clus scale="   35.626">  3  5 -1 -1</clus>
<clus scale="   64.378">  2  4  1 -1</clus>
<clus scale="   92.787">  1  6  2 -1</clus>
<clus scale="   92.787">  1  3  2 -1</clus>
</clustering>
</event>
<event>
 6    0  0.8610502E+002  0.3223528E+03  0.7546771E-02  0.1074572E+00
         21   -1    0    0  506  501  0.00000000000E+00  0.00000000000E+00  0.92139176577E+03  0.92139176577E+03  0.00000000000E+00 0. -1.
         21   -1    0    0  505  502 -0.00000000000E+00 -0.00000000000E+00 -0.22236770742E+03  0.22236770742E+03  0.00000000000E+00 0. -1.
         21    1    1    2  503  502 -0.86758696328E+02 -0.58308804554E+02  0.53139896709E+01  0.10466721819E+03  0.00000000000E+00 0.  1.
         21    1    1    2  504  501 -0.19290150136E+03  0.21189803794E+03  0.32765467408E+03  0.43528077508E+03  0.00000000000E+00 0. -1.
         21    1    1    2  505  504 -0.23856819719E+02  0.75125366382E+02  0.40149012072E+01  0.78924571287E+02  0.00000000000E+00 0. -1.
         21    1    1    2  506  503  0.30351701740E+03 -0.22871459977E+03  0.36204049339E+03  0.52488690863E+03  0.00000000000E+00 0. -1.
<scales pt_clust_3="100.66711" pt_clust_4="322.35282" pt_clust_5="78.82239" pt_clust_6="14000.00000"></scales>
<clustering>
<clus scale="   78.822">  2  5  1 -1</clus>
<clus scale="  100.667">  2  3  1 -1</clus>
<clus scale="  322.353">  1  4  2 -1</clus>
<clus scale="  322.353">  1  3  2 -1</clus>
</clustering>
</event>
<event>
 6    0  0.8610502E+002  0.9439705E+02  0.7546771E-02  0.1292540E+00
         21   -1    0    0  506  501  0.00000000000E+00  0.00000000000E+00  0.89611714422E+03  0.89611714422E+03  0.00000000000E+00 0.  1.
         21   -1    0    0  505  502 -0.00000000000E+00 -0.00000000000E+00 -0.43404058384E+03  0.43404058384E+03  0.00000000000E+00 0. -1.
         21    1    1    2  503  502 -0.53555772502E+02  0.12368361453E+02 -0.42173793382E+02  0.69280776422E+02  0.00000000000E+00 0. -1.
         21    1    1    2  504  501 -0.71232457272E+02  0.99664616357E+01  0.80106068450E+03  0.80428329187E+03  0.00000000000E+00 0.  1.
         21    1    1    2  505  504  0.11057383688E+01  0.62716440758E+02 -0.29996874264E+03  0.30645688304E+03  0.00000000000E+00 0. -1.
         21    1    1    2  506  503  0.12368249141E+03 -0.85051263847E+02  0.31584119053E+01  0.15013677673E+03  0.00000000000E+00 0.  1.
<scales pt_clust_3="54.96542" pt_clust_4="72.15951" pt_clust_5="94.39705" pt_clust_6="14000.00000"></scales>
<clustering>
<clus scale="   54.965">  2  3  1 -1</clus>
<clus scale="   72.160">  1  4  2 -1</clus>
<clus scale="   94.397">  2  5  1 -1</clus>
<clus scale="   72.160">  1  3  2 -1</clus>
</clustering>
</event>
<event>
 6    0  0.8610502E+002  0.7798662E+02  0.7546771E-02  0.1334864E+00
         21   -1    0    0  503  501  0.00000000000E+00  0.00000000000E+00  0.10386666863E+04  0.10386666863E+04  0.00000000000E+00 0. -1.
         21   -1    0    0  505  502 -0.00000000000E+00 -0.00000000000E+00 -0.58528232451E+02  0.58528232451E+02  0.00000000000E+00 0. -1.
         21    1    1    2  503  506  0.56090069142E+02  0.13770254893E+02  0.53641193719E+02  0.78823178316E+02  0.00000000000E+00 0. -1.
         21    1    1    2  504  501  0.43307135549E+02  0.58418314003E+02  0.68552689893E+03  0.68937314755E+03  0.00000000000E+00 0. -1.
         21    1    1    2  505  504 -0.13190044796E+03 -0.62236313842E+02  0.25375441203E+03  0.29268137720E+03  0.00000000000E+00 0. -1.
         21    1    1    2  506  502  0.32503243264E+02 -0.99522550545E+01 -0.12784050799E+02  0.36317215727E+02  0.00000000000E+00 0.  1.
<scales pt_clust_3="68.87664" pt_clust_4="14000.00000" pt_clust_5="77.98662" pt_clust_6="33.99277"></scales>
<clustering>
<clus scale="   33.993">  2  6  1 -1</clus>
<clus scale="   68.877">  2  3  1 -1</clus>
<clus scale="   77.987">  2  5  1 -1</clus>
<clus scale="   77.987">  1  3  2 -1</clus>
</clustering>
</event>
<event>
 6    0  0.8610502E+002  0.1218702E+03  0.7546771E-02  0.1240043E+00
         21   -1    0    0  504  501  0.00000000000E+00  0.00000000000E+00  0.51988468710E+03  0.51988468710E+03  0.00000000000E+00 0.  1.
         21   -1    0    0  505  502 -0.00000000000E+00 -0.00000000000E+00 -0.26612076445E+03  0.26612076445E+03  0.00000000000E+00 0. -1.
         21    1    1    2  503  501  0.61905593643E+02  0.13407148937E+03  0.26009915422E+03  0.29909703578E+03  0.00000000000E+00 0.  1.
         21    1    1    2  504  502  0.11592256121E+02 -0.30108747060E+02  0.83205292914E+02  0.89241457969E+02  0.00000000000E+00 0.  1.
         21    1    1    2  505  506  0.87408153560E+00 -0.31756931820E+02 -0.22492444340E+03  0.22715693248E+03  0.00000000000E+00 0. -1.
         21    1    1    2  506  503 -0.74371931300E+02 -0.72205810488E+02  0.13538391891E+03  0.17051002532E+03  0.00000000000E+00 0.  1.
<scales pt_clust_3="14000.00000" pt_clust_4="34.52776" pt_clust_5="31.76896" pt_clust_6="121.87023"></scales>
<clustering>
<clus scale="   31.769">  2  5  1 -1</clus>
<clus scale="   34.528">  1  4  2 -1</clus>
<clus scale="  121.870">  2  6  1 -1</clus>
<clus scale="   34.528">  1  3  2 -1</clus>
</clustering>
</event>
<event>
 6    0  0.8610502E+002  0.7672959E+02  0.7546771E-02  0.1338597E+00
         21   -1    0    0  506  501  0.00000000000E+00  0.00000000000E+00  0.31050765465E+03  0.31050765465E+03  0.00000000000E+00 0. -1.
         21   -1    0    0  505  502 -0.00000000000E+00 -0.00000000000E+00 -0.80247186378E+02  0.80247186378E+02  0.00000000000E+00 0. -1.
         21    1    1    2  503  502  0.64712529108E+02  0.66622100610E+01  0.24007102897E+02  0.69342897661E+02  0.00000000000E+00 0. -1.
         21    1    1    2  504  501 -0.47310318079E+02 -0.65994032589E+02  0.27487969899E+02  0.85726699594E+02  0.00000000000E+00 0. -1.
         21    1    1    2  505  504 -0.72677655713E+02  0.79125900160E+01  0.58245747671E+02  0.93473086193E+02  0.00000000000E+00 0. -1.
         21    1    1    2  506  503  0.55275444683E+02  0.51419232512E+02  0.12051964781E+03  0.14221215758E+03  0.00000000000E+00 0. -1.
<scales pt_clust_3="65.05457" pt_clust_4="76.72959" pt_clust_5="53.80995" pt_clust_6="14000.00000"></scales>
<clustering>
<clus scale="   65.055">  2  3  1 -1</clus>
<clus scale="   53.810">  2  5  1 -1</clus>
<clus scale="   76.730">  2  4  1 -1</clus>
<clus scale="   76.730">  1  3  2 -1</clus>
</clustering>
</event>
<event>
 6    0  0.8610502E+002  0.1300978E+03  0.7546771E-02  0.1227311E+00
         21   -1    0    0  504  501  0.00000000000E+00  0.00000000000E+00  0.10298770425E+04  0.10298770425E+04  0.00000000000E+00 0. -1.
         21   -1    0    0  506  502 -0.00000000000E+00 -0.00000000000E+00 -0.34247503642E+02  0.34247503642E+02  0.00000000000E+00 0. -1.
         21    1    1    2  503  505  0.17043705652E+02  0.12170459466E+03  0.26442089445E+03  0.29158344549E+03  0.00000000000E+00 0. -1.
         21    1    1    2  504  502 -0.95452193986E+02 -0.11495202357E+03  0.37971924378E+03  0.40805856584E+03  0.00000000000E+00 0. -1.
         21    1    1    2  505  501  0.38242022668E+02  0.19743064688E+01  0.27495718829E+03  0.27761088879E+03  0.00000000000E+00 0. -1.
         21    1    1    2  506  503  0.40166465666E+02 -0.87268775556E+01  0.76532212347E+02  0.86871646023E+02  0.00000000000E+00 0.  1.
<scales pt_clust_3="130.09775" pt_clust_4="14000.00000" pt_clust_5="38.29295" pt_clust_6="45.12282"></scales>
<clustering>
<clus scale="   38.293">  1  5  2 -1</clus>
<clus scale="   45.123">  2  6  1 -1</clus>
<clus scale="  130.098">  2  3  1 -1</clus>
<clus scale="   38.293">  1  3  2 -1</clus>
</clustering>
</event>
<event>
 6    0  0.8610502E+002  0.1232608E+03  0.7546771E-02  0.1237813E+00
         21   -1    0    0  503  501  0.00000000000E+00  0.00000000000E+00  0.64345115961E+03  0.64345115961E+03  0.00000000000E+00 0. -1.
         21   -1    0    0  505  502 -0.00000000000E+00 -0.00000000000E+00 -0.56270490149E+02  0.56270490149E+02  0.00000000000E+00 0. -1.
         21    1    1    2  503  504  0.85688587120E+02  0.11785483777E+03  0.23947144800E+03  0.28031923080E+03  0.00000000000E+00 0. -1.
         21    1    1    2  504  502  0.84347797198E+01 -0.34570246759E+02 -0.16373830620E+01  0.35622022587E+02  0.00000000000E+00 0.  1.
         21    1    1    2  505  506 -0.40968283082E+02  0.15228486642E+02  0.66378267059E+02  0.79475665218E+02  0.00000000000E+00 0. -1.
         21    1    1    2  506  501 -0.53155083759E+02 -0.98513077649E+02  0.28296833746E+03  0.30430473116E+03  0.00000000000E+00 0. -1.
<scales pt_clust_3="123.26075" pt_clust_4="35.58437" pt_clust_5="40.56121" pt_clust_6="14000.00000"></scales>
<clustering>
<clus scale="   35.584">  2  4  1 -1</clus>
<clus scale="   40.561">  2  5  1 -1</clus>
<clus scale="  123.261">  2  3  1 -1</clus>
<clus scale="  123.261">  1  3  2 -1</clus>
</clustering>
</event>
<event>
 6    0  0.8610502E+002  0.1248218E+03  0.7546771E-02  0.1235348E+00
         21   -1    0    0  504  501  0.00000000000E+00  0.00000000000E+00  0.55348217103E+02  0.55348217103E+02  0.00000000000E+00 0. -1.
         21   -1    0    0  506  502 -0.00000000000E+00 -0.00000000000E+00 -0.18361497884E+04  0.18361497884E+04  0.00000000000E+00 0. -1.
         21    1    1    2  503  501  0.19202272267E+02 -0.43223972613E+02 -0.11540935130E+03  0.12472512752E+03  0.00000000000E+00 0. -1.
         21    1    1    2  504  505 -0.87842413062E+02 -0.71872075665E+02 -0.23219086675E+02  0.11584908622E+03  0.00000000000E+00 0. -1.
         21    1    1    2  505  502  0.63857896607E+02  0.14919375625E+02 -0.48511166600E+03  0.48952400065E+03  0.00000000000E+00 0.  1.
         21    1    1    2  506  503  0.47822441878E+01  0.10017667265E+03 -0.11570614673E+04  0.11613997911E+04  0.00000000000E+00 0. -1.
<scales pt_clust_3="47.29735" pt_clust_4="14000.00000" pt_clust_5="65.99439" pt_clust_6="124.82175"></scales>
<clustering>
<clus scale="   47.297">  1  3  2 -1</clus>
<clus scale="   65.994">  2  5  1 -1</clus>
<clus scale="  124.822">  2  6  1 -1</clus>
<clus scale="   47.297">  1  3  2 -1</clus>
</clustering>
</event>
<event>
 6    0  0.8610502E+002  0.3657881E+03  0.7546771E-02  0.1056315E+00
         21   -1    0    0  505  501  0.00000000000E+00  0.00000000000E+00  0.31917411306E+04  0.31917411306E+04  0.00000000000E+00 0. -1.
         21   -1    0    0  506  502 -0.00000000000E+00 -0.00000000000E+00 -0.25921876602E+03  0.25921876602E+03  0.00000000000E+00 0. -1.
         21    1    1    2  503  504  0.81529478830E+02 -0.41215507024E+02  0.17296215894E+01  0.91371579435E+02  0.00000000000E+00 0. -1.
         21    1    1    2  504  502  0.15530698716E+03 -0.23510157660E+03 -0.53524482830E+02  0.28680634903E+03  0.00000000000E+00 0. -1.
         21    1    1    2  505  503 -0.31392683984E+02  0.28277557417E+02  0.24396491278E+04  0.24400149564E+04  0.00000000000E+00 0. -1.
         21    1    1    2  506  501 -0.20544378201E+03  0.24803952621E+03  0.54466809805E+03  0.63276701175E+03  0.00000000000E+00 0. -1.
<scales pt_clust_3="50.45575" pt_clust_4="50.45575" pt_clust_5="42.25069" pt_clust_6="354.83485"></scales>
<clustering>
<clus scale="   42.251">  1  5  2 -1</clus>
<clus scale="   50.456">  3  4 -1 -1</clus>
<clus scale="  354.835">  1  6  2 -1</clus>
<clus scale="   42.251">  1  3  2 -1</clus>
</clustering>
</event>
<event>
 6    0  0.8610502E+002  0.8091904E+02  0.7546771E-02  0.1326463E+00
         21   -1    0    0  504  501  0.00000000000E+00  0.00000000000E+00  0.45259261754E+03  0.45259261754E+03  0.00000000000E+00 0.  1.
         21   -1    0    0  506  502 -0.00000000000E+00 -0.00000000000E+00 -0.30793781178E+03  0.30793781178E+03  0.00000000000E+00 0.  1.
         21    1    1    2  503  501  0.21605266581E+01 -0.55306808409E+02  0.40038492150E+03  0.40419252380E+03  0.00000000000E+00 0.  1.
         21    1    1    2  504  502  0.89168324142E+02 -0.20874992096E+02 -0.46106028149E+02  0.10253058645E+03  0.00000000000E+00 0.  1.
         21    1    1    2  505  503 -0.41349027485E+02  0.72379320595E+02 -0.83043238501E+02  0.11766345050E+03  0.00000000000E+00 0.  1.
         21    1    1    2  506  505 -0.49979823315E+02  0.38024799096E+01 -0.12658084909E+03  0.13614386857E+03  0.00000000000E+00 0.  1.
<scales pt_clust_3="55.28960" pt_clust_4="14000.00000" pt_clust_5="80.91904" pt_clust_6="50.12426"></scales>
<clustering>
<clus scale="   50.124">  2  6  1 -1</clus>
<clus scale="   55.290">  1  3  2 -1</clus>
<clus scale="   80.919">  1  5  2 -1</clus>
<clus scale="   55.290">  1  3  2 -1</clus>
</clustering>
</event>
<event>
 6    0  0.8610502E+002  0.1489644E+03  0.7546771E-02  0.1201751E+00
         21   -1    0    0  506  501  0.00000000000E+00  0.00000000000E+00  0.10949408606E+04  0.10949408606E+04  0.00000000000E+00 0. -1.
         21   -1    0    0  504  502 -0.00000000000E+00 -0.00000000000E+00 -0.13521917835E+03  0.13521917835E+03  0.00000000000E+00 0. -1.
         21    1    1    2  503  502  0.42507467378E+02  0.34454768534E+02 -0.55009325960E+02  0.77588928335E+02  0.00000000000E+00 0. -1.
         21    1    1    2  504  505  0.25811803477E+02 -0.32798729798E+02  0.29276828591E+02  0.50981747395E+02  0.00000000000E+00 0. -1.
         21    1    1    2  505  501 -0.13755270042E+03  0.10084285464E+02  0.10157788557E+04  0.10250995668E+04  0.00000000000E+00 0. -1.
         21    1    1    2  506  503  0.69233429562E+02 -0.11740324200E+02 -0.30324676052E+02  0.76489796437E+02  0.00000000000E+00 0. -1.
<scales pt_clust_3="49.06868" pt_clust_4="41.73734" pt_clust_5="136.87222" pt_clust_6="49.06868"></scales>
<clustering>
<clus scale="   41.737">  2  4  1 -1</clus>
<clus scale="   49.069">  3  6 -1 -1</clus>
<clus scale="  136.872">  1  5  2 -1</clus>
<clus scale="  136.872">  1  3  2 -1</clus>
</clustering>
</event>
<event>
 6    0  0.8610502E+002  0.1384564E+03  0.7546771E-02  0.1215421E+00
         21   -1    0    0  504  501  0.00000000000E+00  0.00000000000E+00  0.25434555684E+04  0.25434555684E+04  0.00000000000E+00 0. -1.
         21   -1    0    0  506  502 -0.00000000000E+00 -0.00000000000E+00 -0.86907920292E+02  0.86907920292E+02  0.00000000000E+00 0. -1.
         21    1    1    2  503  501  0.35815722352E+00  0.31088963537E+02  0.14610797881E+04  0.14614105512E+04  0.00000000000E+00 0. -1.
         21    1    1    2  504  502 -0.14451889414E+03  0.11811362403E+03  0.61474412194E+03  0.64245379165E+03  0.00000000000E+00 0. -1.
         21    1    1    2  505  503  0.42804037619E+02 -0.62279190506E+02  0.38555084003E+03  0.39288717650E+03  0.00000000000E+00 0. -1.
         21    1    1    2  506  505  0.10135669930E+03 -0.86923397060E+02 -0.48271019393E+01  0.13361196938E+03  0.00000000000E+00 0. -1.
<scales pt_clust_3="31.09103" pt_clust_4="138.45644" pt_clust_5="66.74005" pt_clust_6="14000.00000"></scales>
<clustering>
<clus scale="   31.091">  1  3  2 -1</clus>
<clus scale="   66.740">  1  5  2 -1</clus>
<clus scale="  138.456">  1  4  2 -1</clus>
<clus scale="   31.091">  1  3  2 -1</clus>
</clustering>
</event>
<event>
 6    0  0.8610502E+002  0.1050987E+03  0.7546771E-02  0.1269925E+00
         21   -1    0    0  505  501  0.00000000000E+00  0.00000000000E+00  0.48665787126E+03  0.48665787126E+03  0.00000000000E+00 0.  1.
         21   -1    0    0  506  502 -0.00000000000E+00 -0.00000000000E+00 -0.28955888096E+03  0.28955888096E+03  0.00000000000E+00 0. -1.
         21    1    1    2  503  501 -0.59130915214E+02 -0.71500745961E+01  0.30719548061E+03  0.31291636584E+03  0.00000000000E+00 0.  1.
         21    1    1    2  504  503 -0.53727086718E+02 -0.36977797060E+02  0.12735621481E+03  0.14308585805E+03  0.00000000000E+00 0.  1.
         21    1    1    2  505  502  0.50780683561E+02 -0.23121798928E+02  0.97243495104E+01  0.56637958844E+02  0.00000000000E+00 0. -1.
         21    1    1    2  506  504  0.62077318371E+02  0.67249670584E+02 -0.24717705463E+03  0.26357656949E+03  0.00000000000E+00 0. -1.
<scales pt_clust_3="59.05038" pt_clust_4="14000.00000" pt_clust_5="55.79691" pt_clust_6="105.09872"></scales>
<clustering>
<clus scale="   55.797">  2  5  1 -1</clus>
<clus scale="   59.050">  1  3  2 -1</clus>
<clus scale="  105.099">  2  6  1 -1</clus>
<clus scale="   59.050">  1  3  2 -1</clus>
</clustering>
</event>
<event>
 6    0  0.8610502E+002  0.9100177E+02  0.7546771E-02  0.1300444E+00
         21   -1    0    0  504  501  0.00000000000E+00  0.00000000000E+00  0.25937347896E+03  0.25937347896E+03  0.00000000000E+00 0. -1.
         21   -1    0    0  503  502 -0.00000000000E+00 -0.00000000000E+00 -0.12713840021E+03  0.12713840021E+03  0.00000000000E+00 0. -1.
         21    1    1    2  503  506  0.84245017396E+02  0.59549578600E+02  0.25826929507E+02  0.10635039048E+03  0.00000000000E+00 0. -1.
         21    1    1    2  504  502 -0.87850436515E+02  0.50794344873E+02 -0.22149059002E+01  0.10150207128E+03  0.00000000000E+00 0. -1.
         21    1    1    2  505  501  0.40579040393E+02 -0.30737064660E+02  0.22388216912E+02  0.55611670714E+02  0.00000000000E+00 0. -1.
         21    1    1    2  506  505 -0.36973621274E+02 -0.79606858813E+02  0.86234838229E+02  0.12304774669E+03  0.00000000000E+00 0. -1.
<scales pt_clust_3="91.00177" pt_clust_4="90.10955" pt_clust_5="50.90605" pt_clust_6="14000.00000"></scales>
<clustering>
<clus scale="   50.906">  1  5  2 -1</clus>
<clus scale="   90.110">  2  4  1 -1</clus>
<clus scale="   91.002">  2  3  1 -1</clus>
<clus scale="   50.906">  1  3  2 -1</clus>
</clustering>
</event>
<event>
 6    0  0.8610502E+002  0.1500567E+03  0.7546771E-02  0.1200403E+00
         21   -1    0    0  503  501  0.00000000000E+00  0.00000000000E+00  0.21943511878E+02  0.21943511878E+02  0.00000000000E+00 0. -1.
         21   -1    0    0  501  502 -0.00000000000E+00 -0.00000000000E+00 -0.16483511012E+04  0.16483511012E+04  0.00000000000E+00 0. -1.
         21    1    1    2  503  506  0.21668233466E+01 -0.38817947742E+02 -0.41093035091E+02  0.56570007277E+02  0.00000000000E+00 0. -1.
         21    1    1    2  504  502  0.28080198457E+02  0.32381515040E+02 -0.52732057508E+03  0.52905958924E+03  0.00000000000E+00 0. -1.
         21    1    1    2  505  504  0.93568157560E+02  0.45509253656E+02 -0.58471505403E+03  0.59390048551E+03  0.00000000000E+00 0. -1.
         21    1    1    2  506  505 -0.12381517936E+03 -0.39072820954E+02 -0.47327892510E+03  0.49076453104E+03  0.00000000000E+00 0. -1.
<scales pt_clust_3="38.87838" pt_clust_4="38.24509" pt_clust_5="38.24509" pt_clust_6="137.71791"></scales>
<clustering>
<clus scale="   38.245">  4  5 -1 -1</clus>
<clus scale="   38.878">  1  3  2 -1</clus>
<clus scale="  137.718">  1  6  2 -1</clus>
<clus scale="   38.878">  1  3  2 -1</clus>
</clustering>
</event>
<event>
 6    0  0.8610502E+002  0.1259958E+03  0.7546771E-02  0.1233521E+00
         21   -1    0    0  506  501  0.00000000000E+00  0.00000000000E+00  0.19124067501E+03  0.19124067501E+03  0.00000000000E+00 0. -1.
         21   -1    0    0  504  502 -0.00000000000E+00 -0.00000000000E+00 -0.13699393106E+04  0.13699393106E+04  0.00000000000E+00 0. -1.
         21    1    1    2  503  501 -0.72189158431E+02  0.70540838926E+02 -0.10990598498E+03  0.14922000565E+03  0.00000000000E+00 0. -1.
         21    1    1    2  504  503  0.65036412976E+02 -0.11441224733E+03 -0.11148393555E+04  0.11225803694E+04  0.00000000000E+00 0. -1.
         21    1    1    2  505  502  0.31803565704E+02  0.26291302844E+02 -0.11673117644E+03  0.12380980151E+03  0.00000000000E+00 0. -1.
         21    1    1    2  506  505 -0.24650820249E+02  0.17580105558E+02  0.16277788125E+03  0.16556980907E+03  0.00000000000E+00 0. -1.
<scales pt_clust_3="14000.00000" pt_clust_4="125.99578" pt_clust_5="40.42550" pt_clust_6="30.27743"></scales>
<clustering>
<clus scale="   30.277">  1  6  2 -1</clus>
<clus scale="   40.425">  1  5  2 -1</clus>
<clus scale="  125.996">  2  4  1 -1</clus>
<clus scale="   30.277">  1  3  2 -1</clus>
</clustering>
</event>
<event>
 6    0  0.8610502E+002  0.1384729E+03  0.7546771E-02  0.1215399E+00
         21   -1    0    0  504  501  0.00000000000E+00  0.00000000000E+00  0.48352439245E+03  0.48352439245E+03  0.00000000000E+00 0.  1.
         21   -1    0    0  503  502 -0.00000000000E+00 -0.00000000000E+00 -0.33064243578E+03  0.33064243578E+03  0.00000000000E+00 0. -1.
         21    1    1    2  503  501 -0.19988128331E+01  0.10397345878E+03  0.38615009317E+03  0.39990795171E+03  0.00000000000E+00 0.  1.
         21    1    1    2  504  505 -0.25385093729E+01 -0.30639907147E+02  0.11353369378E+02  0.32774180936E+02  0.00000000000E+00 0.  1.
         21    1    1    2  505  506 -0.39411969649E+02  0.59761251266E+02  0.26452229440E+02  0.76317959530E+02  0.00000000000E+00 0.  1.
         21    1    1    2  506  502  0.43949291855E+02 -0.13309480290E+03 -0.27107373531E+03  0.30516673605E+03  0.00000000000E+00 0. -1.
<scales pt_clust_3="138.47294" pt_clust_4="30.74488" pt_clust_5="68.92691" pt_clust_6="14000.00000"></scales>
<clustering>
<clus scale="   30.745">  1  4  2 -1</clus>
<clus scale="   68.927">  1  5  2 -1</clus>
<clus scale="  138.473">  1  3  2 -1</clus>
<clus scale="   30.745">  1  3  2 -1</clus>
</clustering>
</event>
<event>
 6    0  0.8610502E+002  0.1262635E+03  0.7546771E-02  0.1233108E+00
         21   -1    0    0  503  501  0.00000000000E+00  0.00000000000E+00  0.37721761904E+02  0.37721761904E+02  0.00000000000E+00 0.  1.
         21   -1    0    0  506  502 -0.00000000000E+00 -0.00000000000E+00 -0.92908223248E+03  0.92908223248E+03  0.00000000000E+00 0.  1.
         21    1    1    2  503  502 -0.10306941527E+03 -0.77242391202E+02 -0.27088811510E+03  0.29995009962E+03  0.00000000000E+00 0.  1.
         21    1    1    2  504  501  0.38575414356E+02  0.93519492266E+01 -0.42840691222E+02  0.58402451759E+02  0.00000000000E+00 0.  1.
         21    1    1    2  505  504  0.32484088042E+02  0.73992089922E+02 -0.94995405399E+02  0.12471636779E+03  0.00000000000E+00 0.  1.
         21    1    1    2  506  505  0.32009912871E+02 -0.61016479470E+01 -0.48263625886E+03  0.48373507522E+03  0.00000000000E+00 0.  1.
<scales pt_clust_3="115.77752" pt_clust_4="36.30468" pt_clust_5="36.30468" pt_clust_6="32.58626"></scales>
<clustering>
<clus scale="   32.586">  2  6  1 -1</clus>
<clus scale="   36.305">  4  5 -1 -1</clus>
<clus scale="  115.778">  2  3  1 -1</clus>
<clus scale="  126.263">  1  3  2 -1</clus>
</clustering>
</event>
<event>
 6    0  0.8610502E+002  0.7584349E+02  0.7546771E-02  0.1341279E+00
         21   -1    0    0  504  501  0.00000000000E+00  0.00000000000E+00  0.13260152949E+03  0.13260152949E+03  0.00000000000E+00 0. -1.
         21   -1    0    0  506  502 -0.00000000000E+00 -0.00000000000E+00 -0.14713020710E+04  0.14713020710E+04  0.00000000000E+00 0. -1.
         21    1    1    2  503  501 -0.93549146689E+02  0.10799542560E+02 -0.14937301864E+03  0.17657964680E+03  0.00000000000E+00 0.  1.
         21    1    1    2  504  505  0.23006489586E+02  0.53991667678E+02  0.10839392074E+03  0.12326248738E+03  0.00000000000E+00 0. -1.
         21    1    1    2  505  502  0.45260071270E+02 -0.11753261376E+02 -0.96918532271E+03  0.97031273461E+03  0.00000000000E+00 0. -1.
         21    1    1    2  506  503  0.25282585832E+02 -0.53037948863E+02 -0.32853612088E+03  0.33374873167E+03  0.00000000000E+00 0. -1.
<scales pt_clust_3="75.84349" pt_clust_4="58.79571" pt_clust_5="46.76124" pt_clust_6="14000.00000"></scales>
<clustering>
<clus scale="   46.761">  2  5  1 -1</clus>
<clus scale="   58.796">  1  4  2 -1</clus>
<clus scale="   75.843">  1  3  2 -1</clus>
<clus scale="   58.796">  1  3  2 -1</clus>
</clustering>
</event>
<event>
 6    0  0.8610502E+002  0.1368906E+03  0.7546771E-02  0.1217575E+00
         21   -1    0    0  502  501  0.00000000000E+00  0.00000000000E+00  0.54535586319E+03  0.54535586319E+03  0.00000000000E+00 0.  1.
         21   -1    0    0  503  502 -0.00000000000E+00 -0.00000000000E+00 -0.60010198564E+02  0.60010198564E+02  0.00000000000E+00 0. -1.
         21    1    1    2  503  505  0.45434638648E+02 -0.10352847424E+02 -0.59446400136E+01  0.46976872860E+02  0.00000000000E+00 0. -1.
         21    1    1    2  504  501 -0.99943132758E+02  0.48284447763E+02  0.30778074363E+03  0.32718344065E+03  0.00000000000E+00 0.  1.
         21    1    1    2  505  506  0.87069648797E+02 -0.54828312919E+02  0.14714510953E+03  0.17955208408E+03  0.00000000000E+00 0. -1.
         21    1    1    2  506  504 -0.32561154686E+02  0.16896712580E+02  0.36364451469E+02  0.51653664160E+02  0.00000000000E+00 0.  1.
<scales pt_clust_3="46.59923" pt_clust_4="32.90306" pt_clust_5="124.35176" pt_clust_6="32.90306"></scales>
<clustering>
<clus scale="   32.903">  4  6 -1 -1</clus>
<clus scale="   46.599">  2  3  1 -1</clus>
<clus scale="  124.352">  2  5  1 -1</clus>
<clus scale="  136.891">  1  3  2 -1</clus>
</clustering>
</event>
<event>
 6    0  0.8610502E+002  0.1072001E+03  0.7546771E-02  0.1265845E+00
         21   -1    0    0  504  501  0.00000000000E+00  0.00000000000E+00  0.13289559135E+04  0.13289559135E+04  0.00000000000E+00 0. -1.
         21   -1    0    0  503  502 -0.00000000000E+00 -0.00000000000E+00 -0.51903508251E+02  0.51903508251E+02  0.00000000000E+00 0. -1.
         21    1    1    2  503  506 -0.41135163307E+02  0.15322348839E+02  0.20664656737E+02  0.48517049295E+02  0.00000000000E+00 0.  1.
         21    1    1    2  504  502  0.13541999722E+02 -0.58459542818E+02  0.58207653157E+02  0.83600447301E+02  0.00000000000E+00 0. -1.
         21    1    1    2  505  501  0.53541966916E+02 -0.60401286215E+02  0.11023319839E+04  0.11052831584E+04  0.00000000000E+00 0. -1.
         21    1    1    2  506  505 -0.25948803331E+02  0.10353848019E+03  0.95848111418E+02  0.14345876668E+03  0.00000000000E+00 0. -1.
<scales pt_clust_3="43.73583" pt_clust_4="60.00753" pt_clust_5="82.70744" pt_clust_6="43.73583"></scales>
<clustering>
<clus scale="   43.736">  3  6 -1 -1</clus>
<clus scale="   60.008">  2  4  1 -1</clus>
<clus scale="   82.707">  1  5  2 -1</clus>
<clus scale="   82.707">  1  3  2 -1</clus>
</clustering>
</event>
<event>
 6    0  0.8610502E+002  0.7324716E+02  0.7546771E-02  0.1349387E+00
         21   -1    0    0  503  501  0.00000000000E+00  0.00000000000E+00  0.19793755919E+03  0.19793755919E+03  0.00000000000E+00 0. -1.
         21   -1    0    0  504  502 -0.00000000000E+00 -0.00000000000E+00 -0.34769477581E+03  0.34769477581E+03  0.00000000000E+00 0. -1.
         21    1    1    2  503  506  0.42938864975E+02 -0.58123116975E+02  0.15550999211E+03  0.17148002945E+03  0.00000000000E+00 0. -1.
         21    1    1    2  504  505 -0.32663405262E+02 -0.50266638179E+02 -0.59796906967E+02  0.84671736961E+02  0.00000000000E+00 0. -1.
         21    1    1    2  505  501  0.48364101276E+02  0.36327757277E+02 -0.10021399945E+03  0.11705399578E+03  0.00000000000E+00 0.  1.
         21    1    1    2  506  502 -0.58639560990E+02  0.72061997877E+02 -0.14525630231E+03  0.17242657281E+03  0.00000000000E+00 0. -1.
<scales pt_clust_3="14000.00000" pt_clust_4="59.94692" pt_clust_5="39.13302" pt_clust_6="73.24716"></scales>
<clustering>
<clus scale="   59.947">  2  4  1 -1</clus>
<clus scale="   39.133">  2  5  1 -1</clus>
<clus scale="   73.247">  2  6  1 -1</clus>
<clus scale="   73.247">  1  3  2 -1</clus>
</clustering>
</event>
<event>
 6    0  0.8610502E+002  0.1016470E+03  0.7546771E-02  0.1276870E+00
         21   -1    0    0  506  501  0.00000000000E+00  0.00000000000E+00  0.72489296541E+03  0.72489296541E+03  0.00000000000E+00 0.  1.
         21   -1    0    0  503  502 -0.00000000000E+00 -0.00000000000E+00 -0.16188557820E+03  0.16188557820E+03  0.00000000000E+00 0.  1.
         21    1    1    2  503  501 -0.68509200411E+02 -0.14641552113E+03  0.10547044858E+03  0.19301562344E+03  0.00000000000E+00 0.  1.
         21    1    1    2  504  505 -0.21067103911E+02  0.85122644122E+02  0.30917670357E+03  0.32137193630E+03  0.00000000000E+00 0.  1.
         21    1    1    2  505  502  0.67618431355E+01  0.73793290522E+02 -0.91840382191E+02  0.11800774572E+03  0.00000000000E+00 0.  1.
         21    1    1    2  506  504  0.82814461187E+02 -0.12500413510E+02  0.24020061726E+03  0.25438323815E+03  0.00000000000E+00 0.  1.
<scales pt_clust_3="101.64695" pt_clust_4="14000.00000" pt_clust_5="74.10244" pt_clust_6="83.72187"></scales>
<clustering>
<clus scale="   74.102">  2  5  1 -1</clus>
<clus scale="   83.722">  1  6  2 -1</clus>
<clus scale="  101.647">  2  3  1 -1</clus>
<clus scale="   83.722">  1  3  2 -1</clus>
</clustering>
</event>
<event>
 6    0  0.8610502E+002  0.6798046E+02  0.7546771E-02  0.1367098E+00
         21   -1    0    0  506  501  0.00000000000E+00  0.00000000000E+00  0.63803837334E+02  0.63803837334E+02  0.00000000000E+00 0. -1.
         21   -1    0    0  505  502 -0.00000000000E+00 -0.00000000000E+00 -0.32615773483E+03  0.32615773483E+03  0.00000000000E+00 0. -1.
         21    1    1    2  503  502 -0.34469314242E+02  0.20419276694E+02 -0.53851615763E+02  0.67119870421E+02  0.00000000000E+00 0. -1.
         21    1    1    2  504  501 -0.55515071725E+02 -0.25173176852E+02  0.24872423941E+01  0.61006543880E+02  0.00000000000E+00 0. -1.
         21    1    1    2  505  504 -0.95159295846E+01 -0.43138122445E+02 -0.51534710943E+02  0.67876925062E+02  0.00000000000E+00 0. -1.
         21    1    1    2  506  503  0.99500315552E+02  0.47892022603E+02 -0.15945481319E+03  0.19395823280E+03  0.00000000000E+00 0. -1.
<scales pt_clust_3="40.06346" pt_clust_4="67.98046" pt_clust_5="42.23779" pt_clust_6="14000.00000"></scales>
<clustering>
<clus scale="   40.063">  2  3  1 -1</clus>
<clus scale="   42.238">  2  5  1 -1</clus>
<clus scale="   67.980">  1  4  2 -1</clus>
<clus scale="   67.980">  1  3  2 -1</clus>
</clustering>
</event>
<event>
 6    0  0.8610502E+002  0.1337946E+03  0.7546771E-02  0.1221931E+00
         21   -1    0    0  504  501  0.00000000000E+00  0.00000000000E+00  0.26108808097E+03  0.26108808097E+03  0.00000000000E+00 0. -1.
         21   -1    0    0  505  502 -0.00000000000E+00 -0.00000000000E+00 -0.34714673951E+03  0.34714673951E+03  0.00000000000E+00 0. -1.
         21    1    1    2  503  502 -0.29599947802E+02  0.18796874546E+02 -0.21337037993E+03  0.21623227889E+03  0.00000000000E+00 0. -1.
         21    1    1    2  504  503 -0.16632987028E+02 -0.36851860724E+02  0.14769657670E+02  0.43044845034E+02  0.00000000000E+00 0. -1.
         21    1    1    2  505  506 -0.90680771153E+02  0.61878216290E+02 -0.59413204584E+02  0.12482725979E+03  0.00000000000E+00 0. -1.
         21    1    1    2  506  501  0.13691370598E+03 -0.43823230112E+02  0.17195526831E+03  0.22413043676E+03  0.00000000000E+00 0. -1.
<scales pt_clust_3="35.06393" pt_clust_4="40.07416" pt_clust_5="133.79459" pt_clust_6="14000.00000"></scales>
<clustering>
<clus scale="   35.064">  2  3  1 -1</clus>
<clus scale="   40.074">  1  4  2 -1</clus>
<clus scale="  133.795">  2  5  1 -1</clus>
<clus scale="   40.074">  1  3  2 -1</clus>
</clustering>
</event>
<event>
 6    0  0.8610502E+002  0.1615212E+03  0.7546771E-02  0.1186990E+00
         21   -1    0    0  505  501  0.00000000000E+00  0.00000000000E+00  0.13299449071E+04  0.13299449071E+04  0.00000000000E+00 0.  1.
         21   -1    0    0  506  502 -0.00000000000E+00 -0.00000000000E+00 -0.12039859314E+03  0.12039859314E+03  0.00000000000E+00 0.  1.
         21    1    1    2  503  504  0.86060296850E+02  0.18281643118E+03  0.21232541757E+03  0.29310459763E+03  0.00000000000E+00 0.  1.
         21    1    1    2  504  501  0.12045933062E+02 -0.58689915706E+02  0.96040171226E+03  0.96226870448E+03  0.00000000000E+00 0.  1.
         21    1    1    2  505  502 -0.11233702320E+03 -0.80937706373E+02  0.33326317620E+01  0.13849774557E+03  0.00000000000E+00 0. -1.
         21    1    1    2  506  503  0.14230793287E+02 -0.43188809101E+02  0.33486552384E+02  0.56472452574E+02  0.00000000000E+00 0. -1.
<scales pt_clust_3="161.52124" pt_clust_4="60.30054" pt_clust_5="14000.00000" pt_clust_6="45.47294"></scales>
<clustering>
<clus scale="   45.473">  2  6  1 -1</clus>
<clus scale="   60.301">  1  4  2 -1</clus>
<clus scale="  161.521">  1  3  2 -1</clus>
<clus scale="   60.301">  1  3  2 -1</clus>
</clustering>
</event>
<event>
 6    0  0.8610502E+002  0.9092135E+02  0.7546771E-02  0.1300636E+00
         21   -1    0    0  504  501  0.00000000000E+00  0.00000000000E+00  0.65980399342E+03  0.65980399342E+03  0.00000000000E+00 0.  1.
         21   -1    0    0  505  502 -0.00000000000E+00 -0.00000000000E+00 -0.84824107319E+02  0.84824107319E+02  0.00000000000E+00 0.  1.
         21    1    1    2  503  506 -0.62271284900E+02  0.90640000684E+02  0.39825549514E+02  0.11695895451E+03  0.00000000000E+00 0.  1.
         21    1    1    2  504  502  0.25221168151E+02 -0.19781546353E+02 -0.37441168601E+01  0.32271276858E+02  0.00000000000E+00 0.  1.
         21    1    1    2  505  503 -0.51221975803E+02 -0.47139036301E+02  0.25827060045E+02  0.74248343948E+02  0.00000000000E+00 0.  1.
         21    1    1    2  506  501  0.88272092553E+02 -0.23719418030E+02  0.51307139340E+03  0.52114952542E+03  0.00000000000E+00 0.  1.
<scales pt_clust_3="90.92135" pt_clust_4="32.05334" pt_clust_5="68.70388" pt_clust_6="14000.00000"></scales>
<clustering>
<clus scale="   32.053">  2  4  1 -1</clus>
<clus scale="   68.704">  2  5  1 -1</clus>
<clus scale="   90.921">  2  3  1 -1</clus>
<clus scale="   90.921">  1  3  2 -1</clus>
</clustering>
</event>
<event>
 6    0  0.8610502E+002  0.1264565E+03  0.7546771E-02  0.1232810E+00
         21   -1    0    0  506  501  0.00000000000E+00  0.00000000000E+00  0.45553662651E+02  0.45553662651E+02  0.00000000000E+00 0.  1.
         21   -1    0    0  501  502 -0.00000000000E+00 -0.00000000000E+00 -0.24349435913E+04  0.24349435913E+04  0.00000000000E+00 0.  1.
         21    1    1    2  503  505  0.68365098961E+02  0.77830574963E+00 -0.77726995606E+03  0.78027109207E+03  0.00000000000E+00 0.  1.
         21    1    1    2  504  502 -0.16892338772E+02 -0.30448504020E+02 -0.88286253353E+03  0.88354893221E+03  0.00000000000E+00 0.  1.
         21    1    1    2  505  504  0.62725293463E+02  0.46836274124E+02 -0.69041497526E+03  0.69483878495E+03  0.00000000000E+00 0. -1.
         21    1    1    2  506  503 -0.11419805365E+03 -0.17166075855E+02 -0.38842463803E+02  0.12183844472E+03  0.00000000000E+00 0.  1.
<scales pt_clust_3="47.89310" pt_clust_4="34.82043" pt_clust_5="47.89310" pt_clust_6="116.58901"></scales>
<clustering>
<clus scale="   34.820">  2  4  1 -1</clus>
<clus scale="   47.893">  3  5 -1 -1</clus>
<clus scale="  116.589">  1  6  2 -1</clus>
<clus scale="  116.589">  1  3  2 -1</clus>
</clustering>
</event>
<event>
 6    0  0.8610502E+002  0.2261170E+03  0.7546771E-02  0.1129403E+00
         21   -1    0    0  504  501  0.00000000000E+00  0.00000000000E+00  0.13966114804E+03  0.13966114804E+03  0.00000000000E+00 0. -1.
         21   -1    0    0  506  502 -0.00000000000E+00 -0.00000000000E+00 -0.44134122445E+03  0.44134122445E+03  0.00000000000E+00 0.  1.
         21    1    1    2  503  505 -0.17187309858E+02  0.47100179520E+02 -0.10254212515E+02  0.51175965113E+02  0.00000000000E+00 0. -1.
         21    1    1    2  504  503 -0.14364889625E+03  0.80890390168E+02 -0.73487025258E+02  0.18049543899E+03  0.00000000000E+00 0.  1.
         21    1    1    2  505  502 -0.25472189407E+01  0.37019152953E+02 -0.52173339808E+02  0.64023147348E+02  0.00000000000E+00 0.  1.
         21    1    1    2  506  501  0.16338342505E+03 -0.16500972264E+03 -0.16576549883E+03  0.28530782104E+03  0.00000000000E+00 0. -1.
<scales pt_clust_3="36.61906" pt_clust_4="36.61906" pt_clust_5="37.10668" pt_clust_6="216.14743"></scales>
<clustering>
<clus scale="   36.619">  3  4 -1 -1</clus>
<clus scale="   37.107">  2  5  1 -1</clus>
<clus scale="  216.147">  2  6  1 -1</clus>
<clus scale="  226.117">  1  3  2 -1</clus>
</clustering>
</event>
<event>
 6    0  0.8610502E+002  0.7412036E+02  0.7546771E-02  0.1346617E+00
         21   -1    0    0  506  501  0.00000000000E+00  0.00000000000E+00  0.58487863941E+02  0.58487863941E+02  0.00000000000E+00 0. -1.
         21   -1    0    0  504  502 -0.00000000000E+00 -0.00000000000E+00 -0.59117465511E+03  0.59117465511E+03  0.00000000000E+00 0. -1.
         21    1    1    2  503  501  0.21301581269E+01 -0.50418620371E+02  0.98396998624E+01  0.51413952845E+02  0.00000000000E+00 0. -1.
         21    1    1    2  504  503  0.57722907000E+02 -0.57175540413E+00 -0.15869122305E+03  0.16886433954E+03  0.00000000000E+00 0. -1.
         21    1    1    2  505  502 -0.10102544857E+03 -0.12550895680E+02 -0.29809400756E+03  0.31499794219E+03  0.00000000000E+00 0. -1.
         21    1    1    2  506  505  0.41172383442E+02  0.63541271455E+02 -0.85741260422E+02  0.11438628447E+03  0.00000000000E+00 0. -1.
<scales pt_clust_3="50.46360" pt_clust_4="74.12036" pt_clust_5="14000.00000" pt_clust_6="56.58618"></scales>
<clustering>
<clus scale="   50.464">  1  3  2 -1</clus>
<clus scale="   56.586">  1  6  2 -1</clus>
<clus scale="   74.120">  2  4  1 -1</clus>
<clus scale="   50.464">  1  3  2 -1</clus>
</clustering>
</event>
<event>
 6    0  0.8610502E+002  0.8544990E+02  0.7546771E-02  0.1314260E+00
         21   -1    0    0  506  501  0.00000000000E+00  0.00000000000E+00  0.29322346237E+03  0.29322346237E+03  0.00000000000E+00 0.  1.
         21   -1    0    0  504  502 -0.00000000000E+00 -0.00000000000E+00 -0.56054857638E+03  0.56054857638E+03  0.00000000000E+00 0.  1.
         21    1    1    2  503  501  0.37687716473E+02 -0.14813719223E+01  0.60164454028E+02  0.71009294914E+02  0.00000000000E+00 0. -1.
         21    1    1    2  504  503  0.98417003171E+01  0.54218588081E+02 -0.41431155426E+03  0.41796002004E+03  0.00000000000E+00 0.  1.
         21    1    1    2  505  502  0.60491844145E+02 -0.91704288981E+02 -0.97995775989E+02  0.14721450994E+03  0.00000000000E+00 0.  1.
         21    1    1    2  506  505 -0.10802126094E+03  0.38967072822E+02  0.18481776222E+03  0.21758821386E+03  0.00000000000E+00 0.  1.
<scales pt_clust_3="37.71682" pt_clust_4="55.14765" pt_clust_5="85.44990" pt_clust_6="14000.00000"></scales>
<clustering>
<clus scale="   37.717">  1  3  2 -1</clus>
<clus scale="   55.148">  2  4  1 -1</clus>
<clus scale="   85.450">  2  5  1 -1</clus>
<clus scale="   37.717">  1  3  2 -1</clus>
</clustering>
</event>
<event>
 6    0  0.1212331E+003  0.1132242E+03  0.7546771E-02  0.1254713E+00
         21   -1    0    0  503  501  0.00000000000E+00  0.00000000000E+00  0.10508683838E+04  0.10508683838E+04  0.00000000000E+00 0. -1.
         21   -1    0    0  506  502 -0.00000000000E+00 -0.00000000000E+00 -0.35675421216E+03  0.35675421216E+03  0.00000000000E+00 0.  1.
         21    1    1    2  503  505 -0.61890079920E+01  0.41076026424E+02  0.16918265045E+03  0.17420767199E+03  0.00000000000E+00 0. -1.
         21    1    1    2  504  501  0.46924928340E+02 -0.18704544125E+01  0.13869772616E+03  0.14643260136E+03  0.00000000000E+00 0. -1.
         21    1    1    2  505  502  0.23240761932E+02  0.55055741673E+02  0.72608770099E+03  0.72854280398E+03  0.00000000000E+00 0. -1.
         21    1    1    2  506  504 -0.63976682279E+02 -0.94261313685E+02 -0.33985390595E+03  0.35843951864E+03  0.00000000000E+00 0.  1.
<scales pt_clust_3="41.53966" pt_clust_4="46.17051" pt_clust_5="113.22420" pt_clust_6="14000.00000"></scales>
<clustering>
<clus scale="   41.540">  1  3  2 -1</clus>
<clus scale="   46.171">  1  4  2 -1</clus>
<clus scale="  113.224">  1  5  2 -1</clus>
<clus scale="   41.540">  1  3  2 -1</clus>
</clustering>
</event>
<event>
 6    0  0.8610502E+002  0.8723322E+02  0.7546771E-02  0.1309694E+00
         21   -1    0    0  505  501  0.00000000000E+00  0.00000000000E+00  0.81877517997E+03  0.81877517997E+03  0.00000000000E+00 0.  1.
         21   -1    0    0  503  502 -0.00000000000E+00 -0.00000000000E+00 -0.33662213058E+03  0.33662213058E+03  0.00000000000E+00 0. -1.
         21    1    1    2  503  501 -0.61149571946E+02  0.16354971816E+02 -0.25141267086E+03  0.25925872467E+03  0.00000000000E+00 0. -1.
         21    1    1    2  504  506 -0.13414965515E+01 -0.93388223185E+02 -0.36684186229E+02  0.10034385563E+03  0.00000000000E+00 0. -1.
         21    1    1    2  505  504  0.32340897263E+02  0.81007992823E+02  0.75801141211E+03  0.76301345298E+03  0.00000000000E+00 0.  1.
         21    1    1    2  506  502  0.30150171234E+02 -0.39747414543E+01  0.12238494377E+02  0.32781277274E+02  0.00000000000E+00 0.  1.
<scales pt_clust_3="39.82714" pt_clust_4="14000.00000" pt_clust_5="87.23322" pt_clust_6="30.41104"></scales>
<clustering>
<clus scale="   30.411">  2  6  1 -1</clus>
<clus scale="   39.827">  2  3  1 -1</clus>
<clus scale="   87.233">  1  5  2 -1</clus>
<clus scale="   87.233">  1  3  2 -1</clus>
</clustering>
</event>
<event>
 6    0  0.8610502E+002  0.1430335E+03  0.7546771E-02  0.1209304E+00
         21   -1    0    0  506  501  0.00000000000E+00  0.00000000000E+00  0.18485647673E+03  0.18485647673E+03  0.00000000000E+00 0. -1.
         21   -1    0    0  505  502 -0.00000000000E+00 -0.00000000000E+00 -0.15653368524E+04  0.15653368524E+04  0.00000000000E+00 0. -1.
         21    1    1    2  503  504  0.53409522419E+02  0.57597118182E+02 -0.22061228102E+03  0.23417895645E+03  0.00000000000E+00 0. -1.
         21    1    1    2  504  502 -0.54482804203E+02 -0.23870630471E+02 -0.11197856120E+04  0.11213643475E+04  0.00000000000E+00 0. -1.
         21    1    1    2  505  501 -0.96925999778E+02 -0.83177980043E+02  0.13636894836E+03  0.18684141906E+03  0.00000000000E+00 0. -1.
         21    1    1    2  506  503  0.97999281562E+02  0.49451492332E+02 -0.17645143097E+03  0.20780860610E+03  0.00000000000E+00 0. -1.
<scales pt_clust_3="48.66362" pt_clust_4="59.48263" pt_clust_5="130.95500" pt_clust_6="48.66362"></scales>
<clustering>
<clus scale="   48.664">  3  6 -1 -1</clus>
<clus scale="   59.483">  2  4  1 -1</clus>
<clus scale="  130.955">  1  5  2 -1</clus>
<clus scale="  130.955">  1  3  2 -1</clus>
</clustering>
</event>
<event>
 6    0  0.8610502E+002  0.1201049E+03  0.7546771E-02  0.1242924E+00
         21   -1    0    0  504  501  0.00000000000E+00  0.00000000000E+00  0.13567531758E+03  0.13567531758E+03  0.00000000000E+00 0.  1.
         21   -1    0    0  506  502 -0.00000000000E+00 -0.00000000000E+00 -0.40521878152E+03  0.40521878152E+03  0.00000000000E+00 0.  1.
         21    1    1    2  503  501 -0.13020774116E+02 -0.30740773241E+02 -0.11978663268E+01  0.33406145868E+02  0.00000000000E+00 0.  1.
         21    1    1    2  504  505  0.22884429125E+02  0.15181266120E+03 -0.12597436655E+02  0.15404374900E+03  0.00000000000E+00 0.  1.
         21    1    1    2  505  502  0.93585681505E+02 -0.81778518219E+02 -0.87224706877E+02  0.15183594869E+03  0.00000000000E+00 0.  1.
         21    1    1    2  506  503 -0.10344933651E+03 -0.39293369736E+02 -0.16852345408E+03  0.20160825555E+03  0.00000000000E+00 0.  1.
<scales pt_clust_3="33.38466" pt_clust_4="120.10487" pt_clust_5="14000.00000" pt_clust_6="113.90345"></scales>
<clustering>
<clus scale="   33.385">  1  3  2 -1</clus>
<clus scale="  113.903">  2  6  1 -1</clus>
<clus scale="  120.105">  1  4  2 -1</clus>
<clus scale="   33.385">  1  3  2 -1</clus>
</clustering>
</event>
<event>
 6    0  0.8610502E+002  0.1182243E+03  0.7546771E-02  0.1246055E+00
         21   -1    0    0  503  501  0.00000000000E+00  0.00000000000E+00  0.53251009979E+03  0.53251009979E+03  0.00000000000E+00 0.  1.
         21   -1    0    0  506  502 -0.00000000000E+00 -0.00000000000E+00 -0.37766068733E+03  0.37766068733E+03  0.00000000000E+00 0.  1.
         21    1    1    2  503  502 -0.11090744846E+03  0.10811381039E+03 -0.29622346821E+03  0.33427144844E+03  0.00000000000E+00 0.  1.
         21    1    1    2  504  501  0.26717316156E+02 -0.24969104563E+02  0.44412724770E+03  0.44563020916E+03  0.00000000000E+00 0.  1.
         21    1    1    2  505  504  0.65805785624E+02 -0.57563976210E+02  0.28661023534E+02  0.92007972745E+02  0.00000000000E+00 0.  1.
         21    1    1    2  506  505  0.18384346684E+02 -0.25580729618E+02 -0.21715390559E+02  0.38261156777E+02  0.00000000000E+00 0. -1.
<scales pt_clust_3="118.22433" pt_clust_4="36.63551" pt_clust_5="14000.00000" pt_clust_6="31.50171"></scales>
<clustering>
<clus scale="   31.502">  2  6  1 -1</clus>
<clus scale="   36.636">  1  4  2 -1</clus>
<clus scale="  118.224">  2  3  1 -1</clus>
<clus scale="   36.636">  1  3  2 -1</clus>
</clustering>
</event>
<event>
 6    0  0.8610502E+002  0.1936018E+03  0.7546771E-02  0.1155252E+00
         21   -1    0    0  504  501  0.00000000000E+00  0.00000000000E+00  0.12982443427E+03  0.12982443427E+03  0.00000000000E+00 0.  1.
         21   -1    0    0  505  502 -0.00000000000E+00 -0.00000000000E+00 -0.60328312389E+03  0.60328312389E+03  0.00000000000E+00 0.  1.
         21    1    1    2  503  502 -0.17905836608E+02  0.64012739052E+02 -0.10663069473E+03  0.12565172026E+03  0.00000000000E+00 0. -1.
         21    1    1    2  504  506  0.15633715637E+03 -0.12622376525E+03 -0.17636855671E+02  0.20170474475E+03  0.00000000000E+00 0.  1.
         21    1    1    2  505  501 -0.72718117193E+02 -0.13865880223E+02 -0.26335805504E+03  0.27356471329E+03  0.00000000000E+00 0.  1.
         21    1    1    2  506  503 -0.65713202567E+02  0.76076906425E+02 -0.85833084172E+02  0.13218637986E+03  0.00000000000E+00 0.  1.
<scales pt_clust_3="43.18814" pt_clust_4="186.17394" pt_clust_5="74.02829" pt_clust_6="43.18814"></scales>
<clustering>
<clus scale="   43.188">  3  6 -1 -1</clus>
<clus scale="   74.028">  2  5  1 -1</clus>
<clus scale="  186.174">  1  4  2 -1</clus>
<clus scale="  186.174">  1  3  2 -1</clus>
</clustering>
</event>
<event>
 6    0  0.8610502E+002  0.1294542E+03  0.7546771E-02  0.1228268E+00
         21   -1    0    0  503  501  0.00000000000E+00  0.00000000000E+00  0.22496484651E+03  0.22496484651E+03  0.00000000000E+00 0.  1.
         21   -1    0    0  505  502 -0.00000000000E+00 -0.00000000000E+00 -0.13306084045E+04  0.13306084045E+04  0.00000000000E+00 0.  1.
         21    1    1    2  503  504 -0.46001234677E+02 -0.21575427936E+02 -0.63224488879E+03  0.63428322702E+03  0.00000000000E+00 0.  1.
         21    1    1    2  504  502 -0.41981862172E+02  0.12584933928E+02 -0.48845056864E+03  0.49041290289E+03  0.00000000000E+00 0.  1.
         21    1    1    2  505  506 -0.37292069894E+02  0.16245727143E+02 -0.18790655717E+03  0.19225893050E+03  0.00000000000E+00 0.  1.
         21    1    1    2  506  501  0.12527516674E+03 -0.72552331350E+01  0.20295845657E+03  0.23861819064E+03  0.00000000000E+00 0.  1.
<scales pt_clust_3="31.64890" pt_clust_4="31.64890" pt_clust_5="40.67705" pt_clust_6="124.88858"></scales>
<clustering>
<clus scale="   31.649">  3  4 -1 -1</clus>
<clus scale="   40.677">  2  5  1 -1</clus>
<clus scale="  124.889">  1  6  2 -1</clus>
<clus scale="  124.889">  1  3  2 -1</clus>
</clustering>
</event>
<event>
 6    0  0.8610502E+002  0.1942099E+03  0.7546771E-02  0.1154718E+00
         21   -1    0    0  505  501  0.00000000000E+00  0.00000000000E+00  0.54569155450E+03  0.54569155450E+03  0.00000000000E+00 0.  1.
         21   -1    0    0  504  502 -0.00000000000E+00 -0.00000000000E+00 -0.14333321029E+03  0.14333321029E+03  0.00000000000E+00 0.  1.
         21    1    1    2  503  502 -0.68879252739E+01  0.12161930576E+03  0.54113973294E+02  0.13329298989E+03  0.00000000000E+00 0.  1.
         21    1    1    2  504  501  0.14430753833E+03  0.15276692358E+01  0.14164709766E+03  0.20221498378E+03  0.00000000000E+00 0.  1.
         21    1    1    2  505  506 -0.13674906199E+03 -0.18025913115E+03  0.14126739839E+03  0.26673983236E+03  0.00000000000E+00 0.  1.
         21    1    1    2  506  503 -0.67055106591E+00  0.57112156152E+02  0.65329874876E+02  0.86776958753E+02  0.00000000000E+00 0.  1.
<scales pt_clust_3="31.83805" pt_clust_4="144.31562" pt_clust_5="188.56190" pt_clust_6="31.83805"></scales>
<clustering>
<clus scale="   31.838">  3  6 -1 -1</clus>
<clus scale="  144.316">  1  4  2 -1</clus>
<clus scale="  188.562">  1  5  2 -1</clus>
<clus scale="  144.316">  1  3  2 -1</clus>
</clustering>
</event>
<event>
 6    0  0.8610502E+002  0.9909787E+02  0.7546771E-02  0.1282205E+00
         21   -1    0    0  503  501  0.00000000000E+00  0.00000000000E+00  0.65767230489E+02  0.65767230489E+02  0.00000000000E+00 0. -1.
         21   -1    0    0  506  502 -0.00000000000E+00 -0.00000000000E+00 -0.80386208287E+03  0.80386208287E+03  0.00000000000E+00 0.  1.
         21    1    1    2  503  505  0.42244697525E+02 -0.99673174647E+02 -0.23203954279E+02  0.11071485766E+03  0.00000000000E+00 0. -1.
         21    1    1    2  504  501  0.51456031448E+02  0.42067254205E+02 -0.78585179427E+02  0.10292233710E+03  0.00000000000E+00 0.  1.
         21    1    1    2  505  502 -0.98415009105E+02 -0.23184051499E+01 -0.42884907813E+03  0.44000275093E+03  0.00000000000E+00 0.  1.
         21    1    1    2  506  504  0.47142801324E+01  0.59924325592E+02 -0.20745664055E+03  0.21598936766E+03  0.00000000000E+00 0.  1.
<scales pt_clust_3="14000.00000" pt_clust_4="73.13904" pt_clust_5="99.09787" pt_clust_6="60.10948"></scales>
<clustering>
<clus scale="   60.109">  2  6  1 -1</clus>
<clus scale="   73.139">  1  4  2 -1</clus>
<clus scale="   99.098">  2  5  1 -1</clus>
<clus scale="   73.139">  1  3  2 -1</clus>
</clustering>
</event>
<event>
 6    0  0.8610502E+002  0.1129349E+03  0.7546771E-02  0.1255229E+00
         21   -1    0    0  502  501  0.00000000000E+00  0.00000000000E+00  0.86970164058E+03  0.86970164058E+03  0.00000000000E+00 0.  1.
         21   -1    0    0  504  502 -0.00000000000E+00 -0.00000000000E+00 -0.49171922426E+02  0.49171922426E+02  0.00000000000E+00 0.  1.
         21    1    1    2  503  506 -0.40706103682E+02  0.16918168274E+02  0.11022621625E+03  0.11871406844E+03  0.00000000000E+00 0. -1.
         21    1    1    2  504  505  0.82611702419E+02 -0.34602428741E+02  0.54873617542E+02  0.10503873263E+03  0.00000000000E+00 0.  1.
         21    1    1    2  505  503 -0.10541724145E+03 -0.14527239403E+02  0.14560280366E+03  0.18034414855E+03  0.00000000000E+00 0.  1.
         21    1    1    2  506  501  0.63511642715E+02  0.32211499870E+02  0.50982708070E+03  0.51477661339E+03  0.00000000000E+00 0.  1.
<scales pt_clust_3="33.00463" pt_clust_4="100.62167" pt_clust_5="33.00463" pt_clust_6="71.21313"></scales>
<clustering>
<clus scale="   33.005">  3  5 -1 -1</clus>
<clus scale="   71.213">  1  6  2 -1</clus>
<clus scale="  100.622">  2  4  1 -1</clus>
<clus scale="   71.213">  1  3  2 -1</clus>
</clustering>
</event>
<event>
 6    0  0.8610502E+002  0.1220656E+03  0.7546771E-02  0.1239728E+00
         21   -1    0    0  503  501  0.00000000000E+00  0.00000000000E+00  0.47413549125E+03  0.47413549125E+03  0.00000000000E+00 0.  1.
         21   -1    0    0  506  502 -0.00000000000E+00 -0.00000000000E+00 -0.12318204210E+03  0.12318204210E+03  0.00000000000E+00 0.  1.
         21    1    1    2  503  504 -0.42983988604E+02  0.23195947873E+01  0.16248704783E+03  0.16809236898E+03  0.00000000000E+00 0.  1.
         21    1    1    2  504  505  0.23515060470E+02  0.89434806514E+02  0.16175215698E+03  0.18632043090E+03  0.00000000000E+00 0.  1.
         21    1    1    2  505  502  0.82438534250E+02 -0.11243398229E+03 -0.43794804138E+02  0.14613520169E+03  0.00000000000E+00 0.  1.
         21    1    1    2  506  501 -0.62969606116E+02  0.20679580991E+02  0.70509048471E+02  0.96769531778E+02  0.00000000000E+00 0. -1.
<scales pt_clust_3="43.04653" pt_clust_4="122.06556" pt_clust_5="14000.00000" pt_clust_6="77.59319"></scales>
<clustering>
<clus scale="   43.047">  1  3  2 -1</clus>
<clus scale="   77.593">  1  6  2 -1</clus>
<clus scale="  122.066">  1  4  2 -1</clus>
<clus scale="   43.047">  1  3  2 -1</clus>
</clustering>
</event>
<event>
 6    0  0.9414945E+002  0.1214796E+03  0.7546771E-02  0.1240676E+00
         21   -1    0    0  503  501  0.00000000000E+00  0.00000000000E+00  0.85789181924E+03  0.85789181924E+03  0.00000000000E+00 0. -1.
         21   -1    0    0  504  502 -0.00000000000E+00 -0.00000000000E+00 -0.64234189833E+03  0.64234189833E+03  0.00000000000E+00 0. -1.
         21    1    1    2  503  502 -0.73083475713E+02 -0.18302926943E+02  0.72420976171E+03  0.72811810203E+03  0.00000000000E+00 0. -1.
         21    1    1    2  504  506  0.47950436999E+02  0.46400965621E+02 -0.55021530731E+03  0.55424649608E+03  0.00000000000E+00 0. -1.
         21    1    1    2  505  501 -0.58730271462E+02  0.17915635829E+02  0.91318408487E+02  0.11004211249E+03  0.00000000000E+00 0.  1.
         21    1    1    2  506  505  0.83863310176E+02 -0.46013674507E+02 -0.49762941975E+02  0.10782700696E+03  0.00000000000E+00 0. -1.
<scales pt_clust_3="14000.00000" pt_clust_4="66.64649" pt_clust_5="61.40207" pt_clust_6="121.47956"></scales>
<clustering>
<clus scale="   61.402">  1  5  2 -1</clus>
<clus scale="   66.646">  2  4  1 -1</clus>
<clus scale="  121.480">  2  6  1 -1</clus>
<clus scale="   61.402">  1  3  2 -1</clus>
</clustering>
</event>
<event>
 6    0  0.8610502E+002  0.9084889E+02  0.7546771E-02  0.1300809E+00
         21   -1    0    0  506  501  0.00000000000E+00  0.00000000000E+00  0.86763713115E+02  0.86763713115E+02  0.00000000000E+00 0.  1.
         21   -1    0    0  504  502 -0.00000000000E+00 -0.00000000000E+00 -0.32592190330E+03  0.32592190330E+03  0.00000000000E+00 0.  1.
         21    1    1    2  503  501  0.32376326854E+02  0.91379588551E+02 -0.61257329229E+02  0.11467744385E+03  0.00000000000E+00 0.  1.
         21    1    1    2  504  503 -0.25233258315E+02 -0.85355967171E+02 -0.18804721021E+03  0.20804833988E+03  0.00000000000E+00 0.  1.
         21    1    1    2  505  502  0.30229255540E+02 -0.51128389170E+01 -0.24304040036E+02  0.39123335420E+02  0.00000000000E+00 0.  1.
         21    1    1    2  506  505 -0.37372324080E+02 -0.91078246315E+00  0.34450389292E+02  0.50836497265E+02  0.00000000000E+00 0.  1.
<scales pt_clust_3="90.84889" pt_clust_4="14000.00000" pt_clust_5="30.65859" pt_clust_6="36.54568"></scales>
<clustering>
<clus scale="   30.659">  2  5  1 -1</clus>
<clus scale="   36.546">  1  6  2 -1</clus>
<clus scale="   90.849">  1  3  2 -1</clus>
<clus scale="   36.546">  1  3  2 -1</clus>
</clustering>
</event>
<event>
 6    0  0.8610502E+002  0.1084314E+03  0.7546771E-02  0.1263502E+00
         21   -1    0    0  505  501  0.00000000000E+00  0.00000000000E+00  0.54757775370E+03  0.54757775370E+03  0.00000000000E+00 0.  1.
         21   -1    0    0  501  502 -0.00000000000E+00 -0.00000000000E+00 -0.62132576789E+03  0.62132576789E+03  0.00000000000E+00 0. -1.
         21    1    1    2  503  504 -0.12070651095E+02 -0.85024360063E+02  0.20315461680E+03  0.22055983485E+03  0.00000000000E+00 0.  1.
         21    1    1    2  504  502  0.38442019338E+02  0.86847896581E+02 -0.60247886454E+03  0.60991895216E+03  0.00000000000E+00 0. -1.
         21    1    1    2  505  506  0.15846094866E+02  0.30512788205E+02  0.18412349888E+03  0.18730614460E+03  0.00000000000E+00 0.  1.
         21    1    1    2  506  503 -0.42217463109E+02 -0.32336324724E+02  0.14145273467E+03  0.15111858997E+03  0.00000000000E+00 0.  1.
<scales pt_clust_3="40.36392" pt_clust_4="95.32828" pt_clust_5="34.38210" pt_clust_6="40.36392"></scales>
<clustering>
<clus scale="   34.382">  1  5  2 -1</clus>
<clus scale="   40.364">  3  6 -1 -1</clus>
<clus scale="   95.328">  2  4  1 -1</clus>
<clus scale="   34.382">  1  3  2 -1</clus>
</clustering>
</event>
<event>
 6    0  0.8610502E+002  0.2152232E+03  0.7546771E-02  0.1137495E+00
         21   -1    0    0  505  501  0.00000000000E+00  0.00000000000E+00  0.11668038195E+03  0.11668038195E+03  0.00000000000E+00 0. -1.
         21   -1    0    0  503  502 -0.00000000000E+00 -0.00000000000E+00 -0.14547363100E+04  0.14547363100E+04  0.00000000000E+00 0.  1.
         21    1    1    2  503  504 -0.10508617524E+03  0.52207571343E+02 -0.10263512919E+04  0.10330371287E+04  0.00000000000E+00 0.  1.
         21    1    1    2  504  501 -0.24434784514E+02  0.35327194274E+02 -0.20095253405E+03  0.20549206868E+03  0.00000000000E+00 0. -1.
         21    1    1    2  505  506  0.18226868103E+03 -0.10840383865E+03 -0.41238688305E+01  0.21210910073E+03  0.00000000000E+00 0. -1.
         21    1    1    2  506  502 -0.52747721277E+02  0.20869073029E+02 -0.10662823324E+03  0.12077839390E+03  0.00000000000E+00 0.  1.
<scales pt_clust_3="34.44911" pt_clust_4="34.44911" pt_clust_5="207.55521" pt_clust_6="56.72601"></scales>
<clustering>
<clus scale="   34.449">  3  4 -1 -1</clus>
<clus scale="   56.726">  2  6  1 -1</clus>
<clus scale="  207.555">  1  5  2 -1</clus>
<clus scale="  207.555">  1  3  2 -1</clus>
</clustering>
</event>
<event>
 6    0  0.8610502E+002  0.2362476E+03  0.7546771E-02  0.1122318E+00
         21   -1    0    0  506  501  0.00000000000E+00  0.00000000000E+00  0.12770480929E+04  0.12770480929E+04  0.00000000000E+00 0. -1.
         21   -1    0    0  503  502 -0.00000000000E+00 -0.00000000000E+00 -0.31395887320E+03  0.31395887320E+03  0.00000000000E+00 0.  1.
         21    1    1    2  503  505  0.18771553106E+03  0.15329437606E+03 -0.24194229231E+03  0.34245052073E+03  0.00000000000E+00 0.  1.
         21    1    1    2  504  501 -0.83672100253E+02  0.33906340983E+02  0.47924947684E+03  0.48767891217E+03  0.00000000000E+00 0.  1.
         21    1    1    2  505  504 -0.96377236505E+02 -0.15607665309E+03  0.49528979689E+03  0.52816709123E+03  0.00000000000E+00 0. -1.
         21    1    1    2  506  502 -0.76661943058E+01 -0.31124063961E+02  0.23049223828E+03  0.23271044197E+03  0.00000000000E+00 0.  1.
<scales pt_clust_3="236.24758" pt_clust_4="89.37349" pt_clust_5="14000.00000" pt_clust_6="32.05430"></scales>
<clustering>
<clus scale="   32.054">  1  6  2 -1</clus>
<clus scale="   89.373">  1  4  2 -1</clus>
<clus scale="  236.248">  2  3  1 -1</clus>
<clus scale="   32.054">  1  3  2 -1</clus>
</clustering>
</event>
<event>
 6    0  0.8610502E+002  0.9343116E+02  0.7546771E-02  0.1294749E+00
         21   -1    0    0  504  501  0.00000000000E+00  0.00000000000E+00  0.66164243820E+03  0.66164243820E+03  0.00000000000E+00 0. -1.
         21   -1    0    0  505  502 -0.00000000000E+00 -0.00000000000E+00 -0.41616690949E+02  0.41616690949E+02  0.00000000000E+00 0. -1.
         21    1    1    2  503  501  0.54308501004E+02 -0.20242276234E+00  0.15804212983E+03  0.16711304275E+03  0.00000000000E+00 0.  1.
         21    1    1    2  504  506 -0.49254050866E+01  0.58299585160E+02  0.12582049631E+03  0.13875841790E+03  0.00000000000E+00 0. -1.
         21    1    1    2  505  503  0.61779068065E+02 -0.70376307561E+02  0.10566318389E+03  0.14118847809E+03  0.00000000000E+00 0. -1.
         21    1    1    2  506  502 -0.11116216398E+03  0.12279145163E+02  0.23049993721E+03  0.25619919040E+03  0.00000000000E+00 0. -1.
<scales pt_clust_3="54.30888" pt_clust_4="59.01082" pt_clust_5="14000.00000" pt_clust_6="93.43116"></scales>
<clustering>
<clus scale="   54.309">  1  3  2 -1</clus>
<clus scale="   59.011">  1  4  2 -1</clus>
<clus scale="   93.431">  1  6  2 -1</clus>
<clus scale="   54.309">  1  3  2 -1</clus>
</clustering>
</event>
<event>
 6    0  0.8610502E+002  0.1548495E+03  0.7546771E-02  0.1194637E+00
         21   -1    0    0  504  501  0.00000000000E+00  0.00000000000E+00  0.38860467979E+03  0.38860467979E+03  0.00000000000E+00 0.  1.
         21   -1    0    0  501  502 -0.00000000000E+00 -0.00000000000E+00 -0.20901767128E+03  0.20901767128E+03  0.00000000000E+00 0.  1.
         21    1    1    2  503  506  0.79390849291E+02 -0.89127987842E+02  0.14059944267E+01  0.11936784319E+03  0.00000000000E+00 0.  1.
         21    1    1    2  504  505  0.46418273316E+02  0.40108622131E+02  0.26378867474E+03  0.27082803140E+03  0.00000000000E+00 0.  1.
         21    1    1    2  505  503 -0.60353631203E+01 -0.36747296884E+02 -0.39511356079E+00  0.37241717884E+02  0.00000000000E+00 0. -1.
         21    1    1    2  506  502 -0.11977375949E+03  0.85766662595E+02 -0.85212547101E+02  0.17018475859E+03  0.00000000000E+00 0.  1.
<scales pt_clust_3="32.08674" pt_clust_4="61.34621" pt_clust_5="32.08674" pt_clust_6="143.80007"></scales>
<clustering>
<clus scale="   32.087">  3  5 -1 -1</clus>
<clus scale="   61.346">  1  4  2 -1</clus>
<clus scale="  143.800">  2  6  1 -1</clus>
<clus scale="   61.346">  1  3  2 -1</clus>
</clustering>
</event>
<event>
 6    0  0.8610502E+002  0.1232269E+03  0.7546771E-02  0.1237867E+00
         21   -1    0    0  503  501  0.00000000000E+00  0.00000000000E+00  0.22909302413E+03  0.22909302413E+03  0.00000000000E+00 0. -1.
         21   -1    0    0  505  502 -0.00000000000E+00 -0.00000000000E+00 -0.49359223042E+03  0.49359223042E+03  0.00000000000E+00 0. -1.
         21    1    1    2  503  502 -0.44897264541E+02  0.90914282449E+02  0.17937899966E+03  0.20605338298E+03  0.00000000000E+00 0. -1.
         21    1    1    2  504  506  0.12043819035E+03 -0.29195422457E+02 -0.18243532794E+03  0.22054563988E+03  0.00000000000E+00 0. -1.
         21    1    1    2  505  504 -0.91464941491E+02 -0.20690781032E+02 -0.19518934303E+03  0.21654750882E+03  0.00000000000E+00 0. -1.
         21    1    1    2  506  501  0.15924015679E+02 -0.41028078961E+02 -0.66253534982E+02  0.79538722872E+02  0.00000000000E+00 0.  1.
<scales pt_clust_3="102.50065" pt_clust_4="40.76114" pt_clust_5="93.77603" pt_clust_6="40.76114"></scales>
<clustering>
<clus scale="   40.761">  4  6 -1 -1</clus>
<clus scale="   93.776">  2  5  1 -1</clus>
<clus scale="  102.501">  1  3  2 -1</clus>
<clus scale="  102.501">  1  3  2 -1</clus>
</clustering>
</event>
<event>
 6    0  0.8610502E+002  0.9396825E+02  0.7546771E-02  0.1293517E+00
         21   -1    0    0  504  501  0.00000000000E+00  0.00000000000E+00  0.36951390117E+03  0.36951390117E+03  0.00000000000E+00 0. -1.
         21   -1    0    0  505  502 -0.00000000000E+00 -0.00000000000E+00 -0.80974076229E+02  0.80974076229E+02  0.00000000000E+00 0. -1.
         21    1    1    2  503  506  0.10130337321E+03 -0.28764475820E+01  0.76666150781E+02  0.12707614273E+03  0.00000000000E+00 0. -1.
         21    1    1    2  504  502  0.16793304677E+02  0.57861556154E+02  0.24555454449E+02  0.65061087493E+02  0.00000000000E+00 0. -1.
         21    1    1    2  505  503 -0.28503963097E+02 -0.67937667053E+02  0.35947583761E+02  0.81977016871E+02  0.00000000000E+00 0. -1.
         21    1    1    2  506  501 -0.89592714791E+02  0.12952558481E+02  0.15137063595E+03  0.17637373030E+03  0.00000000000E+00 0. -1.
<scales pt_clust_3="93.96825" pt_clust_4="60.24927" pt_clust_5="51.05645" pt_clust_6="14000.00000"></scales>
<clustering>
<clus scale="   60.249">  2  4  1 -1</clus>
<clus scale="   51.056">  2  5  1 -1</clus>
<clus scale="   93.968">  2  3  1 -1</clus>
<clus scale="   93.968">  1  3  2 -1</clus>
</clustering>
</event>
<event>
 6    0  0.8610502E+002  0.1056619E+03  0.7546771E-02  0.1268821E+00
         21   -1    0    0  505  501  0.00000000000E+00  0.00000000000E+00  0.33458741036E+03  0.33458741036E+03  0.00000000000E+00 0. -1.
         21   -1    0    0  503  502 -0.00000000000E+00 -0.00000000000E+00 -0.34231709637E+03  0.34231709637E+03  0.00000000000E+00 0. -1.
         21    1    1    2  503  504  0.19711142055E+02  0.32847840106E+02  0.23040965006E+01  0.38377318581E+02  0.00000000000E+00 0.  1.
         21    1    1    2  504  501  0.10433365436E+03  0.21562307319E+02 -0.23524233560E+02  0.10910469327E+03  0.00000000000E+00 0.  1.
         21    1    1    2  505  506 -0.63283281613E+02  0.69384375857E+01  0.26028580667E+03  0.26795823705E+03  0.00000000000E+00 0. -1.
         21    1    1    2  506  502 -0.60761514804E+02 -0.61348585011E+02 -0.24679535562E+03  0.26146425783E+03  0.00000000000E+00 0. -1.
<scales pt_clust_3="32.58586" pt_clust_4="32.58586" pt_clust_5="63.66251" pt_clust_6="90.61660"></scales>
<clustering>
<clus scale="   32.586">  3  4 -1 -1</clus>
<clus scale="   63.663">  1  5  2 -1</clus>
<clus scale="   90.617">  2  6  1 -1</clus>
<clus scale="   63.663">  1  3  2 -1</clus>
</clustering>
</event>
<event>
 6    0  0.8610502E+002  0.8348153E+02  0.7546771E-02  0.1319452E+00
         21   -1    0    0  503  501  0.00000000000E+00  0.00000000000E+00  0.11880164119E+04  0.11880164119E+04  0.00000000000E+00 0. -1.
         21   -1    0    0  506  502 -0.00000000000E+00 -0.00000000000E+00 -0.73602792154E+02  0.73602792154E+02  0.00000000000E+00 0. -1.
         21    1    1    2  503  505  0.21148811038E+02 -0.12092667446E+03  0.10619553236E+03  0.16232074389E+03  0.00000000000E+00 0. -1.
         21    1    1    2  504  501 -0.26804144019E+02  0.28630223178E+02  0.98425543305E+03  0.98503650151E+03  0.00000000000E+00 0. -1.
         21    1    1    2  505  502  0.33547872789E+02  0.50399315745E+02  0.60854037717E+01  0.60848853196E+02  0.00000000000E+00 0. -1.
         21    1    1    2  506  504 -0.27892539808E+02  0.41897135541E+02  0.17877250520E+02  0.53413105411E+02  0.00000000000E+00 0. -1.
<scales pt_clust_3="14000.00000" pt_clust_4="39.21928" pt_clust_5="83.48153" pt_clust_6="57.12427"></scales>
<clustering>
<clus scale="   39.219">  1  4  2 -1</clus>
<clus scale="   57.124">  2  6  1 -1</clus>
<clus scale="   83.482">  2  5  1 -1</clus>
<clus scale="   39.219">  1  3  2 -1</clus>
</clustering>
</event>
<event>
 6    0  0.8610502E+002  0.1052961E+03  0.7546771E-02  0.1269537E+00
         21   -1    0    0  503  501  0.00000000000E+00  0.00000000000E+00  0.58189340566E+03  0.58189340566E+03  0.00000000000E+00 0.  1.
         21   -1    0    0  504  502 -0.00000000000E+00 -0.00000000000E+00 -0.94235826643E+02  0.94235826643E+02  0.00000000000E+00 0. -1.
         21    1    1    2  503  506  0.57262319226E+02 -0.75204861018E+02  0.48162071378E+03  0.49080877770E+03  0.00000000000E+00 0.  1.
         21    1    1    2  504  505 -0.33183076947E+02  0.56662279101E+02 -0.77138258963E+01  0.66115305176E+02  0.00000000000E+00 0. -1.
         21    1    1    2  505  501 -0.42853377579E+02  0.53309075748E+02  0.32199990318E+02  0.75598339291E+02  0.00000000000E+00 0. -1.
         21    1    1    2  506  502  0.18774135300E+02 -0.34766493831E+02 -0.18449299188E+02  0.43606810134E+02  0.00000000000E+00 0.  1.
<scales pt_clust_3="97.36186" pt_clust_4="39.28954" pt_clust_5="39.28954" pt_clust_6="39.51174"></scales>
<clustering>
<clus scale="   39.290">  4  5 -1 -1</clus>
<clus scale="   39.512">  2  6  1 -1</clus>
<clus scale="   97.362">  1  3  2 -1</clus>
<clus scale="   97.362">  1  3  2 -1</clus>
</clustering>
</event>
<event>
 6    0  0.8610502E+002  0.1410380E+03  0.7546771E-02  0.1211939E+00
         21   -1    0    0  505  501  0.00000000000E+00  0.00000000000E+00  0.22256154289E+03  0.22256154289E+03  0.00000000000E+00 0.  1.
         21   -1    0    0  503  502 -0.00000000000E+00 -0.00000000000E+00 -0.22633714346E+03  0.22633714346E+03  0.00000000000E+00 0.  1.
         21    1    1    2  503  504 -0.11767913285E+02 -0.28962260690E+02 -0.21636851494E+02  0.38019069820E+02  0.00000000000E+00 0.  1.
         21    1    1    2  504  501  0.40838533430E+02 -0.90702069575E+01  0.45035129299E+02  0.61467205386E+02  0.00000000000E+00 0.  1.
         21    1    1    2  505  506 -0.55942252593E+01 -0.12634295035E+03  0.81971418930E+02  0.15070882516E+03  0.00000000000E+00 0.  1.
         21    1    1    2  506  502 -0.23476394885E+02  0.16437541800E+03 -0.10914529730E+03  0.19870358599E+03  0.00000000000E+00 0.  1.
<scales pt_clust_3="31.26174" pt_clust_4="41.63584" pt_clust_5="141.03800" pt_clust_6="14000.00000"></scales>
<clustering>
<clus scale="   31.262">  2  3  1 -1</clus>
<clus scale="   41.636">  1  4  2 -1</clus>
<clus scale="  141.038">  1  5  2 -1</clus>
<clus scale="   41.636">  1  3  2 -1</clus>
</clustering>
</event>
<event>
 6    0  0.8610502E+002  0.1630397E+03  0.7546771E-02  0.1185307E+00
         21   -1    0    0  506  501  0.00000000000E+00  0.00000000000E+00  0.10100798112E+03  0.10100798112E+03  0.00000000000E+00 0.  1.
         21   -1    0    0  504  502 -0.00000000000E+00 -0.00000000000E+00 -0.19216171273E+04  0.19216171273E+04  0.00000000000E+00 0.  1.
         21    1    1    2  503  501 -0.79326948483E+01 -0.45234058557E+02  0.41442383357E+02  0.61858862254E+02  0.00000000000E+00 0.  1.
         21    1    1    2  504  505  0.31733742058E+02  0.88364371737E+02 -0.12554825507E+03  0.15677262812E+03  0.00000000000E+00 0.  1.
         21    1    1    2  505  503  0.33740478423E+02  0.94059900756E+02 -0.51468181579E+02  0.11240399695E+03  0.00000000000E+00 0.  1.
         21    1    1    2  506  502 -0.57541525633E+02 -0.13719021394E+03 -0.16850350929E+04  0.16915896211E+04  0.00000000000E+00 0.  1.
<scales pt_clust_3="45.92437" pt_clust_4="56.76729" pt_clust_5="56.76729" pt_clust_6="151.74384"></scales>
<clustering>
<clus scale="   45.924">  1  3  2 -1</clus>
<clus scale="   56.767">  4  5 -1 -1</clus>
<clus scale="  151.744">  2  6  1 -1</clus>
<clus scale="   45.924">  1  3  2 -1</clus>
</clustering>
</event>
<event>
 6    0  0.8610502E+002  0.7582097E+02  0.7546771E-02  0.1341347E+00
         21   -1    0    0  504  501  0.00000000000E+00  0.00000000000E+00  0.10990934940E+03  0.10990934940E+03  0.00000000000E+00 0. -1.
         21   -1    0    0  503  502 -0.00000000000E+00 -0.00000000000E+00 -0.47678453011E+03  0.47678453011E+03  0.00000000000E+00 0. -1.
         21    1    1    2  503  505 -0.33156666050E+02  0.16780083096E+02 -0.48296147520E+02  0.60938112521E+02  0.00000000000E+00 0. -1.
         21    1    1    2  504  502  0.59797912795E+02  0.40993634093E+02 -0.27714622121E+03  0.28647215631E+03  0.00000000000E+00 0. -1.
         21    1    1    2  505  506 -0.34037520185E+02 -0.97948513712E+02 -0.11517882556E+03  0.15497943727E+03  0.00000000000E+00 0. -1.
         21    1    1    2  506  501  0.73962734399E+01  0.40174796523E+02  0.73746013577E+02  0.84304173414E+02  0.00000000000E+00 0. -1.
<scales pt_clust_3="37.16094" pt_clust_4="75.82097" pt_clust_5="14000.00000" pt_clust_6="40.98368"></scales>
<clustering>
<clus scale="   37.161">  2  3  1 -1</clus>
<clus scale="   40.984">  1  6  2 -1</clus>
<clus scale="   75.821">  2  4  1 -1</clus>
<clus scale="   40.984">  1  3  2 -1</clus>
</clustering>
</event>
<event>
 6    0  0.8610502E+002  0.1092644E+03  0.7546771E-02  0.1261938E+00
         21   -1    0    0  503  501  0.00000000000E+00  0.00000000000E+00  0.57564510624E+03  0.57564510624E+03  0.00000000000E+00 0.  1.
         21   -1    0    0  506  502 -0.00000000000E+00 -0.00000000000E+00 -0.14428171315E+03  0.14428171315E+03  0.00000000000E+00 0. -1.
         21    1    1    2  503  502 -0.18972642398E+02  0.13494797828E+03  0.47369388902E+03  0.49290650076E+03  0.00000000000E+00 0.  1.
         21    1    1    2  504  505  0.72021910420E+02 -0.89684210811E+02 -0.21095356008E+02  0.11694198260E+03  0.00000000000E+00 0. -1.
         21    1    1    2  505  501 -0.55024714273E-01 -0.30027492060E+02  0.24250956182E+02  0.38597437517E+02  0.00000000000E+00 0. -1.
         21    1    1    2  506  504 -0.52994243308E+02 -0.15236275411E+02 -0.45486096102E+02  0.71480898503E+02  0.00000000000E+00 0. -1.
<scales pt_clust_3="109.26438" pt_clust_4="14000.00000" pt_clust_5="30.02754" pt_clust_6="55.34474"></scales>
<clustering>
<clus scale="   30.028">  1  5  2 -1</clus>
<clus scale="   55.345">  2  6  1 -1</clus>
<clus scale="  109.264">  1  3  2 -1</clus>
<clus scale="   30.028">  1  3  2 -1</clus>
</clustering>
</event>
<event>
 6    0  0.8610502E+002  0.9667646E+02  0.7546771E-02  0.1287444E+00
         21   -1    0    0  503  501  0.00000000000E+00  0.00000000000E+00  0.71695424270E+03  0.71695424270E+03  0.00000000000E+00 0. -1.
         21   -1    0    0  504  502 -0.00000000000E+00 -0.00000000000E+00 -0.49460680167E+03  0.49460680167E+03  0.00000000000E+00 0. -1.
         21    1    1    2  503  502 -0.59899699348E+02  0.24636897492E+02 -0.94740024647E+02  0.11476333461E+03  0.00000000000E+00 0.  1.
         21    1    1    2  504  506 -0.44644124019E+02  0.44639240478E+02 -0.36904801862E+03  0.37440913403E+03  0.00000000000E+00 0. -1.
         21    1    1    2  505  501  0.32125023947E+02 -0.56899603041E+02  0.62031762277E+03  0.62374957724E+03  0.00000000000E+00 0. -1.
         21    1    1    2  506  505  0.72418799420E+02 -0.12376534929E+02  0.65817861533E+02  0.98638998490E+02  0.00000000000E+00 0.  1.
<scales pt_clust_3="14000.00000" pt_clust_4="63.13287" pt_clust_5="64.49312" pt_clust_6="96.67646"></scales>
<clustering>
<clus scale="   63.133">  2  4  1 -1</clus>
<clus scale="   64.493">  1  5  2 -1</clus>
<clus scale="   96.676">  1  6  2 -1</clus>
<clus scale="   64.493">  1  3  2 -1</clus>
</clustering>
</event>
<event>
 6    0  0.8610502E+002  0.1321569E+03  0.7546771E-02  0.1224290E+00
         21   -1    0    0  506  501  0.00000000000E+00  0.00000000000E+00  0.49875562455E+03  0.49875562455E+03  0.00000000000E+00 0. -1.
         21   -1    0    0  503  502 -0.00000000000E+00 -0.00000000000E+00 -0.35051635945E+03  0.35051635945E+03  0.00000000000E+00 0. -1.
         21    1    1    2  503  505 -0.53665150356E+02 -0.66335558966E+00  0.37383775925E+02  0.65405925617E+02  0.00000000000E+00 0. -1.
         21    1    1    2  504  502  0.47870683496E+02 -0.12524754088E+03 -0.30774845691E+03  0.33568982941E+03  0.00000000000E+00 0. -1.
         21    1    1    2  505  501 -0.65592240748E+01  0.38294649458E+02  0.28555391323E+02  0.48217361719E+02  0.00000000000E+00 0. -1.
         21    1    1    2  506  504  0.12353690935E+02  0.87616247016E+02  0.39004855477E+03  0.39995886726E+03  0.00000000000E+00 0. -1.
<scales pt_clust_3="54.51718" pt_clust_4="14000.00000" pt_clust_5="38.85233" pt_clust_6="132.15694"></scales>
<clustering>
<clus scale="   38.852">  1  5  2 -1</clus>
<clus scale="   54.517">  1  3  2 -1</clus>
<clus scale="  132.157">  1  6  2 -1</clus>
<clus scale="   38.852">  1  3  2 -1</clus>
</clustering>
</event>
<event>
 6    0  0.8610502E+002  0.1676389E+03  0.7546771E-02  0.1180333E+00
         21   -1    0    0  505  501  0.00000000000E+00  0.00000000000E+00  0.35419382056E+03  0.35419382056E+03  0.00000000000E+00 0. -1.
         21   -1    0    0  506  502 -0.00000000000E+00 -0.00000000000E+00 -0.45835139700E+03  0.45835139700E+03  0.00000000000E+00 0. -1.
         21    1    1    2  503  504 -0.12078237957E+03  0.95236841631E+01  0.20227619096E+03  0.23578537106E+03  0.00000000000E+00 0. -1.
         21    1    1    2  504  502  0.16989826260E+03 -0.23673398016E+02 -0.38367672011E+03  0.42027809242E+03  0.00000000000E+00 0. -1.
         21    1    1    2  505  503  0.18820573213E+02 -0.26046733753E+02  0.70230807620E+02  0.77233494380E+02  0.00000000000E+00 0. -1.
         21    1    1    2  506  501 -0.67936456249E+02  0.40196447606E+02  0.70121450952E+01  0.79248259707E+02  0.00000000000E+00 0.  1.
<scales pt_clust_3="167.63890" pt_clust_4="14000.00000" pt_clust_5="32.13481" pt_clust_6="74.43296"></scales>
<clustering>
<clus scale="   32.135">  1  5  2 -1</clus>
<clus scale="   74.433">  1  6  2 -1</clus>
<clus scale="  167.639">  1  3  2 -1</clus>
<clus scale="   32.135">  1  3  2 -1</clus>
</clustering>
</event>
<event>
 6    0  0.8610502E+002  0.1378541E+03  0.7546771E-02  0.1216246E+00
         21   -1    0    0  504  501  0.00000000000E+00  0.00000000000E+00  0.16742299405E+04  0.16742299405E+04  0.00000000000E+00 0. -1.
         21   -1    0    0  505  502 -0.00000000000E+00 -0.00000000000E+00 -0.43155471594E+03  0.43155471594E+03  0.00000000000E+00 0. -1.
         21    1    1    2  503  501 -0.11662567985E+03  0.97771683605E+02  0.75318461717E+02  0.16980495279E+03  0.00000000000E+00 0. -1.
         21    1    1    2  504  502 -0.28872144718E+02 -0.70910847442E+02  0.15200730169E+04  0.15219999757E+04  0.00000000000E+00 0. -1.
         21    1    1    2  505  506  0.23821734704E+02 -0.80335778703E+02 -0.13333211586E+03  0.15747623791E+03  0.00000000000E+00 0. -1.
         21    1    1    2  506  503  0.12167608987E+03  0.53474942540E+02 -0.21938413824E+03  0.25650349010E+03  0.00000000000E+00 0. -1.
<scales pt_clust_3="137.85412" pt_clust_4="76.56337" pt_clust_5="88.58410" pt_clust_6="14000.00000"></scales>
<clustering>
<clus scale="   76.563">  1  4  2 -1</clus>
<clus scale="   88.584">  2  5  1 -1</clus>
<clus scale="  137.854">  1  3  2 -1</clus>
<clus scale="   76.563">  1  3  2 -1</clus>
</clustering>
</event>
<event>
 6    0  0.8610502E+002  0.1525009E+03  0.7546771E-02  0.1197433E+00
         21   -1    0    0  505  501  0.00000000000E+00  0.00000000000E+00  0.95945957200E+03  0.95945957200E+03  0.00000000000E+00 0.  1.
         21   -1    0    0  504  502 -0.00000000000E+00 -0.00000000000E+00 -0.28404937100E+03  0.28404937100E+03  0.00000000000E+00 0.  1.
         21    1    1    2  503  501  0.23035166322E+02 -0.17240223197E+03  0.19302216604E+03  0.25982822221E+03  0.00000000000E+00 0. -1.
         21    1    1    2  504  506  0.33608699875E+02 -0.26160225005E+02 -0.22895319287E+03  0.23288079913E+03  0.00000000000E+00 0.  1.
         21    1    1    2  505  502 -0.57417005507E+02  0.13666384919E+03  0.63719113545E+03  0.65420659068E+03  0.00000000000E+00 0.  1.
         21    1    1    2  506  503  0.77313931028E+00  0.61898607784E+02  0.74150092378E+02  0.96593330979E+02  0.00000000000E+00 0.  1.
<scales pt_clust_3="152.50088" pt_clust_4="42.58993" pt_clust_5="14000.00000" pt_clust_6="56.92042"></scales>
<clustering>
<clus scale="   42.590">  2  4  1 -1</clus>
<clus scale="   56.920">  2  6  1 -1</clus>
<clus scale="  152.501">  2  3  1 -1</clus>
<clus scale="  152.501">  1  3  2 -1</clus>
</clustering>
</event>
<event>
 6    0  0.8610502E+002  0.1295812E+03  0.7546771E-02  0.1228079E+00
         21   -1    0    0  505  501  0.00000000000E+00  0.00000000000E+00  0.17198310877E+03  0.17198310877E+03  0.00000000000E+00 0. -1.
         21   -1    0    0  506  502 -0.00000000000E+00 -0.00000000000E+00 -0.74476443161E+03  0.74476443161E+03  0.00000000000E+00 0.  1.
         21    1    1    2  503  502 -0.11157264561E+02  0.33558217793E+02 -0.25609620752E+03  0.25852641265E+03  0.00000000000E+00 0.  1.
         21    1    1    2  504  501  0.36427507833E+02  0.11065518898E+02  0.74062547135E+02  0.83274665556E+02  0.00000000000E+00 0. -1.
         21    1    1    2  505  503 -0.10441957146E+03 -0.12495277076E+02 -0.45567347726E+03  0.46765146929E+03  0.00000000000E+00 0.  1.
         21    1    1    2  506  504  0.79149328191E+02 -0.32128459616E+02  0.64925814799E+02  0.10729499288E+03  0.00000000000E+00 0. -1.
<scales pt_clust_3="35.36437" pt_clust_4="37.96646" pt_clust_5="116.59289" pt_clust_6="37.96646"></scales>
<clustering>
<clus scale="   35.364">  2  3  1 -1</clus>
<clus scale="   37.966">  4  6 -1 -1</clus>
<clus scale="  116.593">  2  5  1 -1</clus>
<clus scale="  129.581">  1  3  2 -1</clus>
</clustering>
</event>
<event>
 6    0  0.8610502E+002  0.1669818E+03  0.7546771E-02  0.1181032E+00
         21   -1    0    0  504  501  0.00000000000E+00  0.00000000000E+00  0.34264309944E+03  0.34264309944E+03  0.00000000000E+00 0.  1.
         21   -1    0    0  503  502 -0.00000000000E+00 -0.00000000000E+00 -0.15259642429E+03  0.15259642429E+03  0.00000000000E+00 0.  1.
         21    1    1    2  503  506  0.65575975901E+02 -0.10048373484E+03 -0.36050704608E+02  0.12528704197E+03  0.00000000000E+00 0.  1.
         21    1    1    2  504  502 -0.46060371941E+02  0.12218257076E+03  0.84339474057E+02  0.15544544170E+03  0.00000000000E+00 0.  1.
         21    1    1    2  505  501 -0.74456796743E+02  0.92313943733E+01  0.13039936724E+03  0.15044277384E+03  0.00000000000E+00 0.  1.
         21    1    1    2  506  505  0.54941192783E+02 -0.30930230291E+02  0.11358538458E+02  0.64064266219E+02  0.00000000000E+00 0.  1.
<scales pt_clust_3="42.57872" pt_clust_4="156.30969" pt_clust_5="75.02688" pt_clust_6="42.57872"></scales>
<clustering>
<clus scale="   42.579">  3  6 -1 -1</clus>
<clus scale="   75.027">  1  5  2 -1</clus>
<clus scale="  156.310">  1  4  2 -1</clus>
<clus scale="   75.027">  1  3  2 -1</clus>
</clustering>
</event>
<event>
 6    0  0.8610502E+002  0.1047256E+03  0.7546771E-02  0.1270661E+00
         21   -1    0    0  506  501  0.00000000000E+00  0.00000000000E+00  0.82256843155E+03  0.82256843155E+03  0.00000000000E+00 0. -1.
         21   -1    0    0  505  502 -0.00000000000E+00 -0.00000000000E+00 -0.37206939370E+02  0.37206939370E+02  0.00000000000E+00 0.  1.
         21    1    1    2  503  501  0.32004787718E+02  0.33418786466E+02  0.27333472645E+03  0.27722372627E+03  0.00000000000E+00 0. -1.
         21    1    1    2  504  502 -0.79406865700E+02  0.64331199142E+01  0.38449101738E+03  0.39265783807E+03  0.00000000000E+00 0. -1.
         21    1    1    2  505  503  0.84028279481E+02 -0.25439051353E+02  0.45454988680E+02  0.98863810781E+02  0.00000000000E+00 0.  1.
         21    1    1    2  506  504 -0.36626201499E+02 -0.14412855027E+02  0.82080759671E+02  0.91029995795E+02  0.00000000000E+00 0. -1.
<scales pt_clust_3="46.27226" pt_clust_4="36.77505" pt_clust_5="90.71991" pt_clust_6="36.77505"></scales>
<clustering>
<clus scale="   36.775">  4  6 -1 -1</clus>
<clus scale="   46.272">  1  3  2 -1</clus>
<clus scale="   90.720">  2  5  1 -1</clus>
<clus scale="   46.272">  1  3  2 -1</clus>
</clustering>
</event>
<event>
 6    0  0.8610502E+002  0.1133063E+03  0.7546771E-02  0.1254567E+00
         21   -1    0    0  505  501  0.00000000000E+00  0.00000000000E+00  0.34696484857E+02  0.34696484857E+02  0.00000000000E+00 0.  1.
         21   -1    0    0  504  502 -0.00000000000E+00 -0.00000000000E+00 -0.63675044745E+03  0.63675044745E+03  0.00000000000E+00 0.  1.
         21    1    1    2  503  506 -0.35699623833E+02 -0.14388386597E+01 -0.97234546548E+02  0.10359097664E+03  0.00000000000E+00 0.  1.
         21    1    1    2  504  503 -0.42613415670E+02  0.52036087113E+02 -0.16739142786E+03  0.18039830287E+03  0.00000000000E+00 0.  1.
         21    1    1    2  505  502  0.72499854011E+02 -0.97342031334E+02 -0.31008243850E+03  0.33299071843E+03  0.00000000000E+00 0.  1.
         21    1    1    2  506  501  0.58131854912E+01  0.46744782881E+02 -0.27345549693E+02  0.54466934374E+02  0.00000000000E+00 0.  1.
<scales pt_clust_3="32.01940" pt_clust_4="32.01940" pt_clust_5="104.44297" pt_clust_6="47.10486"></scales>
<clustering>
<clus scale="   32.019">  3  4 -1 -1</clus>
<clus scale="   47.105">  1  6  2 -1</clus>
<clus scale="  104.443">  1  5  2 -1</clus>
<clus scale="   47.105">  1  3  2 -1</clus>
</clustering>
</event>
<event>
 6    0  0.8610502E+002  0.3625868E+03  0.7546771E-02  0.1057564E+00
         21   -1    0    0  504  501  0.00000000000E+00  0.00000000000E+00  0.72759526675E+03  0.72759526675E+03  0.00000000000E+00 0.  1.
         21   -1    0    0  501  502 -0.00000000000E+00 -0.00000000000E+00 -0.79275431678E+03  0.79275431678E+03  0.00000000000E+00 0. -1.
         21    1    1    2  503  506  0.87680642152E+01  0.44750015881E+02 -0.99221640271E+02  0.10919879473E+03  0.00000000000E+00 0.  1.
         21    1    1    2  504  505 -0.30867399338E+03 -0.14484501513E+03  0.60871759427E+03  0.69770826437E+03  0.00000000000E+00 0.  1.
         21    1    1    2  505  503  0.30646447956E+03  0.17084237976E+03 -0.49448248324E+03  0.60631717953E+03  0.00000000000E+00 0. -1.
         21    1    1    2  506  502 -0.65585503982E+01 -0.70747380510E+02 -0.80172520788E+02  0.10712534491E+03  0.00000000000E+00 0.  1.
<scales pt_clust_3="42.08369" pt_clust_4="343.28163" pt_clust_5="42.08369" pt_clust_6="71.05073"></scales>
<clustering>
<clus scale="   42.084">  3  5 -1 -1</clus>
<clus scale="   71.051">  2  6  1 -1</clus>
<clus scale="  343.282">  1  4  2 -1</clus>
<clus scale="  343.282">  1  3  2 -1</clus>
</clustering>
</event>
<event>
 6    0  0.8610502E+002  0.1004994E+03  0.7546771E-02  0.1279249E+00
         21   -1    0    0  506  501  0.00000000000E+00  0.00000000000E+00  0.14361913468E+04  0.14361913468E+04  0.00000000000E+00 0.  1.
         21   -1    0    0  505  502 -0.00000000000E+00 -0.00000000000E+00 -0.74232922738E+02  0.74232922738E+02  0.00000000000E+00 0.  1.
         21    1    1    2  503  501  0.48254819507E+02 -0.18491606220E+02  0.97085164359E+03  0.97222599275E+03  0.00000000000E+00 0.  1.
         21    1    1    2  504  502  0.88236685633E+02  0.35895490748E+01  0.50343109707E+01  0.88453048794E+02  0.00000000000E+00 0.  1.
         21    1    1    2  505  503 -0.17867976727E+03 -0.10811371575E+02  0.27432721713E+03  0.32756490509E+03  0.00000000000E+00 0.  1.
         21    1    1    2  506  504  0.42188262131E+02  0.25713428720E+02  0.11174525232E+03  0.12218032286E+03  0.00000000000E+00 0.  1.
<scales pt_clust_3="79.32539" pt_clust_4="14000.00000" pt_clust_5="100.49945" pt_clust_6="49.40678"></scales>
<clustering>
<clus scale="   49.407">  1  6  2 -1</clus>
<clus scale="   79.325">  1  3  2 -1</clus>
<clus scale="  100.499">  1  5  2 -1</clus>
<clus scale="   49.407">  1  3  2 -1</clus>
</clustering>
</event>
<event>
 6    0  0.8610502E+002  0.1353331E+03  0.7546771E-02  0.1219750E+00
         21   -1    0    0  506  501  0.00000000000E+00  0.00000000000E+00  0.18332697327E+03  0.18332697327E+03  0.00000000000E+00 0. -1.
         21   -1    0    0  501  502 -0.00000000000E+00 -0.00000000000E+00 -0.50016963120E+03  0.50016963120E+03  0.00000000000E+00 0. -1.
         21    1    1    2  503  505 -0.19265740303E+02 -0.12349016711E+03  0.13423490829E+02  0.12570274550E+03  0.00000000000E+00 0. -1.
         21    1    1    2  504  503  0.86384961702E+02  0.58789531063E+02  0.56645134842E+02  0.11885807449E+03  0.00000000000E+00 0. -1.
         21    1    1    2  505  502 -0.83844426901E+02  0.27039855693E+02 -0.38783807477E+03  0.39771775666E+03  0.00000000000E+00 0. -1.
         21    1    1    2  506  504  0.16725205503E+02  0.37660780350E+02  0.92679116679E+00  0.41218027822E+02  0.00000000000E+00 0. -1.
<scales pt_clust_3="126.25210" pt_clust_4="30.60704" pt_clust_5="88.09677" pt_clust_6="30.60704"></scales>
<clustering>
<clus scale="   30.607">  4  6 -1 -1</clus>
<clus scale="   88.097">  2  5  1 -1</clus>
<clus scale="  126.252">  2  3  1 -1</clus>
<clus scale="  135.333">  1  3  2 -1</clus>
</clustering>
</event>
<event>
 6    0  0.8610502E+002  0.9191720E+02  0.7546771E-02  0.1298274E+00
         21   -1    0    0  504  501  0.00000000000E+00  0.00000000000E+00  0.17599889436E+03  0.17599889436E+03  0.00000000000E+00 0.  1.
         21   -1    0    0  505  502 -0.00000000000E+00 -0.00000000000E+00 -0.94224429351E+03  0.94224429351E+03  0.00000000000E+00 0. -1.
         21    1    1    2  503  502 -0.84422198446E+02 -0.36609138216E+02 -0.87781723101E+03  0.88262700370E+03  0.00000000000E+00 0. -1.
         21    1    1    2  504  503  0.32307702049E+02  0.14049527028E+00 -0.16319257315E+02  0.36195655953E+02  0.00000000000E+00 0. -1.
         21    1    1    2  505  506  0.67916128637E+02  0.66590309585E+02  0.36453845335E+02  0.10186143873E+03  0.00000000000E+00 0.  1.
         21    1    1    2  506  501 -0.15801632239E+02 -0.30121666638E+02  0.91437243840E+02  0.97559089498E+02  0.00000000000E+00 0.  1.
<scales pt_clust_3="14000.00000" pt_clust_4="32.30801" pt_clust_5="91.91720" pt_clust_6="30.15258"></scales>
<clustering>
<clus scale="   32.308">  1  4  2 -1</clus>
<clus scale="   30.153">  1  6  2 -1</clus>
<clus scale="   91.917">  1  5  2 -1</clus>
<clus scale="   32.308">  1  3  2 -1</clus>
</clustering>
</event>
<event>
 6    0  0.8610502E+002  0.1472471E+03  0.7546771E-02  0.1203897E+00
         21   -1    0    0  503  501  0.00000000000E+00  0.00000000000E+00  0.43120013015E+03  0.43120013015E+03  0.00000000000E+00 0. -1.
         21   -1    0    0  505  502 -0.00000000000E+00 -0.00000000000E+00 -0.38884232826E+03  0.38884232826E+03  0.00000000000E+00 0. -1.
         21    1    1    2  503  502 -0.22062703014E+02  0.48050955160E+02 -0.32289059809E+02  0.61953535326E+02  0.00000000000E+00 0. -1.
         21    1    1    2  504  506 -0.99666946215E+02  0.42129166483E+02  0.20894503867E+02  0.11020411575E+03  0.00000000000E+00 0. -1.
         21    1    1    2  505  504  0.13790080745E+03 -0.15625370950E+03 -0.25636996994E+03  0.33038979390E+03  0.00000000000E+00 0. -1.
         21    1    1    2  506  501 -0.16171158223E+02  0.66073587855E+02  0.31012232777E+03  0.31749501343E+03  0.00000000000E+00 0. -1.
<scales pt_clust_3="52.87397" pt_clust_4="14000.00000" pt_clust_5="147.24707" pt_clust_6="68.58387"></scales>
<clustering>
<clus scale="   52.874">  2  3  1 -1</clus>
<clus scale="   68.584">  1  6  2 -1</clus>
<clus scale="  147.247">  2  5  1 -1</clus>
<clus scale="   68.584">  1  3  2 -1</clus>
</clustering>
</event>
<event>
 6    0  0.8610502E+002  0.1800919E+03  0.7546771E-02  0.1167714E+00
         21   -1    0    0  505  501  0.00000000000E+00  0.00000000000E+00  0.60431355678E+03  0.60431355678E+03  0.00000000000E+00 0.  1.
         21   -1    0    0  503  502 -0.00000000000E+00 -0.00000000000E+00 -0.49211282140E+03  0.49211282140E+03  0.00000000000E+00 0.  1.
         21    1    1    2  503  506  0.17610447613E+03 -0.72149637486E+02 -0.39349735492E+03  0.43710241939E+03  0.00000000000E+00 0.  1.
         21    1    1    2  504  501 -0.69498666069E+01  0.31117068502E+02  0.37613889023E+03  0.37748779761E+03  0.00000000000E+00 0.  1.
         21    1    1    2  505  502 -0.86081522280E+02 -0.14715635987E+02 -0.30990811678E+02  0.92666114784E+02  0.00000000000E+00 0.  1.
         21    1    1    2  506  504 -0.83073087248E+02  0.55748204970E+02  0.16055001175E+03  0.18917004640E+03  0.00000000000E+00 0.  1.
<scales pt_clust_3="14000.00000" pt_clust_4="31.88374" pt_clust_5="87.65446" pt_clust_6="180.09185"></scales>
<clustering>
<clus scale="   31.884">  1  4  2 -1</clus>
<clus scale="   87.654">  1  5  2 -1</clus>
<clus scale="  180.092">  1  6  2 -1</clus>
<clus scale="   31.884">  1  3  2 -1</clus>
</clustering>
</event>
<event>
 6    0  0.8610502E+002  0.9545702E+02  0.7546771E-02  0.1290150E+00
         21   -1    0    0  504  501  0.00000000000E+00  0.00000000000E+00  0.90227973665E+02  0.90227973665E+02  0.00000000000E+00 0. -1.
         21   -1    0    0  505  502 -0.00000000000E+00 -0.00000000000E+00 -0.21438190462E+04  0.21438190462E+04  0.00000000000E+00 0.  1.
         21    1    1    2  503  502 -0.99627385442E+01 -0.16092231747E+03 -0.10495849981E+04  0.10618963775E+04  0.00000000000E+00 0.  1.
         21    1    1    2  504  506  0.16010354237E+02  0.50836887240E+02  0.65586079750E+02  0.84511859547E+02  0.00000000000E+00 0. -1.
         21    1    1    2  505  501 -0.51582478413E+02  0.65769603568E+02 -0.93579667452E+03  0.93952211729E+03  0.00000000000E+00 0.  1.
         21    1    1    2  506  503  0.45534862720E+02  0.44315826658E+02 -0.13379547972E+03  0.14811666553E+03  0.00000000000E+00 0.  1.
<scales pt_clust_3="95.45702" pt_clust_4="53.29841" pt_clust_5="14000.00000" pt_clust_6="86.50367"></scales>
<clustering>
<clus scale="   53.298">  1  4  2 -1</clus>
<clus scale="   86.504">  1  6  2 -1</clus>
<clus scale="   95.457">  1  3  2 -1</clus>
<clus scale="   53.298">  1  3  2 -1</clus>
</clustering>
</event>
<event>
 6    0  0.8610502E+002  0.1465963E+03  0.7546771E-02  0.1204719E+00
         21   -1    0    0  506  501  0.00000000000E+00  0.00000000000E+00  0.65659481159E+03  0.65659481159E+03  0.00000000000E+00 0.  1.
         21   -1    0    0  503  502 -0.00000000000E+00 -0.00000000000E+00 -0.89896730979E+03  0.89896730979E+03  0.00000000000E+00 0. -1.
         21    1    1    2  503  501 -0.26053071325E+02 -0.49558537508E+02  0.28847472095E+03  0.29385791770E+03  0.00000000000E+00 0.  1.
         21    1    1    2  504  505  0.53366939253E+02  0.13529752292E+03  0.15417753380E+03  0.21195320673E+03  0.00000000000E+00 0.  1.
         21    1    1    2  505  502 -0.10486071367E+03 -0.10309684316E+03 -0.85212348435E+03  0.86471912256E+03  0.00000000000E+00 0. -1.
         21    1    1    2  506  504  0.77546845745E+02  0.17357857747E+02  0.16709873139E+03  0.18503187440E+03  0.00000000000E+00 0.  1.
<scales pt_clust_3="55.98938" pt_clust_4="146.59626" pt_clust_5="14000.00000" pt_clust_6="65.32053"></scales>
<clustering>
<clus scale="   55.989">  1  3  2 -1</clus>
<clus scale="   65.321">  1  6  2 -1</clus>
<clus scale="  146.596">  1  4  2 -1</clus>
<clus scale="   55.989">  1  3  2 -1</clus>
</clustering>
</event>
<event>
 6    0  0.8610502E+002  0.1577438E+03  0.7546771E-02  0.1191268E+00
         21   -1    0    0  503  501  0.00000000000E+00  0.00000000000E+00  0.32813164203E+03  0.32813164203E+03  0.00000000000E+00 0.  1.
         21   -1    0    0  504  502 -0.00000000000E+00 -0.00000000000E+00 -0.18700539389E+03  0.18700539389E+03  0.00000000000E+00 0.  1.
         21    1    1    2  503  506 -0.11762946759E+03  0.69709345619E+02  0.65722780255E+02  0.15170882755E+03  0.00000000000E+00 0.  1.
         21    1    1    2  504  505  0.95650553947E+02 -0.99373402382E+02 -0.94668963993E+02  0.16729110650E+03  0.00000000000E+00 0.  1.
         21    1    1    2  505  501  0.38192993812E+02 -0.14294821189E+02  0.12356393021E+03  0.13011952789E+03  0.00000000000E+00 0. -1.
         21    1    1    2  506  502 -0.16214080173E+02  0.43958877952E+02  0.46508501664E+02  0.66017573976E+02  0.00000000000E+00 0.  1.
<scales pt_clust_3="36.90359" pt_clust_4="144.59851" pt_clust_5="40.78047" pt_clust_6="36.90359"></scales>
<clustering>
<clus scale="   36.904">  3  6 -1 -1</clus>
<clus scale="   40.780">  1  5  2 -1</clus>
<clus scale="  144.599">  2  4  1 -1</clus>
<clus scale="   40.780">  1  3  2 -1</clus>
</clustering>
</event>
<event>
 6    0  0.8610502E+002  0.8131837E+02  0.7546771E-02  0.1325351E+00
         21   -1    0    0  504  501  0.00000000000E+00  0.00000000000E+00  0.82507153221E+02  0.82507153221E+02  0.00000000000E+00 0. -1.
         21   -1    0    0  506  502 -0.00000000000E+00 -0.00000000000E+00 -0.45036918715E+03  0.45036918715E+03  0.00000000000E+00 0. -1.
         21    1    1    2  503  505 -0.84708969359E+02 -0.50564481364E+02 -0.74787281541E+02  0.12379625901E+03  0.00000000000E+00 0. -1.
         21    1    1    2  504  503  0.79608268754E+02 -0.28671500749E+02  0.13354654414E+02  0.85661416074E+02  0.00000000000E+00 0. -1.
         21    1    1    2  505  502  0.14423031853E+02  0.47035587728E+02 -0.26775749186E+03  0.27223968264E+03  0.00000000000E+00 0. -1.
         21    1    1    2  506  501 -0.93223312491E+01  0.32200394386E+02 -0.38671914948E+02  0.51178982642E+02  0.00000000000E+00 0. -1.
<scales pt_clust_3="14000.00000" pt_clust_4="81.31837" pt_clust_5="68.96990" pt_clust_6="33.52270"></scales>
<clustering>
<clus scale="   33.523">  2  6  1 -1</clus>
<clus scale="   68.970">  2  5  1 -1</clus>
<clus scale="   81.318">  1  4  2 -1</clus>
<clus scale="   81.318">  1  3  2 -1</clus>
</clustering>
</event>
<event>
 6    0  0.8610502E+002  0.1384310E+03  0.7546771E-02  0.1215456E+00
         21   -1    0    0  506  501  0.00000000000E+00  0.00000000000E+00  0.11141417864E+04  0.11141417864E+04  0.00000000000E+00 0. -1.
         21   -1    0    0  504  502 -0.00000000000E+00 -0.00000000000E+00 -0.31430106707E+03  0.31430106707E+03  0.00000000000E+00 0. -1.
         21    1    1    2  503  501  0.35548546713E+02  0.53151881817E+01  0.92932604349E+03  0.93002088445E+03  0.00000000000E+00 0. -1.
         21    1    1    2  504  505 -0.40148435479E+00  0.54708327247E+02 -0.15200594664E+03  0.16155175664E+03  0.00000000000E+00 0. -1.
         21    1    1    2  505  503 -0.58200609776E+02  0.85240502524E+02 -0.10129128911E+03  0.14461389801E+03  0.00000000000E+00 0. -1.
         21    1    1    2  506  502  0.23053547418E+02 -0.14526401795E+03  0.12381191153E+03  0.19225631432E+03  0.00000000000E+00 0.  1.
<scales pt_clust_3="35.94371" pt_clust_4="54.84830" pt_clust_5="138.43105" pt_clust_6="14000.00000"></scales>
<clustering>
<clus scale="   35.944">  1  3  2 -1</clus>
<clus scale="   54.848">  2  4  1 -1</clus>
<clus scale="  138.431">  2  5  1 -1</clus>
<clus scale="   35.944">  1  3  2 -1</clus>
</clustering>
</event>
<event>
 6    0  0.8610502E+002  0.7070238E+02  0.7546771E-02  0.1357721E+00
         21   -1    0    0  503  501  0.00000000000E+00  0.00000000000E+00  0.39227917100E+02  0.39227917100E+02  0.00000000000E+00 0.  1.
         21   -1    0    0  505  502 -0.00000000000E+00 -0.00000000000E+00 -0.12031514673E+04  0.12031514673E+04  0.00000000000E+00 0.  1.
         21    1    1    2  503  504  0.41934649191E+02 -0.45120093336E+02 -0.84265035695E+01  0.62171887440E+02  0.00000000000E+00 0.  1.
         21    1    1    2  504  502  0.42322398557E+02 -0.31176742115E+02 -0.17206982253E+03  0.17991997803E+03  0.00000000000E+00 0.  1.
         21    1    1    2  505  506 -0.10268761910E+03 -0.12823107945E+01 -0.58801616465E+03  0.59691657820E+03  0.00000000000E+00 0.  1.
         21    1    1    2  506  501  0.18430571350E+02  0.77579146246E+02 -0.39541105943E+03  0.40337094072E+03  0.00000000000E+00 0.  1.
<scales pt_clust_3="63.37404" pt_clust_4="52.56591" pt_clust_5="70.70238" pt_clust_6="14000.00000"></scales>
<clustering>
<clus scale="   52.566">  2  4  1 -1</clus>
<clus scale="   63.374">  1  3  2 -1</clus>
<clus scale="   70.702">  2  5  1 -1</clus>
<clus scale="   63.374">  1  3  2 -1</clus>
</clustering>
</event>
<event>
 6    0  0.8610502E+002  0.2286640E+03  0.7546771E-02  0.1127584E+00
         21   -1    0    0  504  501  0.00000000000E+00  0.00000000000E+00  0.10889621976E+04  0.10889621976E+04  0.00000000000E+00 0.  1.
         21   -1    0    0  506  502 -0.00000000000E+00 -0.00000000000E+00 -0.21433576504E+03  0.21433576504E+03  0.00000000000E+00 0.  1.
         21    1    1    2  503  505  0.19295621286E+03  0.17980837700E+03  0.63318248228E+03  0.68591778544E+03  0.00000000000E+00 0.  1.
         21    1    1    2  504  503 -0.19382383126E+02 -0.42422964993E+02  0.31172993638E+03  0.31519983815E+03  0.00000000000E+00 0.  1.
         21    1    1    2  505  502 -0.15062330258E+03 -0.16712693031E+03 -0.10745796482E+03  0.24933111381E+03  0.00000000000E+00 0.  1.
         21    1    1    2  506  501 -0.22950527160E+02  0.29741518297E+02  0.37171978753E+02  0.52849225273E+02  0.00000000000E+00 0.  1.
<scales pt_clust_3="228.66400" pt_clust_4="42.56827" pt_clust_5="14000.00000" pt_clust_6="37.56707"></scales>
<clustering>
<clus scale="   37.567">  1  6  2 -1</clus>
<clus scale="   42.568">  1  4  2 -1</clus>
<clus scale="  228.664">  1  3  2 -1</clus>
<clus scale="   37.567">  1  3  2 -1</clus>
</clustering>
</event>
<event>
 6    0  0.8610502E+002  0.3798774E+03  0.7546771E-02  0.1050979E+00
         21   -1    0    0  506  501  0.00000000000E+00  0.00000000000E+00  0.98398186615E+03  0.98398186615E+03  0.00000000000E+00 0. -1.
         21   -1    0    0  501  502 -0.00000000000E+00 -0.00000000000E+00 -0.16348901544E+03  0.16348901544E+03  0.00000000000E+00 0. -1.
         21    1    1    2  503  502  0.17770151211E+03 -0.30162682947E+03  0.15863878083E+03  0.38434728365E+03  0.00000000000E+00 0. -1.
         21    1    1    2  504  505 -0.49280064030E+02  0.33827712764E+02  0.48990036999E+02  0.77284297155E+02  0.00000000000E+00 0. -1.
         21    1    1    2  505  503 -0.75056906565E+02  0.20228798817E+03  0.36540382236E+03  0.42435117859E+03  0.00000000000E+00 0. -1.
         21    1    1    2  506  504 -0.53364541515E+02  0.65511128542E+02  0.24746021053E+03  0.26148812219E+03  0.00000000000E+00 0. -1.
<scales pt_clust_3="350.08081" pt_clust_4="49.10920" pt_clust_5="54.45414" pt_clust_6="54.45414"></scales>
<clustering>
<clus scale="   49.109">  4  5 -1 -1</clus>
<clus scale="   54.454">  4  6 -1 -1</clus>
<clus scale="  350.081">  2  3  1 -1</clus>
<clus scale="  379.877">  1  3  2 -1</clus>
</clustering>
</event>
<event>
 6    0  0.8610502E+002  0.1206191E+03  0.7546771E-02  0.1242079E+00
         21   -1    0    0  504  501  0.00000000000E+00  0.00000000000E+00  0.13675550644E+04  0.13675550644E+04  0.00000000000E+00 0. -1.
         21   -1    0    0  506  502 -0.00000000000E+00 -0.00000000000E+00 -0.11938680485E+03  0.11938680485E+03  0.00000000000E+00 0. -1.
         21    1    1    2  503  505 -0.63211583807E+02  0.12477739043E+03  0.57962615804E+03  0.59626469338E+03  0.00000000000E+00 0. -1.
         21    1    1    2  504  503  0.63977629666E+02 -0.18734415659E+00  0.52952889766E+03  0.53337981369E+03  0.00000000000E+00 0. -1.
         21    1    1    2  505  502  0.37737782038E+02 -0.11349900637E+03 -0.73933161186E+02  0.14061392877E+03  0.00000000000E+00 0. -1.
         21    1    1    2  506  501 -0.38503827898E+02 -0.11091039905E+02  0.21294636508E+03  0.21668343345E+03  0.00000000000E+00 0. -1.
<scales pt_clust_3="14000.00000" pt_clust_4="46.52891" pt_clust_5="120.61908" pt_clust_6="40.06939"></scales>
<clustering>
<clus scale="   40.069">  1  6  2 -1</clus>
<clus scale="   46.529">  1  4  2 -1</clus>
<clus scale="  120.619">  2  5  1 -1</clus>
<clus scale="   40.069">  1  3  2 -1</clus>
</clustering>
</event>
<event>
 6    0  0.8610502E+002  0.9583365E+02  0.7546771E-02  0.1289309E+00
         21   -1    0    0  505  501  0.00000000000E+00  0.00000000000E+00  0.23211023980E+03  0.23211023980E+03  0.00000000000E+00 0.  1.
         21   -1    0    0  504  502 -0.00000000000E+00 -0.00000000000E+00 -0.15972526482E+03  0.15972526482E+03  0.00000000000E+00 0.  1.
         21    1    1    2  503  502  0.30207998099E+02  0.40883722437E+02 -0.51545093001E+01  0.51093745954E+02  0.00000000000E+00 0.  1.
         21    1    1    2  504  506 -0.10770704977E+03 -0.57632697782E+02 -0.62479525104E+02  0.13720797164E+03  0.00000000000E+00 0.  1.
         21    1    1    2  505  503  0.11174360635E+03  0.15969339069E+02  0.99459856045E+02  0.15044572548E+03  0.00000000000E+00 0.  1.
         21    1    1    2  506  501 -0.34244554679E+02  0.77963627650E+00  0.40559153341E+02  0.53088061536E+02  0.00000000000E+00 0.  1.
<scales pt_clust_3="48.51243" pt_clust_4="95.83365" pt_clust_5="14000.00000" pt_clust_6="34.25343"></scales>
<clustering>
<clus scale="   34.253">  1  6  2 -1</clus>
<clus scale="   48.512">  2  3  1 -1</clus>
<clus scale="   95.834">  2  4  1 -1</clus>
<clus scale="   34.253">  1  3  2 -1</clus>
</clustering>
</event>
<event>
 6    0  0.8610502E+002  0.9410582E+02  0.7546771E-02  0.1293203E+00
         21   -1    0    0  503  501  0.00000000000E+00  0.00000000000E+00  0.74739664298E+03  0.74739664298E+03  0.00000000000E+00 0. -1.
         21   -1    0    0  506  502 -0.00000000000E+00 -0.00000000000E+00 -0.11764401278E+03  0.11764401278E+03  0.00000000000E+00 0. -1.
         21    1    1    2  503  502  0.12128579377E+03 -0.32049453667E+02  0.89846330603E+02  0.15430416188E+03  0.00000000000E+00 0. -1.
         21    1    1    2  504  501  0.34747615155E+02  0.90270933680E+01  0.45208537993E+03  0.45350862827E+03  0.00000000000E+00 0.  1.
         21    1    1    2  505  504 -0.94665851791E+02 -0.42604010146E+02  0.12280941105E+03  0.16080695451E+03  0.00000000000E+00 0. -1.
         21    1    1    2  506  505 -0.61367557137E+02  0.65626370445E+02 -0.34988491377E+02  0.96420911091E+02  0.00000000000E+00 0. -1.
<scales pt_clust_3="94.10582" pt_clust_4="35.90105" pt_clust_5="86.82361" pt_clust_6="14000.00000"></scales>
<clustering>
<clus scale="   35.901">  1  4  2 -1</clus>
<clus scale="   86.824">  1  5  2 -1</clus>
<clus scale="   94.106">  1  3  2 -1</clus>
<clus scale="   35.901">  1  3  2 -1</clus>
</clustering>
</event>
<event>
 6    0  0.8610502E+002  0.6956338E+02  0.7546771E-02  0.1361584E+00
         21   -1    0    0  503  501  0.00000000000E+00  0.00000000000E+00  0.26213639145E+02  0.26213639145E+02  0.00000000000E+00 0. -1.
         21   -1    0    0  505  502 -0.00000000000E+00 -0.00000000000E+00 -0.76526753548E+03  0.76526753548E+03  0.00000000000E+00 0. -1.
         21    1    1    2  503  502 -0.35016550797E+02  0.19572404228E+02 -0.80642841574E+02  0.90069449504E+02  0.00000000000E+00 0. -1.
         21    1    1    2  504  501  0.49506403927E+02 -0.51246179868E+02 -0.12763455768E+03  0.14617672625E+03  0.00000000000E+00 0. -1.
         21    1    1    2  505  506 -0.71758815167E+02 -0.63579948199E+01 -0.40984891871E+03  0.41613205574E+03  0.00000000000E+00 0. -1.
         21    1    1    2  506  504  0.57268962036E+02  0.38031770461E+02 -0.12092757837E+03  0.13910294313E+03  0.00000000000E+00 0.  1.
<scales pt_clust_3="40.11531" pt_clust_4="54.92026" pt_clust_5="69.56338" pt_clust_6="14000.00000"></scales>
<clustering>
<clus scale="   40.115">  1  3  2 -1</clus>
<clus scale="   54.920">  1  4  2 -1</clus>
<clus scale="   69.563">  2  5  1 -1</clus>
<clus scale="   40.115">  1  3  2 -1</clus>
</clustering>
</event>
<event>
 6    0  0.8610502E+002  0.1217236E+03  0.7546771E-02  0.1240280E+00
         21   -1    0    0  504  501  0.00000000000E+00  0.00000000000E+00  0.79585177327E+02  0.79585177327E+02  0.00000000000E+00 0. -1.
         21   -1    0    0  505  502 -0.00000000000E+00 -0.00000000000E+00 -0.10199506375E+04  0.10199506375E+04  0.00000000000E+00 0. -1.
         21    1    1    2  503  501 -0.20191054932E+02  0.76301412449E+02 -0.30537746764E+03  0.31541239986E+03  0.00000000000E+00 0. -1.
         21    1    1    2  504  506  0.38438620455E+02 -0.23171534826E+02  0.56219040061E+02  0.71937667700E+02  0.00000000000E+00 0. -1.
         21    1    1    2  505  503  0.10196955699E+02  0.53353713455E+02 -0.14213827567E+03  0.15216401038E+03  0.00000000000E+00 0. -1.
         21    1    1    2  506  502 -0.28444521222E+02 -0.10648359108E+03 -0.54906875690E+03  0.56002173687E+03  0.00000000000E+00 0. -1.
<scales pt_clust_3="31.55737" pt_clust_4="44.88260" pt_clust_5="31.55737" pt_clust_6="115.62706"></scales>
<clustering>
<clus scale="   31.557">  3  5 -1 -1</clus>
<clus scale="   44.883">  1  4  2 -1</clus>
<clus scale="  115.627">  2  6  1 -1</clus>
<clus scale="   44.883">  1  3  2 -1</clus>
</clustering>
</event>
<event>
 6    0  0.8610502E+002  0.2282969E+03  0.7546771E-02  0.1127844E+00
         21   -1    0    0  506  501  0.00000000000E+00  0.00000000000E+00  0.45180687162E+03  0.45180687162E+03  0.00000000000E+00 0.  1.
         21   -1    0    0  503  502 -0.00000000000E+00 -0.00000000000E+00 -0.26512455697E+03  0.26512455697E+03  0.00000000000E+00 0.  1.
         21    1    1    2  503  505 -0.25724088123E+01  0.33112797289E+02 -0.13905987893E+03  0.14297106197E+03  0.00000000000E+00 0.  1.
         21    1    1    2  504  502  0.99915209236E+02  0.55189927326E+02  0.52985710551E+02  0.12584300790E+03  0.00000000000E+00 0.  1.
         21    1    1    2  505  501 -0.19909593275E+03 -0.11499907849E+03  0.25156664718E+03  0.34080750646E+03  0.00000000000E+00 0.  1.
         21    1    1    2  506  504  0.10175313232E+03  0.26696353872E+02  0.21189835860E+02  0.10730985226E+03  0.00000000000E+00 0.  1.
<scales pt_clust_3="33.21257" pt_clust_4="36.73261" pt_clust_5="225.02604" pt_clust_6="36.73261"></scales>
<clustering>
<clus scale="   33.213">  2  3  1 -1</clus>
<clus scale="   36.733">  4  6 -1 -1</clus>
<clus scale="  225.026">  1  5  2 -1</clus>
<clus scale="  225.026">  1  3  2 -1</clus>
</clustering>
</event>
<event>
 6    0  0.8610502E+002  0.3784800E+03  0.7546771E-02  0.1051497E+00
         21   -1    0    0  505  501  0.00000000000E+00  0.00000000000E+00  0.17243871352E+04  0.17243871352E+04  0.00000000000E+00 0. -1.
         21   -1    0    0  506  502 -0.00000000000E+00 -0.00000000000E+00 -0.27575956563E+03  0.27575956563E+03  0.00000000000E+00 0.  1.
         21    1    1    2  503  504  0.36594968404E+02 -0.26145204531E+03  0.16192097898E+03  0.30970109322E+03  0.00000000000E+00 0.  1.
         21    1    1    2  504  501 -0.49463283834E+02 -0.65393243695E+01  0.58701477695E+02  0.77040526312E+02  0.00000000000E+00 0.  1.
         21    1    1    2  505  502 -0.15199154133E+03  0.41136227700E+03  0.13089122927E+04  0.13804244787E+04  0.00000000000E+00 0. -1.
         21    1    1    2  506  503  0.16485985676E+03 -0.14337090731E+03 -0.80907179763E+02  0.23298060257E+03  0.00000000000E+00 0.  1.
<scales pt_clust_3="378.47997" pt_clust_4="49.89368" pt_clust_5="14000.00000" pt_clust_6="216.97164"></scales>
<clustering>
<clus scale="   49.894">  1  4  2 -1</clus>
<clus scale="  216.972">  2  6  1 -1</clus>
<clus scale="  378.480">  2  3  1 -1</clus>
<clus scale="   49.894">  1  3  2 -1</clus>
</clustering>
</event>
<event>
 6    0  0.8610502E+002  0.7435648E+02  0.7546771E-02  0.1345875E+00
         21   -1    0    0  504  501  0.00000000000E+00  0.00000000000E+00  0.78331558850E+03  0.78331558850E+03  0.00000000000E+00 0. -1.
         21   -1    0    0  506  502 -0.00000000000E+00 -0.00000000000E+00 -0.24817930654E+02  0.24817930654E+02  0.00000000000E+00 0. -1.
         21    1    1    2  503  505 -0.10268905517E+02  0.81224267150E+02  0.21679356453E+03  0.23173752742E+03  0.00000000000E+00 0. -1.
         21    1    1    2  504  503  0.76261095889E+02 -0.37198007839E+02  0.38915188181E+03  0.39829465682E+03  0.00000000000E+00 0. -1.
         21    1    1    2  505  502 -0.25535395891E+02 -0.39546349454E+02  0.54980596680E+02  0.72379805262E+02  0.00000000000E+00 0. -1.
         21    1    1    2  506  501 -0.40456794480E+02 -0.44799098566E+01  0.97571614823E+02  0.10572152965E+03  0.00000000000E+00 0. -1.
<scales pt_clust_3="74.35648" pt_clust_4="14000.00000" pt_clust_5="59.35109" pt_clust_6="40.70408"></scales>
<clustering>
<clus scale="   40.704">  2  6  1 -1</clus>
<clus scale="   59.351">  2  5  1 -1</clus>
<clus scale="   74.356">  2  3  1 -1</clus>
<clus scale="   74.356">  1  3  2 -1</clus>
</clustering>
</event>
<event>
 6    0  0.8610502E+002  0.1228597E+03  0.7546771E-02  0.1238453E+00
         21   -1    0    0  505  501  0.00000000000E+00  0.00000000000E+00  0.24414347550E+03  0.24414347550E+03  0.00000000000E+00 0.  1.
         21   -1    0    0  506  502 -0.00000000000E+00 -0.00000000000E+00 -0.47946594477E+03  0.47946594477E+03  0.00000000000E+00 0.  1.
         21    1    1    2  503  501 -0.76736526711E+02  0.18407922581E+02 -0.11680393145E+03  0.14096277717E+03  0.00000000000E+00 0. -1.
         21    1    1    2  504  502  0.11516250334E+03  0.47054791009E+02 -0.12975568357E+03  0.17975842943E+03  0.00000000000E+00 0.  1.
         21    1    1    2  505  504 -0.69873656609E+02 -0.10365550368E+03  0.18441020485E+03  0.22278670289E+03  0.00000000000E+00 0.  1.
         21    1    1    2  506  503  0.31447679980E+02  0.38192790086E+02 -0.17317305909E+03  0.18010151078E+03  0.00000000000E+00 0.  1.
<scales pt_clust_3="72.21521" pt_clust_4="14000.00000" pt_clust_5="122.85969" pt_clust_6="49.47369"></scales>
<clustering>
<clus scale="   49.474">  2  6  1 -1</clus>
<clus scale="   72.215">  2  3  1 -1</clus>
<clus scale="  122.860">  1  5  2 -1</clus>
<clus scale="  122.860">  1  3  2 -1</clus>
</clustering>
</event>
<event>
 6    0  0.8610502E+002  0.8392741E+02  0.7546771E-02  0.1318262E+00
         21   -1    0    0  506  501  0.00000000000E+00  0.00000000000E+00  0.75651466234E+03  0.75651466234E+03  0.00000000000E+00 0.  1.
         21   -1    0    0  503  502 -0.00000000000E+00 -0.00000000000E+00 -0.11422073188E+03  0.11422073188E+03  0.00000000000E+00 0. -1.
         21    1    1    2  503  501  0.93106128181E+02 -0.95280162421E+01  0.57080985987E+03  0.57843187181E+03  0.00000000000E+00 0.  1.
         21    1    1    2  504  502 -0.81460056879E+02  0.18962903329E+02 -0.75458296038E+02  0.11264673546E+03  0.00000000000E+00 0. -1.
         21    1    1    2  505  504 -0.55929404450E+02 -0.54656732472E+01  0.61294551121E+02  0.83156442104E+02  0.00000000000E+00 0.  1.
         21    1    1    2  506  505  0.44283333148E+02 -0.39692138395E+01  0.85647815505E+02  0.96500344839E+02  0.00000000000E+00 0.  1.
<scales pt_clust_3="14000.00000" pt_clust_4="83.92741" pt_clust_5="51.46191" pt_clust_6="44.46086"></scales>
<clustering>
<clus scale="   44.461">  1  6  2 -1</clus>
<clus scale="   51.462">  1  5  2 -1</clus>
<clus scale="   83.927">  2  4  1 -1</clus>
<clus scale="   44.461">  1  3  2 -1</clus>
</clustering>
</event>
<event>
 6    0  0.8610502E+002  0.2203014E+03  0.7546771E-02  0.1133659E+00
         21   -1    0    0  506  501  0.00000000000E+00  0.00000000000E+00  0.23688577687E+03  0.23688577687E+03  0.00000000000E+00 0.  1.
         21   -1    0    0  503  502 -0.00000000000E+00 -0.00000000000E+00 -0.73189201827E+03  0.73189201827E+03  0.00000000000E+00 0.  1.
         21    1    1    2  503  505  0.11692953009E+02 -0.10074399151E+03 -0.19476818962E+03  0.21959217806E+03  0.00000000000E+00 0.  1.
         21    1    1    2  504  502 -0.94746119845E+02 -0.20600665795E+02 -0.30495979740E+03  0.32000264481E+03  0.00000000000E+00 0.  1.
         21    1    1    2  505  501 -0.28731791089E+02 -0.74125925616E+02 -0.14036302546E+03  0.16131319718E+03  0.00000000000E+00 0.  1.
         21    1    1    2  506  504  0.11178495792E+03  0.19547058292E+03  0.14508477109E+03  0.26786977509E+03  0.00000000000E+00 0.  1.
<scales pt_clust_3="38.65448" pt_clust_4="96.95986" pt_clust_5="38.65448" pt_clust_6="215.93182"></scales>
<clustering>
<clus scale="   38.654">  3  5 -1 -1</clus>
<clus scale="   96.960">  2  4  1 -1</clus>
<clus scale="  215.932">  1  6  2 -1</clus>
<clus scale="  215.932">  1  3  2 -1</clus>
</clustering>
</event>
<event>
 6    0  0.8610502E+002  0.1573949E+03  0.7546771E-02  0.1191670E+00
         21   -1    0    0  503  501  0.00000000000E+00  0.00000000000E+00  0.49467280785E+03  0.49467280785E+03  0.00000000000E+00 0. -1.
         21   -1    0    0  506  502 -0.00000000000E+00 -0.00000000000E+00 -0.55574760736E+03  0.55574760736E+03  0.00000000000E+00 0. -1.
         21    1    1    2  503  505  0.11286439309E+03 -0.10711814651E+03  0.46403593077E+03  0.48943029492E+03  0.00000000000E+00 0. -1.
         21    1    1    2  504  501 -0.41917297135E+02 -0.54887376982E+01 -0.16994145067E+03  0.17512076603E+03  0.00000000000E+00 0. -1.
         21    1    1    2  505  502 -0.14993830535E+02  0.88742845910E+02 -0.21240439643E+03  0.23068535991E+03  0.00000000000E+00 0. -1.
         21    1    1    2  506  504 -0.55953265420E+02  0.23864038297E+02 -0.14276488318E+03  0.15518399436E+03  0.00000000000E+00 0. -1.
<scales pt_clust_3="152.88382" pt_clust_4="31.18886" pt_clust_5="90.00060" pt_clust_6="31.18886"></scales>
<clustering>
<clus scale="   31.189">  4  6 -1 -1</clus>
<clus scale="   90.001">  2  5  1 -1</clus>
<clus scale="  152.884">  1  3  2 -1</clus>
<clus scale="  152.884">  1  3  2 -1</clus>
</clustering>
</event>
<event>
 6    0  0.8610502E+002  0.1449430E+03  0.7546771E-02  0.1206828E+00
         21   -1    0    0  506  501  0.00000000000E+00  0.00000000000E+00  0.20726408021E+03  0.20726408021E+03  0.00000000000E+00 0. -1.
         21   -1    0    0  505  502 -0.00000000000E+00 -0.00000000000E+00 -0.58330657051E+03  0.58330657051E+03  0.00000000000E+00 0. -1.
         21    1    1    2  503  501 -0.29255368629E+02 -0.67636328076E+02  0.11955474931E+03  0.14044175858E+03  0.00000000000E+00 0. -1.
         21    1    1    2  504  502  0.55496388495E+01 -0.48211219617E+02  0.67943323976E+01  0.49002889109E+02  0.00000000000E+00 0. -1.
         21    1    1    2  505  503 -0.49045833519E+01  0.14995867755E+03 -0.52858802147E+03  0.54946970467E+03  0.00000000000E+00 0. -1.
         21    1    1    2  506  504  0.28610313132E+02 -0.34111129856E+02  0.26196449455E+02  0.51656298373E+02  0.00000000000E+00 0. -1.
<scales pt_clust_3="73.69226" pt_clust_4="31.76708" pt_clust_5="141.09737" pt_clust_6="31.76708"></scales>
<clustering>
<clus scale="   31.767">  4  6 -1 -1</clus>
<clus scale="   73.692">  1  3  2 -1</clus>
<clus scale="  141.097">  2  5  1 -1</clus>
<clus scale="   73.692">  1  3  2 -1</clus>
</clustering>
</event>
<event>
 6    0  0.8610502E+002  0.7464389E+02  0.7546771E-02  0.1344977E+00
         21   -1    0    0  504  501  0.00000000000E+00  0.00000000000E+00  0.14552825248E+04  0.14552825248E+04  0.00000000000E+00 0.  1.
         21   -1    0    0  505  502 -0.00000000000E+00 -0.00000000000E+00 -0.84481235269E+02  0.84481235269E+02  0.00000000000E+00 0. -1.
         21    1    1    2  503  501 -0.30383068271E+02 -0.67362447651E+02  0.12905069393E+04  0.12926209772E+04  0.00000000000E+00 0.  1.
         21    1    1    2  504  502  0.76351409574E+02  0.10319451272E+03 -0.14890410939E+02  0.12922990961E+03  0.00000000000E+00 0. -1.
         21    1    1    2  505  506 -0.10357127227E+02 -0.32081455615E+02  0.48873990790E+02  0.59373031374E+02  0.00000000000E+00 0. -1.
         21    1    1    2  506  503 -0.35611214076E+02 -0.37506094509E+01  0.46310770316E+02  0.58539841873E+02  0.00000000000E+00 0. -1.
<scales pt_clust_3="74.64389" pt_clust_4="14000.00000" pt_clust_5="33.71187" pt_clust_6="36.93905"></scales>
<clustering>
<clus scale="   33.712">  2  5  1 -1</clus>
<clus scale="   36.939">  2  6  1 -1</clus>
<clus scale="   74.644">  1  3  2 -1</clus>
<clus scale="   74.644">  1  3  2 -1</clus>
</clustering>
</event>
<event>
 6    0  0.8610502E+002  0.1613677E+03  0.7546771E-02  0.1187161E+00
         21   -1    0    0  506  501  0.00000000000E+00  0.00000000000E+00  0.58743704174E+03  0.58743704174E+03  0.00000000000E+00 0. -1.
         21   -1    0    0  504  502 -0.00000000000E+00 -0.00000000000E+00 -0.29990996741E+03  0.29990996741E+03  0.00000000000E+00 0. -1.
         21    1    1    2  503  501  0.22661121623E+03  0.75115624538E+01  0.38987760743E+03  0.45101398611E+03  0.00000000000E+00 0. -1.
         21    1    1    2  504  503 -0.87183834849E+02 -0.25328270700E+02 -0.21265775796E+03  0.23122686776E+03  0.00000000000E+00 0. -1.
         21    1    1    2  505  502 -0.27762116482E+02  0.33191591599E+02 -0.53567610857E+01  0.43601740261E+02  0.00000000000E+00 0. -1.
         21    1    1    2  506  505 -0.11166526490E+03 -0.15374883352E+02  0.11566398596E+03  0.16150441502E+03  0.00000000000E+00 0. -1.
<scales pt_clust_3="161.36774" pt_clust_4="109.56374" pt_clust_5="43.27143" pt_clust_6="14000.00000"></scales>
<clustering>
<clus scale="   43.271">  2  5  1 -1</clus>
<clus scale="  109.564">  2  4  1 -1</clus>
<clus scale="  161.368">  2  3  1 -1</clus>
<clus scale="  161.368">  1  3  2 -1</clus>
</clustering>
</event>
<event>
 6    0  0.8610502E+002  0.1308670E+03  0.7546771E-02  0.1226175E+00
         21   -1    0    0  503  501  0.00000000000E+00  0.00000000000E+00  0.22864640384E+04  0.22864640384E+04  0.00000000000E+00 0.  1.
         21   -1    0    0  504  502 -0.00000000000E+00 -0.00000000000E+00 -0.13094171061E+03  0.13094171061E+03  0.00000000000E+00 0. -1.
         21    1    1    2  503  502 -0.10781292570E+03 -0.58031503919E+02 -0.96730932568E+02  0.15603895575E+03  0.00000000000E+00 0. -1.
         21    1    1    2  504  505  0.72421396416E+02 -0.37025319864E+01  0.71611602633E+03  0.71977825097E+03  0.00000000000E+00 0.  1.
         21    1    1    2  505  506  0.71685189916E+02  0.31892054737E+02  0.11350420142E+04  0.11377505191E+04  0.00000000000E+00 0.  1.
         21    1    1    2  506  501 -0.36293660632E+02  0.29841981168E+02  0.40109521977E+03  0.40383802318E+03  0.00000000000E+00 0.  1.
<scales pt_clust_3="122.72120" pt_clust_4="43.69446" pt_clust_5="43.69446" pt_clust_6="46.98695"></scales>
<clustering>
<clus scale="   43.694">  4  5 -1 -1</clus>
<clus scale="   46.987">  1  6  2 -1</clus>
<clus scale="  122.721">  2  3  1 -1</clus>
<clus scale="   46.987">  1  3  2 -1</clus>
</clustering>
</event>
<event>
 6    0  0.8610502E+002  0.8682916E+02  0.7546771E-02  0.1310717E+00
         21   -1    0    0  505  501  0.00000000000E+00  0.00000000000E+00  0.43796983487E+03  0.43796983487E+03  0.00000000000E+00 0.  1.
         21   -1    0    0  504  502 -0.00000000000E+00 -0.00000000000E+00 -0.19539122929E+03  0.19539122929E+03  0.00000000000E+00 0. -1.
         21    1    1    2  503  502 -0.36909865879E+02  0.53425644291E+02 -0.18181723538E+02  0.67433024090E+02  0.00000000000E+00 0.  1.
         21    1    1    2  504  501  0.63602728605E+02 -0.29500129007E+02 -0.11815310289E+03  0.13738893849E+03  0.00000000000E+00 0. -1.
         21    1    1    2  505  506 -0.31873750721E+01 -0.76132566969E+02  0.36039766056E+03  0.36836503750E+03  0.00000000000E+00 0.  1.
         21    1    1    2  506  503 -0.23505487654E+02  0.52207051685E+02  0.18515771443E+02  0.60174064077E+02  0.00000000000E+00 0.  1.
<scales pt_clust_3="36.06495" pt_clust_4="70.11109" pt_clust_5="77.87251" pt_clust_6="36.06495"></scales>
<clustering>
<clus scale="   36.065">  3  6 -1 -1</clus>
<clus scale="   70.111">  2  4  1 -1</clus>
<clus scale="   77.873">  1  5  2 -1</clus>
<clus scale="   77.873">  1  3  2 -1</clus>
</clustering>
</event>
<event>
 6    0  0.8610502E+002  0.1314576E+03  0.7546771E-02  0.1225309E+00
         21   -1    0    0  503  501  0.00000000000E+00  0.00000000000E+00  0.65748718098E+03  0.65748718098E+03  0.00000000000E+00 0.  1.
         21   -1    0    0  506  502 -0.00000000000E+00 -0.00000000000E+00 -0.58984448523E+02  0.58984448523E+02  0.00000000000E+00 0.  1.
         21    1    1    2  503  505  0.58662474311E+02  0.68611902865E+02  0.22346700299E+03  0.24101116267E+03  0.00000000000E+00 0.  1.
         21    1    1    2  504  502  0.43529073677E+02 -0.68431375774E+02  0.33068356075E+02  0.87585099297E+02  0.00000000000E+00 0.  1.
         21    1    1    2  505  504  0.35800128596E+02 -0.22429831820E+02  0.63046903809E+02  0.75892414923E+02  0.00000000000E+00 0.  1.
         21    1    1    2  506  501 -0.13799167658E+03  0.22249304729E+02  0.27892046958E+03  0.31198295261E+03  0.00000000000E+00 0.  1.
<scales pt_clust_3="90.27114" pt_clust_4="39.11949" pt_clust_5="39.11949" pt_clust_6="119.76321"></scales>
<clustering>
<clus scale="   39.119">  4  5 -1 -1</clus>
<clus scale="   90.271">  1  3  2 -1</clus>
<clus scale="  119.763">  1  6  2 -1</clus>
<clus scale="   90.271">  1  3  2 -1</clus>
</clustering>
</event>
<event>
 6    0  0.8610502E+002  0.8804749E+02  0.7546771E-02  0.1307650E+00
         21   -1    0    0  503  501  0.00000000000E+00  0.00000000000E+00  0.71890355408E+02  0.71890355408E+02  0.00000000000E+00 0.  1.
         21   -1    0    0  505  502 -0.00000000000E+00 -0.00000000000E+00 -0.12525259163E+04  0.12525259163E+04  0.00000000000E+00 0. -1.
         21    1    1    2  503  506  0.59416348891E+02  0.59969478376E+02 -0.48723881620E+01  0.84559925607E+02  0.00000000000E+00 0.  1.
         21    1    1    2  504  502 -0.76528774825E+02 -0.39273007462E+01 -0.93708429844E+03  0.94021224171E+03  0.00000000000E+00 0. -1.
         21    1    1    2  505  501 -0.59723451267E+02 -0.80410857020E+02 -0.12244310015E+03  0.15819326576E+03  0.00000000000E+00 0. -1.
         21    1    1    2  506  504  0.76835877201E+02  0.24368679391E+02 -0.11623577413E+03  0.14145083862E+03  0.00000000000E+00 0.  1.
<scales pt_clust_3="88.04749" pt_clust_4="76.62948" pt_clust_5="14000.00000" pt_clust_6="50.80343"></scales>
<clustering>
<clus scale="   76.629">  2  4  1 -1</clus>
<clus scale="   50.803">  2  6  1 -1</clus>
<clus scale="   88.047">  1  3  2 -1</clus>
<clus scale="   88.047">  1  3  2 -1</clus>
</clustering>
</event>
<event>
 6    0  0.8610502E+002  0.8591048E+02  0.7546771E-02  0.1313069E+00
         21   -1    0    0  504  501  0.00000000000E+00  0.00000000000E+00  0.14617955142E+04  0.14617955142E+04  0.00000000000E+00 0.  1.
         21   -1    0    0  503  502 -0.00000000000E+00 -0.00000000000E+00 -0.11555096004E+03  0.11555096004E+03  0.00000000000E+00 0.  1.
         21    1    1    2  503  505 -0.51245702369E+02  0.10681507855E+03  0.34211281075E+03  0.36204524344E+03  0.00000000000E+00 0.  1.
         21    1    1    2  504  506  0.34267828455E+02  0.13604318452E+02  0.89140939036E+03  0.89217154335E+03  0.00000000000E+00 0.  1.
         21    1    1    2  505  501  0.42921393857E+01 -0.36825197196E+02  0.19894409966E+03  0.20236914883E+03  0.00000000000E+00 0.  1.
         21    1    1    2  506  502  0.12685734528E+02 -0.83594199809E+02 -0.86221746606E+02  0.12076053863E+03  0.00000000000E+00 0.  1.
<scales pt_clust_3="85.91048" pt_clust_4="36.86952" pt_clust_5="35.96956" pt_clust_6="14000.00000"></scales>
<clustering>
<clus scale="   36.870">  1  4  2 -1</clus>
<clus scale="   35.970">  1  5  2 -1</clus>
<clus scale="   85.910">  1  3  2 -1</clus>
<clus scale="   36.870">  1  3  2 -1</clus>
</clustering>
</event>
<event>
 6    0  0.8610502E+002  0.1224190E+03  0.7546771E-02  0.1239159E+00
         21   -1    0    0  504  501  0.00000000000E+00  0.00000000000E+00  0.17125455087E+04  0.17125455087E+04  0.00000000000E+00 0. -1.
         21   -1    0    0  505  502 -0.00000000000E+00 -0.00000000000E+00 -0.43744738193E+03  0.43744738193E+03  0.00000000000E+00 0. -1.
         21    1    1    2  503  501 -0.39272828766E+02  0.23931349078E+02  0.11102673128E+03  0.12017487095E+03  0.00000000000E+00 0. -1.
         21    1    1    2  504  506 -0.69639674528E+02  0.31249319772E+02  0.14247731932E+04  0.14268163359E+04  0.00000000000E+00 0. -1.
         21    1    1    2  505  503 -0.10096360540E+01  0.70993149211E+02 -0.38693104432E+03  0.39339125518E+03  0.00000000000E+00 0. -1.
         21    1    1    2  506  502  0.10992213935E+03 -0.12617381806E+03  0.12622924658E+03  0.20961042859E+03  0.00000000000E+00 0. -1.
<scales pt_clust_3="45.98983" pt_clust_4="122.41899" pt_clust_5="71.04990" pt_clust_6="14000.00000"></scales>
<clustering>
<clus scale="   45.990">  1  3  2 -1</clus>
<clus scale="   71.050">  2  5  1 -1</clus>
<clus scale="  122.419">  1  4  2 -1</clus>
<clus scale="   45.990">  1  3  2 -1</clus>
</clustering>
</event>
<event>
 6    0  0.8610502E+002  0.9503631E+02  0.7546771E-02  0.1291094E+00
         21   -1    0    0  506  501  0.00000000000E+00  0.00000000000E+00  0.25698217045E+03  0.25698217045E+03  0.00000000000E+00 0.  1.
         21   -1    0    0  503  502 -0.00000000000E+00 -0.00000000000E+00 -0.99603494805E+02  0.99603494805E+02  0.00000000000E+00 0.  1.
         21    1    1    2  503  501  0.12284742107E+03 -0.70817538790E+01  0.69990409281E+02  0.14156375770E+03  0.00000000000E+00 0.  1.
         21    1    1    2  504  502 -0.52983098787E+02  0.38502227049E+02 -0.28219960590E+02  0.71316172223E+02  0.00000000000E+00 0.  1.
         21    1    1    2  505  504 -0.39921516595E+02 -0.14001428482E+02  0.31505086425E+02  0.52747871591E+02  0.00000000000E+00 0.  1.
         21    1    1    2  506  505 -0.29942805688E+02 -0.17419044688E+02  0.84103140529E+02  0.90957863746E+02  0.00000000000E+00 0.  1.
<scales pt_clust_3="87.25878" pt_clust_4="65.49527" pt_clust_5="34.07251" pt_clust_6="34.07251"></scales>
<clustering>
<clus scale="   34.073">  5  6 -1 -1</clus>
<clus scale="   65.495">  2  4  1 -1</clus>
<clus scale="   87.259">  2  3  1 -1</clus>
<clus scale="   95.036">  1  3  2 -1</clus>
</clustering>
</event>
<event>
 6    0  0.8610502E+002  0.1294477E+03  0.7546771E-02  0.1228278E+00
         21   -1    0    0  502  501  0.00000000000E+00  0.00000000000E+00  0.12183264264E+03  0.12183264264E+03  0.00000000000E+00 0.  1.
         21   -1    0    0  504  502 -0.00000000000E+00 -0.00000000000E+00 -0.49039730358E+03  0.49039730358E+03  0.00000000000E+00 0.  1.
         21    1    1    2  503  505  0.16806461692E+02  0.10212524182E+03 -0.11407773926E+03  0.15403166157E+03  0.00000000000E+00 0.  1.
         21    1    1    2  504  503 -0.20948215846E+02 -0.22315421845E+02 -0.11331233955E+03  0.11737330230E+03  0.00000000000E+00 0.  1.
         21    1    1    2  505  506  0.12410057020E+03 -0.13981660879E+02 -0.15971113978E+03  0.20274142778E+03  0.00000000000E+00 0.  1.
         21    1    1    2  506  501 -0.11995881605E+03 -0.65828159094E+02  0.18536557648E+02  0.13808355459E+03  0.00000000000E+00 0.  1.
<scales pt_clust_3="94.60918" pt_clust_4="30.60728" pt_clust_5="129.44771" pt_clust_6="14000.00000"></scales>
<clustering>
<clus scale="   30.607">  2  4  1 -1</clus>
<clus scale="   94.609">  2  3  1 -1</clus>
<clus scale="  129.448">  2  5  1 -1</clus>
<clus scale="  129.448">  1  3  2 -1</clus>
</clustering>
</event>
<event>
 6    0  0.8610502E+002  0.7161059E+02  0.7546771E-02  0.1354700E+00
         21   -1    0    0  506  501  0.00000000000E+00  0.00000000000E+00  0.32499523909E+04  0.32499523909E+04  0.00000000000E+00 0.  1.
         21   -1    0    0  505  502 -0.00000000000E+00 -0.00000000000E+00 -0.60932426868E+01  0.60932426868E+01  0.00000000000E+00 0.  1.
         21    1    1    2  503  502 -0.10319375997E+02  0.39229855046E+02  0.20741766378E+03  0.21134700920E+03  0.00000000000E+00 0. -1.
         21    1    1    2  504  501  0.54248871114E+02 -0.12619300518E+02  0.10923402226E+04  0.10937592736E+04  0.00000000000E+00 0.  1.
         21    1    1    2  505  504  0.94111925811E+01 -0.83974056942E+02  0.94309941728E+03  0.94687735407E+03  0.00000000000E+00 0.  1.
         21    1    1    2  506  503 -0.53340687698E+02  0.57363502414E+02  0.10010018446E+04  0.10040619967E+04  0.00000000000E+00 0.  1.
<scales pt_clust_3="40.56441" pt_clust_4="52.80352" pt_clust_5="71.61059" pt_clust_6="14000.00000"></scales>
<clustering>
<clus scale="   40.564">  2  3  1 -1</clus>
<clus scale="   52.804">  1  4  2 -1</clus>
<clus scale="   71.611">  2  5  1 -1</clus>
<clus scale="   52.804">  1  3  2 -1</clus>
</clustering>
</event>
<event>
 6    0  0.8610502E+002  0.1488892E+03  0.7546771E-02  0.1201845E+00
         21   -1    0    0  506  501  0.00000000000E+00  0.00000000000E+00  0.10815464841E+03  0.10815464841E+03  0.00000000000E+00 0. -1.
         21   -1    0    0  504  502 -0.00000000000E+00 -0.00000000000E+00 -0.62700409995E+03  0.62700409995E+03  0.00000000000E+00 0. -1.
         21    1    1    2  503  505  0.95317362510E+02  0.75180897250E+02 -0.47179392732E+02  0.13024385592E+03  0.00000000000E+00 0. -1.
         21    1    1    2  504  501 -0.19788669663E+03 -0.32678933851E+02 -0.39300737760E+03  0.44122766942E+03  0.00000000000E+00 0. -1.
         21    1    1    2  505  502  0.61279825500E+02 -0.40227927894E+02 -0.94332293473E+02  0.11946583105E+03  0.00000000000E+00 0. -1.
         21    1    1    2  506  503  0.41289508617E+02 -0.22740355052E+01  0.15669612251E+02  0.44221391966E+02  0.00000000000E+00 0. -1.
<scales pt_clust_3="14000.00000" pt_clust_4="148.88922" pt_clust_5="79.12123" pt_clust_6="41.35208"></scales>
<clustering>
<clus scale="   41.352">  1  6  2 -1</clus>
<clus scale="   79.121">  2  5  1 -1</clus>
<clus scale="  148.889">  2  4  1 -1</clus>
<clus scale="   41.352">  1  3  2 -1</clus>
</clustering>
</event>
<event>
 6    0  0.8610502E+002  0.9766714E+02  0.7546771E-02  0.1285280E+00
         21   -1    0    0  505  501  0.00000000000E+00  0.00000000000E+00  0.49594353960E+03  0.49594353960E+03  0.00000000000E+00 0. -1.
         21   -1    0    0  503  502 -0.00000000000E+00 -0.00000000000E+00 -0.38918950645E+03  0.38918950645E+03  0.00000000000E+00 0. -1.
         21    1    1    2  503  506  0.66188056051E+02 -0.25753984723E+01 -0.32150901240E+03  0.32826138441E+03  0.00000000000E+00 0. -1.
         21    1    1    2  504  502  0.29285183613E+02  0.22487358109E+02 -0.23881185376E+02  0.43972881062E+02  0.00000000000E+00 0. -1.
         21    1    1    2  505  504  0.27317242353E+02 -0.15806507345E+02  0.35466340125E+03  0.35606488958E+03  0.00000000000E+00 0. -1.
         21    1    1    2  506  501 -0.12279048202E+03 -0.41054522916E+01  0.97480829677E+02  0.15683389100E+03  0.00000000000E+00 0. -1.
<scales pt_clust_3="97.66714" pt_clust_4="37.84078" pt_clust_5="31.56069" pt_clust_6="14000.00000"></scales>
<clustering>
<clus scale="   31.561">  1  5  2 -1</clus>
<clus scale="   37.841">  2  4  1 -1</clus>
<clus scale="   97.667">  2  3  1 -1</clus>
<clus scale="   31.561">  1  3  2 -1</clus>
</clustering>
</event>
<event>
 6    0  0.8610502E+002  0.8409720E+02  0.7546771E-02  0.1317810E+00
         21   -1    0    0  505  501  0.00000000000E+00  0.00000000000E+00  0.37584351060E+02  0.37584351060E+02  0.00000000000E+00 0. -1.
         21   -1    0    0  504  502 -0.00000000000E+00 -0.00000000000E+00 -0.60124389543E+03  0.60124389543E+03  0.00000000000E+00 0.  1.
         21    1    1    2  503  501  0.24457331201E+02  0.76100653020E+02 -0.10665032257E+03  0.13328076285E+03  0.00000000000E+00 0. -1.
         21    1    1    2  504  503 -0.23469662396E+02  0.19941401541E+02 -0.21235062302E+03  0.21457229934E+03  0.00000000000E+00 0.  1.
         21    1    1    2  505  506 -0.54319998849E+02 -0.72341110158E+02 -0.99254259574E+02  0.13429559389E+03  0.00000000000E+00 0. -1.
         21    1    1    2  506  502  0.53332330044E+02 -0.23700944403E+02 -0.14540433920E+03  0.15667959041E+03  0.00000000000E+00 0. -1.
<scales pt_clust_3="84.09720" pt_clust_4="30.79748" pt_clust_5="14000.00000" pt_clust_6="46.97569"></scales>
<clustering>
<clus scale="   30.797">  2  4  1 -1</clus>
<clus scale="   46.976">  2  6  1 -1</clus>
<clus scale="   84.097">  2  3  1 -1</clus>
<clus scale="   84.097">  1  3  2 -1</clus>
</clustering>
</event>
<event>
 6    0  0.8610502E+002  0.8208553E+02  0.7546771E-02  0.1323235E+00
         21   -1    0    0  503  501  0.00000000000E+00  0.00000000000E+00  0.37482834655E+03  0.37482834655E+03  0.00000000000E+00 0.  1.
         21   -1    0    0  506  502 -0.00000000000E+00 -0.00000000000E+00 -0.25875810478E+03  0.25875810478E+03  0.00000000000E+00 0.  1.
         21    1    1    2  503  502 -0.11245101742E+03 -0.78456728015E+02 -0.18161880993E+03  0.22756555453E+03  0.00000000000E+00 0.  1.
         21    1    1    2  504  505  0.39526144810E+02  0.24468189064E+01  0.83110348677E+00  0.39610526118E+02  0.00000000000E+00 0.  1.
         21    1    1    2  505  501  0.67207572029E+02  0.44726771547E+02  0.31808870799E+03  0.32817338097E+03  0.00000000000E+00 0.  1.
         21    1    1    2  506  504  0.57173005859E+01  0.31283137563E+02 -0.21230759770E+02  0.38236989711E+02  0.00000000000E+00 0.  1.
<scales pt_clust_3="14000.00000" pt_clust_4="40.33333" pt_clust_5="82.08553" pt_clust_6="31.80129"></scales>
<clustering>
<clus scale="   31.801">  2  6  1 -1</clus>
<clus scale="   40.333">  2  4  1 -1</clus>
<clus scale="   82.086">  1  5  2 -1</clus>
<clus scale="   82.086">  1  3  2 -1</clus>
</clustering>
</event>
<event>
 6    0  0.8610502E+002  0.1825902E+03  0.7546771E-02  0.1165320E+00
         21   -1    0    0  505  501  0.00000000000E+00  0.00000000000E+00  0.19855603635E+03  0.19855603635E+03  0.00000000000E+00 0. -1.
         21   -1    0    0  503  502 -0.00000000000E+00 -0.00000000000E+00 -0.83004791568E+03  0.83004791568E+03  0.00000000000E+00 0. -1.
         21    1    1    2  503  501 -0.58274119115E+01  0.40949580300E+02 -0.80230806083E+02  0.90265215344E+02  0.00000000000E+00 0. -1.
         21    1    1    2  504  502  0.25258361111E+02 -0.80956212713E+02 -0.36496784864E+03  0.37469110441E+03  0.00000000000E+00 0. -1.
         21    1    1    2  505  506 -0.62756913542E+01  0.16716023768E+03  0.13685883606E+03  0.21613021624E+03  0.00000000000E+00 0. -1.
         21    1    1    2  506  504 -0.13155257845E+02 -0.12715360526E+03 -0.32315206067E+03  0.34751741604E+03  0.00000000000E+00 0. -1.
<scales pt_clust_3="41.36214" pt_clust_4="52.12900" pt_clust_5="169.46745" pt_clust_6="52.12900"></scales>
<clustering>
<clus scale="   41.362">  2  3  1 -1</clus>
<clus scale="   52.129">  4  6 -1 -1</clus>
<clus scale="  169.467">  1  5  2 -1</clus>
<clus scale="  169.467">  1  3  2 -1</clus>
</clustering>
</event>
<event>
 6    0  0.8610502E+002  0.9545088E+02  0.7546771E-02  0.1290164E+00
         21   -1    0    0  504  501  0.00000000000E+00  0.00000000000E+00  0.17001913133E+04  0.17001913133E+04  0.00000000000E+00 0.  1.
         21   -1    0    0  503  502 -0.00000000000E+00 -0.00000000000E+00 -0.40940284747E+03  0.40940284747E+03  0.00000000000E+00 0. -1.
         21    1    1    2  503  501  0.69778359926E+02 -0.51149716343E+02  0.29159074393E+03  0.30415534673E+03  0.00000000000E+00 0.  1.
         21    1    1    2  504  506  0.85667142450E+02 -0.55355385947E+01  0.91841485670E+03  0.92241820802E+03  0.00000000000E+00 0.  1.
         21    1    1    2  505  502  0.12998867720E+02  0.74686978741E+02 -0.38239423864E+03  0.38983646456E+03  0.00000000000E+00 0. -1.
         21    1    1    2  506  505 -0.16844437010E+03 -0.18001723803E+02  0.46317710385E+03  0.49318414148E+03  0.00000000000E+00 0.  1.
<scales pt_clust_3="79.57251" pt_clust_4="95.45088" pt_clust_5="75.80973" pt_clust_6="14000.00000"></scales>
<clustering>
<clus scale="   75.810">  2  5  1 -1</clus>
<clus scale="   79.573">  2  3  1 -1</clus>
<clus scale="   95.451">  1  4  2 -1</clus>
<clus scale="   95.451">  1  3  2 -1</clus>
</clustering>
</event>
<event>
 6    0  0.8610502E+002  0.1118336E+03  0.7546771E-02  0.1257211E+00
         21   -1    0    0  504  501  0.00000000000E+00  0.00000000000E+00  0.19771672046E+03  0.19771672046E+03  0.00000000000E+00 0. -1.
         21   -1    0    0  505  502 -0.00000000000E+00 -0.00000000000E+00 -0.36310665128E+03  0.36310665128E+03  0.00000000000E+00 0. -1.
         21    1    1    2  503  501 -0.13107394685E+01 -0.39705568490E+02  0.11985577468E+03  0.12626819446E+03  0.00000000000E+00 0. -1.
         21    1    1    2  504  506  0.30838367650E+02 -0.12902804286E+02  0.25001794766E+01  0.33522204211E+02  0.00000000000E+00 0.  1.
         21    1    1    2  505  503  0.74208355176E+02  0.96274492170E+02 -0.38424038136E+02  0.12748358532E+03  0.00000000000E+00 0.  1.
         21    1    1    2  506  502 -0.10373598336E+03 -0.43666119393E+02 -0.24932184684E+03  0.27354938774E+03  0.00000000000E+00 0. -1.
<scales pt_clust_3="52.42705" pt_clust_4="33.42884" pt_clust_5="111.83364" pt_clust_6="14000.00000"></scales>
<clustering>
<clus scale="   33.429">  1  4  2 -1</clus>
<clus scale="   52.427">  1  3  2 -1</clus>
<clus scale="  111.834">  1  5  2 -1</clus>
<clus scale="   33.429">  1  3  2 -1</clus>
</clustering>
</event>
<event>
 6    0  0.8610502E+002  0.9185633E+02  0.7546771E-02  0.1298418E+00
         21   -1    0    0  506  501  0.00000000000E+00  0.00000000000E+00  0.12481901168E+03  0.12481901168E+03  0.00000000000E+00 0. -1.
         21   -1    0    0  504  502 -0.00000000000E+00 -0.00000000000E+00 -0.14636452302E+04  0.14636452302E+04  0.00000000000E+00 0. -1.
         21    1    1    2  503  501 -0.60627411417E+02 -0.30849766659E+02  0.61116794646E+02  0.91447546199E+02  0.00000000000E+00 0. -1.
         21    1    1    2  504  503  0.78273447949E+01 -0.32327113161E+02 -0.12811986783E+04  0.12816303535E+04  0.00000000000E+00 0. -1.
         21    1    1    2  505  502  0.52891678577E+02  0.10471954953E+03 -0.12714614623E+03  0.17300247460E+03  0.00000000000E+00 0. -1.
         21    1    1    2  506  505 -0.91611954483E-01 -0.41542669708E+02  0.84018113947E+01  0.42383867614E+02  0.00000000000E+00 0. -1.
<scales pt_clust_3="14000.00000" pt_clust_4="33.26123" pt_clust_5="91.85633" pt_clust_6="44.56139"></scales>
<clustering>
<clus scale="   33.261">  2  4  1 -1</clus>
<clus scale="   44.561">  1  6  2 -1</clus>
<clus scale="   91.856">  2  5  1 -1</clus>
<clus scale="   44.561">  1  3  2 -1</clus>
</clustering>
</event>
<event>
 6    0  0.8610502E+002  0.1793787E+03  0.7546771E-02  0.1168406E+00
         21   -1    0    0  506  501  0.00000000000E+00  0.00000000000E+00  0.16671769043E+04  0.16671769043E+04  0.00000000000E+00 0. -1.
         21   -1    0    0  504  502 -0.00000000000E+00 -0.00000000000E+00 -0.10394733264E+03  0.10394733264E+03  0.00000000000E+00 0. -1.
         21    1    1    2  503  501 -0.14995497562E+03  0.26152929905E+02  0.70965618124E+03  0.72579774457E+03  0.00000000000E+00 0. -1.
         21    1    1    2  504  503 -0.55585028766E+02 -0.28884188790E+02 -0.72343611255E+02  0.95695297034E+02  0.00000000000E+00 0. -1.
         21    1    1    2  505  502  0.91249370564E+02 -0.14694522903E+02  0.33529699221E+03  0.34780231399E+03  0.00000000000E+00 0. -1.
         21    1    1    2  506  505  0.11429063382E+03  0.17425781788E+02  0.59062000951E+03  0.60182888139E+03  0.00000000000E+00 0. -1.
<scales pt_clust_3="173.07157" pt_clust_4="62.64177" pt_clust_5="42.15607" pt_clust_6="42.15607"></scales>
<clustering>
<clus scale="   42.156">  5  6 -1 -1</clus>
<clus scale="   62.642">  2  4  1 -1</clus>
<clus scale="  173.072">  1  3  2 -1</clus>
<clus scale="  173.072">  1  3  2 -1</clus>
</clustering>
</event>
<event>
 6    0  0.8610502E+002  0.8054246E+02  0.7546771E-02  0.1327519E+00
         21   -1    0    0  503  501  0.00000000000E+00  0.00000000000E+00  0.16399184814E+03  0.16399184814E+03  0.00000000000E+00 0.  1.
         21   -1    0    0  504  502 -0.00000000000E+00 -0.00000000000E+00 -0.32021317341E+03  0.32021317341E+03  0.00000000000E+00 0. -1.
         21    1    1    2  503  506  0.56711186271E+02 -0.35696164282E+02  0.10444742459E+01  0.67018398363E+02  0.00000000000E+00 0.  1.
         21    1    1    2  504  501 -0.51252942622E+02  0.49292384924E+02 -0.26333710021E+02  0.75829200328E+02  0.00000000000E+00 0. -1.
         21    1    1    2  505  502 -0.75463657613E+02 -0.30113965296E+02 -0.21551752381E+03  0.23032459181E+03  0.00000000000E+00 0. -1.
         21    1    1    2  506  505  0.70005413964E+02  0.16517744653E+02  0.84585434309E+02  0.11103283105E+03  0.00000000000E+00 0.  1.
<scales pt_clust_3="67.01026" pt_clust_4="58.67130" pt_clust_5="80.54246" pt_clust_6="14000.00000"></scales>
<clustering>
<clus scale="   67.010">  1  3  2 -1</clus>
<clus scale="   58.671">  1  4  2 -1</clus>
<clus scale="   80.542">  2  5  1 -1</clus>
<clus scale="   67.010">  1  3  2 -1</clus>
</clustering>
</event>
<event>
 6    0  0.8610502E+002  0.8827863E+02  0.7546771E-02  0.1307075E+00
         21   -1    0    0  503  501  0.00000000000E+00  0.00000000000E+00  0.35142633677E+03  0.35142633677E+03  0.00000000000E+00 0.  1.
         21   -1    0    0  505  502 -0.00000000000E+00 -0.00000000000E+00 -0.19556927229E+03  0.19556927229E+03  0.00000000000E+00 0. -1.
         21    1    1    2  503  504  0.17496719751E+02  0.66346719286E+02  0.40231256061E+02  0.79539778264E+02  0.00000000000E+00 0.  1.
         21    1    1    2  504  502 -0.80142698444E+01 -0.51596919677E+02 -0.14050017773E+03  0.14988919436E+03  0.00000000000E+00 0. -1.
         21    1    1    2  505  506  0.81134568005E+02  0.23943745013E+01  0.60320414170E+02  0.10112914278E+03  0.00000000000E+00 0. -1.
         21    1    1    2  506  501 -0.90617017911E+02 -0.17144174110E+02  0.19580557199E+03  0.21643749366E+03  0.00000000000E+00 0.  1.
<scales pt_clust_3="48.39803" pt_clust_4="52.21562" pt_clust_5="88.27863" pt_clust_6="14000.00000"></scales>
<clustering>
<clus scale="   52.216">  2  4  1 -1</clus>
<clus scale="   48.398">  2  3  1 -1</clus>
<clus scale="   88.279">  2  5  1 -1</clus>
<clus scale="   88.279">  1  3  2 -1</clus>
</clustering>
</event>
<event>
 6    0  0.8610502E+002  0.3278894E+03  0.7546771E-02  0.1072075E+00
         21   -1    0    0  504  501  0.00000000000E+00  0.00000000000E+00  0.67991418345E+03  0.67991418345E+03  0.00000000000E+00 0. -1.
         21   -1    0    0  506  502 -0.00000000000E+00 -0.00000000000E+00 -0.45067082113E+03  0.45067082113E+03  0.00000000000E+00 0.  1.
         21    1    1    2  503  501  0.31080834635E+01 -0.43014589511E+02  0.62153668275E+02  0.75650469751E+02  0.00000000000E+00 0. -1.
         21    1    1    2  504  505 -0.33909797820E+02  0.23039941321E+03  0.24912127593E+03  0.34102078253E+03  0.00000000000E+00 0. -1.
         21    1    1    2  505  502 -0.55398321631E+02  0.10768281042E+03  0.23993615564E+03  0.26876368893E+03  0.00000000000E+00 0. -1.
         21    1    1    2  506  503  0.86200035988E+02 -0.29506763412E+03 -0.32196773753E+03  0.44515006337E+03  0.00000000000E+00 0.  1.
<scales pt_clust_3="43.12673" pt_clust_4="71.63485" pt_clust_5="71.63485" pt_clust_6="311.65215"></scales>
<clustering>
<clus scale="   43.127">  1  3  2 -1</clus>
<clus scale="   71.635">  4  5 -1 -1</clus>
<clus scale="  311.652">  2  6  1 -1</clus>
<clus scale="   43.127">  1  3  2 -1</clus>
</clustering>
</event>
<event>
 6    0  0.8610502E+002  0.1956321E+03  0.7546771E-02  0.1153477E+00
         21   -1    0    0  504  501  0.00000000000E+00  0.00000000000E+00  0.76091583608E+03  0.76091583608E+03  0.00000000000E+00 0. -1.
         21   -1    0    0  506  502 -0.00000000000E+00 -0.00000000000E+00 -0.12584029300E+03  0.12584029300E+03  0.00000000000E+00 0. -1.
         21    1    1    2  503  505 -0.13759778088E+03 -0.12694790623E+02  0.28780532790E+03  0.31925885075E+03  0.00000000000E+00 0. -1.
         21    1    1    2  504  503 -0.78587419716E+02 -0.46881800601E+02  0.20583941981E+03  0.22526373989E+03  0.00000000000E+00 0. -1.
         21    1    1    2  505  502  0.14867324098E+03  0.10969643449E+03  0.85187729001E+01  0.18495840023E+03  0.00000000000E+00 0. -1.
         21    1    1    2  506  501  0.67511959618E+02 -0.50119843269E+02  0.13291202247E+03  0.15727513821E+03  0.00000000000E+00 0. -1.
<scales pt_clust_3="40.96709" pt_clust_4="40.96709" pt_clust_5="189.04399" pt_clust_6="84.08248"></scales>
<clustering>
<clus scale="   40.967">  3  4 -1 -1</clus>
<clus scale="   84.082">  1  6  2 -1</clus>
<clus scale="  189.044">  2  5  1 -1</clus>
<clus scale="   84.082">  1  3  2 -1</clus>
</clustering>
</event>
<event>
 6    0  0.8610502E+002  0.8342032E+02  0.7546771E-02  0.1319616E+00
         21   -1    0    0  505  501  0.00000000000E+00  0.00000000000E+00  0.17321781663E+03  0.17321781663E+03  0.00000000000E+00 0. -1.
         21   -1    0    0  504  502 -0.00000000000E+00 -0.00000000000E+00 -0.65049092803E+03  0.65049092803E+03  0.00000000000E+00 0. -1.
         21    1    1    2  503  502 -0.29289978951E+02 -0.93507851187E+02 -0.37537117600E+03  0.38794992058E+03  0.00000000000E+00 0. -1.
         21    1    1    2  504  506  0.60578622390E+01  0.46989153684E+02 -0.11520712086E+03  0.12456869172E+03  0.00000000000E+00 0. -1.
         21    1    1    2  505  503 -0.24023017262E+02  0.79940889880E+02  0.14501533716E+03  0.16732333742E+03  0.00000000000E+00 0. -1.
         21    1    1    2  506  501  0.47255133974E+02 -0.33422192376E+02 -0.13171015169E+03  0.14386679495E+03  0.00000000000E+00 0. -1.
<scales pt_clust_3="83.42032" pt_clust_4="47.37804" pt_clust_5="14000.00000" pt_clust_6="53.23987"></scales>
<clustering>
<clus scale="   47.378">  2  4  1 -1</clus>
<clus scale="   53.240">  2  6  1 -1</clus>
<clus scale="   83.420">  2  3  1 -1</clus>
<clus scale="   83.420">  1  3  2 -1</clus>
</clustering>
</event>
<event>
 6    0  0.8610502E+002  0.2274752E+03  0.7546771E-02  0.1128430E+00
         21   -1    0    0  503  501  0.00000000000E+00  0.00000000000E+00  0.95189091187E+03  0.95189091187E+03  0.00000000000E+00 0.  1.
         21   -1    0    0  504  502 -0.00000000000E+00 -0.00000000000E+00 -0.32482617695E+03  0.32482617695E+03  0.00000000000E+00 0.  1.
         21    1    1    2  503  502  0.11965560775E+03 -0.21412057670E+03 -0.13122838188E+03  0.27818334610E+03  0.00000000000E+00 0.  1.
         21    1    1    2  504  506  0.33214548234E+02  0.17391015967E+02 -0.39250243212E+02  0.54279233993E+02  0.00000000000E+00 0.  1.
         21    1    1    2  505  501 -0.99037074057E+02  0.20337229959E+03  0.84341157277E+03  0.87321916800E+03  0.00000000000E+00 0.  1.
         21    1    1    2  506  505 -0.53833081931E+02 -0.66427388542E+01 -0.45868212769E+02  0.71035340728E+02  0.00000000000E+00 0. -1.
<scales pt_clust_3="227.47522" pt_clust_4="37.49205" pt_clust_5="14000.00000" pt_clust_6="46.94611"></scales>
<clustering>
<clus scale="   37.492">  2  4  1 -1</clus>
<clus scale="   46.946">  2  6  1 -1</clus>
<clus scale="  227.475">  2  3  1 -1</clus>
<clus scale="  227.475">  1  3  2 -1</clus>
</clustering>
</event>
<event>
 6    0  0.8610502E+002  0.9679290E+02  0.7546771E-02  0.1287188E+00
         21   -1    0    0  506  501  0.00000000000E+00  0.00000000000E+00  0.66200722543E+02  0.66200722543E+02  0.00000000000E+00 0.  1.
         21   -1    0    0  503  502 -0.00000000000E+00 -0.00000000000E+00 -0.27107097486E+03  0.27107097486E+03  0.00000000000E+00 0. -1.
         21    1    1    2  503  504  0.30786952743E+01 -0.42274675308E+02 -0.25609300087E+02  0.49522346349E+02  0.00000000000E+00 0. -1.
         21    1    1    2  504  501 -0.18089540306E+02 -0.33373471181E+02 -0.54833896839E+02  0.66691650825E+02  0.00000000000E+00 0.  1.
         21    1    1    2  505  502 -0.30723280492E+02  0.11659161618E+03 -0.91801450747E+02  0.15154217660E+03  0.00000000000E+00 0.  1.
         21    1    1    2  506  505  0.45734125524E+02 -0.40943469693E+02 -0.32625604648E+02  0.69515523637E+02  0.00000000000E+00 0. -1.
<scales pt_clust_3="31.19546" pt_clust_4="31.19546" pt_clust_5="91.00685" pt_clust_6="61.38386"></scales>
<clustering>
<clus scale="   31.195">  3  4 -1 -1</clus>
<clus scale="   61.384">  1  6  2 -1</clus>
<clus scale="   91.007">  1  5  2 -1</clus>
<clus scale="   61.384">  1  3  2 -1</clus>
</clustering>
</event>
<event>
 6    0  0.8610502E+002  0.1368459E+03  0.7546771E-02  0.1217637E+00
         21   -1    0    0  503  501  0.00000000000E+00  0.00000000000E+00  0.24524992521E+03  0.24524992521E+03  0.00000000000E+00 0. -1.
         21   -1    0    0  506  502 -0.00000000000E+00 -0.00000000000E+00 -0.11989033784E+04  0.11989033784E+04  0.00000000000E+00 0.  1.
         21    1    1    2  503  502 -0.36024862181E+02 -0.23006447275E+02  0.20755451642E+03  0.21191027487E+03  0.00000000000E+00 0. -1.
         21    1    1    2  504  505  0.81140255456E+02  0.56001877277E+02 -0.98739158846E+03  0.99230141604E+03  0.00000000000E+00 0.  1.
         21    1    1    2  505  501 -0.75268532870E+02 -0.47954500355E+02 -0.32990802685E+02  0.95149247010E+02  0.00000000000E+00 0.  1.
         21    1    1    2  506  504  0.30153139595E+02  0.14959070353E+02 -0.14082557849E+03  0.14479236572E+03  0.00000000000E+00 0. -1.
<scales pt_clust_3="42.74444" pt_clust_4="30.28607" pt_clust_5="126.64981" pt_clust_6="30.28607"></scales>
<clustering>
<clus scale="   30.286">  4  6 -1 -1</clus>
<clus scale="   42.744">  1  3  2 -1</clus>
<clus scale="  126.650">  1  5  2 -1</clus>
<clus scale="   42.744">  1  3  2 -1</clus>
</clustering>
</event>
<event>
 6    0  0.8610502E+002  0.2046700E+03  0.7546771E-02  0.1145858E+00
         21   -1    0    0  503  501  0.00000000000E+00  0.00000000000E+00  0.79241857291E+02  0.79241857291E+02  0.00000000000E+00 0. -1.
         21   -1    0    0  506  502 -0.00000000000E+00 -0.00000000000E+00 -0.15383045665E+04  0.15383045665E+04  0.00000000000E+00 0. -1.
         21    1    1    2  503  504  0.15874403350E+03 -0.12409777903E+03 -0.20045620060E+03  0.28422282683E+03  0.00000000000E+00 0. -1.
         21    1    1    2  504  505 -0.18539237163E+03  0.18045345803E+03 -0.67779812641E+03  0.72549574922E+03  0.00000000000E+00 0. -1.
         21    1    1    2  505  502  0.34765443421E+02 -0.87280637529E+02 -0.56387482806E+03  0.57164794014E+03  0.00000000000E+00 0. -1.
         21    1    1    2  506  501 -0.81171052955E+01  0.30924958526E+02 -0.16933554138E+02  0.36179907600E+02  0.00000000000E+00 0. -1.
<scales pt_clust_3="14000.00000" pt_clust_4="204.67002" pt_clust_5="92.17839" pt_clust_6="31.97250"></scales>
<clustering>
<clus scale="   31.972">  1  6  2 -1</clus>
<clus scale="   92.178">  2  5  1 -1</clus>
<clus scale="  204.670">  2  4  1 -1</clus>
<clus scale="   31.972">  1  3  2 -1</clus>
</clustering>
</event>
<event>
 6    0  0.8610502E+002  0.7391624E+02  0.7546771E-02  0.1347260E+00
         21   -1    0    0  506  501  0.00000000000E+00  0.00000000000E+00  0.48586732682E+03  0.48586732682E+03  0.00000000000E+00 0.  1.
         21   -1    0    0  505  502 -0.00000000000E+00 -0.00000000000E+00 -0.10518120852E+03  0.10518120852E+03  0.00000000000E+00 0.  1.
         21    1    1    2  503  501 -0.41861601053E-02 -0.60615902856E+02  0.49676337285E+02  0.78371080014E+02  0.00000000000E+00 0.  1.
         21    1    1    2  504  502 -0.26635161544E+02  0.71740824748E+02 -0.48507755809E+02  0.90604526044E+02  0.00000000000E+00 0.  1.
         21    1    1    2  505  503 -0.45694068453E+02  0.10152374603E+02  0.13995899137E+02  0.48855949428E+02  0.00000000000E+00 0. -1.
         21    1    1    2  506  504  0.72333416157E+02 -0.21277296495E+02  0.36552163769E+03  0.37321697986E+03  0.00000000000E+00 0.  1.
<scales pt_clust_3="59.42799" pt_clust_4="73.91624" pt_clust_5="46.80832" pt_clust_6="14000.00000"></scales>
<clustering>
<clus scale="   46.808">  2  5  1 -1</clus>
<clus scale="   59.428">  2  3  1 -1</clus>
<clus scale="   73.916">  2  4  1 -1</clus>
<clus scale="   73.916">  1  3  2 -1</clus>
</clustering>
</event>
<event>
 6    0  0.8610502E+002  0.8105653E+02  0.7546771E-02  0.1326080E+00
         21   -1    0    0  504  501  0.00000000000E+00  0.00000000000E+00  0.40724962008E+03  0.40724962008E+03  0.00000000000E+00 0. -1.
         21   -1    0    0  503  502 -0.00000000000E+00 -0.00000000000E+00 -0.76005458476E+02  0.76005458476E+02  0.00000000000E+00 0.  1.
         21    1    1    2  503  501 -0.19076174449E+02  0.45471865453E+02  0.46049629080E+02  0.67469691846E+02  0.00000000000E+00 0. -1.
         21    1    1    2  504  506 -0.12474828357E+02  0.77204754128E+02  0.25852742807E+03  0.27009743884E+03  0.00000000000E+00 0. -1.
         21    1    1    2  505  502  0.10151467775E+02 -0.29463102696E+02 -0.22225531237E+02  0.38276637224E+02  0.00000000000E+00 0.  1.
         21    1    1    2  506  505  0.21399535031E+02 -0.93213516886E+02  0.48892635686E+02  0.10741131064E+03  0.00000000000E+00 0.  1.
<scales pt_clust_3="42.03496" pt_clust_4="81.05653" pt_clust_5="31.16291" pt_clust_6="14000.00000"></scales>
<clustering>
<clus scale="   31.163">  2  5  1 -1</clus>
<clus scale="   42.035">  2  3  1 -1</clus>
<clus scale="   81.057">  1  4  2 -1</clus>
<clus scale="   81.057">  1  3  2 -1</clus>
</clustering>
</event>
<event>
 6    0  0.8610502E+002  0.7170080E+02  0.7546771E-02  0.1354403E+00
         21   -1    0    0  504  501  0.00000000000E+00  0.00000000000E+00  0.13612964937E+04  0.13612964937E+04  0.00000000000E+00 0.  1.
         21   -1    0    0  503  502 -0.00000000000E+00 -0.00000000000E+00 -0.89370718571E+02  0.89370718571E+02  0.00000000000E+00 0. -1.
         21    1    1    2  503  505 -0.31635118141E+02  0.23625604850E+02  0.11371481238E+02  0.41088447158E+02  0.00000000000E+00 0. -1.
         21    1    1    2  504  506  0.10327227282E+03  0.17634509769E+02 -0.23802317086E+02  0.10743690505E+03  0.00000000000E+00 0. -1.
         21    1    1    2  505  501 -0.71206353472E+02  0.73478807548E+00  0.12361821765E+04  0.12382315042E+04  0.00000000000E+00 0.  1.
         21    1    1    2  506  502 -0.43080120835E+00 -0.41994902695E+02  0.48174434564E+02  0.63910355871E+02  0.00000000000E+00 0.  1.
<scales pt_clust_3="39.48354" pt_clust_4="71.70080" pt_clust_5="14000.00000" pt_clust_6="39.67983"></scales>
<clustering>
<clus scale="   39.484">  2  3  1 -1</clus>
<clus scale="   39.680">  2  6  1 -1</clus>
<clus scale="   71.701">  2  4  1 -1</clus>
<clus scale="   71.701">  1  3  2 -1</clus>
</clustering>
</event>
<event>
 6    0  0.8610502E+002  0.1597643E+03  0.7546771E-02  0.1188963E+00
         21   -1    0    0  505  501  0.00000000000E+00  0.00000000000E+00  0.54533408658E+03  0.54533408658E+03  0.00000000000E+00 0. -1.
         21   -1    0    0  503  502 -0.00000000000E+00 -0.00000000000E+00 -0.38430711160E+03  0.38430711160E+03  0.00000000000E+00 0. -1.
         21    1    1    2  503  504 -0.14801362171E+02 -0.18245062109E+03 -0.25090893715E+03  0.31058429483E+03  0.00000000000E+00 0. -1.
         21    1    1    2  504  506  0.11960182040E+03  0.84352741436E+02 -0.82956269409E+01  0.14659057902E+03  0.00000000000E+00 0. -1.
         21    1    1    2  505  502 -0.53780313332E+02  0.48662951650E+02  0.34623941278E+02  0.80369286888E+02  0.00000000000E+00 0. -1.
         21    1    1    2  506  501 -0.51020144897E+02  0.49434928003E+02  0.38560759779E+03  0.39209703744E+03  0.00000000000E+00 0. -1.
<scales pt_clust_3="14000.00000" pt_clust_4="159.76430" pt_clust_5="98.62041" pt_clust_6="71.04131"></scales>
<clustering>
<clus scale="   71.041">  1  6  2 -1</clus>
<clus scale="   98.620">  1  5  2 -1</clus>
<clus scale="  159.764">  1  4  2 -1</clus>
<clus scale="   71.041">  1  3  2 -1</clus>
</clustering>
</event>
<event>
 6    0  0.8610502E+002  0.8057116E+02  0.7546771E-02  0.1327438E+00
         21   -1    0    0  505  501  0.00000000000E+00  0.00000000000E+00  0.14078347133E+03  0.14078347133E+03  0.00000000000E+00 0.  1.
         21   -1    0    0  504  502 -0.00000000000E+00 -0.00000000000E+00 -0.25668429152E+03  0.25668429152E+03  0.00000000000E+00 0.  1.
         21    1    1    2  503  501 -0.73011776221E+00  0.32572816189E+02  0.25621428216E+02  0.41448510351E+02  0.00000000000E+00 0.  1.
         21    1    1    2  504  506 -0.24510587419E+02  0.48893064168E+02 -0.84664216240E+02  0.10079350242E+03  0.00000000000E+00 0.  1.
         21    1    1    2  505  502 -0.40482482975E+02 -0.10148094051E+03 -0.11973621111E+03  0.16209248276E+03  0.00000000000E+00 0.  1.
         21    1    1    2  506  503  0.65723188156E+02  0.20015060152E+02  0.62878178945E+02  0.93133267320E+02  0.00000000000E+00 0.  1.
<scales pt_clust_3="32.58100" pt_clust_4="56.91666" pt_clust_5="14000.00000" pt_clust_6="80.57116"></scales>
<clustering>
<clus scale="   32.581">  1  3  2 -1</clus>
<clus scale="   56.917">  2  4  1 -1</clus>
<clus scale="   80.571">  1  6  2 -1</clus>
<clus scale="   32.581">  1  3  2 -1</clus>
</clustering>
</event>
<event>
 6    0  0.8610502E+002  0.1385734E+03  0.7546771E-02  0.1215262E+00
         21   -1    0    0  505  501  0.00000000000E+00  0.00000000000E+00  0.23047948060E+04  0.23047948060E+04  0.00000000000E+00 0.  1.
         21   -1    0    0  506  502 -0.00000000000E+00 -0.00000000000E+00 -0.27346228814E+03  0.27346228814E+03  0.00000000000E+00 0.  1.
         21    1    1    2  503  502 -0.47101965334E+02  0.62683743111E+02  0.24473559457E+02  0.82138918311E+02  0.00000000000E+00 0.  1.
         21    1    1    2  504  501 -0.36659471357E+02 -0.11813195061E+03  0.20065246412E+04  0.20103333580E+04  0.00000000000E+00 0.  1.
         21    1    1    2  505  503 -0.36453890517E+02 -0.92902399681E+00  0.22331086002E+03  0.22626862227E+03  0.00000000000E+00 0.  1.
         21    1    1    2  506  504  0.12021532721E+03  0.56377231494E+02 -0.22297654280E+03  0.25951619557E+03  0.00000000000E+00 0.  1.
<scales pt_clust_3="78.95406" pt_clust_4="138.57340" pt_clust_5="36.46573" pt_clust_6="14000.00000"></scales>
<clustering>
<clus scale="   36.466">  1  5  2 -1</clus>
<clus scale="   78.954">  2  3  1 -1</clus>
<clus scale="  138.573">  1  4  2 -1</clus>
<clus scale="   36.466">  1  3  2 -1</clus>
</clustering>
</event>
<event>
 6    0  0.8610502E+002  0.1358127E+03  0.7546771E-02  0.1219077E+00
         21   -1    0    0  506  501  0.00000000000E+00  0.00000000000E+00  0.86597238526E+03  0.86597238526E+03  0.00000000000E+00 0.  1.
         21   -1    0    0  501  502 -0.00000000000E+00 -0.00000000000E+00 -0.88065810468E+02  0.88065810468E+02  0.00000000000E+00 0.  1.
         21    1    1    2  503  504 -0.52656058999E+02 -0.90507962040E+02  0.89626856779E+02  0.13783078465E+03  0.00000000000E+00 0.  1.
         21    1    1    2  504  505 -0.19536738666E+02 -0.49424001351E+02  0.12633639607E+02  0.54626229204E+02  0.00000000000E+00 0.  1.
         21    1    1    2  505  502  0.10785036428E+01  0.36302439832E+02 -0.28587747154E+02  0.46220012930E+02  0.00000000000E+00 0.  1.
         21    1    1    2  506  503  0.71114294022E+02  0.10362952356E+03  0.70423382556E+03  0.71536116894E+03  0.00000000000E+00 0.  1.
<scales pt_clust_3="30.13917" pt_clust_4="30.13917" pt_clust_5="36.31846" pt_clust_6="129.05564"></scales>
<clustering>
<clus scale="   30.139">  3  4 -1 -1</clus>
<clus scale="   36.318">  2  5  1 -1</clus>
<clus scale="  129.056">  1  6  2 -1</clus>
<clus scale="  129.056">  1  3  2 -1</clus>
</clustering>
</event>
<event>
 6    0  0.8610502E+002  0.2630933E+03  0.7546771E-02  0.1105299E+00
         21   -1    0    0  506  501  0.00000000000E+00  0.00000000000E+00  0.13640166156E+03  0.13640166156E+03  0.00000000000E+00 0. -1.
         21   -1    0    0  504  502 -0.00000000000E+00 -0.00000000000E+00 -0.60378274721E+03  0.60378274721E+03  0.00000000000E+00 0. -1.
         21    1    1    2  503  502 -0.75944706890E+02  0.16374827738E+01 -0.50226378919E+02  0.91065739957E+02  0.00000000000E+00 0. -1.
         21    1    1    2  504  505  0.87847084288E+02 -0.27195067170E+02 -0.86365767216E+02  0.12615755088E+03  0.00000000000E+00 0. -1.
         21    1    1    2  505  501  0.12777935665E+03 -0.90412349385E+02 -0.30060813542E+03  0.33892065146E+03  0.00000000000E+00 0. -1.
         21    1    1    2  506  503 -0.13968173404E+03  0.11596993378E+03 -0.30180804103E+02  0.18404046648E+03  0.00000000000E+00 0. -1.
<scales pt_clust_3="60.99557" pt_clust_4="60.46277" pt_clust_5="257.97080" pt_clust_6="60.99557"></scales>
<clustering>
<clus scale="   60.463">  4  5 -1 -1</clus>
<clus scale="   60.996">  3  6 -1 -1</clus>
<clus scale="  257.971">  2  4  1 -1</clus>
<clus scale="  263.093">  1  3  2 -1</clus>
</clustering>
</event>
<event>
 6    0  0.8610502E+002  0.7475445E+02  0.7546771E-02  0.1344633E+00
         21   -1    0    0  503  501  0.00000000000E+00  0.00000000000E+00  0.41040304808E+03  0.41040304808E+03  0.00000000000E+00 0.  1.
         21   -1    0    0  506  502 -0.00000000000E+00 -0.00000000000E+00 -0.12518474963E+04  0.12518474963E+04  0.00000000000E+00 0.  1.
         21    1    1    2  503  502 -0.66430332561E+02  0.79777773323E+01 -0.10916943460E+04  0.10937427389E+04  0.00000000000E+00 0.  1.
         21    1    1    2  504  505  0.44374179536E+02  0.73408145436E+02 -0.20198907621E+02  0.88123887198E+02  0.00000000000E+00 0. -1.
         21    1    1    2  505  501 -0.39069298862E+02 -0.23402260208E+01  0.35029690520E+03  0.35247667804E+03  0.00000000000E+00 0.  1.
         21    1    1    2  506  504  0.61125451887E+02 -0.79045696748E+02 -0.79848099828E+02  0.12790724017E+03  0.00000000000E+00 0. -1.
<scales pt_clust_3="67.57611" pt_clust_4="74.75445" pt_clust_5="39.13933" pt_clust_6="14000.00000"></scales>
<clustering>
<clus scale="   39.139">  1  5  2 -1</clus>
<clus scale="   67.576">  2  3  1 -1</clus>
<clus scale="   74.754">  1  4  2 -1</clus>
<clus scale="   39.139">  1  3  2 -1</clus>
</clustering>
</event>
<event>
 6    0  0.8610502E+002  0.9008954E+02  0.7546771E-02  0.1302635E+00
         21   -1    0    0  504  501  0.00000000000E+00  0.00000000000E+00  0.26942142714E+04  0.26942142714E+04  0.00000000000E+00 0. -1.
         21   -1    0    0  506  502 -0.00000000000E+00 -0.00000000000E+00 -0.19788336444E+02  0.19788336444E+02  0.00000000000E+00 0. -1.
         21    1    1    2  503  501  0.39058949963E+02 -0.22610277891E+02  0.52537044680E+03  0.52730535045E+03  0.00000000000E+00 0. -1.
         21    1    1    2  504  502  0.19853150882E+02 -0.24180630543E+02  0.79257521518E+02  0.85209185013E+02  0.00000000000E+00 0. -1.
         21    1    1    2  505  503  0.16548152207E+02 -0.50968042419E+02  0.18385462064E+04  0.18393269790E+04  0.00000000000E+00 0. -1.
         21    1    1    2  506  505 -0.75460253052E+02  0.97758950853E+02  0.23125176028E+03  0.26216109341E+03  0.00000000000E+00 0. -1.
<scales pt_clust_3="46.82129" pt_clust_4="31.28659" pt_clust_5="14000.00000" pt_clust_6="90.08954"></scales>
<clustering>
<clus scale="   31.287">  2  4  1 -1</clus>
<clus scale="   46.821">  1  3  2 -1</clus>
<clus scale="   90.090">  2  6  1 -1</clus>
<clus scale="   46.821">  1  3  2 -1</clus>
</clustering>
</event>
<event>
 6    0  0.8610502E+002  0.1219008E+03  0.7546771E-02  0.1239994E+00
         21   -1    0    0  502  501  0.00000000000E+00  0.00000000000E+00  0.78518653760E+03  0.78518653760E+03  0.00000000000E+00 0. -1.
         21   -1    0    0  506  502 -0.00000000000E+00 -0.00000000000E+00 -0.74148773731E+02  0.74148773731E+02  0.00000000000E+00 0.  1.
         21    1    1    2  503  505  0.66193794303E+02  0.26763913535E+01  0.92137750002E+02  0.11348192125E+03  0.00000000000E+00 0. -1.
         21    1    1    2  504  501 -0.20916164191E+02  0.23104057844E+02  0.46095737430E+03  0.46200972320E+03  0.00000000000E+00 0. -1.
         21    1    1    2  505  504  0.67780503450E+02 -0.18967841724E+02  0.15534991842E+03  0.17055079249E+03  0.00000000000E+00 0. -1.
         21    1    1    2  506  503 -0.11305813356E+03 -0.68126074734E+01  0.25927211568E+01  0.11329287439E+03  0.00000000000E+00 0.  1.
<scales pt_clust_3="34.00695" pt_clust_4="31.16542" pt_clust_5="34.00695" pt_clust_6="116.83280"></scales>
<clustering>
<clus scale="   31.165">  1  4  2 -1</clus>
<clus scale="   34.007">  3  5 -1 -1</clus>
<clus scale="  116.833">  2  6  1 -1</clus>
<clus scale="   31.165">  1  3  2 -1</clus>
</clustering>
</event>
<event>
 6    0  0.8610502E+002  0.1425155E+03  0.7546771E-02  0.1209984E+00
         21   -1    0    0  503  501  0.00000000000E+00  0.00000000000E+00  0.14200211640E+03  0.14200211640E+03  0.00000000000E+00 0.  1.
         21   -1    0    0  506  502 -0.00000000000E+00 -0.00000000000E+00 -0.52150963421E+03  0.52150963421E+03  0.00000000000E+00 0. -1.
         21    1    1    2  503  504 -0.20001093270E+02  0.28734480882E+02  0.30161494780E+02  0.46210711863E+02  0.00000000000E+00 0.  1.
         21    1    1    2  504  502 -0.71681035325E+02 -0.85910245921E+02  0.18024836795E+02  0.11332976626E+03  0.00000000000E+00 0.  1.
         21    1    1    2  505  501  0.12999188125E+02 -0.69265203430E+02 -0.25257725693E+02  0.74863876505E+02  0.00000000000E+00 0.  1.
         21    1    1    2  506  505  0.78682940469E+02  0.12644096847E+03 -0.40243612370E+03  0.42910739598E+03  0.00000000000E+00 0. -1.
<scales pt_clust_3="35.01020" pt_clust_4="142.51547" pt_clust_5="62.93931" pt_clust_6="14000.00000"></scales>
<clustering>
<clus scale="   35.010">  1  3  2 -1</clus>
<clus scale="   62.939">  1  5  2 -1</clus>
<clus scale="  142.515">  1  4  2 -1</clus>
<clus scale="   35.010">  1  3  2 -1</clus>
</clustering>
</event>
<event>
 6    0  0.8610502E+002  0.8914100E+02  0.7546771E-02  0.1304945E+00
         21   -1    0    0  504  501  0.00000000000E+00  0.00000000000E+00  0.12193039339E+04  0.12193039339E+04  0.00000000000E+00 0.  1.
         21   -1    0    0  506  502 -0.00000000000E+00 -0.00000000000E+00 -0.53214767036E+02  0.53214767036E+02  0.00000000000E+00 0. -1.
         21    1    1    2  503  501  0.33324678114E+02  0.34239992762E+02  0.21212484524E+03  0.21743932773E+03  0.00000000000E+00 0.  1.
         21    1    1    2  504  505  0.42146542414E+01 -0.96412795619E+02  0.72076773253E+03  0.72719963884E+03  0.00000000000E+00 0.  1.
         21    1    1    2  505  502  0.48667957217E+02  0.81971444461E+02  0.20479184845E+02  0.97505306412E+02  0.00000000000E+00 0. -1.
         21    1    1    2  506  503 -0.86207289573E+02 -0.19798641604E+02  0.21271740425E+03  0.23037442795E+03  0.00000000000E+00 0. -1.
<scales pt_clust_3="47.77982" pt_clust_4="77.09095" pt_clust_5="89.14100" pt_clust_6="14000.00000"></scales>
<clustering>
<clus scale="   47.780">  1  3  2 -1</clus>
<clus scale="   77.091">  1  4  2 -1</clus>
<clus scale="   89.141">  2  5  1 -1</clus>
<clus scale="   47.780">  1  3  2 -1</clus>
</clustering>
</event>
<event>
 6    0  0.8610502E+002  0.1648418E+03  0.7546771E-02  0.1183336E+00
         21   -1    0    0  505  501  0.00000000000E+00  0.00000000000E+00  0.39572624026E+03  0.39572624026E+03  0.00000000000E+00 0. -1.
         21   -1    0    0  503  502 -0.00000000000E+00 -0.00000000000E+00 -0.20370449127E+04  0.20370449127E+04  0.00000000000E+00 0. -1.
         21    1    1    2  503  504  0.47172296008E+02  0.82578241653E+02 -0.14391405474E+04  0.14422794135E+04  0.00000000000E+00 0. -1.
         21    1    1    2  504  501 -0.10944563033E+03  0.10526397259E+03 -0.45998361609E+03  0.48440043042E+03  0.00000000000E+00 0.  1.
         21    1    1    2  505  506 -0.17929144152E+02 -0.72133435379E+02  0.33663117508E+03  0.34473937220E+03  0.00000000000E+00 0. -1.
         21    1    1    2  506  502  0.80202478471E+02 -0.11570877886E+03 -0.78825684057E+02  0.16135193685E+03  0.00000000000E+00 0.  1.
<scales pt_clust_3="93.06426" pt_clust_4="164.84178" pt_clust_5="74.32824" pt_clust_6="14000.00000"></scales>
<clustering>
<clus scale="   74.328">  1  5  2 -1</clus>
<clus scale="   93.064">  2  3  1 -1</clus>
<clus scale="  164.842">  2  4  1 -1</clus>
<clus scale="   74.328">  1  3  2 -1</clus>
</clustering>
</event>
<event>
 6    0  0.8610502E+002  0.8276681E+02  0.7546771E-02  0.1321378E+00
         21   -1    0    0  505  501  0.00000000000E+00  0.00000000000E+00  0.27551240580E+04  0.27551240580E+04  0.00000000000E+00 0.  1.
         21   -1    0    0  506  502 -0.00000000000E+00 -0.00000000000E+00 -0.11192784282E+03  0.11192784282E+03  0.00000000000E+00 0.  1.
         21    1    1    2  503  501 -0.27851803398E+02 -0.77695186021E+02  0.25895643816E+04  0.25908793780E+04  0.00000000000E+00 0.  1.
         21    1    1    2  504  503 -0.14672480613E+02  0.10005866714E+03  0.10986137613E+03  0.14932026159E+03  0.00000000000E+00 0.  1.
         21    1    1    2  505  502 -0.22058371895E+02 -0.28878942365E+02  0.61156916846E+01  0.36850600641E+02  0.00000000000E+00 0.  1.
         21    1    1    2  506  504  0.64582655906E+02  0.65154612442E+01 -0.62345234228E+02  0.90001660596E+02  0.00000000000E+00 0.  1.
<scales pt_clust_3="14000.00000" pt_clust_4="82.76681" pt_clust_5="36.33958" pt_clust_6="49.90676"></scales>
<clustering>
<clus scale="   36.340">  2  5  1 -1</clus>
<clus scale="   49.907">  2  6  1 -1</clus>
<clus scale="   82.767">  2  4  1 -1</clus>
<clus scale="   82.767">  1  3  2 -1</clus>
</clustering>
</event>
<event>
 6    0  0.8610502E+002  0.2755185E+03  0.7546771E-02  0.1098162E+00
         21   -1    0    0  505  501  0.00000000000E+00  0.00000000000E+00  0.77859667586E+03  0.77859667586E+03  0.00000000000E+00 0.  1.
         21   -1    0    0  503  502 -0.00000000000E+00 -0.00000000000E+00 -0.13644837752E+04  0.13644837752E+04  0.00000000000E+00 0. -1.
         21    1    1    2  503  501 -0.26519896543E+03 -0.46732521827E+02  0.31867570227E+03  0.41721531980E+03  0.00000000000E+00 0.  1.
         21    1    1    2  504  506 -0.11195085683E+03  0.15908931372E+03 -0.18377378910E+02  0.19539736985E+03  0.00000000000E+00 0.  1.
         21    1    1    2  505  504  0.29000205612E+03 -0.12265756353E+03  0.24308714064E+03  0.39779068414E+03  0.00000000000E+00 0.  1.
         21    1    1    2  506  502  0.87147766154E+02  0.10300771639E+02 -0.11292725634E+04  0.11326770773E+04  0.00000000000E+00 0. -1.
<scales pt_clust_3="14000.00000" pt_clust_4="178.95379" pt_clust_5="275.51845" pt_clust_6="87.75442"></scales>
<clustering>
<clus scale="   87.754">  2  6  1 -1</clus>
<clus scale="  178.954">  2  4  1 -1</clus>
<clus scale="  275.518">  2  5  1 -1</clus>
<clus scale="  275.518">  1  3  2 -1</clus>
</clustering>
</event>
<event>
 6    0  0.8610502E+002  0.9822599E+02  0.7546771E-02  0.1284071E+00
         21   -1    0    0  504  501  0.00000000000E+00  0.00000000000E+00  0.24773005538E+03  0.24773005538E+03  0.00000000000E+00 0.  1.
         21   -1    0    0  503  502 -0.00000000000E+00 -0.00000000000E+00 -0.19404752111E+04  0.19404752111E+04  0.00000000000E+00 0. -1.
         21    1    1    2  503  506  0.71575383300E+02 -0.21641435624E+02 -0.28962305882E+03  0.29912021569E+03  0.00000000000E+00 0. -1.
         21    1    1    2  504  505 -0.17989084170E+02  0.67927509498E+02 -0.66431493643E+02  0.96700036420E+02  0.00000000000E+00 0.  1.
         21    1    1    2  505  502 -0.10877941662E+03 -0.20098644527E+02 -0.15584468184E+04  0.15623678833E+04  0.00000000000E+00 0. -1.
         21    1    1    2  506  501  0.55193117494E+02 -0.26187429347E+02  0.22175621510E+03  0.23001713112E+03  0.00000000000E+00 0.  1.
<scales pt_clust_3="98.22599" pt_clust_4="53.74497" pt_clust_5="14000.00000" pt_clust_6="61.09060"></scales>
<clustering>
<clus scale="   61.091">  1  6  2 -1</clus>
<clus scale="   53.745">  1  4  2 -1</clus>
<clus scale="   98.226">  1  3  2 -1</clus>
<clus scale="   61.091">  1  3  2 -1</clus>
</clustering>
</event>
<event>
 6    0  0.8610502E+002  0.7299651E+02  0.7546771E-02  0.1350190E+00
         21   -1    0    0  506  501  0.00000000000E+00  0.00000000000E+00  0.37416663362E+02  0.37416663362E+02  0.00000000000E+00 0. -1.
         21   -1    0    0  503  502 -0.00000000000E+00 -0.00000000000E+00 -0.11004374145E+04  0.11004374145E+04  0.00000000000E+00 0. -1.
         21    1    1    2  503  505 -0.89688543457E+01  0.50009673504E+02 -0.64740846450E+03  0.64939905120E+03  0.00000000000E+00 0. -1.
         21    1    1    2  504  501  0.29410394159E+02 -0.47624700042E+02 -0.21776621863E+02  0.60060840807E+02  0.00000000000E+00 0. -1.
         21    1    1    2  505  504 -0.87667782883E+02  0.27137821362E+02 -0.17554556404E+03  0.19808671474E+03  0.00000000000E+00 0. -1.
         21    1    1    2  506  502  0.67226243069E+02 -0.29522794824E+02 -0.21829010075E+03  0.23030747113E+03  0.00000000000E+00 0. -1.
<scales pt_clust_3="50.80756" pt_clust_4="51.72322" pt_clust_5="14000.00000" pt_clust_6="72.99651"></scales>
<clustering>
<clus scale="   50.808">  2  3  1 -1</clus>
<clus scale="   51.723">  1  4  2 -1</clus>
<clus scale="   72.997">  2  6  1 -1</clus>
<clus scale="   51.723">  1  3  2 -1</clus>
</clustering>
</event>
<event>
 6    0  0.8610502E+002  0.8209256E+02  0.7546771E-02  0.1323216E+00
         21   -1    0    0  503  501  0.00000000000E+00  0.00000000000E+00  0.36573516802E+03  0.36573516802E+03  0.00000000000E+00 0. -1.
         21   -1    0    0  506  502 -0.00000000000E+00 -0.00000000000E+00 -0.27604063487E+03  0.27604063487E+03  0.00000000000E+00 0. -1.
         21    1    1    2  503  502  0.54859556104E+02  0.53472592530E+02 -0.97770245324E+02  0.12420913782E+03  0.00000000000E+00 0. -1.
         21    1    1    2  504  505 -0.68147588433E+02 -0.56580935385E+02 -0.10953363170E+03  0.14086558321E+03  0.00000000000E+00 0. -1.
         21    1    1    2  505  501  0.56336992436E+02 -0.32878057328E+02  0.31189923205E+03  0.31864706859E+03  0.00000000000E+00 0. -1.
         21    1    1    2  506  504 -0.43048960107E+02  0.35986400183E+02 -0.14900821873E+02  0.58054013271E+02  0.00000000000E+00 0. -1.
<scales pt_clust_3="14000.00000" pt_clust_4="82.09256" pt_clust_5="64.45005" pt_clust_6="56.10913"></scales>
<clustering>
<clus scale="   56.109">  2  6  1 -1</clus>
<clus scale="   64.450">  1  5  2 -1</clus>
<clus scale="   82.093">  1  4  2 -1</clus>
<clus scale="   64.450">  1  3  2 -1</clus>
</clustering>
</event>
<event>
 6    0  0.8610502E+002  0.7597372E+02  0.7546771E-02  0.1340882E+00
         21   -1    0    0  504  501  0.00000000000E+00  0.00000000000E+00  0.12422524670E+04  0.12422524670E+04  0.00000000000E+00 0.  1.
         21   -1    0    0  505  502 -0.00000000000E+00 -0.00000000000E+00 -0.15446291693E+02  0.15446291693E+02  0.00000000000E+00 0.  1.
         21    1    1    2  503  501 -0.84434719533E+02  0.36998668143E+02  0.45151127955E+03  0.46082595291E+03  0.00000000000E+00 0.  1.
         21    1    1    2  504  506  0.47579186786E+02 -0.49247035422E+02  0.41250100898E+03  0.41814606530E+03  0.00000000000E+00 0.  1.
         21    1    1    2  505  503  0.16422085793E+02 -0.35975635387E+02  0.62937652441E+02  0.74330877421E+02  0.00000000000E+00 0.  1.
         21    1    1    2  506  502  0.20433446955E+02  0.48224002666E+02  0.29985623435E+03  0.30439586309E+03  0.00000000000E+00 0.  1.
<scales pt_clust_3="75.97372" pt_clust_4="14000.00000" pt_clust_5="39.54657" pt_clust_6="46.65075"></scales>
<clustering>
<clus scale="   39.547">  2  5  1 -1</clus>
<clus scale="   46.651">  2  6  1 -1</clus>
<clus scale="   75.974">  2  3  1 -1</clus>
<clus scale="   75.974">  1  3  2 -1</clus>
</clustering>
</event>
<event>
 6    0  0.8610502E+002  0.1410342E+03  0.7546771E-02  0.1211944E+00
         21   -1    0    0  504  501  0.00000000000E+00  0.00000000000E+00  0.45065345652E+03  0.45065345652E+03  0.00000000000E+00 0. -1.
         21   -1    0    0  506  502 -0.00000000000E+00 -0.00000000000E+00 -0.83176036355E+02  0.83176036355E+02  0.00000000000E+00 0. -1.
         21    1    1    2  503  501  0.70962359598E+02  0.11029840269E+03  0.31729200606E+03  0.34333017815E+03  0.00000000000E+00 0. -1.
         21    1    1    2  504  502 -0.29981140219E+02  0.18585452708E+02 -0.48783743650E+01  0.35610200191E+02  0.00000000000E+00 0. -1.
         21    1    1    2  505  503 -0.30651284485E+02 -0.61364590422E+02  0.52773747868E+02  0.86545841392E+02  0.00000000000E+00 0. -1.
         21    1    1    2  506  505 -0.10329934894E+02 -0.67519264979E+02  0.22900406019E+01  0.68343273145E+02  0.00000000000E+00 0. -1.
<scales pt_clust_3="131.23470" pt_clust_4="35.27446" pt_clust_5="49.72688" pt_clust_6="49.72688"></scales>
<clustering>
<clus scale="   35.274">  2  4  1 -1</clus>
<clus scale="   49.727">  5  6 -1 -1</clus>
<clus scale="  131.235">  1  3  2 -1</clus>
<clus scale="  131.235">  1  3  2 -1</clus>
</clustering>
</event>
<event>
 6    0  0.8610502E+002  0.2394534E+03  0.7546771E-02  0.1120158E+00
         21   -1    0    0  506  501  0.00000000000E+00  0.00000000000E+00  0.89507408935E+03  0.89507408935E+03  0.00000000000E+00 0. -1.
         21   -1    0    0  505  502 -0.00000000000E+00 -0.00000000000E+00 -0.27817345560E+03  0.27817345560E+03  0.00000000000E+00 0.  1.
         21    1    1    2  503  501  0.73907201096E+02 -0.19070839926E+03  0.22739038974E+02  0.20578880391E+03  0.00000000000E+00 0. -1.
         21    1    1    2  504  503 -0.66361494460E+02  0.29293181313E+02 -0.40625703637E+01  0.72652893242E+02  0.00000000000E+00 0.  1.
         21    1    1    2  505  504 -0.82536041757E+02  0.15810685478E+03 -0.91881754712E+02  0.20062959046E+03  0.00000000000E+00 0.  1.
         21    1    1    2  506  502  0.74990335121E+02  0.33083631580E+01  0.69010591986E+03  0.69417625734E+03  0.00000000000E+00 0. -1.
<scales pt_clust_3="221.69611" pt_clust_4="57.71045" pt_clust_5="57.71045" pt_clust_6="75.06328"></scales>
<clustering>
<clus scale="   57.710">  4  5 -1 -1</clus>
<clus scale="   75.063">  1  6  2 -1</clus>
<clus scale="  221.696">  1  3  2 -1</clus>
<clus scale="   75.063">  1  3  2 -1</clus>
</clustering>
</event>
<event>
 6    0  0.8610502E+002  0.3259453E+03  0.7546771E-02  0.1072945E+00
         21   -1    0    0  504  501  0.00000000000E+00  0.00000000000E+00  0.35647205192E+03  0.35647205192E+03  0.00000000000E+00 0. -1.
         21   -1    0    0  506  502 -0.00000000000E+00 -0.00000000000E+00 -0.10250282209E+04  0.10250282209E+04  0.00000000000E+00 0.  1.
         21    1    1    2  503  502 -0.17376802608E+03  0.16429603679E+03  0.13139487125E+03  0.27286100268E+03  0.00000000000E+00 0. -1.
         21    1    1    2  504  503 -0.96367833332E+02  0.37181622969E+02  0.72201943139E+02  0.12602520772E+03  0.00000000000E+00 0. -1.
         21    1    1    2  505  501  0.37948794080E+02  0.16074366616E+02  0.12022064025E+02  0.42930481684E+02  0.00000000000E+00 0. -1.
         21    1    1    2  506  505  0.23218706533E+03 -0.21755202637E+03 -0.88417504742E+03  0.93968358076E+03  0.00000000000E+00 0.  1.
<scales pt_clust_3="41.04606" pt_clust_4="41.04606" pt_clust_5="41.21282" pt_clust_6="319.60667"></scales>
<clustering>
<clus scale="   41.213">  1  5  2 -1</clus>
<clus scale="   41.046">  3  4 -1 -1</clus>
<clus scale="  319.607">  2  6  1 -1</clus>
<clus scale="   41.213">  1  3  2 -1</clus>
</clustering>
</event>
<event>
 6    0  0.8610502E+002  0.1117875E+03  0.7546771E-02  0.1257295E+00
         21   -1    0    0  505  501  0.00000000000E+00  0.00000000000E+00  0.55142258985E+03  0.55142258985E+03  0.00000000000E+00 0. -1.
         21   -1    0    0  506  502 -0.00000000000E+00 -0.00000000000E+00 -0.86591125343E+02  0.86591125343E+02  0.00000000000E+00 0.  1.
         21    1    1    2  503  504  0.81762109932E+02 -0.17665831331E+02  0.82262056560E+02  0.11732080023E+03  0.00000000000E+00 0.  1.
         21    1    1    2  504  502  0.64450354600E+02  0.11690008405E+02 -0.29383689241E+02  0.71790707602E+02  0.00000000000E+00 0.  1.
         21    1    1    2  505  503 -0.77433070600E+01  0.34021175001E+02  0.11265552496E+03  0.11793500947E+03  0.00000000000E+00 0.  1.
         21    1    1    2  506  501 -0.13846915747E+03 -0.28045352076E+02  0.29929757222E+03  0.33096719789E+03  0.00000000000E+00 0. -1.
<scales pt_clust_3="14000.00000" pt_clust_4="65.44866" pt_clust_5="34.89125" pt_clust_6="111.78746"></scales>
<clustering>
<clus scale="   34.891">  1  5  2 -1</clus>
<clus scale="   65.449">  2  4  1 -1</clus>
<clus scale="  111.787">  1  6  2 -1</clus>
<clus scale="   34.891">  1  3  2 -1</clus>
</clustering>
</event>
<event>
 6    0  0.8610502E+002  0.1582147E+03  0.7546771E-02  0.1190727E+00
         21   -1    0    0  503  501  0.00000000000E+00  0.00000000000E+00  0.77231294993E+03  0.77231294993E+03  0.00000000000E+00 0.  1.
         21   -1    0    0  506  502 -0.00000000000E+00 -0.00000000000E+00 -0.12525936994E+03  0.12525936994E+03  0.00000000000E+00 0. -1.
         21    1    1    2  503  502  0.16036621596E+02  0.35366245763E+02  0.82530336951E+02  0.91209654581E+02  0.00000000000E+00 0.  1.
         21    1    1    2  504  501 -0.15036810931E+03  0.75861284048E+02  0.38590813257E+03  0.42105889077E+03  0.00000000000E+00 0.  1.
         21    1    1    2  505  504  0.14187613315E+03 -0.42617344063E+02  0.24707853695E+03  0.28808484617E+03  0.00000000000E+00 0. -1.
         21    1    1    2  506  505 -0.75446454339E+01 -0.68610185747E+02 -0.68463426484E+02  0.97218928347E+02  0.00000000000E+00 0. -1.
<scales pt_clust_3="38.83226" pt_clust_4="158.21474" pt_clust_5="14000.00000" pt_clust_6="68.25007"></scales>
<clustering>
<clus scale="   38.832">  1  3  2 -1</clus>
<clus scale="   68.250">  2  6  1 -1</clus>
<clus scale="  158.215">  1  4  2 -1</clus>
<clus scale="   38.832">  1  3  2 -1</clus>
</clustering>
</event>
<event>
 6    0  0.8610502E+002  0.1311643E+03  0.7546771E-02  0.1225738E+00
         21   -1    0    0  504  501  0.00000000000E+00  0.00000000000E+00  0.70093226350E+03  0.70093226350E+03  0.00000000000E+00 0. -1.
         21   -1    0    0  503  502 -0.00000000000E+00 -0.00000000000E+00 -0.21273746663E+03  0.21273746663E+03  0.00000000000E+00 0. -1.
         21    1    1    2  503  501 -0.12437665427E+03  0.30013072110E+02  0.35718637106E+03  0.37941064863E+03  0.00000000000E+00 0. -1.
         21    1    1    2  504  506  0.45465805986E+02 -0.45324701630E+02  0.24606189952E+03  0.25429889203E+03  0.00000000000E+00 0. -1.
         21    1    1    2  505  502  0.36917608247E+02  0.44214536808E+02 -0.18480028359E+03  0.19356905713E+03  0.00000000000E+00 0. -1.
         21    1    1    2  506  505  0.41993240035E+02 -0.28902907288E+02  0.69746809883E+02  0.86391132342E+02  0.00000000000E+00 0. -1.
<scales pt_clust_3="118.44127" pt_clust_4="50.21719" pt_clust_5="57.60065" pt_clust_6="50.21719"></scales>
<clustering>
<clus scale="   50.217">  4  6 -1 -1</clus>
<clus scale="   57.601">  2  5  1 -1</clus>
<clus scale="  118.441">  1  3  2 -1</clus>
<clus scale="  118.441">  1  3  2 -1</clus>
</clustering>
</event>
<event>
 6    0  0.8610502E+002  0.9618152E+02  0.7546771E-02  0.1288537E+00
         21   -1    0    0  502  501  0.00000000000E+00  0.00000000000E+00  0.41582222161E+02  0.41582222161E+02  0.00000000000E+00 0.  1.
         21   -1    0    0  503  502 -0.00000000000E+00 -0.00000000000E+00 -0.11354399812E+04  0.11354399812E+04  0.00000000000E+00 0. -1.
         21    1    1    2  503  504  0.37655377415E+02  0.28697236214E+02 -0.71459586510E+03  0.71616248801E+03  0.00000000000E+00 0. -1.
         21    1    1    2  504  505 -0.26033388200E+02  0.79048516123E+02 -0.30514777830E+03  0.31629348998E+03  0.00000000000E+00 0. -1.
         21    1    1    2  505  506  0.12991278802E+02 -0.88845941069E+02 -0.39549648642E+02  0.98114979881E+02  0.00000000000E+00 0.  1.
         21    1    1    2  506  501 -0.24613268017E+02 -0.18899811268E+02 -0.34564466979E+02  0.46451245473E+02  0.00000000000E+00 0. -1.
<scales pt_clust_3="46.66198" pt_clust_4="96.18152" pt_clust_5="14000.00000" pt_clust_6="31.03250"></scales>
<clustering>
<clus scale="   31.032">  1  6  2 -1</clus>
<clus scale="   46.662">  2  3  1 -1</clus>
<clus scale="   96.182">  2  4  1 -1</clus>
<clus scale="   31.032">  1  3  2 -1</clus>
</clustering>
</event>
<event>
 6    0  0.8610502E+002  0.7247216E+02  0.7546771E-02  0.1351883E+00
         21   -1    0    0  504  501  0.00000000000E+00  0.00000000000E+00  0.41809735470E+02  0.41809735470E+02  0.00000000000E+00 0.  1.
         21   -1    0    0  506  502 -0.00000000000E+00 -0.00000000000E+00 -0.87433951266E+03  0.87433951266E+03  0.00000000000E+00 0.  1.
         21    1    1    2  503  505 -0.84246136726E+02 -0.66103395632E+02 -0.22903280187E+03  0.25283016987E+03  0.00000000000E+00 0.  1.
         21    1    1    2  504  503 -0.12035362578E+02  0.54647339898E+02 -0.70788994096E+01  0.56402947858E+02  0.00000000000E+00 0.  1.
         21    1    1    2  505  502  0.44648613396E+02  0.72882367030E+01 -0.43602567419E+03  0.43836629161E+03  0.00000000000E+00 0.  1.
         21    1    1    2  506  501  0.51632885908E+02  0.41678190317E+01 -0.16039240173E+03  0.16854983879E+03  0.00000000000E+00 0.  1.
<scales pt_clust_3="72.47216" pt_clust_4="55.87284" pt_clust_5="45.23955" pt_clust_6="14000.00000"></scales>
<clustering>
<clus scale="   45.240">  2  5  1 -1</clus>
<clus scale="   55.873">  1  4  2 -1</clus>
<clus scale="   72.472">  1  3  2 -1</clus>
<clus scale="   55.873">  1  3  2 -1</clus>
</clustering>
</event>
<event>
 6    0  0.8610502E+002  0.1254407E+03  0.7546771E-02  0.1234382E+00
         21   -1    0    0  505  501  0.00000000000E+00  0.00000000000E+00  0.74847881091E+03  0.74847881091E+03  0.00000000000E+00 0. -1.
         21   -1    0    0  504  502 -0.00000000000E+00 -0.00000000000E+00 -0.65943716459E+02  0.65943716459E+02  0.00000000000E+00 0.  1.
         21    1    1    2  503  501 -0.45425217904E+02  0.13909615910E+03  0.50295352442E+03  0.52380668154E+03  0.00000000000E+00 0. -1.
         21    1    1    2  504  503  0.21997281914E+02  0.25317966896E+02  0.50856179419E+02  0.60919872328E+02  0.00000000000E+00 0.  1.
         21    1    1    2  505  506  0.18125295253E+02 -0.92719988871E+02  0.12635210385E+03  0.15776684319E+03  0.00000000000E+00 0.  1.
         21    1    1    2  506  502  0.53026407373E+01 -0.71694137126E+02  0.23732867641E+01  0.71929130310E+02  0.00000000000E+00 0.  1.
<scales pt_clust_3="125.44073" pt_clust_4="33.53923" pt_clust_5="14000.00000" pt_clust_6="59.96104"></scales>
<clustering>
<clus scale="   33.539">  2  4  1 -1</clus>
<clus scale="   59.961">  2  6  1 -1</clus>
<clus scale="  125.441">  1  3  2 -1</clus>
<clus scale="  125.441">  1  3  2 -1</clus>
</clustering>
</event>
<event>
 6    0  0.8610502E+002  0.1030775E+03  0.7546771E-02  0.1273954E+00
         21   -1    0    0  504  501  0.00000000000E+00  0.00000000000E+00  0.10716761894E+03  0.10716761894E+03  0.00000000000E+00 0.  1.
         21   -1    0    0  506  502 -0.00000000000E+00 -0.00000000000E+00 -0.85922218086E+03  0.85922218086E+03  0.00000000000E+00 0.  1.
         21    1    1    2  503  502 -0.60514879532E+02  0.84346944682E+02 -0.67075304550E+03  0.67873861374E+03  0.00000000000E+00 0.  1.
         21    1    1    2  504  505  0.75582490065E+01  0.33874131721E+02  0.67420153330E+02  0.75829156681E+02  0.00000000000E+00 0.  1.
         21    1    1    2  505  503  0.64012418799E+02 -0.75065388403E+02 -0.68638711790E+02  0.12018184161E+03  0.00000000000E+00 0.  1.
         21    1    1    2  506  501 -0.11055788273E+02 -0.43155688000E+02 -0.80082957948E+02  0.91640187771E+02  0.00000000000E+00 0.  1.
<scales pt_clust_3="14000.00000" pt_clust_4="34.70712" pt_clust_5="103.07752" pt_clust_6="38.90978"></scales>
<clustering>
<clus scale="   34.707">  1  4  2 -1</clus>
<clus scale="   38.910">  1  6  2 -1</clus>
<clus scale="  103.078">  1  5  2 -1</clus>
<clus scale="   34.707">  1  3  2 -1</clus>
</clustering>
</event>
<event>
 6    0  0.8610502E+002  0.1799621E+03  0.7546771E-02  0.1167840E+00
         21   -1    0    0  503  501  0.00000000000E+00  0.00000000000E+00  0.52751703120E+03  0.52751703120E+03  0.00000000000E+00 0.  1.
         21   -1    0    0  506  502 -0.00000000000E+00 -0.00000000000E+00 -0.44516383923E+03  0.44516383923E+03  0.00000000000E+00 0. -1.
         21    1    1    2  503  505 -0.14007377108E+02  0.42107845392E+02  0.88264732783E+02  0.98792410186E+02  0.00000000000E+00 0.  1.
         21    1    1    2  504  501 -0.17183706775E+03 -0.52424793849E+02  0.36131977058E+03  0.40351990469E+03  0.00000000000E+00 0.  1.
         21    1    1    2  505  502  0.67932261266E+02  0.47927578591E+02 -0.31226172850E+00  0.83138092459E+02  0.00000000000E+00 0. -1.
         21    1    1    2  506  504  0.11791218360E+03 -0.37610630134E+02 -0.36691904967E+03  0.38723046309E+03  0.00000000000E+00 0. -1.
<scales pt_clust_3="44.37654" pt_clust_4="179.96212" pt_clust_5="84.45904" pt_clust_6="14000.00000"></scales>
<clustering>
<clus scale="   44.377">  1  3  2 -1</clus>
<clus scale="   84.459">  2  5  1 -1</clus>
<clus scale="  179.962">  1  4  2 -1</clus>
<clus scale="   44.377">  1  3  2 -1</clus>
</clustering>
</event>
<event>
 6    0  0.8610502E+002  0.9353527E+02  0.7546771E-02  0.1294510E+00
         21   -1    0    0  506  501  0.00000000000E+00  0.00000000000E+00  0.73664218258E+02  0.73664218258E+02  0.00000000000E+00 0. -1.
         21   -1    0    0  504  502 -0.00000000000E+00 -0.00000000000E+00 -0.17504853832E+04  0.17504853832E+04  0.00000000000E+00 0.  1.
         21    1    1    2  503  505  0.51156886826E+02  0.19089602042E+02 -0.24607776528E+02  0.59891423773E+02  0.00000000000E+00 0. -1.
         21    1    1    2  504  501 -0.26002497078E+02 -0.48885220400E+02 -0.34579101441E+02  0.65280999413E+02  0.00000000000E+00 0. -1.
         21    1    1    2  505  502 -0.69579350374E+02 -0.36419046114E+02 -0.16173341979E+04  0.16192398033E+04  0.00000000000E+00 0.  1.
         21    1    1    2  506  503  0.44424960626E+02  0.66214664472E+02 -0.30008910458E+00  0.79737374996E+02  0.00000000000E+00 0. -1.
<scales pt_clust_3="41.06931" pt_clust_4="55.37052" pt_clust_5="79.28275" pt_clust_6="41.06931"></scales>
<clustering>
<clus scale="   41.069">  3  6 -1 -1</clus>
<clus scale="   55.371">  1  4  2 -1</clus>
<clus scale="   79.283">  2  5  1 -1</clus>
<clus scale="   55.371">  1  3  2 -1</clus>
</clustering>
</event>
<event>
 6    0  0.8610502E+002  0.8049779E+02  0.7546771E-02  0.1327645E+00
         21   -1    0    0  505  501  0.00000000000E+00  0.00000000000E+00  0.41434372742E+02  0.41434372742E+02  0.00000000000E+00 0.  1.
         21   -1    0    0  503  502 -0.00000000000E+00 -0.00000000000E+00 -0.61856807300E+03  0.61856807300E+03  0.00000000000E+00 0.  1.
         21    1    1    2  503  501  0.10335644644E+03  0.29062325733E+02 -0.11511574228E+03  0.15741285817E+03  0.00000000000E+00 0.  1.
         21    1    1    2  504  502 -0.32946339643E+02 -0.28349165364E+02 -0.30960103368E+03  0.31263706838E+03  0.00000000000E+00 0.  1.
         21    1    1    2  505  506 -0.49602540896E+02 -0.43087294565E+02 -0.80234749284E+02  0.10370410797E+03  0.00000000000E+00 0.  1.
         21    1    1    2  506  504 -0.20807565904E+02  0.42374134196E+02 -0.72182175026E+02  0.86248411227E+02  0.00000000000E+00 0.  1.
<scales pt_clust_3="80.49779" pt_clust_4="43.46420" pt_clust_5="14000.00000" pt_clust_6="45.69649"></scales>
<clustering>
<clus scale="   43.464">  2  4  1 -1</clus>
<clus scale="   45.696">  2  6  1 -1</clus>
<clus scale="   80.498">  2  3  1 -1</clus>
<clus scale="   80.498">  1  3  2 -1</clus>
</clustering>
</event>
<event>
 6    0  0.8610502E+002  0.1103759E+03  0.7546771E-02  0.1259875E+00
         21   -1    0    0  504  501  0.00000000000E+00  0.00000000000E+00  0.36027081993E+02  0.36027081993E+02  0.00000000000E+00 0.  1.
         21   -1    0    0  503  502 -0.00000000000E+00 -0.00000000000E+00 -0.93358302642E+03  0.93358302642E+03  0.00000000000E+00 0.  1.
         21    1    1    2  503  506  0.66530427299E+02  0.20576924019E+02 -0.22002878315E+03  0.23078642285E+03  0.00000000000E+00 0.  1.
         21    1    1    2  504  505 -0.34165536882E+02 -0.73732647315E+01 -0.20393433197E+03  0.20690785557E+03  0.00000000000E+00 0.  1.
         21    1    1    2  505  502 -0.82018522172E+02  0.64058575220E+02 -0.40260296548E+03  0.41583612981E+03  0.00000000000E+00 0.  1.
         21    1    1    2  506  501  0.49653631755E+02 -0.77262234507E+02 -0.70989863831E+02  0.11607970018E+03  0.00000000000E+00 0.  1.
<scales pt_clust_3="69.63984" pt_clust_4="32.83737" pt_clust_5="32.83737" pt_clust_6="94.72177"></scales>
<clustering>
<clus scale="   32.837">  4  5 -1 -1</clus>
<clus scale="   69.640">  2  3  1 -1</clus>
<clus scale="   94.722">  1  6  2 -1</clus>
<clus scale="   94.722">  1  3  2 -1</clus>
</clustering>
</event>
<event>
 6    0  0.8610502E+002  0.1029333E+03  0.7546771E-02  0.1274246E+00
         21   -1    0    0  506  501  0.00000000000E+00  0.00000000000E+00  0.43746157453E+03  0.43746157453E+03  0.00000000000E+00 0. -1.
         21   -1    0    0  503  502 -0.00000000000E+00 -0.00000000000E+00 -0.94896300189E+02  0.94896300189E+02  0.00000000000E+00 0.  1.
         21    1    1    2  503  505  0.34016537119E+02  0.56243211495E+02 -0.53107878519E+02  0.84503670912E+02  0.00000000000E+00 0.  1.
         21    1    1    2  504  502 -0.37972632133E+02 -0.45450151300E+02  0.17677936077E+03  0.18643652925E+03  0.00000000000E+00 0. -1.
         21    1    1    2  505  501  0.33435647437E+02  0.58267526616E+02  0.91017147881E+02  0.11312457021E+03  0.00000000000E+00 0. -1.
         21    1    1    2  506  504 -0.29479552423E+02 -0.69060586811E+02  0.12787664422E+03  0.14829310435E+03  0.00000000000E+00 0. -1.
<scales pt_clust_3="65.72993" pt_clust_4="35.14632" pt_clust_5="95.02166" pt_clust_6="35.14632"></scales>
<clustering>
<clus scale="   35.146">  4  6 -1 -1</clus>
<clus scale="   65.730">  2  3  1 -1</clus>
<clus scale="   95.022">  1  5  2 -1</clus>
<clus scale="   95.022">  1  3  2 -1</clus>
</clustering>
</event>
<event>
 6    0  0.8610502E+002  0.1425084E+03  0.7546771E-02  0.1209993E+00
         21   -1    0    0  504  501  0.00000000000E+00  0.00000000000E+00  0.42802822092E+03  0.42802822092E+03  0.00000000000E+00 0. -1.
         21   -1    0    0  506  502 -0.00000000000E+00 -0.00000000000E+00 -0.31978019925E+03  0.31978019925E+03  0.00000000000E+00 0. -1.
         21    1    1    2  503  501  0.31963967020E+02  0.39542257010E+02  0.14616843330E+02  0.52904984510E+02  0.00000000000E+00 0. -1.
         21    1    1    2  504  505  0.92062083166E+02 -0.83860015768E+02  0.27617647458E+03  0.30295440996E+03  0.00000000000E+00 0. -1.
         21    1    1    2  505  502  0.58271148003E+02 -0.71252680842E+01 -0.19350663812E+03  0.20221551654E+03  0.00000000000E+00 0. -1.
         21    1    1    2  506  503 -0.18229719819E+03  0.51443026843E+02  0.10961341882E+02  0.18973350915E+03  0.00000000000E+00 0. -1.
<scales pt_clust_3="50.84570" pt_clust_4="14000.00000" pt_clust_5="59.00449" pt_clust_6="142.50843"></scales>
<clustering>
<clus scale="   50.846">  1  3  2 -1</clus>
<clus scale="   59.004">  2  5  1 -1</clus>
<clus scale="  142.508">  2  6  1 -1</clus>
<clus scale="   50.846">  1  3  2 -1</clus>
</clustering>
</event>
<event>
 6    0  0.8610502E+002  0.8098082E+02  0.7546771E-02  0.1326291E+00
         21   -1    0    0  503  501  0.00000000000E+00  0.00000000000E+00  0.53737452971E+03  0.53737452971E+03  0.00000000000E+00 0.  1.
         21   -1    0    0  505  502 -0.00000000000E+00 -0.00000000000E+00 -0.14305315259E+03  0.14305315259E+03  0.00000000000E+00 0. -1.
         21    1    1    2  503  502 -0.17903596481E+02  0.80308833880E+02  0.44950873522E+03  0.45697718828E+03  0.00000000000E+00 0.  1.
         21    1    1    2  504  506  0.64707442896E+02 -0.13246311422E+02 -0.80341231900E+01  0.66536193668E+02  0.00000000000E+00 0. -1.
         21    1    1    2  505  504 -0.61006581025E+02  0.21457073746E+01 -0.59440601991E+02  0.85203240276E+02  0.00000000000E+00 0. -1.
         21    1    1    2  506  501  0.14202734610E+02 -0.69208229833E+02  0.12287367080E+02  0.71711060073E+02  0.00000000000E+00 0. -1.
<scales pt_clust_3="14000.00000" pt_clust_4="34.73017" pt_clust_5="61.04430" pt_clust_6="80.98082"></scales>
<clustering>
<clus scale="   61.044">  2  5  1 -1</clus>
<clus scale="   34.730">  2  4  1 -1</clus>
<clus scale="   80.981">  2  6  1 -1</clus>
<clus scale="   80.981">  1  3  2 -1</clus>
</clustering>
</event>
<event>
 6    0  0.8610502E+002  0.6005005E+02  0.7546771E-02  0.1397622E+00
         21   -1    0    0  505  501  0.00000000000E+00  0.00000000000E+00  0.45159401596E+03  0.45159401596E+03  0.00000000000E+00 0. -1.
         21   -1    0    0  506  502 -0.00000000000E+00 -0.00000000000E+00 -0.15456727859E+03  0.15456727859E+03  0.00000000000E+00 0.  1.
         21    1    1    2  503  502  0.85112630402E+02 -0.51210388477E+02  0.11576966485E+03  0.15254271219E+03  0.00000000000E+00 0. -1.
         21    1    1    2  504  501 -0.55117098705E+02  0.10625314717E+02  0.59892387068E+02  0.82084650887E+02  0.00000000000E+00 0. -1.
         21    1    1    2  505  503  0.28156192648E+02  0.51669588507E+02  0.23561812443E+03  0.24285472637E+03  0.00000000000E+00 0. -1.
         21    1    1    2  506  504 -0.58151724345E+02 -0.11084514747E+02 -0.11425343898E+03  0.12867920512E+03  0.00000000000E+00 0.  1.
<scales pt_clust_3="60.05005" pt_clust_4="56.13192" pt_clust_5="58.70800" pt_clust_6="14000.00000"></scales>
<clustering>
<clus scale="   56.132">  1  4  2 -1</clus>
<clus scale="   58.708">  1  5  2 -1</clus>
<clus scale="   60.050">  1  3  2 -1</clus>
<clus scale="   56.132">  1  3  2 -1</clus>
</clustering>
</event>
<event>
 6    0  0.8610502E+002  0.2647266E+03  0.7546771E-02  0.1104336E+00
         21   -1    0    0  506  501  0.00000000000E+00  0.00000000000E+00  0.55155403444E+03  0.55155403444E+03  0.00000000000E+00 0. -1.
         21   -1    0    0  505  502 -0.00000000000E+00 -0.00000000000E+00 -0.69717051697E+03  0.69717051697E+03  0.00000000000E+00 0. -1.
         21    1    1    2  503  504  0.10353779716E+03  0.17944080299E+02 -0.52108366022E+02  0.11729171867E+03  0.00000000000E+00 0. -1.
         21    1    1    2  504  502 -0.15500600710E+02  0.27805191163E+02 -0.15736976087E+03  0.16055727612E+03  0.00000000000E+00 0. -1.
         21    1    1    2  505  501  0.15449331504E+03  0.79329915289E+02 -0.39810191702E+03  0.43433461316E+03  0.00000000000E+00 0. -1.
         21    1    1    2  506  503 -0.24253051149E+03 -0.12507918675E+03  0.46196356139E+03  0.53654094346E+03  0.00000000000E+00 0. -1.
<scales pt_clust_3="103.53291" pt_clust_4="31.83390" pt_clust_5="264.72664" pt_clust_6="14000.00000"></scales>
<clustering>
<clus scale="   31.834">  2  4  1 -1</clus>
<clus scale="  103.533">  2  3  1 -1</clus>
<clus scale="  264.727">  2  5  1 -1</clus>
<clus scale="  264.727">  1  3  2 -1</clus>
</clustering>
</event>
<event>
 6    0  0.8610502E+002  0.7458350E+02  0.7546771E-02  0.1345166E+00
         21   -1    0    0  504  501  0.00000000000E+00  0.00000000000E+00  0.52031781879E+02  0.52031781879E+02  0.00000000000E+00 0. -1.
         21   -1    0    0  503  502 -0.00000000000E+00 -0.00000000000E+00 -0.69916144666E+03  0.69916144666E+03  0.00000000000E+00 0. -1.
         21    1    1    2  503  505  0.14305518037E+02  0.67339098141E+02 -0.46829478139E+03  0.47332779790E+03  0.00000000000E+00 0. -1.
         21    1    1    2  504  506 -0.19697064411E+02 -0.57242503761E+02 -0.41977557576E+02  0.73666776251E+02  0.00000000000E+00 0. -1.
         21    1    1    2  505  501  0.58568920928E+02 -0.55886467923E+02 -0.65708316974E+02  0.10426504071E+03  0.00000000000E+00 0. -1.
         21    1    1    2  506  502 -0.53177374554E+02  0.45789873542E+02 -0.71149008841E+02  0.99933613677E+02  0.00000000000E+00 0. -1.
<scales pt_clust_3="64.66542" pt_clust_4="60.53659" pt_clust_5="14000.00000" pt_clust_6="74.58350"></scales>
<clustering>
<clus scale="   60.537">  1  4  2 -1</clus>
<clus scale="   64.665">  2  3  1 -1</clus>
<clus scale="   74.583">  1  6  2 -1</clus>
<clus scale="   60.537">  1  3  2 -1</clus>
</clustering>
</event>
<event>
 6    0  0.8610502E+002  0.2713054E+03  0.7546771E-02  0.1100535E+00
         21   -1    0    0  503  501  0.00000000000E+00  0.00000000000E+00  0.30530483809E+03  0.30530483809E+03  0.00000000000E+00 0. -1.
         21   -1    0    0  506  502 -0.00000000000E+00 -0.00000000000E+00 -0.97194293508E+03  0.97194293508E+03  0.00000000000E+00 0. -1.
         21    1    1    2  503  502  0.42872286893E+02 -0.41515312859E+02  0.83065069172E+02  0.10228078951E+03  0.00000000000E+00 0. -1.
         21    1    1    2  504  505  0.21018601742E+03 -0.55136858377E+02 -0.28995302484E+03  0.36234098813E+03  0.00000000000E+00 0. -1.
         21    1    1    2  505  501 -0.30413541219E+03  0.13645005759E+03  0.14807846624E+02  0.33367085502E+03  0.00000000000E+00 0. -1.
         21    1    1    2  506  504  0.51077107882E+02 -0.39797886350E+02 -0.47455798794E+03  0.47895514051E+03  0.00000000000E+00 0. -1.
<scales pt_clust_3="59.67876" pt_clust_4="271.30543" pt_clust_5="14000.00000" pt_clust_6="65.36494"></scales>
<clustering>
<clus scale="   59.679">  1  3  2 -1</clus>
<clus scale="   65.365">  2  6  1 -1</clus>
<clus scale="  271.305">  2  4  1 -1</clus>
<clus scale="   59.679">  1  3  2 -1</clus>
</clustering>
</event>
<event>
 6    0  0.8610502E+002  0.8570521E+02  0.7546771E-02  0.1313599E+00
         21   -1    0    0  504  501  0.00000000000E+00  0.00000000000E+00  0.59288577400E+03  0.59288577400E+03  0.00000000000E+00 0.  1.
         21   -1    0    0  506  502 -0.00000000000E+00 -0.00000000000E+00 -0.18853097839E+03  0.18853097839E+03  0.00000000000E+00 0.  1.
         21    1    1    2  503  505 -0.26545404774E+02 -0.54558085444E+02 -0.44252588053E+02  0.75096835827E+02  0.00000000000E+00 0.  1.
         21    1    1    2  504  502 -0.12992213762E+02  0.56685856340E+02  0.16122644461E+02  0.60349180540E+02  0.00000000000E+00 0.  1.
         21    1    1    2  505  501  0.88233864361E+02 -0.18550384646E+02  0.52899869019E+03  0.53662738079E+03  0.00000000000E+00 0.  1.
         21    1    1    2  506  503 -0.48696245825E+02  0.16422613750E+02 -0.96513950987E+02  0.10934335524E+03  0.00000000000E+00 0.  1.
<scales pt_clust_3="85.70521" pt_clust_4="66.07694" pt_clust_5="14000.00000" pt_clust_6="51.39092"></scales>
<clustering>
<clus scale="   51.391">  2  6  1 -1</clus>
<clus scale="   66.077">  2  4  1 -1</clus>
<clus scale="   85.705">  2  3  1 -1</clus>
<clus scale="   85.705">  1  3  2 -1</clus>
</clustering>
</event>
<event>
 6    0  0.8610502E+002  0.9086044E+02  0.7546771E-02  0.1300781E+00
         21   -1    0    0  506  501  0.00000000000E+00  0.00000000000E+00  0.13854348681E+04  0.13854348681E+04  0.00000000000E+00 0. -1.
         21   -1    0    0  505  502 -0.00000000000E+00 -0.00000000000E+00 -0.22643581993E+03  0.22643581993E+03  0.00000000000E+00 0.  1.
         21    1    1    2  503  502 -0.62881932511E+02 -0.97910151688E+02  0.18310260748E+02  0.11779558943E+03  0.00000000000E+00 0.  1.
         21    1    1    2  504  501  0.61202435449E+02  0.76168367530E+02 -0.70304940260E+02  0.12037500962E+03  0.00000000000E+00 0.  1.
         21    1    1    2  505  504 -0.45940853252E+02 -0.19951414726E+01 -0.74260419845E+02  0.87345020136E+02  0.00000000000E+00 0.  1.
         21    1    1    2  506  503  0.47620350314E+02  0.23736925630E+02  0.12852541475E+04  0.12863550689E+04  0.00000000000E+00 0. -1.
<scales pt_clust_3="90.86044" pt_clust_4="14000.00000" pt_clust_5="45.98416" pt_clust_6="53.04973"></scales>
<clustering>
<clus scale="   45.984">  2  5  1 -1</clus>
<clus scale="   53.050">  1  6  2 -1</clus>
<clus scale="   90.860">  1  3  2 -1</clus>
<clus scale="   53.050">  1  3  2 -1</clus>
</clustering>
</event>
<event>
 6    0  0.8610502E+002  0.1616860E+03  0.7546771E-02  0.1186806E+00
         21   -1    0    0  504  501  0.00000000000E+00  0.00000000000E+00  0.67985485951E+03  0.67985485951E+03  0.00000000000E+00 0.  1.
         21   -1    0    0  505  502 -0.00000000000E+00 -0.00000000000E+00 -0.87712813338E+03  0.87712813338E+03  0.00000000000E+00 0.  1.
         21    1    1    2  503  506  0.52816052529E+02  0.61020262326E+02 -0.12467745039E+03  0.14851758972E+03  0.00000000000E+00 0.  1.
         21    1    1    2  504  503  0.88370545161E+02  0.85693391211E+01 -0.96814652492E+02  0.13136157643E+03  0.00000000000E+00 0.  1.
         21    1    1    2  505  501 -0.32329649458E+02  0.26768610826E+02  0.64153184155E+03  0.64290346747E+03  0.00000000000E+00 0.  1.
         21    1    1    2  506  502 -0.10885694823E+03 -0.96358212273E+02 -0.61731301254E+03  0.63420035927E+03  0.00000000000E+00 0.  1.
<scales pt_clust_3="64.94198" pt_clust_4="64.94198" pt_clust_5="41.97338" pt_clust_6="147.12289"></scales>
<clustering>
<clus scale="   41.973">  1  5  2 -1</clus>
<clus scale="   64.942">  3  4 -1 -1</clus>
<clus scale="  147.123">  2  6  1 -1</clus>
<clus scale="   41.973">  1  3  2 -1</clus>
</clustering>
</event>
<event>
 6    0  0.8610502E+002  0.1669436E+03  0.7546771E-02  0.1181073E+00
         21   -1    0    0  505  501  0.00000000000E+00  0.00000000000E+00  0.67512139679E+03  0.67512139679E+03  0.00000000000E+00 0. -1.
         21   -1    0    0  504  502 -0.00000000000E+00 -0.00000000000E+00 -0.49471296273E+03  0.49471296273E+03  0.00000000000E+00 0.  1.
         21    1    1    2  503  502 -0.35944393447E+02  0.54959086594E+02 -0.80109419551E+02  0.10358580849E+03  0.00000000000E+00 0. -1.
         21    1    1    2  504  506 -0.10011274886E+03  0.50802901843E+02 -0.37232648998E+03  0.38888367472E+03  0.00000000000E+00 0.  1.
         21    1    1    2  505  503  0.82790317001E+02 -0.10847469699E+03  0.59865792703E+03  0.61401328167E+03  0.00000000000E+00 0. -1.
         21    1    1    2  506  501  0.53266825305E+02  0.27127085520E+01  0.34186416572E+02  0.63351594643E+02  0.00000000000E+00 0. -1.
<scales pt_clust_3="65.17150" pt_clust_4="166.94360" pt_clust_5="14000.00000" pt_clust_6="53.33586"></scales>
<clustering>
<clus scale="   53.336">  1  6  2 -1</clus>
<clus scale="   65.172">  2  3  1 -1</clus>
<clus scale="  166.944">  2  4  1 -1</clus>
<clus scale="   53.336">  1  3  2 -1</clus>
</clustering>
</event>
<event>
 6    0  0.8610502E+002  0.1491698E+03  0.7546771E-02  0.1201497E+00
         21   -1    0    0  506  501  0.00000000000E+00  0.00000000000E+00  0.17380807765E+03  0.17380807765E+03  0.00000000000E+00 0.  1.
         21   -1    0    0  504  502 -0.00000000000E+00 -0.00000000000E+00 -0.58075560018E+03  0.58075560018E+03  0.00000000000E+00 0.  1.
         21    1    1    2  503  502 -0.61972664437E+02 -0.13543200515E+03 -0.29209639852E+03  0.32787611256E+03  0.00000000000E+00 0.  1.
         21    1    1    2  504  505  0.15540505605E+03  0.78823129000E+02 -0.17481098951E+03  0.24682524013E+03  0.00000000000E+00 0.  1.
         21    1    1    2  505  501 -0.57110816590E+01  0.51902193001E+02  0.74340233183E+02  0.90845607279E+02  0.00000000000E+00 0.  1.
         21    1    1    2  506  503 -0.87721309950E+02  0.47066831497E+01 -0.14380367677E+02  0.89016717869E+02  0.00000000000E+00 0.  1.
<scales pt_clust_3="149.16983" pt_clust_4="14000.00000" pt_clust_5="52.21546" pt_clust_6="93.71954"></scales>
<clustering>
<clus scale="   52.215">  1  5  2 -1</clus>
<clus scale="   93.720">  1  6  2 -1</clus>
<clus scale="  149.170">  2  3  1 -1</clus>
<clus scale="   52.215">  1  3  2 -1</clus>
</clustering>
</event>
<event>
 6    0  0.8610502E+002  0.1330210E+03  0.7546771E-02  0.1223041E+00
         21   -1    0    0  503  501  0.00000000000E+00  0.00000000000E+00  0.10143610403E+03  0.10143610403E+03  0.00000000000E+00 0. -1.
         21   -1    0    0  505  502 -0.00000000000E+00 -0.00000000000E+00 -0.22587580138E+03  0.22587580138E+03  0.00000000000E+00 0.  1.
         21    1    1    2  503  506  0.46282754776E+02 -0.33410233474E+02  0.91565110055E+01  0.57811580018E+02  0.00000000000E+00 0. -1.
         21    1    1    2  504  501 -0.10204570197E+02  0.61817781941E+02 -0.55912776453E+02  0.83975055747E+02  0.00000000000E+00 0.  1.
         21    1    1    2  505  504 -0.61360481466E+02  0.30229245639E+02 -0.97108280798E+02  0.11878103459E+03  0.00000000000E+00 0.  1.
         21    1    1    2  506  502  0.25282296887E+02 -0.58636794106E+02  0.19424848894E+02  0.66744235058E+02  0.00000000000E+00 0. -1.
<scales pt_clust_3="31.40133" pt_clust_4="61.28459" pt_clust_5="61.28459" pt_clust_6="121.23224"></scales>
<clustering>
<clus scale="   31.401">  3  6 -1 -1</clus>
<clus scale="   61.285">  4  5 -1 -1</clus>
<clus scale="  121.232">  1  3  2 -1</clus>
<clus scale="  121.232">  1  3  2 -1</clus>
</clustering>
</event>
<event>
 6    0  0.8610502E+002  0.2611792E+03  0.7546771E-02  0.1106437E+00
         21   -1    0    0  503  501  0.00000000000E+00  0.00000000000E+00  0.92443685954E+03  0.92443685954E+03  0.00000000000E+00 0.  1.
         21   -1    0    0  505  502 -0.00000000000E+00 -0.00000000000E+00 -0.32473798976E+03  0.32473798976E+03  0.00000000000E+00 0. -1.
         21    1    1    2  503  506  0.61008974572E+02  0.14760981649E+03  0.38984407995E+03  0.42129462324E+03  0.00000000000E+00 0.  1.
         21    1    1    2  504  501 -0.64077046114E+02 -0.80915367636E+02  0.14456230195E+03  0.17762720429E+03  0.00000000000E+00 0.  1.
         21    1    1    2  505  504 -0.11922846878E+03 -0.20457044947E+03 -0.21165466220E+03  0.31758808635E+03  0.00000000000E+00 0. -1.
         21    1    1    2  506  502  0.12229654032E+03  0.13787600062E+03  0.27694715008E+03  0.33266493542E+03  0.00000000000E+00 0.  1.
<scales pt_clust_3="87.03815" pt_clust_4="103.21417" pt_clust_5="243.87118" pt_clust_6="87.03815"></scales>
<clustering>
<clus scale="   87.038">  3  6 -1 -1</clus>
<clus scale="  103.214">  1  4  2 -1</clus>
<clus scale="  243.871">  2  5  1 -1</clus>
<clus scale="  103.214">  1  3  2 -1</clus>
</clustering>
</event>
<event>
 6    0  0.8610502E+002  0.1036731E+03  0.7546771E-02  0.1272756E+00
         21   -1    0    0  503  501  0.00000000000E+00  0.00000000000E+00  0.11667477901E+04  0.11667477901E+04  0.00000000000E+00 0.  1.
         21   -1    0    0  504  502 -0.00000000000E+00 -0.00000000000E+00 -0.70007543757E+02  0.70007543757E+02  0.00000000000E+00 0. -1.
         21    1    1    2  503  502  0.49901492402E+02  0.68482797563E+02  0.79254908094E+03  0.79706593090E+03  0.00000000000E+00 0.  1.
         21    1    1    2  504  505 -0.63331467903E+02  0.14553280675E+02  0.27396453033E+02  0.70521191453E+02  0.00000000000E+00 0. -1.
         21    1    1    2  505  506 -0.41238082193E+01  0.72495904537E+02  0.33721814740E+02  0.80061368700E+02  0.00000000000E+00 0. -1.
         21    1    1    2  506  501  0.17553783721E+02 -0.15553198277E+03  0.24307289759E+03  0.28910684276E+03  0.00000000000E+00 0.  1.
<scales pt_clust_3="83.59124" pt_clust_4="64.98210" pt_clust_5="14000.00000" pt_clust_6="103.67315"></scales>
<clustering>
<clus scale="   64.982">  2  4  1 -1</clus>
<clus scale="   83.591">  1  3  2 -1</clus>
<clus scale="  103.673">  1  6  2 -1</clus>
<clus scale="   83.591">  1  3  2 -1</clus>
</clustering>
</event>
<event>
 6    0  0.8610502E+002  0.1642997E+03  0.7546771E-02  0.1183926E+00
         21   -1    0    0  503  501  0.00000000000E+00  0.00000000000E+00  0.33856688155E+03  0.33856688155E+03  0.00000000000E+00 0.  1.
         21   -1    0    0  506  502 -0.00000000000E+00 -0.00000000000E+00 -0.96360209917E+03  0.96360209917E+03  0.00000000000E+00 0.  1.
         21    1    1    2  503  502  0.13565344500E+03 -0.42985994824E+02  0.15932499564E+03  0.21362141074E+03  0.00000000000E+00 0.  1.
         21    1    1    2  504  505 -0.11329949488E+03  0.96749001821E+02 -0.17714257690E+03  0.23146627712E+03  0.00000000000E+00 0.  1.
         21    1    1    2  505  501  0.26325981817E+02 -0.21338613598E+02  0.12144015228E+03  0.12607975387E+03  0.00000000000E+00 0.  1.
         21    1    1    2  506  504 -0.48679931944E+02 -0.32424393399E+02 -0.72865778865E+03  0.73100153900E+03  0.00000000000E+00 0.  1.
<scales pt_clust_3="164.29970" pt_clust_4="14000.00000" pt_clust_5="33.88796" pt_clust_6="58.43524"></scales>
<clustering>
<clus scale="   33.888">  1  5  2 -1</clus>
<clus scale="   58.435">  2  6  1 -1</clus>
<clus scale="  164.300">  1  3  2 -1</clus>
<clus scale="   33.888">  1  3  2 -1</clus>
</clustering>
</event>
<event>
 6    0  0.8610502E+002  0.9499064E+02  0.7546771E-02  0.1291197E+00
         21   -1    0    0  505  501  0.00000000000E+00  0.00000000000E+00  0.13922160310E+04  0.13922160310E+04  0.00000000000E+00 0. -1.
         21   -1    0    0  503  502 -0.00000000000E+00 -0.00000000000E+00 -0.16325948335E+02  0.16325948335E+02  0.00000000000E+00 0. -1.
         21    1    1    2  503  504  0.31779095543E+02  0.57930837561E+02  0.12685748389E+03  0.14303396126E+03  0.00000000000E+00 0. -1.
         21    1    1    2  504  501  0.68106601094E+02  0.19985335433E+02  0.47562038255E+03  0.48088737875E+03  0.00000000000E+00 0. -1.
         21    1    1    2  505  506 -0.48715640542E+02 -0.59651775393E+02  0.41023785833E+03  0.41740465779E+03  0.00000000000E+00 0. -1.
         21    1    1    2  506  502 -0.51170056095E+02 -0.18264397601E+02  0.36317435787E+03  0.36721598151E+03  0.00000000000E+00 0. -1.
<scales pt_clust_3="66.07490" pt_clust_4="87.22507" pt_clust_5="31.59478" pt_clust_6="31.59478"></scales>
<clustering>
<clus scale="   31.595">  5  6 -1 -1</clus>
<clus scale="   66.075">  2  3  1 -1</clus>
<clus scale="   87.225">  1  4  2 -1</clus>
<clus scale="   87.225">  1  3  2 -1</clus>
</clustering>
</event>
<event>
 6    0  0.8610502E+002  0.1401508E+03  0.7546771E-02  0.1213126E+00
         21   -1    0    0  506  501  0.00000000000E+00  0.00000000000E+00  0.56890489735E+03  0.56890489735E+03  0.00000000000E+00 0.  1.
         21   -1    0    0  503  502 -0.00000000000E+00 -0.00000000000E+00 -0.98692484976E+02  0.98692484976E+02  0.00000000000E+00 0. -1.
         21    1    1    2  503  504 -0.19840566776E+02 -0.57266350068E+02  0.72673432272E+02  0.94628276420E+02  0.00000000000E+00 0.  1.
         21    1    1    2  504  501  0.34916801861E+02 -0.45881543493E+02  0.12457659236E+03  0.13727208911E+03  0.00000000000E+00 0. -1.
         21    1    1    2  505  502  0.70031160926E+01 -0.37684349854E+02 -0.61305504348E+02  0.72301581741E+02  0.00000000000E+00 0. -1.
         21    1    1    2  506  505 -0.22079351178E+02  0.14083224341E+03  0.33426789209E+03  0.36339543505E+03  0.00000000000E+00 0.  1.
<scales pt_clust_3="59.76223" pt_clust_4="59.76223" pt_clust_5="38.32954" pt_clust_6="125.05525"></scales>
<clustering>
<clus scale="   38.330">  2  5  1 -1</clus>
<clus scale="   59.762">  3  4 -1 -1</clus>
<clus scale="  125.055">  1  6  2 -1</clus>
<clus scale="  125.055">  1  3  2 -1</clus>
</clustering>
</event>
<event>
 6    0  0.8610502E+002  0.1218651E+03  0.7546771E-02  0.1240052E+00
         21   -1    0    0  503  501  0.00000000000E+00  0.00000000000E+00  0.18063487566E+03  0.18063487566E+03  0.00000000000E+00 0. -1.
         21   -1    0    0  505  502 -0.00000000000E+00 -0.00000000000E+00 -0.66959865368E+03  0.66959865368E+03  0.00000000000E+00 0. -1.
         21    1    1    2  503  506  0.96833478420E+01 -0.70485264581E+02  0.72108175317E+02  0.10129920383E+03  0.00000000000E+00 0. -1.
         21    1    1    2  504  502 -0.25151091814E+01  0.77987461105E+02 -0.21041310003E+02  0.80815262113E+02  0.00000000000E+00 0.  1.
         21    1    1    2  505  501 -0.54760002098E+01  0.68838980195E+02 -0.57850633925E+03  0.58261340212E+03  0.00000000000E+00 0. -1.
         21    1    1    2  506  504 -0.16922384508E+01 -0.76341176719E+02  0.38475695919E+02  0.85505661276E+02  0.00000000000E+00 0. -1.
<scales pt_clust_3="31.20962" pt_clust_4="117.49768" pt_clust_5="69.05644" pt_clust_6="31.20962"></scales>
<clustering>
<clus scale="   31.210">  3  6 -1 -1</clus>
<clus scale="   69.056">  2  5  1 -1</clus>
<clus scale="  117.498">  2  4  1 -1</clus>
<clus scale="  121.865">  1  3  2 -1</clus>
</clustering>
</event>
<event>
 6    0  0.8610502E+002  0.1491067E+03  0.7546771E-02  0.1201575E+00
         21   -1    0    0  504  501  0.00000000000E+00  0.00000000000E+00  0.18951003496E+03  0.18951003496E+03  0.00000000000E+00 0.  1.
         21   -1    0    0  506  502 -0.00000000000E+00 -0.00000000000E+00 -0.72336054052E+03  0.72336054052E+03  0.00000000000E+00 0.  1.
         21    1    1    2  503  505 -0.56339061044E+02 -0.14641628720E+02 -0.23668845559E+02  0.62838533886E+02  0.00000000000E+00 0.  1.
         21    1    1    2  504  503 -0.46939137687E+02  0.23676869552E+02  0.44440754290E+01  0.52760085339E+02  0.00000000000E+00 0.  1.
         21    1    1    2  505  502 -0.67439087551E+02 -0.48228198784E+02 -0.59769203260E+03  0.60341507731E+03  0.00000000000E+00 0.  1.
         21    1    1    2  506  501  0.17071728628E+03  0.39192957953E+02  0.83066297179E+02  0.19385687895E+03  0.00000000000E+00 0.  1.
<scales pt_clust_3="45.03274" pt_clust_4="45.03274" pt_clust_5="82.90953" pt_clust_6="141.37673"></scales>
<clustering>
<clus scale="   45.033">  3  4 -1 -1</clus>
<clus scale="   82.910">  2  5  1 -1</clus>
<clus scale="  141.377">  1  6  2 -1</clus>
<clus scale="  141.377">  1  3  2 -1</clus>
</clustering>
</event>
<event>
 6    0  0.8610502E+002  0.1359589E+03  0.7546771E-02  0.1218872E+00
         21   -1    0    0  503  501  0.00000000000E+00  0.00000000000E+00  0.65233218631E+03  0.65233218631E+03  0.00000000000E+00 0.  1.
         21   -1    0    0  506  502 -0.00000000000E+00 -0.00000000000E+00 -0.22045327572E+03  0.22045327572E+03  0.00000000000E+00 0.  1.
         21    1    1    2  503  505  0.33340712423E+02  0.22111309122E+02  0.72410732307E+02  0.82727427429E+02  0.00000000000E+00 0.  1.
         21    1    1    2  504  501  0.22766558662E+02  0.44970001148E+02  0.37088385282E+03  0.37429326668E+03  0.00000000000E+00 0.  1.
         21    1    1    2  505  502 -0.32284564800E+02 -0.11684816574E+03 -0.19192882661E+03  0.22700762420E+03  0.00000000000E+00 0.  1.
         21    1    1    2  506  504 -0.23822706285E+02  0.49766855469E+02  0.18051315207E+03  0.18875714373E+03  0.00000000000E+00 0.  1.
<scales pt_clust_3="40.00641" pt_clust_4="56.21648" pt_clust_5="120.30751" pt_clust_6="56.21648"></scales>
<clustering>
<clus scale="   40.006">  1  3  2 -1</clus>
<clus scale="   56.216">  4  6 -1 -1</clus>
<clus scale="  120.308">  2  5  1 -1</clus>
<clus scale="   40.006">  1  3  2 -1</clus>
</clustering>
</event>
<event>
 6    0  0.8610502E+002  0.2003490E+03  0.7546771E-02  0.1149445E+00
         21   -1    0    0  505  501  0.00000000000E+00  0.00000000000E+00  0.16674749957E+04  0.16674749957E+04  0.00000000000E+00 0. -1.
         21   -1    0    0  506  502 -0.00000000000E+00 -0.00000000000E+00 -0.14578477567E+04  0.14578477567E+04  0.00000000000E+00 0.  1.
         21    1    1    2  503  504 -0.14856160353E+01  0.72401624210E+02 -0.18915858691E+03  0.20254671867E+03  0.00000000000E+00 0.  1.
         21    1    1    2  504  502 -0.68912521116E+02  0.82563480471E+02 -0.37830759781E+03  0.39329671043E+03  0.00000000000E+00 0.  1.
         21    1    1    2  505  503 -0.80413978780E+02 -0.32127089362E+01  0.16392242452E+04  0.16411986034E+04  0.00000000000E+00 0. -1.
         21    1    1    2  506  501  0.15081211593E+03 -0.15175239574E+03 -0.86213082151E+03  0.88828071988E+03  0.00000000000E+00 0.  1.
<scales pt_clust_3="52.16693" pt_clust_4="52.16693" pt_clust_5="80.47813" pt_clust_6="189.99550"></scales>
<clustering>
<clus scale="   52.167">  3  4 -1 -1</clus>
<clus scale="   80.478">  1  5  2 -1</clus>
<clus scale="  189.995">  2  6  1 -1</clus>
<clus scale="   80.478">  1  3  2 -1</clus>
</clustering>
</event>
<event>
 6    0  0.8610502E+002  0.9387337E+02  0.7546771E-02  0.1293734E+00
         21   -1    0    0  506  501  0.00000000000E+00  0.00000000000E+00  0.85239940882E+02  0.85239940882E+02  0.00000000000E+00 0.  1.
         21   -1    0    0  503  502 -0.00000000000E+00 -0.00000000000E+00 -0.12410950578E+04  0.12410950578E+04  0.00000000000E+00 0.  1.
         21    1    1    2  503  501  0.52039989200E+02 -0.78369857260E+02  0.11246889095E+02  0.94744327098E+02  0.00000000000E+00 0.  1.
         21    1    1    2  504  505  0.21467887718E+02  0.62188126624E+02 -0.56663982187E+02  0.86827646366E+02  0.00000000000E+00 0.  1.
         21    1    1    2  505  502  0.22163251719E+02 -0.28070341880E+02 -0.96222028822E+03  0.96288474745E+03  0.00000000000E+00 0.  1.
         21    1    1    2  506  504 -0.95671128637E+02  0.44252072515E+02 -0.14821773565E+03  0.18187827781E+03  0.00000000000E+00 0.  1.
<scales pt_clust_3="93.87337" pt_clust_4="61.31017" pt_clust_5="35.76526" pt_clust_6="14000.00000"></scales>
<clustering>
<clus scale="   35.765">  2  5  1 -1</clus>
<clus scale="   61.310">  2  4  1 -1</clus>
<clus scale="   93.873">  1  3  2 -1</clus>
<clus scale="   93.873">  1  3  2 -1</clus>
</clustering>
</event>
<event>
 6    0  0.8610502E+002  0.1824056E+03  0.7546771E-02  0.1165495E+00
         21   -1    0    0  505  501  0.00000000000E+00  0.00000000000E+00  0.50508896145E+03  0.50508896145E+03  0.00000000000E+00 0.  1.
         21   -1    0    0  504  502 -0.00000000000E+00 -0.00000000000E+00 -0.39981574001E+03  0.39981574001E+03  0.00000000000E+00 0.  1.
         21    1    1    2  503  502 -0.75196108329E+02 -0.71798961818E+02 -0.62153995755E+02  0.12113077567E+03  0.00000000000E+00 0.  1.
         21    1    1    2  504  501 -0.17910447291E+00  0.47312071667E+02 -0.18957189321E+03  0.19538671116E+03  0.00000000000E+00 0.  1.
         21    1    1    2  505  506  0.10708170656E+03  0.13283454548E+03  0.42404738027E+03  0.45708608496E+03  0.00000000000E+00 0.  1.
         21    1    1    2  506  503 -0.31706493756E+02 -0.10834765533E+03 -0.67048269857E+02  0.13130112967E+03  0.00000000000E+00 0.  1.
<scales pt_clust_3="55.93168" pt_clust_4="47.31241" pt_clust_5="173.56300" pt_clust_6="55.93168"></scales>
<clustering>
<clus scale="   47.312">  2  4  1 -1</clus>
<clus scale="   55.932">  3  6 -1 -1</clus>
<clus scale="  173.563">  1  5  2 -1</clus>
<clus scale="  173.563">  1  3  2 -1</clus>
</clustering>
</event>
<event>
 6    0  0.8610502E+002  0.1159757E+03  0.7546771E-02  0.1249887E+00
         21   -1    0    0  503  501  0.00000000000E+00  0.00000000000E+00  0.15161807297E+04  0.15161807297E+04  0.00000000000E+00 0. -1.
         21   -1    0    0  504  502 -0.00000000000E+00 -0.00000000000E+00 -0.16881011400E+02  0.16881011400E+02  0.00000000000E+00 0. -1.
         21    1    1    2  503  505 -0.19596511401E+02  0.66810804709E+02  0.36857750020E+03  0.37509609507E+03  0.00000000000E+00 0.  1.
         21    1    1    2  504  506  0.69810060238E+02 -0.73150207918E+02  0.26958654985E+03  0.28792586770E+03  0.00000000000E+00 0. -1.
         21    1    1    2  505  502 -0.43678659768E+02  0.56268413012E+02  0.58825158261E+03  0.59254863434E+03  0.00000000000E+00 0. -1.
         21    1    1    2  506  501 -0.65348890690E+01 -0.49929009803E+02  0.27288408563E+03  0.27749114398E+03  0.00000000000E+00 0.  1.
<scales pt_clust_3="40.30764" pt_clust_4="108.57338" pt_clust_5="40.30764" pt_clust_6="50.35485"></scales>
<clustering>
<clus scale="   40.308">  3  5 -1 -1</clus>
<clus scale="   50.355">  1  6  2 -1</clus>
<clus scale="  108.573">  2  4  1 -1</clus>
<clus scale="   50.355">  1  3  2 -1</clus>
</clustering>
</event>
<event>
 6    0  0.8610502E+002  0.1598131E+03  0.7546771E-02  0.1188908E+00
         21   -1    0    0  505  501  0.00000000000E+00  0.00000000000E+00  0.23221394417E+03  0.23221394417E+03  0.00000000000E+00 0. -1.
         21   -1    0    0  506  502 -0.00000000000E+00 -0.00000000000E+00 -0.11081760441E+04  0.11081760441E+04  0.00000000000E+00 0. -1.
         21    1    1    2  503  501 -0.42900977165E+02  0.17535215155E+03  0.14749238990E+03  0.23311558501E+03  0.00000000000E+00 0. -1.
         21    1    1    2  504  503  0.45096053435E+02 -0.12606615717E+03 -0.11648362446E+03  0.17746764434E+03  0.00000000000E+00 0. -1.
         21    1    1    2  505  502  0.32160868602E+02 -0.67671650873E+01 -0.14938265670E+02  0.36100800182E+02  0.00000000000E+00 0. -1.
         21    1    1    2  506  504 -0.34355944872E+02 -0.42518829297E+02 -0.89203259964E+03  0.89370595870E+03  0.00000000000E+00 0. -1.
<scales pt_clust_3="14000.00000" pt_clust_4="159.81305" pt_clust_5="32.86512" pt_clust_6="54.60794"></scales>
<clustering>
<clus scale="   32.865">  1  5  2 -1</clus>
<clus scale="   54.608">  2  6  1 -1</clus>
<clus scale="  159.813">  2  4  1 -1</clus>
<clus scale="   32.865">  1  3  2 -1</clus>
</clustering>
</event>
<event>
 6    0  0.8610502E+002  0.7421467E+02  0.7546771E-02  0.1346320E+00
         21   -1    0    0  503  501  0.00000000000E+00  0.00000000000E+00  0.50670332893E+03  0.50670332893E+03  0.00000000000E+00 0. -1.
         21   -1    0    0  504  502 -0.00000000000E+00 -0.00000000000E+00 -0.44137683030E+03  0.44137683030E+03  0.00000000000E+00 0. -1.
         21    1    1    2  503  505 -0.71133967384E+02 -0.11034677277E+02  0.32002079748E+03  0.32801694505E+03  0.00000000000E+00 0. -1.
         21    1    1    2  504  501  0.80156562268E+02  0.32763872331E+02  0.80822893441E+02  0.11845204054E+03  0.00000000000E+00 0. -1.
         21    1    1    2  505  506 -0.50748391265E+02 -0.17839459697E+02  0.73150743474E+02  0.90800202693E+02  0.00000000000E+00 0. -1.
         21    1    1    2  506  502  0.41725796382E+02 -0.38897353577E+01 -0.40866793577E+03  0.41081097095E+03  0.00000000000E+00 0. -1.
<scales pt_clust_3="74.21467" pt_clust_4="14000.00000" pt_clust_5="43.44767" pt_clust_6="41.90671"></scales>
<clustering>
<clus scale="   41.907">  2  6  1 -1</clus>
<clus scale="   43.448">  2  5  1 -1</clus>
<clus scale="   74.215">  1  3  2 -1</clus>
<clus scale="   74.215">  1  3  2 -1</clus>
</clustering>
</event>
<event>
 6    0  0.8610502E+002  0.1186317E+03  0.7546771E-02  0.1245372E+00
         21   -1    0    0  506  501  0.00000000000E+00  0.00000000000E+00  0.34040922725E+03  0.34040922725E+03  0.00000000000E+00 0. -1.
         21   -1    0    0  505  502 -0.00000000000E+00 -0.00000000000E+00 -0.18757484341E+04  0.18757484341E+04  0.00000000000E+00 0. -1.
         21    1    1    2  503  501 -0.16496203728E+02  0.87653763471E+02  0.16281153062E+03  0.18564186352E+03  0.00000000000E+00 0. -1.
         21    1    1    2  504  502  0.83555088514E+01 -0.13589152245E+03  0.91394081220E+02  0.16397926236E+03  0.00000000000E+00 0.  1.
         21    1    1    2  505  503  0.34081203714E+02  0.73603446126E+02 -0.18183825230E+04  0.18201906482E+04  0.00000000000E+00 0. -1.
         21    1    1    2  506  504 -0.25940508837E+02 -0.25365687145E+02  0.28837704292E+02  0.46345887325E+02  0.00000000000E+00 0. -1.
<scales pt_clust_3="102.98350" pt_clust_4="30.39949" pt_clust_5="81.11101" pt_clust_6="30.39949"></scales>
<clustering>
<clus scale="   30.399">  4  6 -1 -1</clus>
<clus scale="   81.111">  2  5  1 -1</clus>
<clus scale="  102.984">  1  3  2 -1</clus>
<clus scale="  102.984">  1  3  2 -1</clus>
</clustering>
</event>
<event>
 6    0  0.8610502E+002  0.1131330E+03  0.7546771E-02  0.1254876E+00
         21   -1    0    0  503  501  0.00000000000E+00  0.00000000000E+00  0.96676472243E+03  0.96676472243E+03  0.00000000000E+00 0. -1.
         21   -1    0    0  501  502 -0.00000000000E+00 -0.00000000000E+00 -0.86363697204E+02  0.86363697204E+02  0.00000000000E+00 0. -1.
         21    1    1    2  503  504 -0.28090912401E+02  0.33490090220E+02  0.81107678945E+03  0.81225380509E+03  0.00000000000E+00 0. -1.
         21    1    1    2  504  506 -0.20988196686E+01  0.41033780500E+02  0.35267541504E+02  0.54147720818E+02  0.00000000000E+00 0. -1.
         21    1    1    2  505  502 -0.17115676208E+02 -0.11090663598E+03 -0.98294608346E+01  0.11264921915E+03  0.00000000000E+00 0. -1.
         21    1    1    2  506  505  0.47305408277E+02  0.36382765256E+02  0.43886155110E+02  0.74077674574E+02  0.00000000000E+00 0. -1.
<scales pt_clust_3="43.71139" pt_clust_4="38.37963" pt_clust_5="103.24528" pt_clust_6="38.37963"></scales>
<clustering>
<clus scale="   38.380">  4  6 -1 -1</clus>
<clus scale="   43.711">  1  3  2 -1</clus>
<clus scale="  103.245">  2  5  1 -1</clus>
<clus scale="   43.711">  1  3  2 -1</clus>
</clustering>
</event>
<event>
 6    0  0.8610502E+002  0.1148192E+03  0.7546771E-02  0.1251897E+00
         21   -1    0    0  506  501  0.00000000000E+00  0.00000000000E+00  0.85128941770E+03  0.85128941770E+03  0.00000000000E+00 0. -1.
         21   -1    0    0  503  502 -0.00000000000E+00 -0.00000000000E+00 -0.87600583656E+03  0.87600583656E+03  0.00000000000E+00 0.  1.
         21    1    1    2  503  505  0.55302033417E+02  0.52945397810E+01 -0.60895246393E+03  0.61148135734E+03  0.00000000000E+00 0.  1.
         21    1    1    2  504  501  0.51266367679E+01 -0.37831314799E+02  0.78818411701E+03  0.78910816311E+03  0.00000000000E+00 0. -1.
         21    1    1    2  505  504  0.76904668992E+02  0.10601738439E+02 -0.16489020340E+03  0.18225121165E+03  0.00000000000E+00 0.  1.
         21    1    1    2  506  502 -0.13733333918E+03  0.21935036579E+02 -0.39057868542E+02  0.14445452217E+03  0.00000000000E+00 0.  1.
<scales pt_clust_3="55.59047" pt_clust_4="38.17710" pt_clust_5="14000.00000" pt_clust_6="114.81920"></scales>
<clustering>
<clus scale="   38.177">  1  4  2 -1</clus>
<clus scale="   55.590">  2  3  1 -1</clus>
<clus scale="  114.819">  1  6  2 -1</clus>
<clus scale="   38.177">  1  3  2 -1</clus>
</clustering>
</event>
<event>
 6    0  0.8610502E+002  0.7592760E+02  0.7546771E-02  0.1341022E+00
         21   -1    0    0  506  501  0.00000000000E+00  0.00000000000E+00  0.10269110102E+04  0.10269110102E+04  0.00000000000E+00 0.  1.
         21   -1    0    0  505  502 -0.00000000000E+00 -0.00000000000E+00 -0.65284140652E+03  0.65284140652E+03  0.00000000000E+00 0.  1.
         21    1    1    2  503  504 -0.92019382650E+02 -0.72087535099E+01 -0.45857906479E+03  0.46777589888E+03  0.00000000000E+00 0.  1.
         21    1    1    2  504  501 -0.15779243189E+02 -0.39683075496E+02  0.97973121384E+03  0.98066150244E+03  0.00000000000E+00 0.  1.
         21    1    1    2  505  503  0.20744200399E+02  0.25584827220E+02 -0.13725729498E+03  0.14115406569E+03  0.00000000000E+00 0. -1.
         21    1    1    2  506  502  0.87054425440E+02  0.21307001787E+02 -0.98252503590E+01  0.90160949742E+02  0.00000000000E+00 0. -1.
<scales pt_clust_3="75.92760" pt_clust_4="42.67669" pt_clust_5="32.93790" pt_clust_6="14000.00000"></scales>
<clustering>
<clus scale="   32.938">  2  5  1 -1</clus>
<clus scale="   42.677">  1  4  2 -1</clus>
<clus scale="   75.928">  2  3  1 -1</clus>
<clus scale="   42.677">  1  3  2 -1</clus>
</clustering>
</event>
<event>
 6    0  0.8610502E+002  0.1426809E+03  0.7546771E-02  0.1209766E+00
         21   -1    0    0  506  501  0.00000000000E+00  0.00000000000E+00  0.49499029781E+03  0.49499029781E+03  0.00000000000E+00 0.  1.
         21   -1    0    0  504  502 -0.00000000000E+00 -0.00000000000E+00 -0.25963644403E+03  0.25963644403E+03  0.00000000000E+00 0. -1.
         21    1    1    2  503  502  0.49620776709E+01  0.41582245019E+02 -0.31648701025E+02  0.52491385886E+02  0.00000000000E+00 0. -1.
         21    1    1    2  504  501  0.12560051589E+03 -0.37074761367E+01  0.66841446004E+02  0.14232713682E+03  0.00000000000E+00 0. -1.
         21    1    1    2  505  503 -0.14848461722E+03  0.87073106785E+01 -0.14697311684E+03  0.20910427036E+03  0.00000000000E+00 0. -1.
         21    1    1    2  506  505  0.17922023660E+02 -0.46582079561E+02  0.34713422564E+03  0.35070394876E+03  0.00000000000E+00 0.  1.
<scales pt_clust_3="41.87726" pt_clust_4="14000.00000" pt_clust_5="142.68093" pt_clust_6="49.60731"></scales>
<clustering>
<clus scale="   41.877">  2  3  1 -1</clus>
<clus scale="   49.607">  1  6  2 -1</clus>
<clus scale="  142.681">  2  5  1 -1</clus>
<clus scale="   49.607">  1  3  2 -1</clus>
</clustering>
</event>
<event>
 6    0  0.8610502E+002  0.1530394E+03  0.7546771E-02  0.1196787E+00
         21   -1    0    0  503  501  0.00000000000E+00  0.00000000000E+00  0.83027206245E+03  0.83027206245E+03  0.00000000000E+00 0. -1.
         21   -1    0    0  504  502 -0.00000000000E+00 -0.00000000000E+00 -0.60332091591E+02  0.60332091591E+02  0.00000000000E+00 0. -1.
         21    1    1    2  503  506  0.96910001337E+02  0.62463468868E+02  0.28995705391E+03  0.31203898220E+03  0.00000000000E+00 0. -1.
         21    1    1    2  504  505 -0.64835174131E+02 -0.16869136583E+02  0.13723570635E+03  0.15271478864E+03  0.00000000000E+00 0. -1.
         21    1    1    2  505  501 -0.65776926594E+02 -0.92668652178E+02  0.34954869129E+03  0.36755730268E+03  0.00000000000E+00 0. -1.
         21    1    1    2  506  502  0.33702099388E+02  0.47074319893E+02 -0.68014806889E+01  0.58293080516E+02  0.00000000000E+00 0. -1.
<scales pt_clust_3="136.94929" pt_clust_4="52.44710" pt_clust_5="52.44710" pt_clust_6="57.89493"></scales>
<clustering>
<clus scale="   52.447">  4  5 -1 -1</clus>
<clus scale="   57.895">  2  6  1 -1</clus>
<clus scale="  136.949">  1  3  2 -1</clus>
<clus scale="  136.949">  1  3  2 -1</clus>
</clustering>
</event>
<event>
 6    0  0.8610502E+002  0.8199460E+02  0.7546771E-02  0.1323484E+00
         21   -1    0    0  504  501  0.00000000000E+00  0.00000000000E+00  0.29122314558E+03  0.29122314558E+03  0.00000000000E+00 0.  1.
         21   -1    0    0  506  502 -0.00000000000E+00 -0.00000000000E+00 -0.11883240518E+03  0.11883240518E+03  0.00000000000E+00 0.  1.
         21    1    1    2  503  505  0.78189906308E+02  0.16491665173E+02  0.36081063973E+02  0.87678273512E+02  0.00000000000E+00 0.  1.
         21    1    1    2  504  502 -0.82021007264E+02  0.79243047285E+02  0.16353257930E+03  0.19937354556E+03  0.00000000000E+00 0.  1.
         21    1    1    2  505  501  0.11776280291E+02 -0.37019595396E+02  0.23160729144E+02  0.45227763545E+02  0.00000000000E+00 0.  1.
         21    1    1    2  506  503 -0.79451793350E+01 -0.58715117062E+02 -0.50383632013E+02  0.77775968146E+02  0.00000000000E+00 0.  1.
<scales pt_clust_3="14000.00000" pt_clust_4="81.99460" pt_clust_5="38.84754" pt_clust_6="61.12735"></scales>
<clustering>
<clus scale="   38.848">  1  5  2 -1</clus>
<clus scale="   61.127">  2  6  1 -1</clus>
<clus scale="   81.995">  1  4  2 -1</clus>
<clus scale="   38.848">  1  3  2 -1</clus>
</clustering>
</event>
<event>
 6    0  0.8610502E+002  0.1436145E+03  0.7546771E-02  0.1208546E+00
         21   -1    0    0  506  501  0.00000000000E+00  0.00000000000E+00  0.56555338703E+03  0.56555338703E+03  0.00000000000E+00 0. -1.
         21   -1    0    0  503  502 -0.00000000000E+00 -0.00000000000E+00 -0.51917547758E+03  0.51917547758E+03  0.00000000000E+00 0.  1.
         21    1    1    2  503  501 -0.66502530172E+02  0.20432129586E+02 -0.73522755413E+02  0.10122081803E+03  0.00000000000E+00 0.  1.
         21    1    1    2  504  505 -0.30338832184E+02  0.21565370116E+02 -0.12491334266E+03  0.13034129468E+03  0.00000000000E+00 0.  1.
         21    1    1    2  505  502 -0.18467154487E+02  0.38672010658E+02 -0.29357683443E+03  0.29668825039E+03  0.00000000000E+00 0.  1.
         21    1    1    2  506  504  0.11530851684E+03 -0.80669510361E+02  0.53839084195E+03  0.55647850152E+03  0.00000000000E+00 0. -1.
<scales pt_clust_3="69.57053" pt_clust_4="32.41371" pt_clust_5="32.41371" pt_clust_6="139.33948"></scales>
<clustering>
<clus scale="   32.414">  4  5 -1 -1</clus>
<clus scale="   69.571">  2  3  1 -1</clus>
<clus scale="  139.339">  1  6  2 -1</clus>
<clus scale="  139.339">  1  3  2 -1</clus>
</clustering>
</event>
<event>
 6    0  0.8610502E+002  0.1403224E+03  0.7546771E-02  0.1212896E+00
         21   -1    0    0  502  501  0.00000000000E+00  0.00000000000E+00  0.50935016077E+03  0.50935016077E+03  0.00000000000E+00 0.  1.
         21   -1    0    0  505  502 -0.00000000000E+00 -0.00000000000E+00 -0.20387325464E+03  0.20387325464E+03  0.00000000000E+00 0.  1.
         21    1    1    2  503  504  0.14318088962E+03  0.39435027203E+02 -0.56746584593E+02  0.15898447530E+03  0.00000000000E+00 0.  1.
         21    1    1    2  504  501 -0.61273959992E+02  0.32350681573E+02  0.37009745299E+03  0.37652780705E+03  0.00000000000E+00 0.  1.
         21    1    1    2  505  506  0.92793688908E+01  0.35518599635E+02 -0.23865117533E+01  0.36788218840E+02  0.00000000000E+00 0. -1.
         21    1    1    2  506  503 -0.91186298516E+02 -0.10730430841E+03 -0.54874505175E+01  0.14092291423E+03  0.00000000000E+00 0.  1.
<scales pt_clust_3="140.32239" pt_clust_4="69.43867" pt_clust_5="36.71073" pt_clust_6="14000.00000"></scales>
<clustering>
<clus scale="   36.711">  2  5  1 -1</clus>
<clus scale="   69.439">  1  4  2 -1</clus>
<clus scale="  140.322">  1  3  2 -1</clus>
<clus scale="   69.439">  1  3  2 -1</clus>
</clustering>
</event>
<event>
 6    0  0.8610502E+002  0.2420126E+03  0.7546771E-02  0.1118459E+00
         21   -1    0    0  505  501  0.00000000000E+00  0.00000000000E+00  0.94645755209E+03  0.94645755209E+03  0.00000000000E+00 0. -1.
         21   -1    0    0  506  502 -0.00000000000E+00 -0.00000000000E+00 -0.16294287677E+03  0.16294287677E+03  0.00000000000E+00 0.  1.
         21    1    1    2  503  502 -0.13724029824E+02  0.29190947723E+02  0.31497045237E+02  0.45083525619E+02  0.00000000000E+00 0. -1.
         21    1    1    2  504  501  0.13666690840E+03 -0.95459671042E+02 -0.42244589545E-01  0.16670451233E+03  0.00000000000E+00 0.  1.
         21    1    1    2  505  503 -0.21666604389E+03  0.88116982808E+02  0.76550510285E+03  0.80044165292E+03  0.00000000000E+00 0. -1.
         21    1    1    2  506  504  0.93723165313E+02 -0.21848259489E+02 -0.13445228179E+02  0.97170737981E+02  0.00000000000E+00 0.  1.
<scales pt_clust_3="32.25617" pt_clust_4="39.20432" pt_clust_5="236.56414" pt_clust_6="39.20432"></scales>
<clustering>
<clus scale="   32.256">  2  3  1 -1</clus>
<clus scale="   39.204">  4  6 -1 -1</clus>
<clus scale="  236.564">  1  5  2 -1</clus>
<clus scale="  236.564">  1  3  2 -1</clus>
</clustering>
</event>
<event>
 6    0  0.8610502E+002  0.9274321E+02  0.7546771E-02  0.1296341E+00
         21   -1    0    0  504  501  0.00000000000E+00  0.00000000000E+00  0.38608530166E+03  0.38608530166E+03  0.00000000000E+00 0.  1.
         21   -1    0    0  505  502 -0.00000000000E+00 -0.00000000000E+00 -0.10195735368E+04  0.10195735368E+04  0.00000000000E+00 0.  1.
         21    1    1    2  503  502  0.42202750230E+02 -0.13607603508E+03 -0.54300037110E+03  0.56137969545E+03  0.00000000000E+00 0.  1.
         21    1    1    2  504  503  0.14504073080E+02  0.11544123190E+03  0.33905955360E+03  0.35846677258E+03  0.00000000000E+00 0.  1.
         21    1    1    2  505  506 -0.45678582051E+02  0.61370589119E+02 -0.43640202126E+03  0.44305711396E+03  0.00000000000E+00 0.  1.
         21    1    1    2  506  501 -0.11028241258E+02 -0.40735785940E+02  0.68546036475E+01  0.42755256432E+02  0.00000000000E+00 0.  1.
<scales pt_clust_3="92.74321" pt_clust_4="76.21452" pt_clust_5="14000.00000" pt_clust_6="42.20221"></scales>
<clustering>
<clus scale="   42.202">  1  6  2 -1</clus>
<clus scale="   76.215">  1  4  2 -1</clus>
<clus scale="   92.743">  1  3  2 -1</clus>
<clus scale="   42.202">  1  3  2 -1</clus>
</clustering>
</event>
<event>
 6    0  0.8610502E+002  0.1640671E+03  0.7546771E-02  0.1184180E+00
         21   -1    0    0  503  501  0.00000000000E+00  0.00000000000E+00  0.50987468820E+03  0.50987468820E+03  0.00000000000E+00 0.  1.
         21   -1    0    0  506  502 -0.00000000000E+00 -0.00000000000E+00 -0.19212392655E+04  0.19212392655E+04  0.00000000000E+00 0. -1.
         21    1    1    2  503  504 -0.29465732990E+02  0.21258515198E+03 -0.30269442473E+02  0.21674158671E+03  0.00000000000E+00 0. -1.
         21    1    1    2  504  502  0.16646207862E+02  0.32692064169E+02 -0.72757209319E+02  0.81482997022E+02  0.00000000000E+00 0. -1.
         21    1    1    2  505  501 -0.50638927903E+02 -0.15187969961E+03  0.39479256732E+03  0.42601985328E+03  0.00000000000E+00 0.  1.
         21    1    1    2  506  505  0.63458453032E+02 -0.93397516540E+02 -0.17031304929E+04  0.17068695167E+04  0.00000000000E+00 0. -1.
<scales pt_clust_3="164.06710" pt_clust_4="36.68606" pt_clust_5="14000.00000" pt_clust_6="101.03372"></scales>
<clustering>
<clus scale="   36.686">  2  4  1 -1</clus>
<clus scale="  101.034">  2  6  1 -1</clus>
<clus scale="  164.067">  2  3  1 -1</clus>
<clus scale="  164.067">  1  3  2 -1</clus>
</clustering>
</event>
<event>
 6    0  0.8610502E+002  0.1594236E+03  0.7546771E-02  0.1189349E+00
         21   -1    0    0  506  501  0.00000000000E+00  0.00000000000E+00  0.81329191622E+02  0.81329191622E+02  0.00000000000E+00 0. -1.
         21   -1    0    0  505  502 -0.00000000000E+00 -0.00000000000E+00 -0.68438853355E+03  0.68438853355E+03  0.00000000000E+00 0. -1.
         21    1    1    2  503  501 -0.13979015515E+02 -0.58314112935E+02 -0.55150330734E+02  0.81470900464E+02  0.00000000000E+00 0.  1.
         21    1    1    2  504  503  0.14125786905E+03 -0.99227187441E+02 -0.31250897027E+03  0.35701775417E+03  0.00000000000E+00 0. -1.
         21    1    1    2  505  504 -0.22547662990E+02  0.23498300803E+02 -0.11316934191E+03  0.11776190893E+03  0.00000000000E+00 0.  1.
         21    1    1    2  506  502 -0.10473119055E+03  0.13404299957E+03 -0.12223069901E+03  0.20946716160E+03  0.00000000000E+00 0. -1.
<scales pt_clust_3="57.94713" pt_clust_4="14000.00000" pt_clust_5="32.56635" pt_clust_6="159.42358"></scales>
<clustering>
<clus scale="   32.566">  2  5  1 -1</clus>
<clus scale="   57.947">  1  3  2 -1</clus>
<clus scale="  159.424">  1  6  2 -1</clus>
<clus scale="   57.947">  1  3  2 -1</clus>
</clustering>
</event>
<event>
 6    0  0.8610502E+002  0.9099994E+02  0.7546771E-02  0.1300448E+00
         21   -1    0    0  506  501  0.00000000000E+00  0.00000000000E+00  0.10380876619E+03  0.10380876619E+03  0.00000000000E+00 0.  1.
         21   -1    0    0  505  502 -0.00000000000E+00 -0.00000000000E+00 -0.25329222707E+03  0.25329222707E+03  0.00000000000E+00 0.  1.
         21    1    1    2  503  501 -0.21077583830E+02 -0.27634911189E+02  0.12283308106E+02  0.36862345483E+02  0.00000000000E+00 0.  1.
         21    1    1    2  504  503  0.11737412199E+03  0.14366509813E+01 -0.13014449195E+02  0.11810217766E+03  0.00000000000E+00 0.  1.
         21    1    1    2  505  504 -0.57641064633E+02  0.54111232705E+02 -0.53034843687E+02  0.95200905887E+02  0.00000000000E+00 0.  1.
         21    1    1    2  506  502 -0.38655473529E+02 -0.27912972497E+02 -0.95717476103E+02  0.10693556424E+03  0.00000000000E+00 0.  1.
<scales pt_clust_3="34.75562" pt_clust_4="90.99994" pt_clust_5="14000.00000" pt_clust_6="50.03994"></scales>
<clustering>
<clus scale="   34.756">  1  3  2 -1</clus>
<clus scale="   50.040">  2  6  1 -1</clus>
<clus scale="   91.000">  1  4  2 -1</clus>
<clus scale="   34.756">  1  3  2 -1</clus>
</clustering>
</event>
<event>
 6    0  0.8610502E+002  0.9661392E+02  0.7546771E-02  0.1287582E+00
         21   -1    0    0  502  501  0.00000000000E+00  0.00000000000E+00  0.75995912938E+03  0.75995912938E+03  0.00000000000E+00 0. -1.
         21   -1    0    0  505  502 -0.00000000000E+00 -0.00000000000E+00 -0.12792240534E+03  0.12792240534E+03  0.00000000000E+00 0. -1.
         21    1    1    2  503  504  0.60348486769E+02  0.72351337413E+02  0.19704223800E+03  0.21840856081E+03  0.00000000000E+00 0. -1.
         21    1    1    2  504  506 -0.18773431125E+02  0.40866644026E+02  0.44160245257E+02  0.63028974062E+02  0.00000000000E+00 0. -1.
         21    1    1    2  505  503 -0.15296439595E+02 -0.96989932049E+02 -0.84842123431E+02  0.12976599667E+03  0.00000000000E+00 0. -1.
         21    1    1    2  506  501 -0.26278616049E+02 -0.16228049390E+02  0.47567636421E+03  0.47667800318E+03  0.00000000000E+00 0.  1.
<scales pt_clust_3="14000.00000" pt_clust_4="44.63624" pt_clust_5="96.61392" pt_clust_6="30.88552"></scales>
<clustering>
<clus scale="   30.886">  1  6  2 -1</clus>
<clus scale="   44.636">  1  4  2 -1</clus>
<clus scale="   96.614">  2  5  1 -1</clus>
<clus scale="   30.886">  1  3  2 -1</clus>
</clustering>
</event>
<event>
 6    0  0.8610502E+002  0.1239695E+03  0.7546771E-02  0.1236689E+00
         21   -1    0    0  504  501  0.00000000000E+00  0.00000000000E+00  0.17245152988E+04  0.17245152988E+04  0.00000000000E+00 0. -1.
         21   -1    0    0  506  502 -0.00000000000E+00 -0.00000000000E+00 -0.36536016806E+02  0.36536016806E+02  0.00000000000E+00 0. -1.
         21    1    1    2  503  502  0.77737935068E+02  0.67853187105E+02  0.87725014024E+03  0.88329782639E+03  0.00000000000E+00 0. -1.
         21    1    1    2  504  505 -0.45012960082E+02 -0.66696710125E+02  0.41273834040E+03  0.42050868642E+03  0.00000000000E+00 0. -1.
         21    1    1    2  505  503  0.20232401793E+02  0.59142943050E+02  0.36526680081E+03  0.37057667705E+03  0.00000000000E+00 0. -1.
         21    1    1    2  506  501 -0.52957376779E+02 -0.60299420030E+02  0.32724000552E+02  0.86668125764E+02  0.00000000000E+00 0. -1.
<scales pt_clust_3="39.89008" pt_clust_4="112.87918" pt_clust_5="39.89008" pt_clust_6="80.25275"></scales>
<clustering>
<clus scale="   39.890">  3  5 -1 -1</clus>
<clus scale="   80.253">  2  6  1 -1</clus>
<clus scale="  112.879">  1  4  2 -1</clus>
<clus scale="  112.879">  1  3  2 -1</clus>
</clustering>
</event>
<event>
 6    0  0.8610502E+002  0.1122153E+03  0.7546771E-02  0.1256522E+00
         21   -1    0    0  503  501  0.00000000000E+00  0.00000000000E+00  0.13386604515E+03  0.13386604515E+03  0.00000000000E+00 0. -1.
         21   -1    0    0  505  502 -0.00000000000E+00 -0.00000000000E+00 -0.13520921324E+04  0.13520921324E+04  0.00000000000E+00 0. -1.
         21    1    1    2  503  506  0.32429551290E+02  0.12628232523E+03 -0.81818603920E+02  0.15392590883E+03  0.00000000000E+00 0. -1.
         21    1    1    2  504  502 -0.39499844418E+02 -0.82713324168E+02 -0.11946840810E+04  0.11981952200E+04  0.00000000000E+00 0. -1.
         21    1    1    2  505  501  0.27873473738E+02 -0.67532149587E+02  0.68850089366E+02  0.10038852809E+03  0.00000000000E+00 0. -1.
         21    1    1    2  506  504 -0.20803180609E+02  0.23963148523E+02 -0.10573491727E+02  0.33448520713E+02  0.00000000000E+00 0. -1.
<scales pt_clust_3="30.66701" pt_clust_4="93.42520" pt_clust_5="73.05834" pt_clust_6="30.66701"></scales>
<clustering>
<clus scale="   30.667">  3  6 -1 -1</clus>
<clus scale="   73.058">  1  5  2 -1</clus>
<clus scale="   93.425">  2  4  1 -1</clus>
<clus scale="   73.058">  1  3  2 -1</clus>
</clustering>
</event>
<event>
 6    0  0.8610502E+002  0.6531322E+02  0.7546771E-02  0.1376797E+00
         21   -1    0    0  504  501  0.00000000000E+00  0.00000000000E+00  0.25603550652E+03  0.25603550652E+03  0.00000000000E+00 0.  1.
         21   -1    0    0  506  502 -0.00000000000E+00 -0.00000000000E+00 -0.24403165849E+03  0.24403165849E+03  0.00000000000E+00 0. -1.
         21    1    1    2  503  502 -0.86925148613E+02  0.96860147438E+02  0.58304004360E+02  0.14260864822E+03  0.00000000000E+00 0.  1.
         21    1    1    2  504  503 -0.11974481649E+02 -0.30581788432E+02  0.10175109229E+03  0.10692015140E+03  0.00000000000E+00 0.  1.
         21    1    1    2  505  501  0.46707684708E+02 -0.32616068292E+02  0.28271259672E+02  0.63597797486E+02  0.00000000000E+00 0. -1.
         21    1    1    2  506  505  0.52191945555E+02 -0.33662290715E+02 -0.17632250829E+03  0.18694056790E+03  0.00000000000E+00 0. -1.
<scales pt_clust_3="14000.00000" pt_clust_4="32.84256" pt_clust_5="60.08044" pt_clust_6="65.31322"></scales>
<clustering>
<clus scale="   32.843">  1  4  2 -1</clus>
<clus scale="   60.080">  1  5  2 -1</clus>
<clus scale="   65.313">  2  6  1 -1</clus>
<clus scale="   32.843">  1  3  2 -1</clus>
</clustering>
</event>
<event>
 6    0  0.8610502E+002  0.1954049E+03  0.7546771E-02  0.1153675E+00
         21   -1    0    0  505  501  0.00000000000E+00  0.00000000000E+00  0.21734281001E+03  0.21734281001E+03  0.00000000000E+00 0. -1.
         21   -1    0    0  503  502 -0.00000000000E+00 -0.00000000000E+00 -0.65089978120E+03  0.65089978120E+03  0.00000000000E+00 0.  1.
         21    1    1    2  503  501 -0.84221739837E+02  0.16751539965E+03  0.21838406339E+02  0.18876341428E+03  0.00000000000E+00 0. -1.
         21    1    1    2  504  502  0.35715322481E+02 -0.30590166630E+02 -0.12253204558E+03  0.13124574183E+03  0.00000000000E+00 0.  1.
         21    1    1    2  505  506  0.49856142497E+02  0.11443115183E+02  0.88107537169E+02  0.10187991920E+03  0.00000000000E+00 0. -1.
         21    1    1    2  506  504 -0.13497251404E+01 -0.14836834820E+03 -0.42097086912E+03  0.44635351590E+03  0.00000000000E+00 0.  1.
<scales pt_clust_3="182.11185" pt_clust_4="39.88085" pt_clust_5="51.15252" pt_clust_6="39.88085"></scales>
<clustering>
<clus scale="   39.881">  4  6 -1 -1</clus>
<clus scale="   51.153">  1  5  2 -1</clus>
<clus scale="  182.112">  1  3  2 -1</clus>
<clus scale="   51.153">  1  3  2 -1</clus>
</clustering>
</event>
<event>
 6    0  0.8610502E+002  0.7434279E+02  0.7546771E-02  0.1345918E+00
         21   -1    0    0  505  501  0.00000000000E+00  0.00000000000E+00  0.17653936577E+04  0.17653936577E+04  0.00000000000E+00 0.  1.
         21   -1    0    0  506  502 -0.00000000000E+00 -0.00000000000E+00 -0.11817902052E+03  0.11817902052E+03  0.00000000000E+00 0.  1.
         21    1    1    2  503  502  0.47752830112E+02  0.16125155754E+02 -0.85127824274E+02  0.98929772553E+02  0.00000000000E+00 0.  1.
         21    1    1    2  504  501  0.30375147061E+02 -0.11938501596E+02  0.14789014377E+04  0.14792615184E+04  0.00000000000E+00 0.  1.
         21    1    1    2  505  503 -0.32752217787E+02  0.73445172640E+02  0.12257057937E+03  0.14659620760E+03  0.00000000000E+00 0.  1.
         21    1    1    2  506  504 -0.45375759386E+02 -0.77631826798E+02  0.13087044441E+03  0.15878517970E+03  0.00000000000E+00 0.  1.
<scales pt_clust_3="51.00603" pt_clust_4="32.63706" pt_clust_5="74.34279" pt_clust_6="14000.00000"></scales>
<clustering>
<clus scale="   32.637">  1  4  2 -1</clus>
<clus scale="   51.006">  2  3  1 -1</clus>
<clus scale="   74.343">  1  5  2 -1</clus>
<clus scale="   32.637">  1  3  2 -1</clus>
</clustering>
</event>
<event>
 6    0  0.8610502E+002  0.1370409E+03  0.7546771E-02  0.1217367E+00
         21   -1    0    0  506  501  0.00000000000E+00  0.00000000000E+00  0.54034465511E+02  0.54034465511E+02  0.00000000000E+00 0. -1.
         21   -1    0    0  503  502 -0.00000000000E+00 -0.00000000000E+00 -0.96203559416E+03  0.96203559416E+03  0.00000000000E+00 0. -1.
         21    1    1    2  503  504 -0.25807778636E+02  0.13156742455E+03 -0.39637943055E+03  0.41844077431E+03  0.00000000000E+00 0. -1.
         21    1    1    2  504  505  0.97144595124E+02 -0.11659871474E+03 -0.35310739284E+03  0.38433990623E+03  0.00000000000E+00 0. -1.
         21    1    1    2  505  501 -0.71930788150E+01  0.41506221111E+02 -0.12220352438E+02  0.43861643693E+02  0.00000000000E+00 0.  1.
         21    1    1    2  506  502 -0.64143737673E+02 -0.56474930925E+02 -0.14629395282E+03  0.16942773544E+03  0.00000000000E+00 0. -1.
<scales pt_clust_3="137.04088" pt_clust_4="14000.00000" pt_clust_5="42.12489" pt_clust_6="79.54051"></scales>
<clustering>
<clus scale="   42.125">  1  5  2 -1</clus>
<clus scale="   79.541">  1  6  2 -1</clus>
<clus scale="  137.041">  2  3  1 -1</clus>
<clus scale="   42.125">  1  3  2 -1</clus>
</clustering>
</event>
<event>
 6    0  0.8610502E+002  0.9990991E+02  0.7546771E-02  0.1280486E+00
         21   -1    0    0  506  501  0.00000000000E+00  0.00000000000E+00  0.34242873570E+02  0.34242873570E+02  0.00000000000E+00 0.  1.
         21   -1    0    0  504  502 -0.00000000000E+00 -0.00000000000E+00 -0.15440393876E+04  0.15440393876E+04  0.00000000000E+00 0.  1.
         21    1    1    2  503  502  0.81754877790E+02 -0.12665038226E+02 -0.67568301524E+03  0.68072887431E+03  0.00000000000E+00 0.  1.
         21    1    1    2  504  501 -0.41842371210E+02  0.23185286978E+02 -0.59964176931E+03  0.60154683364E+03  0.00000000000E+00 0.  1.
         21    1    1    2  505  503  0.46939387382E+02 -0.83088019989E+01 -0.19470954769E+03  0.20045984695E+03  0.00000000000E+00 0.  1.
         21    1    1    2  506  505 -0.86851893962E+02 -0.22114467529E+01 -0.39762181823E+02  0.95546706301E+02  0.00000000000E+00 0.  1.
<scales pt_clust_3="33.15908" pt_clust_4="47.83661" pt_clust_5="33.15908" pt_clust_6="89.85409"></scales>
<clustering>
<clus scale="   33.159">  3  5 -1 -1</clus>
<clus scale="   47.837">  2  4  1 -1</clus>
<clus scale="   89.854">  1  6  2 -1</clus>
<clus scale="   89.854">  1  3  2 -1</clus>
</clustering>
</event>
<event>
 6    0  0.8610502E+002  0.1955019E+03  0.7546771E-02  0.1153591E+00
         21   -1    0    0  503  501  0.00000000000E+00  0.00000000000E+00  0.21541646287E+04  0.21541646287E+04  0.00000000000E+00 0. -1.
         21   -1    0    0  504  502 -0.00000000000E+00 -0.00000000000E+00 -0.21794828260E+03  0.21794828260E+03  0.00000000000E+00 0. -1.
         21    1    1    2  503  506 -0.55211858629E+02  0.20569203959E+03  0.44612141855E+03  0.49434996164E+03  0.00000000000E+00 0.  1.
         21    1    1    2  504  505 -0.44084849248E+01 -0.71844431378E+02  0.39924224494E+03  0.40567897062E+03  0.00000000000E+00 0. -1.
         21    1    1    2  505  501  0.22354978321E+02 -0.10162701605E+03  0.12761319303E+04  0.12803673297E+04  0.00000000000E+00 0. -1.
         21    1    1    2  506  502  0.37265365233E+02 -0.32220592164E+02 -0.18527924769E+03  0.19171664933E+03  0.00000000000E+00 0. -1.
<scales pt_clust_3="181.00248" pt_clust_4="62.03354" pt_clust_5="62.03354" pt_clust_6="49.26331"></scales>
<clustering>
<clus scale="   49.263">  2  6  1 -1</clus>
<clus scale="   62.034">  4  5 -1 -1</clus>
<clus scale="  181.002">  2  3  1 -1</clus>
<clus scale="  195.502">  1  3  2 -1</clus>
</clustering>
</event>
<event>
 6    0  0.8610502E+002  0.1444787E+03  0.7546771E-02  0.1207427E+00
         21   -1    0    0  506  501  0.00000000000E+00  0.00000000000E+00  0.10482191330E+04  0.10482191330E+04  0.00000000000E+00 0. -1.
         21   -1    0    0  505  502 -0.00000000000E+00 -0.00000000000E+00 -0.26702167129E+03  0.26702167129E+03  0.00000000000E+00 0.  1.
         21    1    1    2  503  504 -0.12760540013E+03  0.11421631245E+02  0.35846866412E+02  0.13303604637E+03  0.00000000000E+00 0.  1.
         21    1    1    2  504  501 -0.32857713183E+02  0.74581370462E+02  0.90679417810E+03  0.91044917023E+03  0.00000000000E+00 0. -1.
         21    1    1    2  505  503  0.98695732280E+02 -0.10431039718E+03 -0.14746424534E+03  0.20583296671E+03  0.00000000000E+00 0.  1.
         21    1    1    2  506  502  0.61767381032E+02  0.18307395472E+02 -0.13979337420E+02  0.65922621028E+02  0.00000000000E+00 0.  1.
<scales pt_clust_3="14000.00000" pt_clust_4="81.43457" pt_clust_5="144.47868" pt_clust_6="64.42337"></scales>
<clustering>
<clus scale="   64.423">  2  6  1 -1</clus>
<clus scale="   81.435">  1  4  2 -1</clus>
<clus scale="  144.479">  2  5  1 -1</clus>
<clus scale="   81.435">  1  3  2 -1</clus>
</clustering>
</event>
<event>
 6    0  0.8610502E+002  0.2283370E+03  0.7546771E-02  0.1127816E+00
         21   -1    0    0  505  501  0.00000000000E+00  0.00000000000E+00  0.77759186680E+03  0.77759186680E+03  0.00000000000E+00 0.  1.
         21   -1    0    0  503  502 -0.00000000000E+00 -0.00000000000E+00 -0.14721122499E+04  0.14721122499E+04  0.00000000000E+00 0.  1.
         21    1    1    2  503  506 -0.20991314764E+02  0.28344289160E+02 -0.12827655133E+04  0.12832503249E+04  0.00000000000E+00 0.  1.
         21    1    1    2  504  501 -0.18073583391E+03  0.16777460910E+03  0.56596661728E+03  0.61735886889E+03  0.00000000000E+00 0.  1.
         21    1    1    2  505  502  0.35125098626E+02 -0.28903897459E+01  0.80082235420E+02  0.87494521750E+02  0.00000000000E+00 0. -1.
         21    1    1    2  506  504  0.16660205005E+03 -0.19322850852E+03 -0.57803722463E+02  0.26160040121E+03  0.00000000000E+00 0.  1.
<scales pt_clust_3="35.26275" pt_clust_4="228.33703" pt_clust_5="35.24382" pt_clust_6="14000.00000"></scales>
<clustering>
<clus scale="   35.244">  1  5  2 -1</clus>
<clus scale="   35.263">  2  3  1 -1</clus>
<clus scale="  228.337">  1  4  2 -1</clus>
<clus scale="   35.244">  1  3  2 -1</clus>
</clustering>
</event>
<event>
 6    0  0.8610502E+002  0.9176008E+02  0.7546771E-02  0.1298645E+00
         21   -1    0    0  505  501  0.00000000000E+00  0.00000000000E+00  0.19914184352E+04  0.19914184352E+04  0.00000000000E+00 0.  1.
         21   -1    0    0  503  502 -0.00000000000E+00 -0.00000000000E+00 -0.73290555715E+02  0.73290555715E+02  0.00000000000E+00 0.  1.
         21    1    1    2  503  504  0.61366548938E+02  0.68868942538E+02 -0.30904293497E+02  0.97282372151E+02  0.00000000000E+00 0.  1.
         21    1    1    2  504  501 -0.77475909796E+02 -0.24471793807E+02  0.14929458745E+04  0.14951550988E+04  0.00000000000E+00 0.  1.
         21    1    1    2  505  506 -0.47410892193E+02 -0.54466045618E+01  0.16106968209E+03  0.16799077561E+03  0.00000000000E+00 0.  1.
         21    1    1    2  506  502  0.63520253051E+02 -0.38950544169E+02  0.29501661642E+03  0.30428074438E+03  0.00000000000E+00 0.  1.
<scales pt_clust_3="91.76008" pt_clust_4="14000.00000" pt_clust_5="47.72272" pt_clust_6="68.51944"></scales>
<clustering>
<clus scale="   47.723">  1  5  2 -1</clus>
<clus scale="   68.519">  1  6  2 -1</clus>
<clus scale="   91.760">  2  3  1 -1</clus>
<clus scale="   47.723">  1  3  2 -1</clus>
</clustering>
</event>
<event>
 6    0  0.8610502E+002  0.1143500E+03  0.7546771E-02  0.1252720E+00
         21   -1    0    0  504  501  0.00000000000E+00  0.00000000000E+00  0.24949682797E+03  0.24949682797E+03  0.00000000000E+00 0. -1.
         21   -1    0    0  505  502 -0.00000000000E+00 -0.00000000000E+00 -0.54897914053E+03  0.54897914053E+03  0.00000000000E+00 0. -1.
         21    1    1    2  503  502  0.13728494210E+02 -0.27323294991E+02 -0.33720295502E+03  0.33858657220E+03  0.00000000000E+00 0. -1.
         21    1    1    2  504  506  0.73520153887E+02 -0.82454304424E+02  0.16982534647E+03  0.20259460419E+03  0.00000000000E+00 0. -1.
         21    1    1    2  505  501 -0.13815287203E+03  0.68283433668E+02 -0.81116033617E+02  0.17415123966E+03  0.00000000000E+00 0. -1.
         21    1    1    2  506  503  0.50904223934E+02  0.41494165747E+02 -0.50988670392E+02  0.83143552449E+02  0.00000000000E+00 0. -1.
<scales pt_clust_3="30.57833" pt_clust_4="114.35005" pt_clust_5="14000.00000" pt_clust_6="64.27308"></scales>
<clustering>
<clus scale="   30.578">  2  3  1 -1</clus>
<clus scale="   64.273">  2  6  1 -1</clus>
<clus scale="  114.350">  1  4  2 -1</clus>
<clus scale="  114.350">  1  3  2 -1</clus>
</clustering>
</event>
<event>
 6    0  0.8610502E+002  0.1160310E+03  0.7546771E-02  0.1249792E+00
         21   -1    0    0  504  501  0.00000000000E+00  0.00000000000E+00  0.65706811929E+02  0.65706811929E+02  0.00000000000E+00 0.  1.
         21   -1    0    0  505  502 -0.00000000000E+00 -0.00000000000E+00 -0.12345697717E+04  0.12345697717E+04  0.00000000000E+00 0.  1.
         21    1    1    2  503  501  0.69517416113E+02 -0.75942821616E+02  0.12878587037E+02  0.10375857219E+03  0.00000000000E+00 0.  1.
         21    1    1    2  504  506 -0.61560588342E+02  0.71890510621E+02 -0.54323281299E+03  0.55141621364E+03  0.00000000000E+00 0.  1.
         21    1    1    2  505  503 -0.85398661461E+01 -0.43302600133E+02 -0.27460424664E+03  0.27812863348E+03  0.00000000000E+00 0. -1.
         21    1    1    2  506  502  0.58303837542E+00  0.47354911128E+02 -0.36390448720E+03  0.36697316434E+03  0.00000000000E+00 0.  1.
<scales pt_clust_3="104.21111" pt_clust_4="36.09139" pt_clust_5="44.13666" pt_clust_6="36.09139"></scales>
<clustering>
<clus scale="   36.091">  4  6 -1 -1</clus>
<clus scale="   44.137">  2  5  1 -1</clus>
<clus scale="  104.211">  1  3  2 -1</clus>
<clus scale="  104.211">  1  3  2 -1</clus>
</clustering>
</event>
<event>
 6    0  0.8610502E+002  0.7150742E+02  0.7546771E-02  0.1355041E+00
         21   -1    0    0  506  501  0.00000000000E+00  0.00000000000E+00  0.27018266045E+03  0.27018266045E+03  0.00000000000E+00 0. -1.
         21   -1    0    0  504  502 -0.00000000000E+00 -0.00000000000E+00 -0.36518268358E+03  0.36518268358E+03  0.00000000000E+00 0.  1.
         21    1    1    2  503  501  0.95292356744E+02 -0.33561600639E+02 -0.26069721335E+03  0.27958907586E+03  0.00000000000E+00 0.  1.
         21    1    1    2  504  503 -0.51686046494E+01 -0.34905488153E+02 -0.45314857374E+02  0.57432951135E+02  0.00000000000E+00 0.  1.
         21    1    1    2  505  502 -0.29747451813E+02  0.31139146481E+02 -0.26423076572E+02  0.50524610919E+02  0.00000000000E+00 0.  1.
         21    1    1    2  506  505 -0.60376300281E+02  0.37327942310E+02  0.23743512417E+03  0.24781870611E+03  0.00000000000E+00 0. -1.
<scales pt_clust_3="14000.00000" pt_clust_4="35.28608" pt_clust_5="40.55186" pt_clust_6="71.50742"></scales>
<clustering>
<clus scale="   35.286">  2  4  1 -1</clus>
<clus scale="   40.552">  2  5  1 -1</clus>
<clus scale="   71.507">  1  6  2 -1</clus>
<clus scale="   71.507">  1  3  2 -1</clus>
</clustering>
</event>
<event>
 6    0  0.8610502E+002  0.7447427E+02  0.7546771E-02  0.1345507E+00
         21   -1    0    0  505  501  0.00000000000E+00  0.00000000000E+00  0.31725774175E+03  0.31725774175E+03  0.00000000000E+00 0.  1.
         21   -1    0    0  504  502 -0.00000000000E+00 -0.00000000000E+00 -0.28610481750E+03  0.28610481750E+03  0.00000000000E+00 0.  1.
         21    1    1    2  503  502 -0.69975019802E+02  0.17058790201E+02 -0.22782704680E+03  0.23894072272E+03  0.00000000000E+00 0.  1.
         21    1    1    2  504  501 -0.65397508838E+02  0.31006146160E+02  0.15816415807E+03  0.17393710404E+03  0.00000000000E+00 0.  1.
         21    1    1    2  505  506  0.35716285737E+02  0.52562293058E+01  0.60562907883E+02  0.70506360171E+02  0.00000000000E+00 0.  1.
         21    1    1    2  506  503  0.99656242903E+02 -0.53321165667E+02  0.40252905097E+02  0.11997837233E+03  0.00000000000E+00 0.  1.
<scales pt_clust_3="74.47427" pt_clust_4="54.21031" pt_clust_5="36.10098" pt_clust_6="14000.00000"></scales>
<clustering>
<clus scale="   36.101">  1  5  2 -1</clus>
<clus scale="   54.210">  1  4  2 -1</clus>
<clus scale="   74.474">  2  3  1 -1</clus>
<clus scale="   36.101">  1  3  2 -1</clus>
</clustering>
</event>
<event>
 6    0  0.8610502E+002  0.1227545E+03  0.7546771E-02  0.1238621E+00
         21   -1    0    0  503  501  0.00000000000E+00  0.00000000000E+00  0.70185498243E+02  0.70185498243E+02  0.00000000000E+00 0. -1.
         21   -1    0    0  506  502 -0.00000000000E+00 -0.00000000000E+00 -0.71532646685E+03  0.71532646685E+03  0.00000000000E+00 0. -1.
         21    1    1    2  503  504 -0.10401669627E+03  0.27200389588E+02 -0.16588764969E+03  0.19768168002E+03  0.00000000000E+00 0.  1.
         21    1    1    2  504  505 -0.21134616419E+02  0.60913887721E+02 -0.29629608474E+03  0.30323018247E+03  0.00000000000E+00 0. -1.
         21    1    1    2  505  502  0.47420646773E+02  0.38841690678E+02 -0.90690114727E+02  0.10946274062E+03  0.00000000000E+00 0.  1.
         21    1    1    2  506  501  0.77730665913E+02 -0.12695596799E+03 -0.92267119454E+02  0.17513736198E+03  0.00000000000E+00 0. -1.
<scales pt_clust_3="14000.00000" pt_clust_4="79.86269" pt_clust_5="61.29759" pt_clust_6="122.75451"></scales>
<clustering>
<clus scale="   61.298">  2  5  1 -1</clus>
<clus scale="   79.863">  2  4  1 -1</clus>
<clus scale="  122.755">  1  6  2 -1</clus>
<clus scale="  122.755">  1  3  2 -1</clus>
</clustering>
</event>
<event>
 6    0  0.8610502E+002  0.2980007E+03  0.7546771E-02  0.1086244E+00
         21   -1    0    0  505  501  0.00000000000E+00  0.00000000000E+00  0.32060611882E+03  0.32060611882E+03  0.00000000000E+00 0. -1.
         21   -1    0    0  506  502 -0.00000000000E+00 -0.00000000000E+00 -0.40649624270E+03  0.40649624270E+03  0.00000000000E+00 0. -1.
         21    1    1    2  503  502  0.23547465174E+03  0.18095630461E+03 -0.40799128765E+02  0.29976334782E+03  0.00000000000E+00 0. -1.
         21    1    1    2  504  503 -0.70833687834E+02 -0.19072948575E+02  0.33058103507E+00  0.73357330809E+02  0.00000000000E+00 0. -1.
         21    1    1    2  505  504 -0.17745529393E+03 -0.12845594982E+03  0.72493242170E+02  0.23075221028E+03  0.00000000000E+00 0. -1.
         21    1    1    2  506  501  0.12814330029E+02 -0.33427406212E+02 -0.11791481832E+03  0.12322947261E+03  0.00000000000E+00 0. -1.
<scales pt_clust_3="291.61157" pt_clust_4="35.51673" pt_clust_5="35.51673" pt_clust_6="35.79942"></scales>
<clustering>
<clus scale="   35.517">  4  5 -1 -1</clus>
<clus scale="   35.799">  2  6  1 -1</clus>
<clus scale="  291.612">  2  3  1 -1</clus>
<clus scale="  298.001">  1  3  2 -1</clus>
</clustering>
</event>
<event>
 6    0  0.8610502E+002  0.1012907E+03  0.7546771E-02  0.1277605E+00
         21   -1    0    0  506  501  0.00000000000E+00  0.00000000000E+00  0.82676537592E+03  0.82676537592E+03  0.00000000000E+00 0. -1.
         21   -1    0    0  504  502 -0.00000000000E+00 -0.00000000000E+00 -0.34664741104E+03  0.34664741104E+03  0.00000000000E+00 0. -1.
         21    1    1    2  503  502  0.28103759284E+01  0.35890264782E+02 -0.29886306445E+03  0.30102348847E+03  0.00000000000E+00 0. -1.
         21    1    1    2  504  505 -0.21097275710E+02  0.43852022413E+02  0.28849176567E+02  0.56571811892E+02  0.00000000000E+00 0. -1.
         21    1    1    2  505  501 -0.82969707193E+02 -0.48806097455E+02  0.51427268750E+02  0.10913648075E+03  0.00000000000E+00 0. -1.
         21    1    1    2  506  503  0.10125660697E+03 -0.30936189740E+02  0.69870458401E+03  0.70668100584E+03  0.00000000000E+00 0. -1.
<scales pt_clust_3="36.00013" pt_clust_4="58.14870" pt_clust_5="101.29070" pt_clust_6="14000.00000"></scales>
<clustering>
<clus scale="   36.000">  2  3  1 -1</clus>
<clus scale="   58.149">  2  4  1 -1</clus>
<clus scale="  101.291">  2  5  1 -1</clus>
<clus scale="  101.291">  1  3  2 -1</clus>
</clustering>
</event>
<event>
 6    0  0.8610502E+002  0.1437535E+03  0.7546771E-02  0.1208366E+00
         21   -1    0    0  502  501  0.00000000000E+00  0.00000000000E+00  0.55989705878E+02  0.55989705878E+02  0.00000000000E+00 0. -1.
         21   -1    0    0  506  502 -0.00000000000E+00 -0.00000000000E+00 -0.30675218128E+04  0.30675218128E+04  0.00000000000E+00 0. -1.
         21    1    1    2  503  501  0.26442206298E+02  0.19037876110E+02 -0.29586275401E+02  0.44011120104E+02  0.00000000000E+00 0.  1.
         21    1    1    2  504  505 -0.11458185816E+03  0.51452815685E+02 -0.82856794131E+03  0.83803414478E+03  0.00000000000E+00 0. -1.
         21    1    1    2  505  503  0.95851977426E+02 -0.10422550099E+03 -0.70281420059E+02  0.15808236663E+03  0.00000000000E+00 0. -1.
         21    1    1    2  506  504 -0.77123255656E+01  0.33734809195E+02 -0.20830964702E+04  0.20833838872E+04  0.00000000000E+00 0. -1.
<scales pt_clust_3="32.58268" pt_clust_4="14000.00000" pt_clust_5="143.75350" pt_clust_6="34.64259"></scales>
<clustering>
<clus scale="   32.583">  1  3  2 -1</clus>
<clus scale="   34.643">  2  6  1 -1</clus>
<clus scale="  143.753">  1  5  2 -1</clus>
<clus scale="   32.583">  1  3  2 -1</clus>
</clustering>
</event>
<event>
 6    0  0.8610502E+002  0.9254996E+02  0.7546771E-02  0.1296792E+00
         21   -1    0    0  505  501  0.00000000000E+00  0.00000000000E+00  0.61970307529E+03  0.61970307529E+03  0.00000000000E+00 0.  1.
         21   -1    0    0  504  502 -0.00000000000E+00 -0.00000000000E+00 -0.65284359023E+02  0.65284359023E+02  0.00000000000E+00 0.  1.
         21    1    1    2  503  506 -0.88417056900E+02 -0.36728503790E+00  0.16973720400E+03  0.19138555136E+03  0.00000000000E+00 0.  1.
         21    1    1    2  504  503 -0.46253559339E+02  0.67149882980E+01 -0.14952153202E+02  0.49071883036E+02  0.00000000000E+00 0.  1.
         21    1    1    2  505  502  0.11381658025E+03  0.25086953305E+02  0.13997008568E+03  0.18214058870E+03  0.00000000000E+00 0.  1.
         21    1    1    2  506  501  0.20854035993E+02 -0.31434656565E+02  0.25966357979E+03  0.26238941122E+03  0.00000000000E+00 0.  1.
<scales pt_clust_3="14000.00000" pt_clust_4="45.56167" pt_clust_5="92.54996" pt_clust_6="37.72305"></scales>
<clustering>
<clus scale="   37.723">  1  6  2 -1</clus>
<clus scale="   45.562">  2  4  1 -1</clus>
<clus scale="   92.550">  2  5  1 -1</clus>
<clus scale="   37.723">  1  3  2 -1</clus>
</clustering>
</event>
<event>
 6    0  0.8610502E+002  0.1574326E+03  0.7546771E-02  0.1191626E+00
         21   -1    0    0  506  501  0.00000000000E+00  0.00000000000E+00  0.68620374195E+02  0.68620374195E+02  0.00000000000E+00 0. -1.
         21   -1    0    0  504  502 -0.00000000000E+00 -0.00000000000E+00 -0.10753021835E+04  0.10753021835E+04  0.00000000000E+00 0. -1.
         21    1    1    2  503  501 -0.27958563568E+02  0.21536213012E+02  0.63881407989E+01  0.35864998125E+02  0.00000000000E+00 0. -1.
         21    1    1    2  504  503 -0.16282763906E+03  0.85915364272E+02 -0.29604920003E+03  0.34862504027E+03  0.00000000000E+00 0. -1.
         21    1    1    2  505  502  0.10807385607E+03  0.36184210895E+01 -0.37953015469E+03  0.39463424795E+03  0.00000000000E+00 0. -1.
         21    1    1    2  506  505  0.82712346565E+02 -0.11106999837E+03 -0.33749059542E+03  0.36479827140E+03  0.00000000000E+00 0. -1.
<scales pt_clust_3="35.29150" pt_clust_4="157.43264" pt_clust_5="103.86719" pt_clust_6="14000.00000"></scales>
<clustering>
<clus scale="   35.291">  1  3  2 -1</clus>
<clus scale="  103.867">  2  5  1 -1</clus>
<clus scale="  157.433">  2  4  1 -1</clus>
<clus scale="   35.291">  1  3  2 -1</clus>
</clustering>
</event>
<event>
 6    0  0.8610502E+002  0.1276567E+03  0.7546771E-02  0.1230975E+00
         21   -1    0    0  504  501  0.00000000000E+00  0.00000000000E+00  0.20414457641E+03  0.20414457641E+03  0.00000000000E+00 0. -1.
         21   -1    0    0  503  502 -0.00000000000E+00 -0.00000000000E+00 -0.83239925270E+03  0.83239925270E+03  0.00000000000E+00 0.  1.
         21    1    1    2  503  505  0.67560289769E+01  0.48086537759E+02 -0.13198015249E+03  0.14062972549E+03  0.00000000000E+00 0.  1.
         21    1    1    2  504  502  0.75324651434E+02  0.55652250261E+02 -0.65649440280E+03  0.66314091789E+03  0.00000000000E+00 0.  1.
         21    1    1    2  505  506 -0.46729797048E+02 -0.78219486008E+02  0.16543094513E+03  0.18886333559E+03  0.00000000000E+00 0. -1.
         21    1    1    2  506  501 -0.35350883363E+02 -0.25519302011E+02 -0.52110661302E+01  0.43909850147E+02  0.00000000000E+00 0.  1.
<scales pt_clust_3="47.85795" pt_clust_4="127.65667" pt_clust_5="14000.00000" pt_clust_6="43.59954"></scales>
<clustering>
<clus scale="   43.600">  1  6  2 -1</clus>
<clus scale="   47.858">  2  3  1 -1</clus>
<clus scale="  127.657">  2  4  1 -1</clus>
<clus scale="   43.600">  1  3  2 -1</clus>
</clustering>
</event>
<event>
 6    0  0.8610502E+002  0.1292390E+03  0.7546771E-02  0.1228589E+00
         21   -1    0    0  504  501  0.00000000000E+00  0.00000000000E+00  0.63706961794E+03  0.63706961794E+03  0.00000000000E+00 0.  1.
         21   -1    0    0  505  502 -0.00000000000E+00 -0.00000000000E+00 -0.15938522049E+03  0.15938522049E+03  0.00000000000E+00 0.  1.
         21    1    1    2  503  501 -0.28179758418E+02 -0.30996320621E+02  0.80204353433E+02  0.90485407587E+02  0.00000000000E+00 0. -1.
         21    1    1    2  504  506  0.85081720706E+00  0.36101987176E+02  0.36747323911E+03  0.36924335990E+03  0.00000000000E+00 0.  1.
         21    1    1    2  505  503 -0.10672574738E+03  0.27564877124E+01  0.13078768044E+03  0.16882950196E+03  0.00000000000E+00 0.  1.
         21    1    1    2  506  502  0.13405468859E+03 -0.78621542678E+01 -0.10078087553E+03  0.16789656898E+03  0.00000000000E+00 0.  1.
<scales pt_clust_3="34.06412" pt_clust_4="36.11201" pt_clust_5="14000.00000" pt_clust_6="129.23904"></scales>
<clustering>
<clus scale="   36.112">  1  4  2 -1</clus>
<clus scale="   34.064">  1  3  2 -1</clus>
<clus scale="  129.239">  2  6  1 -1</clus>
<clus scale="   36.112">  1  3  2 -1</clus>
</clustering>
</event>
<event>
 6    0  0.8610502E+002  0.8840830E+02  0.7546771E-02  0.1306753E+00
         21   -1    0    0  504  501  0.00000000000E+00  0.00000000000E+00  0.23567086134E+03  0.23567086134E+03  0.00000000000E+00 0.  1.
         21   -1    0    0  503  502 -0.00000000000E+00 -0.00000000000E+00 -0.13798816919E+03  0.13798816919E+03  0.00000000000E+00 0.  1.
         21    1    1    2  503  505 -0.83318918924E+02 -0.36268991234E+02 -0.65148461038E+02  0.11181146610E+03  0.00000000000E+00 0.  1.
         21    1    1    2  504  506 -0.16187912573E+02 -0.34491555133E+02  0.11966035794E+02  0.39936222926E+02  0.00000000000E+00 0.  1.
         21    1    1    2  505  501  0.15815106282E+02  0.60888259955E+02  0.11341282626E+03  0.12969181527E+03  0.00000000000E+00 0.  1.
         21    1    1    2  506  502  0.83691725215E+02  0.98722864116E+01  0.37452291129E+02  0.92219526237E+02  0.00000000000E+00 0.  1.
<scales pt_clust_3="14000.00000" pt_clust_4="38.10139" pt_clust_5="41.39996" pt_clust_6="88.40830"></scales>
<clustering>
<clus scale="   38.101">  1  4  2 -1</clus>
<clus scale="   41.400">  1  5  2 -1</clus>
<clus scale="   88.408">  1  6  2 -1</clus>
<clus scale="   38.101">  1  3  2 -1</clus>
</clustering>
</event>
<event>
 6    0  0.8610502E+002  0.1178251E+03  0.7546771E-02  0.1246729E+00
         21   -1    0    0  504  501  0.00000000000E+00  0.00000000000E+00  0.20116751098E+03  0.20116751098E+03  0.00000000000E+00 0. -1.
         21   -1    0    0  505  502 -0.00000000000E+00 -0.00000000000E+00 -0.27525811562E+03  0.27525811562E+03  0.00000000000E+00 0. -1.
         21    1    1    2  503  502  0.15103134418E+02  0.14515955111E+03 -0.13383906155E+02  0.14655554883E+03  0.00000000000E+00 0. -1.
         21    1    1    2  504  503  0.34233873944E+02 -0.15643764173E+01  0.72026703136E+02  0.79763722101E+02  0.00000000000E+00 0. -1.
         21    1    1    2  505  506 -0.25010063003E+01 -0.11037753066E+03 -0.15347008395E+03  0.18905692522E+03  0.00000000000E+00 0. -1.
         21    1    1    2  506  501 -0.46836002061E+02 -0.33217644037E+02  0.20736682326E+02  0.61049430451E+02  0.00000000000E+00 0.  1.
<scales pt_clust_3="117.82514" pt_clust_4="34.26960" pt_clust_5="14000.00000" pt_clust_6="49.08462"></scales>
<clustering>
<clus scale="   34.270">  1  4  2 -1</clus>
<clus scale="   49.085">  1  6  2 -1</clus>
<clus scale="  117.825">  1  3  2 -1</clus>
<clus scale="   34.270">  1  3  2 -1</clus>
</clustering>
</event>
<event>
 6    0  0.8610502E+002  0.1102131E+03  0.7546771E-02  0.1260176E+00
         21   -1    0    0  506  501  0.00000000000E+00  0.00000000000E+00  0.62323901083E+03  0.62323901083E+03  0.00000000000E+00 0.  1.
         21   -1    0    0  503  502 -0.00000000000E+00 -0.00000000000E+00 -0.31370807444E+03  0.31370807444E+03  0.00000000000E+00 0.  1.
         21    1    1    2  503  505 -0.15285589413E+02 -0.31231315629E+02 -0.26897820103E+03  0.27121636556E+03  0.00000000000E+00 0.  1.
         21    1    1    2  504  502 -0.18651829772E+01  0.72099872092E+02  0.41692487797E+02  0.83307466664E+02  0.00000000000E+00 0.  1.
         21    1    1    2  505  501  0.10503988425E+03  0.32350380498E+02  0.22820784794E+03  0.25329576835E+03  0.00000000000E+00 0.  1.
         21    1    1    2  506  504 -0.87889111860E+02 -0.73218936961E+02  0.30860880168E+03  0.32912748470E+03  0.00000000000E+00 0.  1.
<scales pt_clust_3="34.77131" pt_clust_4="57.92738" pt_clust_5="14000.00000" pt_clust_6="110.21308"></scales>
<clustering>
<clus scale="   34.771">  2  3  1 -1</clus>
<clus scale="   57.927">  2  4  1 -1</clus>
<clus scale="  110.213">  1  6  2 -1</clus>
<clus scale="  110.213">  1  3  2 -1</clus>
</clustering>
</event>
<event>
 6    0  0.8610502E+002  0.4986344E+03  0.7546771E-02  0.1014136E+00
         21   -1    0    0  503  501  0.00000000000E+00  0.00000000000E+00  0.19982020663E+04  0.19982020663E+04  0.00000000000E+00 0.  1.
         21   -1    0    0  504  502 -0.00000000000E+00 -0.00000000000E+00 -0.19275307177E+03  0.19275307177E+03  0.00000000000E+00 0.  1.
         21    1    1    2  503  502  0.41870168758E+03 -0.18227587487E+03  0.42137243718E+03  0.62136167290E+03  0.00000000000E+00 0.  1.
         21    1    1    2  504  506  0.43954809426E+02 -0.48105535345E+01 -0.38031594646E+02  0.58322970503E+02  0.00000000000E+00 0.  1.
         21    1    1    2  505  501 -0.39921594931E+03  0.17022616031E+03  0.10995362566E+04  0.11820872639E+04  0.00000000000E+00 0.  1.
         21    1    1    2  506  505 -0.63440547691E+02  0.16860268093E+02  0.32257189538E+03  0.32918323077E+03  0.00000000000E+00 0.  1.
<scales pt_clust_3="485.94412" pt_clust_4="44.21727" pt_clust_5="43.47224" pt_clust_6="43.47224"></scales>
<clustering>
<clus scale="   43.472">  5  6 -1 -1</clus>
<clus scale="   44.217">  2  4  1 -1</clus>
<clus scale="  485.944">  2  3  1 -1</clus>
<clus scale="  498.634">  1  3  2 -1</clus>
</clustering>
</event>
<event>
 6    0  0.8610502E+002  0.8037790E+02  0.7546771E-02  0.1327982E+00
         21   -1    0    0  503  501  0.00000000000E+00  0.00000000000E+00  0.99350614763E+03  0.99350614763E+03  0.00000000000E+00 0.  1.
         21   -1    0    0  504  502 -0.00000000000E+00 -0.00000000000E+00 -0.43370463213E+02  0.43370463213E+02  0.00000000000E+00 0.  1.
         21    1    1    2  503  506  0.47491476026E+02  0.12848137519E+02  0.28959629298E+03  0.29374568566E+03  0.00000000000E+00 0.  1.
         21    1    1    2  504  501 -0.93231608384E+02  0.60106157719E+02  0.60437060048E+03  0.61446619575E+03  0.00000000000E+00 0.  1.
         21    1    1    2  505  502 -0.32276842566E+00 -0.33639172165E+02 -0.13593848306E+02  0.36283478268E+02  0.00000000000E+00 0.  1.
         21    1    1    2  506  505  0.46062900783E+02 -0.39315123073E+02  0.69762639266E+02  0.92381251173E+02  0.00000000000E+00 0.  1.
<scales pt_clust_3="48.31258" pt_clust_4="14000.00000" pt_clust_5="33.64072" pt_clust_6="80.37790"></scales>
<clustering>
<clus scale="   33.641">  2  5  1 -1</clus>
<clus scale="   48.313">  1  3  2 -1</clus>
<clus scale="   80.378">  2  6  1 -1</clus>
<clus scale="   48.313">  1  3  2 -1</clus>
</clustering>
</event>
<event>
 6    0  0.8610502E+002  0.1285397E+03  0.7546771E-02  0.1229639E+00
         21   -1    0    0  506  501  0.00000000000E+00  0.00000000000E+00  0.10430315427E+04  0.10430315427E+04  0.00000000000E+00 0.  1.
         21   -1    0    0  504  502 -0.00000000000E+00 -0.00000000000E+00 -0.33697673836E+02  0.33697673836E+02  0.00000000000E+00 0. -1.
         21    1    1    2  503  502  0.42734907162E+02 -0.55059782558E+02  0.27931146728E+03  0.28787627152E+03  0.00000000000E+00 0.  1.
         21    1    1    2  504  505 -0.57994449251E+02  0.10022571918E+03  0.10630861633E+03  0.15719437914E+03  0.00000000000E+00 0. -1.
         21    1    1    2  505  501 -0.31843901049E+02 -0.15577971075E+02  0.12749363968E+03  0.13233040231E+03  0.00000000000E+00 0.  1.
         21    1    1    2  506  503  0.47103443139E+02 -0.29587965544E+02  0.49622014562E+03  0.49932816362E+03  0.00000000000E+00 0.  1.
<scales pt_clust_3="46.10656" pt_clust_4="116.26302" pt_clust_5="35.45007" pt_clust_6="46.10656"></scales>
<clustering>
<clus scale="   35.450">  1  5  2 -1</clus>
<clus scale="   46.107">  3  6 -1 -1</clus>
<clus scale="  116.263">  2  4  1 -1</clus>
<clus scale="   35.450">  1  3  2 -1</clus>
</clustering>
</event>
<event>
 6    0  0.8610502E+002  0.1306301E+03  0.7546771E-02  0.1226524E+00
         21   -1    0    0  503  501  0.00000000000E+00  0.00000000000E+00  0.24615796974E+03  0.24615796974E+03  0.00000000000E+00 0. -1.
         21   -1    0    0  505  502 -0.00000000000E+00 -0.00000000000E+00 -0.28075181415E+03  0.28075181415E+03  0.00000000000E+00 0. -1.
         21    1    1    2  503  506  0.62750044707E+02 -0.11046225798E+03 -0.52336017842E+01  0.12714900368E+03  0.00000000000E+00 0. -1.
         21    1    1    2  504  501 -0.39263720357E+02  0.12946183853E+03  0.20719714888E+02  0.13686239059E+03  0.00000000000E+00 0. -1.
         21    1    1    2  505  504  0.11369592994E+03  0.16899137183E+02 -0.91533770896E+01  0.11530884456E+03  0.00000000000E+00 0. -1.
         21    1    1    2  506  502 -0.13718225429E+03 -0.35898717737E+02 -0.40926580423E+02  0.14758954506E+03  0.00000000000E+00 0. -1.
<scales pt_clust_3="130.63011" pt_clust_4="14000.00000" pt_clust_5="114.94497" pt_clust_6="92.66685"></scales>
<clustering>
<clus scale="  114.945">  2  5  1 -1</clus>
<clus scale="   92.667">  2  6  1 -1</clus>
<clus scale="  130.630">  2  3  1 -1</clus>
<clus scale="  130.630">  1  3  2 -1</clus>
</clustering>
</event>
<event>
 6    0  0.8610502E+002  0.7932875E+02  0.7546771E-02  0.1330967E+00
         21   -1    0    0  504  501  0.00000000000E+00  0.00000000000E+00  0.18392991969E+03  0.18392991969E+03  0.00000000000E+00 0.  1.
         21   -1    0    0  503  502 -0.00000000000E+00 -0.00000000000E+00 -0.97340849244E+03  0.97340849244E+03  0.00000000000E+00 0. -1.
         21    1    1    2  503  506 -0.45143691686E+02 -0.10612235621E+02 -0.65101656757E+03  0.65266618091E+03  0.00000000000E+00 0. -1.
         21    1    1    2  504  502 -0.65024806868E+02  0.40650624735E+02  0.13266630612E+03  0.15323526871E+03  0.00000000000E+00 0.  1.
         21    1    1    2  505  501  0.12481312721E+03 -0.82581034903E+02 -0.25301361360E+03  0.29396229812E+03  0.00000000000E+00 0. -1.
         21    1    1    2  506  505 -0.14644628652E+02  0.52542645788E+02 -0.18114697692E+02  0.57474664394E+02  0.00000000000E+00 0. -1.
<scales pt_clust_3="46.37426" pt_clust_4="79.32875" pt_clust_5="14000.00000" pt_clust_6="55.03850"></scales>
<clustering>
<clus scale="   46.374">  2  3  1 -1</clus>
<clus scale="   55.038">  2  6  1 -1</clus>
<clus scale="   79.329">  1  4  2 -1</clus>
<clus scale="   79.329">  1  3  2 -1</clus>
</clustering>
</event>
<event>
 6    0  0.8610502E+002  0.1315448E+03  0.7546771E-02  0.1225181E+00
         21   -1    0    0  505  501  0.00000000000E+00  0.00000000000E+00  0.14946003403E+04  0.14946003403E+04  0.00000000000E+00 0. -1.
         21   -1    0    0  506  502 -0.00000000000E+00 -0.00000000000E+00 -0.62991313913E+02  0.62991313913E+02  0.00000000000E+00 0. -1.
         21    1    1    2  503  501 -0.15846615549E+03  0.17600198329E+02  0.41707253024E+03  0.44650955745E+03  0.00000000000E+00 0. -1.
         21    1    1    2  504  502  0.37599225179E+02 -0.38426610638E+00 -0.28307085710E+02  0.47065279091E+02  0.00000000000E+00 0. -1.
         21    1    1    2  505  504  0.12298740337E+03  0.25139721242E+02  0.98118120947E+03  0.98917868598E+03  0.00000000000E+00 0. -1.
         21    1    1    2  506  503 -0.21204730577E+01 -0.42355653465E+02  0.61662372376E+02  0.74838131681E+02  0.00000000000E+00 0. -1.
<scales pt_clust_3="14000.00000" pt_clust_4="37.60119" pt_clust_5="131.54481" pt_clust_6="43.14261"></scales>
<clustering>
<clus scale="   37.601">  2  4  1 -1</clus>
<clus scale="   43.143">  2  6  1 -1</clus>
<clus scale="  131.545">  1  5  2 -1</clus>
<clus scale="  131.545">  1  3  2 -1</clus>
</clustering>
</event>
<event>
 6    0  0.8610502E+002  0.1090015E+03  0.7546771E-02  0.1262430E+00
         21   -1    0    0  505  501  0.00000000000E+00  0.00000000000E+00  0.13255930073E+04  0.13255930073E+04  0.00000000000E+00 0.  1.
         21   -1    0    0  506  502 -0.00000000000E+00 -0.00000000000E+00 -0.26989736959E+02  0.26989736959E+02  0.00000000000E+00 0. -1.
         21    1    1    2  503  504  0.30370523799E+02 -0.17189659698E+02  0.10680590393E+03  0.11236260157E+03  0.00000000000E+00 0.  1.
         21    1    1    2  504  502 -0.37719557146E+02  0.27589289497E+02  0.12080981111E+02  0.48268871862E+02  0.00000000000E+00 0. -1.
         21    1    1    2  505  503  0.80858426716E+02 -0.39757497146E+02  0.69454828078E+03  0.70036851591E+03  0.00000000000E+00 0.  1.
         21    1    1    2  506  501 -0.73509393369E+02  0.29357867348E+02  0.48516810452E+03  0.49158275492E+03  0.00000000000E+00 0.  1.
<scales pt_clust_3="32.62669" pt_clust_4="46.73258" pt_clust_5="32.62669" pt_clust_6="95.56597"></scales>
<clustering>
<clus scale="   32.627">  3  5 -1 -1</clus>
<clus scale="   46.733">  2  4  1 -1</clus>
<clus scale="   95.566">  1  6  2 -1</clus>
<clus scale="   95.566">  1  3  2 -1</clus>
</clustering>
</event>
<event>
 6    0  0.8610502E+002  0.8887338E+02  0.7546771E-02  0.1305603E+00
         21   -1    0    0  506  501  0.00000000000E+00  0.00000000000E+00  0.81783714646E+03  0.81783714646E+03  0.00000000000E+00 0.  1.
         21   -1    0    0  504  502 -0.00000000000E+00 -0.00000000000E+00 -0.32081502097E+03  0.32081502097E+03  0.00000000000E+00 0. -1.
         21    1    1    2  503  502  0.48517761736E+02  0.21899385783E+02 -0.29577493356E+03  0.30052681681E+03  0.00000000000E+00 0. -1.
         21    1    1    2  504  501  0.64112551803E+02 -0.56547119971E+01  0.49602149229E+03  0.50017968360E+03  0.00000000000E+00 0.  1.
         21    1    1    2  505  503 -0.12176478519E+03  0.20621117826E+02  0.23344349555E+03  0.26409801027E+03  0.00000000000E+00 0.  1.
         21    1    1    2  506  505  0.91344716517E+01 -0.36865791612E+02  0.63332071210E+02  0.73847656748E+02  0.00000000000E+00 0.  1.
<scales pt_clust_3="53.20960" pt_clust_4="14000.00000" pt_clust_5="88.87338" pt_clust_6="37.98059"></scales>
<clustering>
<clus scale="   37.981">  1  6  2 -1</clus>
<clus scale="   53.210">  2  3  1 -1</clus>
<clus scale="   88.873">  2  5  1 -1</clus>
<clus scale="   37.981">  1  3  2 -1</clus>
</clustering>
</event>
<event>
 6    0  0.8610502E+002  0.1070814E+03  0.7546771E-02  0.1266072E+00
         21   -1    0    0  506  501  0.00000000000E+00  0.00000000000E+00  0.92051310450E+02  0.92051310450E+02  0.00000000000E+00 0. -1.
         21   -1    0    0  505  502 -0.00000000000E+00 -0.00000000000E+00 -0.39722722987E+03  0.39722722987E+03  0.00000000000E+00 0.  1.
         21    1    1    2  503  502  0.24808867592E+02  0.72899560868E+02 -0.30142972306E+02  0.82694768065E+02  0.00000000000E+00 0.  1.
         21    1    1    2  504  503  0.41643659418E+02  0.30007245609E+02 -0.60492134673E+02  0.79334277056E+02  0.00000000000E+00 0.  1.
         21    1    1    2  505  501  0.74944291071E+00 -0.50853774768E+02 -0.23448516579E+03  0.23993741069E+03  0.00000000000E+00 0.  1.
         21    1    1    2  506  504 -0.67201969921E+02 -0.52053031709E+02  0.19944353346E+02  0.87312084512E+02  0.00000000000E+00 0. -1.
<scales pt_clust_3="44.96259" pt_clust_4="44.96259" pt_clust_5="50.85930" pt_clust_6="91.83399"></scales>
<clustering>
<clus scale="   44.963">  3  4 -1 -1</clus>
<clus scale="   50.859">  2  5  1 -1</clus>
<clus scale="   91.834">  1  6  2 -1</clus>
<clus scale="   91.834">  1  3  2 -1</clus>
</clustering>
</event>
<event>
 6    0  0.8610502E+002  0.1056931E+03  0.7546771E-02  0.1268760E+00
         21   -1    0    0  506  501  0.00000000000E+00  0.00000000000E+00  0.12500196900E+04  0.12500196900E+04  0.00000000000E+00 0. -1.
         21   -1    0    0  505  502 -0.00000000000E+00 -0.00000000000E+00 -0.71123582803E+02  0.71123582803E+02  0.00000000000E+00 0. -1.
         21    1    1    2  503  502  0.97633333517E+02  0.52939733349E+02  0.26080484138E+02  0.11408363087E+03  0.00000000000E+00 0. -1.
         21    1    1    2  504  501 -0.37417472750E+02 -0.25386175175E+02  0.10079130669E+04  0.10089267940E+04  0.00000000000E+00 0. -1.
         21    1    1    2  505  504  0.10202346073E+01  0.42255551749E+02  0.45164881692E+02  0.61858217486E+02  0.00000000000E+00 0. -1.
         21    1    1    2  506  503 -0.61236095374E+02 -0.69809109923E+02  0.99737674491E+02  0.13627463050E+03  0.00000000000E+00 0.  1.
<scales pt_clust_3="105.69309" pt_clust_4="45.01892" pt_clust_5="42.26787" pt_clust_6="14000.00000"></scales>
<clustering>
<clus scale="   42.268">  2  5  1 -1</clus>
<clus scale="   45.019">  1  4  2 -1</clus>
<clus scale="  105.693">  2  3  1 -1</clus>
<clus scale="   45.019">  1  3  2 -1</clus>
</clustering>
</event>
<event>
 6    0  0.8610502E+002  0.7047573E+02  0.7546771E-02  0.1358483E+00
         21   -1    0    0  506  501  0.00000000000E+00  0.00000000000E+00  0.82290483057E+02  0.82290483057E+02  0.00000000000E+00 0.  1.
         21   -1    0    0  505  502 -0.00000000000E+00 -0.00000000000E+00 -0.96191648683E+03  0.96191648683E+03  0.00000000000E+00 0.  1.
         21    1    1    2  503  502 -0.67721087122E+02  0.14010131646E+02 -0.83613749320E+03  0.83899245346E+03  0.00000000000E+00 0.  1.
         21    1    1    2  504  501  0.61147399411E+01 -0.35102275836E+02  0.16574618037E+02  0.39297299862E+02  0.00000000000E+00 0.  1.
         21    1    1    2  505  504  0.99885389201E+02 -0.15863677924E+02 -0.44385378293E+02  0.11044821891E+03  0.00000000000E+00 0.  1.
         21    1    1    2  506  503 -0.38279042020E+02  0.36955822114E+02 -0.15677750314E+02  0.55468997656E+02  0.00000000000E+00 0.  1.
<scales pt_clust_3="14000.00000" pt_clust_4="35.63088" pt_clust_5="70.47573" pt_clust_6="43.36010"></scales>
<clustering>
<clus scale="   35.631">  1  4  2 -1</clus>
<clus scale="   43.360">  1  6  2 -1</clus>
<clus scale="   70.476">  1  5  2 -1</clus>
<clus scale="   35.631">  1  3  2 -1</clus>
</clustering>
</event>
<event>
 6    0  0.8610502E+002  0.1177082E+03  0.7546771E-02  0.1246926E+00
         21   -1    0    0  505  501  0.00000000000E+00  0.00000000000E+00  0.22398366934E+04  0.22398366934E+04  0.00000000000E+00 0.  1.
         21   -1    0    0  506  502 -0.00000000000E+00 -0.00000000000E+00 -0.26325530423E+02  0.26325530423E+02  0.00000000000E+00 0.  1.
         21    1    1    2  503  502  0.22140915657E+02 -0.27104345249E+02  0.13442564550E+02  0.37490908487E+02  0.00000000000E+00 0.  1.
         21    1    1    2  504  501  0.38324766641E+02 -0.30569679223E+02  0.98696977372E+03  0.98818653465E+03  0.00000000000E+00 0.  1.
         21    1    1    2  505  503  0.86327871320E+02  0.61794960114E+02  0.38044674531E+03  0.39498208121E+03  0.00000000000E+00 0.  1.
         21    1    1    2  506  504 -0.14679355362E+03 -0.41209356423E+01  0.83265207943E+03  0.84550269950E+03  0.00000000000E+00 0.  1.
<scales pt_clust_3="34.99808" pt_clust_4="50.47969" pt_clust_5="14000.00000" pt_clust_6="117.70818"></scales>
<clustering>
<clus scale="   34.998">  2  3  1 -1</clus>
<clus scale="   50.480">  1  4  2 -1</clus>
<clus scale="  117.708">  1  6  2 -1</clus>
<clus scale="   50.480">  1  3  2 -1</clus>
</clustering>
</event>
<event>
 6    0  0.8610502E+002  0.1132178E+03  0.7546771E-02  0.1254725E+00
         21   -1    0    0  506  501  0.00000000000E+00  0.00000000000E+00  0.80516491401E+02  0.80516491401E+02  0.00000000000E+00 0. -1.
         21   -1    0    0  503  502 -0.00000000000E+00 -0.00000000000E+00 -0.36970040376E+03  0.36970040376E+03  0.00000000000E+00 0.  1.
         21    1    1    2  503  501 -0.63124405350E+01  0.51428335403E+02 -0.28354942890E+02  0.59065416058E+02  0.00000000000E+00 0.  1.
         21    1    1    2  504  505 -0.35418313541E+02 -0.26419451954E+02 -0.58568917411E+02  0.73367311947E+02  0.00000000000E+00 0.  1.
         21    1    1    2  505  502 -0.61249898882E+02 -0.79929542643E+01 -0.20425246422E+03  0.21338815940E+03  0.00000000000E+00 0.  1.
         21    1    1    2  506  504  0.10298065296E+03 -0.17015929184E+02  0.19924121624E+01  0.10439600776E+03  0.00000000000E+00 0. -1.
<scales pt_clust_3="51.81429" pt_clust_4="43.33068" pt_clust_5="43.33068" pt_clust_6="100.96334"></scales>
<clustering>
<clus scale="   43.331">  4  5 -1 -1</clus>
<clus scale="   51.814">  1  3  2 -1</clus>
<clus scale="  100.963">  1  6  2 -1</clus>
<clus scale="   51.814">  1  3  2 -1</clus>
</clustering>
</event>
<event>
 6    0  0.8610502E+002  0.1153792E+03  0.7546771E-02  0.1250921E+00
         21   -1    0    0  506  501  0.00000000000E+00  0.00000000000E+00  0.83890129833E+02  0.83890129833E+02  0.00000000000E+00 0. -1.
         21   -1    0    0  504  502 -0.00000000000E+00 -0.00000000000E+00 -0.36365803506E+03  0.36365803506E+03  0.00000000000E+00 0. -1.
         21    1    1    2  503  505  0.11413291740E+03 -0.50623733320E+01 -0.40019249678E+02  0.12105160388E+03  0.00000000000E+00 0. -1.
         21    1    1    2  504  503 -0.10366123774E+03  0.58711270766E+02 -0.23034303794E+03  0.25932716914E+03  0.00000000000E+00 0. -1.
         21    1    1    2  505  501  0.12789622698E+02 -0.32990733767E+02 -0.56989395633E+01  0.35839097022E+02  0.00000000000E+00 0. -1.
         21    1    1    2  506  502 -0.23261302353E+02 -0.20658163667E+02 -0.37066780426E+01  0.31330294850E+02  0.00000000000E+00 0. -1.
<scales pt_clust_3="115.37920" pt_clust_4="14000.00000" pt_clust_5="38.23463" pt_clust_6="31.11025"></scales>
<clustering>
<clus scale="   31.110">  1  6  2 -1</clus>
<clus scale="   38.235">  1  5  2 -1</clus>
<clus scale="  115.379">  1  3  2 -1</clus>
<clus scale="   31.110">  1  3  2 -1</clus>
</clustering>
</event>
<event>
 6    0  0.8610502E+002  0.1207946E+03  0.7546771E-02  0.1241792E+00
         21   -1    0    0  505  501  0.00000000000E+00  0.00000000000E+00  0.20125773394E+03  0.20125773394E+03  0.00000000000E+00 0. -1.
         21   -1    0    0  506  502 -0.00000000000E+00 -0.00000000000E+00 -0.16081753350E+03  0.16081753350E+03  0.00000000000E+00 0. -1.
         21    1    1    2  503  504  0.38222193834E+02  0.56868421607E+02  0.91272600196E+02  0.11412993045E+03  0.00000000000E+00 0. -1.
         21    1    1    2  504  502 -0.38092146260E+02 -0.52288141387E+02  0.10836038931E+01  0.64701124672E+02  0.00000000000E+00 0. -1.
         21    1    1    2  505  503  0.45761437315E+02  0.41274338067E+02  0.37976361570E+02  0.72387044187E+02  0.00000000000E+00 0. -1.
         21    1    1    2  506  501 -0.45891484889E+02 -0.45854618288E+02 -0.89892365214E+02  0.11085716814E+03  0.00000000000E+00 0. -1.
<scales pt_clust_3="35.45937" pt_clust_4="64.69205" pt_clust_5="35.45937" pt_clust_6="114.86212"></scales>
<clustering>
<clus scale="   35.459">  3  5 -1 -1</clus>
<clus scale="   64.692">  2  4  1 -1</clus>
<clus scale="  114.862">  2  6  1 -1</clus>
<clus scale="  120.795">  1  3  2 -1</clus>
</clustering>
</event>
<event>
 6    0  0.8610502E+002  0.9572618E+02  0.7546771E-02  0.1289549E+00
         21   -1    0    0  506  501  0.00000000000E+00  0.00000000000E+00  0.23594360469E+03  0.23594360469E+03  0.00000000000E+00 0. -1.
         21   -1    0    0  505  502 -0.00000000000E+00 -0.00000000000E+00 -0.93021288854E+03  0.93021288854E+03  0.00000000000E+00 0. -1.
         21    1    1    2  503  502 -0.88464647213E+02 -0.27365211134E+02 -0.21391874653E+03  0.23310100537E+03  0.00000000000E+00 0. -1.
         21    1    1    2  504  501  0.51114614969E+02  0.27323951870E+01  0.25377076206E+02  0.57132878833E+02  0.00000000000E+00 0.  1.
         21    1    1    2  505  504  0.17714436808E+02 -0.43235618131E+02 -0.68325610160E+03  0.68485182363E+03  0.00000000000E+00 0. -1.
         21    1    1    2  506  503  0.19635595436E+02  0.67868434078E+02  0.17752848808E+03  0.19107078540E+03  0.00000000000E+00 0. -1.
<scales pt_clust_3="14000.00000" pt_clust_4="52.25727" pt_clust_5="46.72387" pt_clust_6="95.72618"></scales>
<clustering>
<clus scale="   46.724">  2  5  1 -1</clus>
<clus scale="   52.257">  1  4  2 -1</clus>
<clus scale="   95.726">  1  6  2 -1</clus>
<clus scale="   52.257">  1  3  2 -1</clus>
</clustering>
</event>
<event>
 6    0  0.8610502E+002  0.9372870E+02  0.7546771E-02  0.1294065E+00
         21   -1    0    0  504  501  0.00000000000E+00  0.00000000000E+00  0.46398545101E+02  0.46398545101E+02  0.00000000000E+00 0.  1.
         21   -1    0    0  505  502 -0.00000000000E+00 -0.00000000000E+00 -0.20076968035E+04  0.20076968035E+04  0.00000000000E+00 0.  1.
         21    1    1    2  503  501  0.21197226436E+02 -0.23655560478E+02 -0.37631245169E+02  0.49244477488E+02  0.00000000000E+00 0.  1.
         21    1    1    2  504  506 -0.88652825809E+02  0.19988431722E+02 -0.20974771944E+02  0.93267368274E+02  0.00000000000E+00 0.  1.
         21    1    1    2  505  503 -0.20726351413E+02  0.35791642177E+02 -0.13026606445E+03  0.13667432400E+03  0.00000000000E+00 0. -1.
         21    1    1    2  506  502  0.88181950785E+02 -0.32124513421E+02 -0.17724261768E+04  0.17749091788E+04  0.00000000000E+00 0.  1.
<scales pt_clust_3="31.76331" pt_clust_4="14000.00000" pt_clust_5="38.90869" pt_clust_6="93.72870"></scales>
<clustering>
<clus scale="   31.763">  1  3  2 -1</clus>
<clus scale="   38.909">  1  5  2 -1</clus>
<clus scale="   93.729">  2  6  1 -1</clus>
<clus scale="   31.763">  1  3  2 -1</clus>
</clustering>
</event>
<event>
 6    0  0.8610502E+002  0.1337461E+03  0.7546771E-02  0.1222001E+00
         21   -1    0    0  503  501  0.00000000000E+00  0.00000000000E+00  0.42304278157E+03  0.42304278157E+03  0.00000000000E+00 0. -1.
         21   -1    0    0  506  502 -0.00000000000E+00 -0.00000000000E+00 -0.28510299173E+03  0.28510299173E+03  0.00000000000E+00 0.  1.
         21    1    1    2  503  505  0.71626939964E+01  0.38199020087E+02  0.17188504568E+01  0.38902747561E+02  0.00000000000E+00 0.  1.
         21    1    1    2  504  501  0.11957162594E+03 -0.12133127325E+02  0.32221837350E+03  0.34390299029E+03  0.00000000000E+00 0. -1.
         21    1    1    2  505  502 -0.83710485087E+02  0.75934954831E+02 -0.49490547479E+01  0.11312849253E+03  0.00000000000E+00 0. -1.
         21    1    1    2  506  504 -0.43023834851E+02 -0.10200084759E+03 -0.18104837937E+03  0.21221154292E+03  0.00000000000E+00 0.  1.
<scales pt_clust_3="38.08013" pt_clust_4="116.92339" pt_clust_5="38.08013" pt_clust_6="110.70331"></scales>
<clustering>
<clus scale="   38.080">  3  5 -1 -1</clus>
<clus scale="  110.703">  2  6  1 -1</clus>
<clus scale="  116.923">  1  4  2 -1</clus>
<clus scale="  116.923">  1  3  2 -1</clus>
</clustering>
</event>
<event>
 6    0  0.8610502E+002  0.1107790E+03  0.7546771E-02  0.1259134E+00
         21   -1    0    0  505  501  0.00000000000E+00  0.00000000000E+00  0.59103627909E+03  0.59103627909E+03  0.00000000000E+00 0. -1.
         21   -1    0    0  506  502 -0.00000000000E+00 -0.00000000000E+00 -0.19789917511E+03  0.19789917511E+03  0.00000000000E+00 0.  1.
         21    1    1    2  503  501  0.11819305558E+03  0.82077376381E+02  0.39467217654E+03  0.42008620667E+03  0.00000000000E+00 0. -1.
         21    1    1    2  504  502 -0.78304628407E+02  0.20494445865E+02 -0.10704944808E+02  0.81647002300E+02  0.00000000000E+00 0. -1.
         21    1    1    2  505  504 -0.58746821791E+02  0.11400657415E+02  0.11557159699E+03  0.13014591077E+03  0.00000000000E+00 0. -1.
         21    1    1    2  506  503  0.18858394616E+02 -0.11397247966E+03 -0.10640172474E+03  0.15705633446E+03  0.00000000000E+00 0.  1.
<scales pt_clust_3="14000.00000" pt_clust_4="85.46725" pt_clust_5="59.84283" pt_clust_6="110.77901"></scales>
<clustering>
<clus scale="   59.843">  1  5  2 -1</clus>
<clus scale="   85.467">  2  4  1 -1</clus>
<clus scale="  110.779">  2  6  1 -1</clus>
<clus scale="   59.843">  1  3  2 -1</clus>
</clustering>
</event>
<event>
 6    0  0.8610502E+002  0.1169514E+03  0.7546771E-02  0.1248213E+00
         21   -1    0    0  506  501  0.00000000000E+00  0.00000000000E+00  0.49054855653E+02  0.49054855653E+02  0.00000000000E+00 0. -1.
         21   -1    0    0  503  502 -0.00000000000E+00 -0.00000000000E+00 -0.66312127922E+03  0.66312127922E+03  0.00000000000E+00 0. -1.
         21    1    1    2  503  504  0.58921588398E+02  0.67441549100E+02 -0.14386773270E+03  0.16946398035E+03  0.00000000000E+00 0. -1.
         21    1    1    2  504  501  0.34675797065E+02  0.60432328004E+02 -0.18541755577E+03  0.19807611456E+03  0.00000000000E+00 0. -1.
         21    1    1    2  505  502 -0.63533145715E+02 -0.34808053750E+02 -0.20812668123E+03  0.22037417419E+03  0.00000000000E+00 0. -1.
         21    1    1    2  506  505 -0.30064239748E+02 -0.93065823354E+02 -0.76654453870E+02  0.12426186578E+03  0.00000000000E+00 0. -1.
<scales pt_clust_3="34.66694" pt_clust_4="34.66694" pt_clust_5="72.44350" pt_clust_6="110.14949"></scales>
<clustering>
<clus scale="   34.667">  3  4 -1 -1</clus>
<clus scale="   72.444">  2  5  1 -1</clus>
<clus scale="  110.149">  1  6  2 -1</clus>
<clus scale="  110.149">  1  3  2 -1</clus>
</clustering>
</event>
<event>
 6    0  0.8610502E+002  0.1204814E+03  0.7546771E-02  0.1242305E+00
         21   -1    0    0  505  501  0.00000000000E+00  0.00000000000E+00  0.82396044182E+03  0.82396044182E+03  0.00000000000E+00 0. -1.
         21   -1    0    0  506  502 -0.00000000000E+00 -0.00000000000E+00 -0.27311329776E+02  0.27311329776E+02  0.00000000000E+00 0.  1.
         21    1    1    2  503  501 -0.60745311792E+02 -0.10738252308E+02  0.30749580766E+03  0.31362234406E+03  0.00000000000E+00 0. -1.
         21    1    1    2  504  502  0.21942083859E+02 -0.24436508745E+02  0.17776975777E+02  0.37344596282E+02  0.00000000000E+00 0.  1.
         21    1    1    2  505  504  0.10104871251E+03  0.16262178790E+02  0.27461377236E+03  0.29306658754E+03  0.00000000000E+00 0.  1.
         21    1    1    2  506  503 -0.62245484574E+02  0.18912582263E+02  0.19676255624E+03  0.20723824371E+03  0.00000000000E+00 0. -1.
<scales pt_clust_3="42.00680" pt_clust_4="32.84202" pt_clust_5="112.65021" pt_clust_6="42.00680"></scales>
<clustering>
<clus scale="   32.842">  2  4  1 -1</clus>
<clus scale="   42.007">  3  6 -1 -1</clus>
<clus scale="  112.650">  2  5  1 -1</clus>
<clus scale="  120.481">  1  3  2 -1</clus>
</clustering>
</event>
<event>
 6    0  0.8610502E+002  0.1248536E+03  0.7546771E-02  0.1235298E+00
         21   -1    0    0  505  501  0.00000000000E+00  0.00000000000E+00  0.17949254201E+03  0.17949254201E+03  0.00000000000E+00 0. -1.
         21   -1    0    0  506  502 -0.00000000000E+00 -0.00000000000E+00 -0.22325355314E+04  0.22325355314E+04  0.00000000000E+00 0. -1.
         21    1    1    2  503  502 -0.21158161200E+02  0.35379833670E+02 -0.10872389198E+04  0.10880201603E+04  0.00000000000E+00 0. -1.
         21    1    1    2  504  501  0.13101485123E+03 -0.29336706371E+02  0.14297628025E+03  0.19613197164E+03  0.00000000000E+00 0. -1.
         21    1    1    2  505  503 -0.39620934260E+02 -0.25060501804E+02 -0.97039022771E+03  0.97152202303E+03  0.00000000000E+00 0. -1.
         21    1    1    2  506  504 -0.70235755774E+02  0.19017374506E+02 -0.13839012209E+03  0.15635391845E+03  0.00000000000E+00 0. -1.
<scales pt_clust_3="41.22378" pt_clust_4="124.85360" pt_clust_5="57.77637" pt_clust_6="14000.00000"></scales>
<clustering>
<clus scale="   41.224">  2  3  1 -1</clus>
<clus scale="   57.776">  2  5  1 -1</clus>
<clus scale="  124.854">  1  4  2 -1</clus>
<clus scale="  124.854">  1  3  2 -1</clus>
</clustering>
</event>
<event>
 6    0  0.8610502E+002  0.8943200E+02  0.7546771E-02  0.1304233E+00
         21   -1    0    0  503  501  0.00000000000E+00  0.00000000000E+00  0.16327214798E+03  0.16327214798E+03  0.00000000000E+00 0.  1.
         21   -1    0    0  504  502 -0.00000000000E+00 -0.00000000000E+00 -0.23964698097E+03  0.23964698097E+03  0.00000000000E+00 0.  1.
         21    1    1    2  503  506  0.28523991558E+02 -0.88304948255E+02  0.99295755533E+02  0.13590816402E+03  0.00000000000E+00 0.  1.
         21    1    1    2  504  501  0.24070887229E+02 -0.40182266441E+02 -0.26243210885E+02  0.53691044559E+02  0.00000000000E+00 0.  1.
         21    1    1    2  505  502 -0.53610967474E+02  0.51005213217E+02 -0.83601607587E+02  0.11164630043E+03  0.00000000000E+00 0.  1.
         21    1    1    2  506  505  0.10160886873E+01  0.77482001479E+02 -0.65825770054E+02  0.10167361995E+03  0.00000000000E+00 0.  1.
<scales pt_clust_3="89.43200" pt_clust_4="46.84039" pt_clust_5="52.29013" pt_clust_6="14000.00000"></scales>
<clustering>
<clus scale="   46.840">  2  4  1 -1</clus>
<clus scale="   52.290">  2  5  1 -1</clus>
<clus scale="   89.432">  1  3  2 -1</clus>
<clus scale="   89.432">  1  3  2 -1</clus>
</clustering>
</event>
<event>
 6    0  0.8610502E+002  0.1533903E+03  0.7546771E-02  0.1196368E+00
         21   -1    0    0  505  501  0.00000000000E+00  0.00000000000E+00  0.31318899168E+03  0.31318899168E+03  0.00000000000E+00 0. -1.
         21   -1    0    0  506  502 -0.00000000000E+00 -0.00000000000E+00 -0.43231936306E+03  0.43231936306E+03  0.00000000000E+00 0. -1.
         21    1    1    2  503  502 -0.11298230215E+03 -0.78551772626E+02 -0.37209656041E+03  0.39672563800E+03  0.00000000000E+00 0. -1.
         21    1    1    2  504  503  0.11193289436E+03  0.82274966273E+02  0.15091752607E+03  0.20512006872E+03  0.00000000000E+00 0. -1.
         21    1    1    2  505  504  0.26392719438E+02  0.19775219597E+02  0.10394337557E+03  0.10904980639E+03  0.00000000000E+00 0. -1.
         21    1    1    2  506  501 -0.25343311643E+02 -0.23498413243E+02 -0.18947126154E+01  0.34612841633E+02  0.00000000000E+00 0. -1.
<scales pt_clust_3="139.02581" pt_clust_4="31.57825" pt_clust_5="31.57825" pt_clust_6="34.56094"></scales>
<clustering>
<clus scale="   31.578">  4  5 -1 -1</clus>
<clus scale="   34.561">  1  6  2 -1</clus>
<clus scale="  139.026">  2  3  1 -1</clus>
<clus scale="   34.561">  1  3  2 -1</clus>
</clustering>
</event>
<event>
 6    0  0.8610502E+002  0.6634154E+02  0.7546771E-02  0.1372995E+00
         21   -1    0    0  504  501  0.00000000000E+00  0.00000000000E+00  0.18097704260E+03  0.18097704260E+03  0.00000000000E+00 0. -1.
         21   -1    0    0  506  502 -0.00000000000E+00 -0.00000000000E+00 -0.20221500525E+03  0.20221500525E+03  0.00000000000E+00 0. -1.
         21    1    1    2  503  501  0.24337909798E+02  0.47931545794E+02  0.87892348196E+02  0.10302830585E+03  0.00000000000E+00 0. -1.
         21    1    1    2  504  505  0.46478298505E+02 -0.27679633343E+02  0.18166856545E+02  0.57065129551E+02  0.00000000000E+00 0.  1.
         21    1    1    2  505  502 -0.48438053281E+02  0.49829164469E+02 -0.13221696009E+03  0.14936704848E+03  0.00000000000E+00 0. -1.
         21    1    1    2  506  503 -0.22378155022E+02 -0.70081076919E+02  0.49197926944E+01  0.73731563963E+02  0.00000000000E+00 0. -1.
<scales pt_clust_3="53.75655" pt_clust_4="14000.00000" pt_clust_5="66.34154" pt_clust_6="49.32447"></scales>
<clustering>
<clus scale="   53.757">  1  3  2 -1</clus>
<clus scale="   49.324">  1  6  2 -1</clus>
<clus scale="   66.342">  2  5  1 -1</clus>
<clus scale="   53.757">  1  3  2 -1</clus>
</clustering>
</event>
<event>
 6    0  0.8610502E+002  0.2070453E+03  0.7546771E-02  0.1143927E+00
         21   -1    0    0  505  501  0.00000000000E+00  0.00000000000E+00  0.54518881116E+02  0.54518881116E+02  0.00000000000E+00 0.  1.
         21   -1    0    0  504  502 -0.00000000000E+00 -0.00000000000E+00 -0.18849040572E+04  0.18849040572E+04  0.00000000000E+00 0. -1.
         21    1    1    2  503  506  0.71540452088E+01  0.39318378347E+02 -0.99192993451E+02  0.10694094253E+03  0.00000000000E+00 0.  1.
         21    1    1    2  504  501 -0.14358147906E+03 -0.15857576802E+03 -0.49540280410E+03  0.53961639490E+03  0.00000000000E+00 0.  1.
         21    1    1    2  505  503  0.92690596222E+00 -0.33841180119E+02  0.59801215198E+01  0.34377994123E+02  0.00000000000E+00 0.  1.
         21    1    1    2  506  502  0.13550052789E+03  0.15309856979E+03 -0.12417695000E+04  0.12584876067E+04  0.00000000000E+00 0. -1.
<scales pt_clust_3="36.23512" pt_clust_4="14000.00000" pt_clust_5="33.85387" pt_clust_6="207.04531"></scales>
<clustering>
<clus scale="   33.854">  1  5  2 -1</clus>
<clus scale="   36.235">  1  3  2 -1</clus>
<clus scale="  207.045">  2  6  1 -1</clus>
<clus scale="   33.854">  1  3  2 -1</clus>
</clustering>
</event>
<event>
 6    0  0.8610502E+002  0.8851594E+02  0.7546771E-02  0.1306486E+00
         21   -1    0    0  505  501  0.00000000000E+00  0.00000000000E+00  0.76822888935E+02  0.76822888935E+02  0.00000000000E+00 0. -1.
         21   -1    0    0  506  502 -0.00000000000E+00 -0.00000000000E+00 -0.69540725844E+03  0.69540725844E+03  0.00000000000E+00 0.  1.
         21    1    1    2  503  502 -0.20771910666E+02  0.26409639749E+02 -0.29743246119E+03  0.29932425614E+03  0.00000000000E+00 0.  1.
         21    1    1    2  504  503 -0.44709966722E+02  0.84951224100E+02 -0.25693772037E+03  0.27428577022E+03  0.00000000000E+00 0.  1.
         21    1    1    2  505  504  0.39247660729E+02 -0.78378836666E+02  0.32211385039E+02  0.93387334451E+02  0.00000000000E+00 0. -1.
         21    1    1    2  506  501  0.26234216659E+02 -0.32982027183E+02 -0.96425572985E+02  0.10523278656E+03  0.00000000000E+00 0.  1.
<scales pt_clust_3="33.59972" pt_clust_4="88.51594" pt_clust_5="14000.00000" pt_clust_6="33.61039"></scales>
<clustering>
<clus scale="   33.600">  2  3  1 -1</clus>
<clus scale="   33.610">  2  6  1 -1</clus>
<clus scale="   88.516">  2  4  1 -1</clus>
<clus scale="   88.516">  1  3  2 -1</clus>
</clustering>
</event>
<event>
 6    0  0.8610502E+002  0.1371756E+03  0.7546771E-02  0.1217181E+00
         21   -1    0    0  505  501  0.00000000000E+00  0.00000000000E+00  0.82574806530E+02  0.82574806530E+02  0.00000000000E+00 0. -1.
         21   -1    0    0  504  502 -0.00000000000E+00 -0.00000000000E+00 -0.11013404055E+04  0.11013404055E+04  0.00000000000E+00 0. -1.
         21    1    1    2  503  502 -0.43157201851E+02  0.63625189658E+02 -0.24213507922E+03  0.25404744718E+03  0.00000000000E+00 0. -1.
         21    1    1    2  504  501 -0.82712974021E+01 -0.14252174783E+03 -0.65711664387E+03  0.67244564585E+03  0.00000000000E+00 0. -1.
         21    1    1    2  505  506  0.50926603495E+02  0.26249621817E+02  0.52390558390E+02  0.77635895032E+02  0.00000000000E+00 0. -1.
         21    1    1    2  506  503  0.50189575834E+00  0.52646936357E+02 -0.17190443423E+03  0.17978622393E+03  0.00000000000E+00 0. -1.
<scales pt_clust_3="31.44910" pt_clust_4="131.80629" pt_clust_5="57.29364" pt_clust_6="31.44910"></scales>
<clustering>
<clus scale="   31.449">  3  6 -1 -1</clus>
<clus scale="   57.294">  1  5  2 -1</clus>
<clus scale="  131.806">  2  4  1 -1</clus>
<clus scale="   57.294">  1  3  2 -1</clus>
</clustering>
</event>
<event>
 6    0  0.8610502E+002  0.1538535E+03  0.7546771E-02  0.1195816E+00
         21   -1    0    0  503  501  0.00000000000E+00  0.00000000000E+00  0.76342028923E+03  0.76342028923E+03  0.00000000000E+00 0. -1.
         21   -1    0    0  504  502 -0.00000000000E+00 -0.00000000000E+00 -0.44598760275E+03  0.44598760275E+03  0.00000000000E+00 0. -1.
         21    1    1    2  503  506 -0.48194332298E+01 -0.32067637582E+02  0.58169444078E+03  0.58259761650E+03  0.00000000000E+00 0. -1.
         21    1    1    2  504  501 -0.43124276235E+02  0.39221190242E+02 -0.36687440120E+01  0.58407744755E+02  0.00000000000E+00 0. -1.
         21    1    1    2  505  502  0.57502517495E+01  0.15310375512E+03 -0.34858675759E+03  0.38077099783E+03  0.00000000000E+00 0. -1.
         21    1    1    2  506  505  0.42193457715E+02 -0.16025730778E+03  0.87993747300E+02  0.18763153289E+03  0.00000000000E+00 0. -1.
<scales pt_clust_3="32.42777" pt_clust_4="55.72200" pt_clust_5="153.85349" pt_clust_6="14000.00000"></scales>
<clustering>
<clus scale="   32.428">  1  3  2 -1</clus>
<clus scale="   55.722">  1  4  2 -1</clus>
<clus scale="  153.853">  2  5  1 -1</clus>
<clus scale="   32.428">  1  3  2 -1</clus>
</clustering>
</event>
<event>
 6    0  0.8610502E+002  0.1900282E+03  0.7546771E-02  0.1158436E+00
         21   -1    0    0  503  501  0.00000000000E+00  0.00000000000E+00  0.19771903102E+03  0.19771903102E+03  0.00000000000E+00 0.  1.
         21   -1    0    0  504  502 -0.00000000000E+00 -0.00000000000E+00 -0.75642232405E+03  0.75642232405E+03  0.00000000000E+00 0.  1.
         21    1    1    2  503  502 -0.16058916281E+02  0.26965751451E+02 -0.27532030292E+03  0.27710342788E+03  0.00000000000E+00 0. -1.
         21    1    1    2  504  505  0.21165188464E+02 -0.71978124247E+02 -0.20490384278E+03  0.21820724176E+03  0.00000000000E+00 0. -1.
         21    1    1    2  505  506  0.59723741529E+02 -0.12087973205E+03 -0.20144084115E+03  0.24239894266E+03  0.00000000000E+00 0.  1.
         21    1    1    2  506  501 -0.64830013712E+02  0.16589210484E+03  0.12296169381E+03  0.21643174276E+03  0.00000000000E+00 0.  1.
<scales pt_clust_3="31.38536" pt_clust_4="41.16730" pt_clust_5="41.16730" pt_clust_6="181.12376"></scales>
<clustering>
<clus scale="   31.385">  2  3  1 -1</clus>
<clus scale="   41.167">  4  5 -1 -1</clus>
<clus scale="  181.124">  1  6  2 -1</clus>
<clus scale="  181.124">  1  3  2 -1</clus>
</clustering>
</event>
<event>
 6    0  0.8610502E+002  0.1522012E+03  0.7546771E-02  0.1197794E+00
         21   -1    0    0  503  501  0.00000000000E+00  0.00000000000E+00  0.83715949177E+03  0.83715949177E+03  0.00000000000E+00 0.  1.
         21   -1    0    0  506  502 -0.00000000000E+00 -0.00000000000E+00 -0.13973129174E+03  0.13973129174E+03  0.00000000000E+00 0. -1.
         21    1    1    2  503  505  0.13494143154E+03  0.91509750301E+02  0.71023377303E+03  0.72870792276E+03  0.00000000000E+00 0.  1.
         21    1    1    2  504  501 -0.10363384357E+03 -0.29043241156E+02  0.26632513183E+02  0.11087278362E+03  0.00000000000E+00 0. -1.
         21    1    1    2  505  502 -0.24701989976E+02 -0.95086226154E+02 -0.29347058219E+02  0.10253208541E+03  0.00000000000E+00 0. -1.
         21    1    1    2  506  504 -0.66055979935E+01  0.32619717008E+02 -0.10091027955E+02  0.34777991715E+02  0.00000000000E+00 0.  1.
<scales pt_clust_3="14000.00000" pt_clust_4="152.20119" pt_clust_5="81.84009" pt_clust_6="33.28182"></scales>
<clustering>
<clus scale="   33.282">  2  6  1 -1</clus>
<clus scale="   81.840">  2  5  1 -1</clus>
<clus scale="  152.201">  2  4  1 -1</clus>
<clus scale="  152.201">  1  3  2 -1</clus>
</clustering>
</event>
<event>
 6    0  0.8610502E+002  0.8548411E+02  0.7546771E-02  0.1314171E+00
         21   -1    0    0  503  501  0.00000000000E+00  0.00000000000E+00  0.15646430238E+03  0.15646430238E+03  0.00000000000E+00 0.  1.
         21   -1    0    0  505  502 -0.00000000000E+00 -0.00000000000E+00 -0.32980389961E+04  0.32980389961E+04  0.00000000000E+00 0. -1.
         21    1    1    2  503  502  0.71974422023E+02 -0.42968464736E+02 -0.55413802053E+02  0.10048530164E+03  0.00000000000E+00 0. -1.
         21    1    1    2  504  501 -0.32981725255E+02  0.88599457176E+01 -0.10355337128E+02  0.35686493887E+02  0.00000000000E+00 0.  1.
         21    1    1    2  505  506  0.57597663208E+02  0.63159418448E+02 -0.31754190731E+04  0.31765693590E+04  0.00000000000E+00 0. -1.
         21    1    1    2  506  504 -0.96590359976E+02 -0.29050899430E+02  0.99613518502E+02  0.14176214398E+03  0.00000000000E+00 0.  1.
<scales pt_clust_3="78.68852" pt_clust_4="34.15103" pt_clust_5="14000.00000" pt_clust_6="85.48411"></scales>
<clustering>
<clus scale="   34.151">  1  4  2 -1</clus>
<clus scale="   78.689">  1  3  2 -1</clus>
<clus scale="   85.484">  1  6  2 -1</clus>
<clus scale="   34.151">  1  3  2 -1</clus>
</clustering>
</event>
<event>
 6    0  0.8610502E+002  0.1413881E+03  0.7546771E-02  0.1211473E+00
         21   -1    0    0  504  501  0.00000000000E+00  0.00000000000E+00  0.22784203530E+04  0.22784203530E+04  0.00000000000E+00 0.  1.
         21   -1    0    0  505  502 -0.00000000000E+00 -0.00000000000E+00 -0.44130822202E+03  0.44130822202E+03  0.00000000000E+00 0.  1.
         21    1    1    2  503  502  0.76347852014E+01 -0.58813089077E+02  0.40797538400E+03  0.41226348776E+03  0.00000000000E+00 0. -1.
         21    1    1    2  504  506  0.15714648319E+02  0.27109055231E+02  0.63699415180E+03  0.63776437692E+03  0.00000000000E+00 0.  1.
         21    1    1    2  505  501 -0.34780937191E+02  0.12913999799E+03 -0.42657068826E+03  0.44704519319E+03  0.00000000000E+00 0.  1.
         21    1    1    2  506  503  0.11431503671E+02 -0.97435964142E+02  0.12187132835E+04  0.12226555172E+04  0.00000000000E+00 0.  1.
<scales pt_clust_3="36.95969" pt_clust_4="31.33450" pt_clust_5="133.87961" pt_clust_6="36.95969"></scales>
<clustering>
<clus scale="   31.335">  1  4  2 -1</clus>
<clus scale="   36.960">  3  6 -1 -1</clus>
<clus scale="  133.880">  2  5  1 -1</clus>
<clus scale="   31.335">  1  3  2 -1</clus>
</clustering>
</event>
<event>
 6    0  0.8610502E+002  0.1132073E+03  0.7546771E-02  0.1254743E+00
         21   -1    0    0  506  501  0.00000000000E+00  0.00000000000E+00  0.41373460008E+02  0.41373460008E+02  0.00000000000E+00 0. -1.
         21   -1    0    0  503  502 -0.00000000000E+00 -0.00000000000E+00 -0.19539717420E+04  0.19539717420E+04  0.00000000000E+00 0. -1.
         21    1    1    2  503  504 -0.94587006279E+02 -0.34883389522E+02 -0.11313735040E+04  0.11358563106E+04  0.00000000000E+00 0. -1.
         21    1    1    2  504  501 -0.37912073893E+02  0.16736792265E+02 -0.44142279342E+03  0.44336387777E+03  0.00000000000E+00 0. -1.
         21    1    1    2  505  502  0.32460056434E+02  0.51742127377E+01 -0.30886784502E+03  0.31061193382E+03  0.00000000000E+00 0. -1.
         21    1    1    2  506  505  0.10003902374E+03  0.12972384518E+02 -0.30934139501E+02  0.10551307984E+03  0.00000000000E+00 0. -1.
<scales pt_clust_3="31.16610" pt_clust_4="31.16610" pt_clust_5="32.86986" pt_clust_6="102.23989"></scales>
<clustering>
<clus scale="   31.166">  3  4 -1 -1</clus>
<clus scale="   32.870">  2  5  1 -1</clus>
<clus scale="  102.240">  1  6  2 -1</clus>
<clus scale="  102.240">  1  3  2 -1</clus>
</clustering>
</event>
<event>
 6    0  0.8610502E+002  0.1493228E+03  0.7546771E-02  0.1201308E+00
         21   -1    0    0  506  501  0.00000000000E+00  0.00000000000E+00  0.19399980688E+04  0.19399980688E+04  0.00000000000E+00 0.  1.
         21   -1    0    0  505  502 -0.00000000000E+00 -0.00000000000E+00 -0.48868961983E+02  0.48868961983E+02  0.00000000000E+00 0. -1.
         21    1    1    2  503  501 -0.16057326367E+02 -0.79776500660E+02  0.56914069052E+03  0.57492891160E+03  0.00000000000E+00 0.  1.
         21    1    1    2  504  502  0.28723632416E+02 -0.21260781279E+02 -0.26123329880E+02  0.44266197531E+02  0.00000000000E+00 0. -1.
         21    1    1    2  505  503 -0.23714382179E+02 -0.53198337995E+02  0.73708991477E+03  0.73938756924E+03  0.00000000000E+00 0.  1.
         21    1    1    2  506  504  0.11048076130E+02  0.15423561993E+03  0.61102183140E+03  0.63028435241E+03  0.00000000000E+00 0.  1.
<scales pt_clust_3="36.57547" pt_clust_4="35.73609" pt_clust_5="36.57547" pt_clust_6="142.73042"></scales>
<clustering>
<clus scale="   35.736">  2  4  1 -1</clus>
<clus scale="   36.575">  3  5 -1 -1</clus>
<clus scale="  142.730">  2  6  1 -1</clus>
<clus scale="  149.323">  1  3  2 -1</clus>
</clustering>
</event>
<event>
 6    0  0.8610502E+002  0.1329154E+03  0.7546771E-02  0.1223193E+00
         21   -1    0    0  505  501  0.00000000000E+00  0.00000000000E+00  0.30577885910E+03  0.30577885910E+03  0.00000000000E+00 0. -1.
         21   -1    0    0  503  502 -0.00000000000E+00 -0.00000000000E+00 -0.97015453728E+03  0.97015453728E+03  0.00000000000E+00 0.  1.
         21    1    1    2  503  506  0.12208950214E+03 -0.10887432832E+03 -0.42903260016E+03  0.45916057965E+03  0.00000000000E+00 0.  1.
         21    1    1    2  504  502 -0.26138241543E+02 -0.23107531170E+02 -0.42853523955E+03  0.42995304070E+03  0.00000000000E+00 0.  1.
         21    1    1    2  505  504  0.28272298974E+01  0.44635740930E+02 -0.75365866340E+02  0.87637642634E+02  0.00000000000E+00 0. -1.
         21    1    1    2  506  501 -0.98778490495E+02  0.87346118561E+02  0.26855802787E+03  0.29918213340E+03  0.00000000000E+00 0. -1.
<scales pt_clust_3="132.91536" pt_clust_4="34.88790" pt_clust_5="41.16901" pt_clust_6="14000.00000"></scales>
<clustering>
<clus scale="   34.888">  2  4  1 -1</clus>
<clus scale="   41.169">  2  5  1 -1</clus>
<clus scale="  132.915">  2  3  1 -1</clus>
<clus scale="  132.915">  1  3  2 -1</clus>
</clustering>
</event>
<event>
 6    0  0.8610502E+002  0.7074703E+02  0.7546771E-02  0.1357571E+00
         21   -1    0    0  505  501  0.00000000000E+00  0.00000000000E+00  0.12875497019E+04  0.12875497019E+04  0.00000000000E+00 0.  1.
         21   -1    0    0  504  502 -0.00000000000E+00 -0.00000000000E+00 -0.10522701443E+03  0.10522701443E+03  0.00000000000E+00 0.  1.
         21    1    1    2  503  506 -0.63130650987E+02  0.25375212053E+01  0.21932697353E+03  0.22824600638E+03  0.00000000000E+00 0.  1.
         21    1    1    2  504  503  0.50586503742E+02 -0.51533560817E+02 -0.81476076910E+02  0.10887172893E+03  0.00000000000E+00 0.  1.
         21    1    1    2  505  502  0.57279562847E+02  0.80022812054E+02  0.63390079427E+03  0.64149420555E+03  0.00000000000E+00 0.  1.
         21    1    1    2  506  501 -0.44735415601E+02 -0.31026772443E+02  0.41057099653E+03  0.41416477543E+03  0.00000000000E+00 0.  1.
<scales pt_clust_3="14000.00000" pt_clust_4="70.74703" pt_clust_5="62.49624" pt_clust_6="54.44188"></scales>
<clustering>
<clus scale="   54.442">  1  6  2 -1</clus>
<clus scale="   62.496">  1  5  2 -1</clus>
<clus scale="   70.747">  2  4  1 -1</clus>
<clus scale="   54.442">  1  3  2 -1</clus>
</clustering>
</event>
<event>
 6    0  0.8610502E+002  0.8618028E+02  0.7546771E-02  0.1312375E+00
         21   -1    0    0  505  501  0.00000000000E+00  0.00000000000E+00  0.23044104471E+02  0.23044104471E+02  0.00000000000E+00 0. -1.
         21   -1    0    0  506  502 -0.00000000000E+00 -0.00000000000E+00 -0.16639988972E+04  0.16639988972E+04  0.00000000000E+00 0. -1.
         21    1    1    2  503  501  0.72293205080E+02  0.32973066314E+02 -0.10867699695E+03  0.13462622430E+03  0.00000000000E+00 0. -1.
         21    1    1    2  504  502 -0.72410074812E+01 -0.36145777410E+02 -0.46737991561E+03  0.46883145684E+03  0.00000000000E+00 0. -1.
         21    1    1    2  505  504 -0.10675788248E+03 -0.61658422265E+02 -0.65773499118E+03  0.66918930441E+03  0.00000000000E+00 0. -1.
         21    1    1    2  506  503  0.41705684886E+02  0.64831133362E+02 -0.40716288899E+03  0.41439601612E+03  0.00000000000E+00 0. -1.
<scales pt_clust_3="14000.00000" pt_clust_4="36.86393" pt_clust_5="86.18028" pt_clust_6="65.46340"></scales>
<clustering>
<clus scale="   36.864">  2  4  1 -1</clus>
<clus scale="   65.463">  2  6  1 -1</clus>
<clus scale="   86.180">  2  5  1 -1</clus>
<clus scale="   86.180">  1  3  2 -1</clus>
</clustering>
</event>
<event>
 6    0  0.8610502E+002  0.8794191E+02  0.7546771E-02  0.1307914E+00
         21   -1    0    0  504  501  0.00000000000E+00  0.00000000000E+00  0.18718925523E+04  0.18718925523E+04  0.00000000000E+00 0. -1.
         21   -1    0    0  505  502 -0.00000000000E+00 -0.00000000000E+00 -0.38347182746E+02  0.38347182746E+02  0.00000000000E+00 0. -1.
         21    1    1    2  503  501  0.77484328153E+02 -0.53581985050E+02  0.78837215128E+03  0.79398079268E+03  0.00000000000E+00 0. -1.
         21    1    1    2  504  506 -0.27273765370E+02 -0.51028939179E+02  0.35320976632E+03  0.35791751835E+03  0.00000000000E+00 0. -1.
         21    1    1    2  505  503 -0.24565385632E+01  0.10450117331E+03  0.70183590747E+03  0.70957745935E+03  0.00000000000E+00 0. -1.
         21    1    1    2  506  502 -0.47754024220E+02  0.10975092033E+00 -0.98724555030E+01  0.48763964688E+02  0.00000000000E+00 0. -1.
<scales pt_clust_3="87.94191" pt_clust_4="64.64502" pt_clust_5="14000.00000" pt_clust_6="47.75415"></scales>
<clustering>
<clus scale="   47.754">  2  6  1 -1</clus>
<clus scale="   64.645">  2  4  1 -1</clus>
<clus scale="   87.942">  1  3  2 -1</clus>
<clus scale="   87.942">  1  3  2 -1</clus>
</clustering>
</event>
<event>
 6    0  0.8610502E+002  0.2127037E+03  0.7546771E-02  0.1139443E+00
         21   -1    0    0  506  501  0.00000000000E+00  0.00000000000E+00  0.93443806054E+03  0.93443806054E+03  0.00000000000E+00 0.  1.
         21   -1    0    0  504  502 -0.00000000000E+00 -0.00000000000E+00 -0.73151569838E+03  0.73151569838E+03  0.00000000000E+00 0. -1.
         21    1    1    2  503  501 -0.10239127785E+03  0.29527658877E+02  0.98060060634E+02  0.14481585518E+03  0.00000000000E+00 0.  1.
         21    1    1    2  504  503 -0.89643124811E+02  0.40017485064E+02  0.53300409634E+02  0.11170596494E+03  0.00000000000E+00 0. -1.
         21    1    1    2  505  502  0.14309291727E+03 -0.15663043348E+03 -0.65878112436E+03  0.69209915871E+03  0.00000000000E+00 0. -1.
         21    1    1    2  506  505  0.48941485390E+02  0.87085289541E+02  0.71034301626E+03  0.71733278009E+03  0.00000000000E+00 0.  1.
<scales pt_clust_3="32.96644" pt_clust_4="32.96644" pt_clust_5="209.91229" pt_clust_6="99.89553"></scales>
<clustering>
<clus scale="   32.966">  3  4 -1 -1</clus>
<clus scale="   99.896">  1  6  2 -1</clus>
<clus scale="  209.912">  2  5  1 -1</clus>
<clus scale="   99.896">  1  3  2 -1</clus>
</clustering>
</event>
<event>
 6    0  0.8610502E+002  0.1747736E+03  0.7546771E-02  0.1172959E+00
         21   -1    0    0  503  501  0.00000000000E+00  0.00000000000E+00  0.46383679601E+03  0.46383679601E+03  0.00000000000E+00 0.  1.
         21   -1    0    0  501  502 -0.00000000000E+00 -0.00000000000E+00 -0.16101381103E+03  0.16101381103E+03  0.00000000000E+00 0. -1.
         21    1    1    2  503  506 -0.47697184509E+02 -0.99174923531E+02  0.24973646269E+03  0.27290838694E+03  0.00000000000E+00 0.  1.
         21    1    1    2  504  502  0.35503230441E+02  0.15684799124E+02 -0.90746292209E+02  0.98698438919E+02  0.00000000000E+00 0. -1.
         21    1    1    2  505  504  0.99449623612E+01  0.14516764586E+03  0.88199278297E+02  0.17015187443E+03  0.00000000000E+00 0. -1.
         21    1    1    2  506  505  0.22489917064E+01 -0.61677521456E+02  0.55633536206E+02  0.83091906750E+02  0.00000000000E+00 0. -1.
<scales pt_clust_3="55.93130" pt_clust_4="38.81356" pt_clust_5="158.11223" pt_clust_6="55.93130"></scales>
<clustering>
<clus scale="   38.814">  2  4  1 -1</clus>
<clus scale="   55.931">  3  6 -1 -1</clus>
<clus scale="  158.112">  2  5  1 -1</clus>
<clus scale="  174.774">  1  3  2 -1</clus>
</clustering>
</event>
<event>
 6    0  0.8610502E+002  0.1934548E+03  0.7546771E-02  0.1155382E+00
         21   -1    0    0  506  501  0.00000000000E+00  0.00000000000E+00  0.26912518102E+03  0.26912518102E+03  0.00000000000E+00 0. -1.
         21   -1    0    0  503  502 -0.00000000000E+00 -0.00000000000E+00 -0.51921444243E+03  0.51921444243E+03  0.00000000000E+00 0. -1.
         21    1    1    2  503  505 -0.12861696264E+02 -0.11822328977E+03 -0.25982245786E+03  0.28574442966E+03  0.00000000000E+00 0. -1.
         21    1    1    2  504  501 -0.75134173216E+02 -0.27127351533E+01  0.42721254623E+02  0.86473166436E+02  0.00000000000E+00 0. -1.
         21    1    1    2  505  504 -0.25065342055E+02  0.23810772721E+03  0.30497630157E+02  0.24135796356E+03  0.00000000000E+00 0. -1.
         21    1    1    2  506  502  0.11306121153E+03 -0.11717170229E+03 -0.63485688338E+02  0.17476406379E+03  0.00000000000E+00 0. -1.
<scales pt_clust_3="119.69959" pt_clust_4="75.18313" pt_clust_5="193.45484" pt_clust_6="14000.00000"></scales>
<clustering>
<clus scale="   75.183">  1  4  2 -1</clus>
<clus scale="  119.700">  2  3  1 -1</clus>
<clus scale="  193.455">  2  5  1 -1</clus>
<clus scale="   75.183">  1  3  2 -1</clus>
</clustering>
</event>
<event>
 6    0  0.8610502E+002  0.7565185E+02  0.7546771E-02  0.1341864E+00
         21   -1    0    0  503  501  0.00000000000E+00  0.00000000000E+00  0.14259603774E+03  0.14259603774E+03  0.00000000000E+00 0.  1.
         21   -1    0    0  506  502 -0.00000000000E+00 -0.00000000000E+00 -0.63236826249E+03  0.63236826249E+03  0.00000000000E+00 0.  1.
         21    1    1    2  503  505  0.10085458301E+03  0.79746650592E+01  0.27837547967E+02  0.10492936326E+03  0.00000000000E+00 0.  1.
         21    1    1    2  504  501  0.55362786511E+01 -0.36102140712E+02  0.20157997270E+02  0.41717619769E+02  0.00000000000E+00 0.  1.
         21    1    1    2  505  502 -0.69021728132E+02  0.29647769988E+02 -0.57242215759E+03  0.57733016180E+03  0.00000000000E+00 0.  1.
         21    1    1    2  506  504 -0.37369133526E+02 -0.15202943350E+01  0.34654387609E+02  0.50987155401E+02  0.00000000000E+00 0. -1.
<scales pt_clust_3="75.65185" pt_clust_4="36.52417" pt_clust_5="14000.00000" pt_clust_6="38.44964"></scales>
<clustering>
<clus scale="   36.524">  1  4  2 -1</clus>
<clus scale="   38.450">  1  6  2 -1</clus>
<clus scale="   75.652">  1  3  2 -1</clus>
<clus scale="   36.524">  1  3  2 -1</clus>
</clustering>
</event>
<event>
 6    0  0.8610502E+002  0.1519218E+03  0.7546771E-02  0.1198131E+00
         21   -1    0    0  504  501  0.00000000000E+00  0.00000000000E+00  0.25760701327E+04  0.25760701327E+04  0.00000000000E+00 0.  1.
         21   -1    0    0  503  502 -0.00000000000E+00 -0.00000000000E+00 -0.14138538325E+03  0.14138538325E+03  0.00000000000E+00 0. -1.
         21    1    1    2  503  506 -0.89399440551E+01 -0.79152227429E+02  0.15470309176E+03  0.17400587434E+03  0.00000000000E+00 0. -1.
         21    1    1    2  504  505  0.17080323975E+03  0.11069115912E+03  0.21932082084E+04  0.22026321810E+04  0.00000000000E+00 0.  1.
         21    1    1    2  505  502 -0.12033004209E+03 -0.90911672486E+02 -0.71383393942E+02  0.16685274992E+03  0.00000000000E+00 0. -1.
         21    1    1    2  506  501 -0.41533253605E+02  0.59372740794E+02  0.15815684332E+03  0.17396471077E+03  0.00000000000E+00 0.  1.
<scales pt_clust_3="76.02026" pt_clust_4="151.92177" pt_clust_5="14000.00000" pt_clust_6="72.45780"></scales>
<clustering>
<clus scale="   72.458">  1  6  2 -1</clus>
<clus scale="   76.020">  1  3  2 -1</clus>
<clus scale="  151.922">  1  4  2 -1</clus>
<clus scale="   72.458">  1  3  2 -1</clus>
</clustering>
</event>
<event>
 6    0  0.8610502E+002  0.1081414E+03  0.7546771E-02  0.1264051E+00
         21   -1    0    0  503  501  0.00000000000E+00  0.00000000000E+00  0.11738813595E+03  0.11738813595E+03  0.00000000000E+00 0. -1.
         21   -1    0    0  506  502 -0.00000000000E+00 -0.00000000000E+00 -0.55262410707E+03  0.55262410707E+03  0.00000000000E+00 0.  1.
         21    1    1    2  503  502 -0.36497132767E+02  0.86239465901E+02  0.79002347629E+02  0.12251798688E+03  0.00000000000E+00 0. -1.
         21    1    1    2  504  505  0.61544392336E+02  0.35686912548E+01 -0.17841207745E+03  0.18876259472E+03  0.00000000000E+00 0.  1.
         21    1    1    2  505  501  0.30634026380E+02 -0.43823416399E+02 -0.15797336691E+03  0.16677685706E+03  0.00000000000E+00 0.  1.
         21    1    1    2  506  504 -0.55681285949E+02 -0.45984740756E+02 -0.17785287440E+03  0.19195480436E+03  0.00000000000E+00 0.  1.
<scales pt_clust_3="92.51344" pt_clust_4="52.15173" pt_clust_5="52.15173" pt_clust_6="72.21497"></scales>
<clustering>
<clus scale="   52.152">  4  5 -1 -1</clus>
<clus scale="   72.215">  2  6  1 -1</clus>
<clus scale="   92.513">  1  3  2 -1</clus>
<clus scale="   92.513">  1  3  2 -1</clus>
</clustering>
</event>
<event>
 6    0  0.8610502E+002  0.1450995E+03  0.7546771E-02  0.1206627E+00
         21   -1    0    0  503  501  0.00000000000E+00  0.00000000000E+00  0.55684941344E+03  0.55684941344E+03  0.00000000000E+00 0. -1.
         21   -1    0    0  504  502 -0.00000000000E+00 -0.00000000000E+00 -0.12042241385E+04  0.12042241385E+04  0.00000000000E+00 0.  1.
         21    1    1    2  503  502 -0.12028220997E+03  0.69792585446E+02 -0.10927313823E+04  0.11015446831E+04  0.00000000000E+00 0.  1.
         21    1    1    2  504  506  0.82272287167E+02 -0.30904344230E+02 -0.37965084756E+01  0.87967159807E+02  0.00000000000E+00 0. -1.
         21    1    1    2  505  501 -0.54874502169E+02 -0.37774171082E+02  0.47136702009E+03  0.47605143274E+03  0.00000000000E+00 0. -1.
         21    1    1    2  506  505  0.92884424970E+02 -0.11140701344E+01 -0.22213854411E+02  0.95510276317E+02  0.00000000000E+00 0. -1.
<scales pt_clust_3="140.61115" pt_clust_4="34.83203" pt_clust_5="66.61906" pt_clust_6="34.83203"></scales>
<clustering>
<clus scale="   34.832">  4  6 -1 -1</clus>
<clus scale="   66.619">  1  5  2 -1</clus>
<clus scale="  140.611">  2  3  1 -1</clus>
<clus scale="   66.619">  1  3  2 -1</clus>
</clustering>
</event>
<event>
 6    0  0.8610502E+002  0.1090075E+03  0.7546771E-02  0.1262419E+00
         21   -1    0    0  506  501  0.00000000000E+00  0.00000000000E+00  0.35305849592E+03  0.35305849592E+03  0.00000000000E+00 0.  1.
         21   -1    0    0  504  502 -0.00000000000E+00 -0.00000000000E+00 -0.61844184640E+02  0.61844184640E+02  0.00000000000E+00 0.  1.
         21    1    1    2  503  505  0.72335152907E+02  0.15635454816E+02  0.61008852432E+02  0.95911010153E+02  0.00000000000E+00 0.  1.
         21    1    1    2  504  503  0.15165314144E+02  0.34558762507E+02  0.26793519351E+02  0.46283771436E+02  0.00000000000E+00 0.  1.
         21    1    1    2  505  501 -0.10593396531E+03  0.19944842799E+02  0.10519159258E+03  0.15061564630E+03  0.00000000000E+00 0.  1.
         21    1    1    2  506  502  0.18433498264E+02 -0.70139060123E+02  0.98220346916E+02  0.12209225267E+03  0.00000000000E+00 0.  1.
<scales pt_clust_3="34.50218" pt_clust_4="34.50218" pt_clust_5="97.71555" pt_clust_6="72.52090"></scales>
<clustering>
<clus scale="   34.502">  3  4 -1 -1</clus>
<clus scale="   72.521">  1  6  2 -1</clus>
<clus scale="   97.716">  1  5  2 -1</clus>
<clus scale="   72.521">  1  3  2 -1</clus>
</clustering>
</event>
<event>
 6    0  0.8610502E+002  0.6988394E+02  0.7546771E-02  0.1360488E+00
         21   -1    0    0  503  501  0.00000000000E+00  0.00000000000E+00  0.72387737616E+03  0.72387737616E+03  0.00000000000E+00 0. -1.
         21   -1    0    0  504  502 -0.00000000000E+00 -0.00000000000E+00 -0.54680986763E+02  0.54680986763E+02  0.00000000000E+00 0.  1.
         21    1    1    2  503  505  0.63423557867E+02  0.19865150170E+02  0.38405151522E+03  0.38975984687E+03  0.00000000000E+00 0. -1.
         21    1    1    2  504  506 -0.17274224405E+02 -0.60625287091E+02  0.27688998588E+02  0.68851324653E+02  0.00000000000E+00 0.  1.
         21    1    1    2  505  502  0.65369968822E+02 -0.18132047615E+01  0.12875854463E+03  0.14441358437E+03  0.00000000000E+00 0.  1.
         21    1    1    2  506  501 -0.11151930228E+03  0.42573341682E+02  0.12869733096E+03  0.17553360704E+03  0.00000000000E+00 0.  1.
<scales pt_clust_3="69.88394" pt_clust_4="63.03828" pt_clust_5="63.38737" pt_clust_6="14000.00000"></scales>
<clustering>
<clus scale="   63.038">  2  4  1 -1</clus>
<clus scale="   63.387">  2  5  1 -1</clus>
<clus scale="   69.884">  1  3  2 -1</clus>
<clus scale="   69.884">  1  3  2 -1</clus>
</clustering>
</event>
<event>
 6    0  0.8610502E+002  0.3987389E+03  0.7546771E-02  0.1044217E+00
         21   -1    0    0  505  501  0.00000000000E+00  0.00000000000E+00  0.43498704323E+03  0.43498704323E+03  0.00000000000E+00 0.  1.
         21   -1    0    0  503  502 -0.00000000000E+00 -0.00000000000E+00 -0.15190357621E+04  0.15190357621E+04  0.00000000000E+00 0. -1.
         21    1    1    2  503  504  0.20010471407E+03  0.18008979994E+03 -0.37482418327E+03  0.46148391196E+03  0.00000000000E+00 0. -1.
         21    1    1    2  504  506 -0.10883609930E+03 -0.21057446468E+02 -0.23101776808E+03  0.25623801773E+03  0.00000000000E+00 0. -1.
         21    1    1    2  505  502  0.36828206625E+03 -0.83398452798E+01  0.18759096899E+03  0.41339037844E+03  0.00000000000E+00 0.  1.
         21    1    1    2  506  501 -0.45955068102E+03 -0.15069250820E+03 -0.66579773652E+03  0.82291049720E+03  0.00000000000E+00 0. -1.
<scales pt_clust_3="269.21039" pt_clust_4="42.07103" pt_clust_5="388.93550" pt_clust_6="42.07103"></scales>
<clustering>
<clus scale="   42.071">  4  6 -1 -1</clus>
<clus scale="  269.210">  2  3  1 -1</clus>
<clus scale="  388.936">  1  5  2 -1</clus>
<clus scale="  388.936">  1  3  2 -1</clus>
</clustering>
</event>
<event>
 6    0  0.8610502E+002  0.8537645E+02  0.7546771E-02  0.1314451E+00
         21   -1    0    0  504  501  0.00000000000E+00  0.00000000000E+00  0.95299741178E+03  0.95299741178E+03  0.00000000000E+00 0.  1.
         21   -1    0    0  506  502 -0.00000000000E+00 -0.00000000000E+00 -0.32181234930E+03  0.32181234930E+03  0.00000000000E+00 0.  1.
         21    1    1    2  503  501  0.74042559212E+02  0.10267820655E+02  0.56756137765E+03  0.57246279015E+03  0.00000000000E+00 0.  1.
         21    1    1    2  504  505 -0.27616072561E+02  0.64060136043E+02  0.35436385225E+03  0.36116490455E+03  0.00000000000E+00 0.  1.
         21    1    1    2  505  502 -0.37399276550E+02  0.15709473885E+02 -0.22675895587E+03  0.23035867148E+03  0.00000000000E+00 0.  1.
         21    1    1    2  506  503 -0.90272101007E+01 -0.90037430582E+02 -0.63981211537E+02  0.11082339490E+03  0.00000000000E+00 0.  1.
<scales pt_clust_3="14000.00000" pt_clust_4="70.83258" pt_clust_5="40.56468" pt_clust_6="85.37645"></scales>
<clustering>
<clus scale="   40.565">  2  5  1 -1</clus>
<clus scale="   70.833">  1  4  2 -1</clus>
<clus scale="   85.376">  2  6  1 -1</clus>
<clus scale="   70.833">  1  3  2 -1</clus>
</clustering>
</event>
<event>
 6    0  0.8610502E+002  0.1729800E+03  0.7546771E-02  0.1174775E+00
         21   -1    0    0  505  501  0.00000000000E+00  0.00000000000E+00  0.97833079842E+02  0.97833079842E+02  0.00000000000E+00 0.  1.
         21   -1    0    0  506  502 -0.00000000000E+00 -0.00000000000E+00 -0.42762583856E+03  0.42762583856E+03  0.00000000000E+00 0.  1.
         21    1    1    2  503  504  0.62347295020E+01  0.45138896834E+02 -0.15498356188E+02  0.48130976553E+02  0.00000000000E+00 0.  1.
         21    1    1    2  504  502  0.11271451070E+03  0.70723229485E+02 -0.12152542106E+03  0.18020755832E+03  0.00000000000E+00 0.  1.
         21    1    1    2  505  503 -0.14476223641E+03 -0.50683542178E+02 -0.11052186394E+03  0.18905028153E+03  0.00000000000E+00 0.  1.
         21    1    1    2  506  501  0.25812996205E+02 -0.65178584142E+02 -0.82247117532E+02  0.10807010200E+03  0.00000000000E+00 0.  1.
<scales pt_clust_3="44.52819" pt_clust_4="44.52819" pt_clust_5="155.34500" pt_clust_6="70.10391"></scales>
<clustering>
<clus scale="   44.528">  3  4 -1 -1</clus>
<clus scale="   70.104">  2  6  1 -1</clus>
<clus scale="  155.345">  1  5  2 -1</clus>
<clus scale="  155.345">  1  3  2 -1</clus>
</clustering>
</event>
<event>
 6    0  0.8610502E+002  0.1193253E+03  0.7546771E-02  0.1244214E+00
         21   -1    0    0  506  501  0.00000000000E+00  0.00000000000E+00  0.87660271838E+03  0.87660271838E+03  0.00000000000E+00 0. -1.
         21   -1    0    0  503  502 -0.00000000000E+00 -0.00000000000E+00 -0.25196117455E+03  0.25196117455E+03  0.00000000000E+00 0. -1.
         21    1    1    2  503  505  0.99441476552E+02  0.36334837327E+02  0.26235154566E+03  0.28290839714E+03  0.00000000000E+00 0. -1.
         21    1    1    2  504  501 -0.29204093524E+02 -0.35279000769E+02  0.38645319032E+03  0.38915749419E+03  0.00000000000E+00 0. -1.
         21    1    1    2  505  504  0.28561247842E+02  0.35761548396E+02  0.20191795702E+03  0.20703983817E+03  0.00000000000E+00 0. -1.
         21    1    1    2  506  502 -0.98798630870E+02 -0.36817384955E+02 -0.22608114917E+03  0.24945816344E+03  0.00000000000E+00 0. -1.
<scales pt_clust_3="35.53176" pt_clust_4="45.79833" pt_clust_5="35.53176" pt_clust_6="106.38609"></scales>
<clustering>
<clus scale="   35.532">  3  5 -1 -1</clus>
<clus scale="   45.798">  1  4  2 -1</clus>
<clus scale="  106.386">  2  6  1 -1</clus>
<clus scale="   45.798">  1  3  2 -1</clus>
</clustering>
</event>
<event>
 6    0  0.8610502E+002  0.3241130E+03  0.7546771E-02  0.1073772E+00
         21   -1    0    0  504  501  0.00000000000E+00  0.00000000000E+00  0.22147318053E+03  0.22147318053E+03  0.00000000000E+00 0. -1.
         21   -1    0    0  503  502 -0.00000000000E+00 -0.00000000000E+00 -0.10775438028E+04  0.10775438028E+04  0.00000000000E+00 0.  1.
         21    1    1    2  503  505 -0.28186367020E+02  0.16289734798E+02 -0.24446795617E+03  0.24662604959E+03  0.00000000000E+00 0. -1.
         21    1    1    2  504  502  0.11003192131E+03  0.29140452287E+03  0.47731503493E+02  0.31512206537E+03  0.00000000000E+00 0. -1.
         21    1    1    2  505  506 -0.38963640733E+02 -0.45477344984E+02 -0.80189080815E+02  0.10008317985E+03  0.00000000000E+00 0.  1.
         21    1    1    2  506  501 -0.42881913562E+02 -0.26221691268E+03 -0.57914508882E+03  0.63718568857E+03  0.00000000000E+00 0.  1.
<scales pt_clust_3="32.55498" pt_clust_4="312.37770" pt_clust_5="41.87800" pt_clust_6="41.87800"></scales>
<clustering>
<clus scale="   32.555">  2  3  1 -1</clus>
<clus scale="   41.878">  5  6 -1 -1</clus>
<clus scale="  312.378">  1  4  2 -1</clus>
<clus scale="  312.378">  1  3  2 -1</clus>
</clustering>
</event>
<event>
 6    0  0.8610502E+002  0.1436809E+03  0.7546771E-02  0.1208460E+00
         21   -1    0    0  506  501  0.00000000000E+00  0.00000000000E+00  0.70154908143E+03  0.70154908143E+03  0.00000000000E+00 0. -1.
         21   -1    0    0  505  502 -0.00000000000E+00 -0.00000000000E+00 -0.49604690254E+03  0.49604690254E+03  0.00000000000E+00 0. -1.
         21    1    1    2  503  502 -0.54504390595E+02  0.10544640857E+02 -0.23276378279E+03  0.23929249178E+03  0.00000000000E+00 0. -1.
         21    1    1    2  504  501  0.37231388681E+02 -0.45414071772E+02  0.33332401965E+02  0.67525278517E+02  0.00000000000E+00 0.  1.
         21    1    1    2  505  504  0.18551695090E+03 -0.43825893190E+02 -0.18902564506E+03  0.26845473078E+03  0.00000000000E+00 0. -1.
         21    1    1    2  506  503 -0.16824394899E+03  0.78695324105E+02  0.59395920478E+03  0.62232348289E+03  0.00000000000E+00 0. -1.
<scales pt_clust_3="55.51503" pt_clust_4="55.96528" pt_clust_5="143.68088" pt_clust_6="14000.00000"></scales>
<clustering>
<clus scale="   55.515">  2  3  1 -1</clus>
<clus scale="   55.965">  1  4  2 -1</clus>
<clus scale="  143.681">  2  5  1 -1</clus>
<clus scale="   55.965">  1  3  2 -1</clus>
</clustering>
</event>
<event>
 6    0  0.8610502E+002  0.6945826E+02  0.7546771E-02  0.1361945E+00
         21   -1    0    0  504  501  0.00000000000E+00  0.00000000000E+00  0.73292207454E+03  0.73292207454E+03  0.00000000000E+00 0. -1.
         21   -1    0    0  503  502 -0.00000000000E+00 -0.00000000000E+00 -0.95838006610E+02  0.95838006610E+02  0.00000000000E+00 0. -1.
         21    1    1    2  503  501 -0.78594608543E+02  0.22486184672E+02  0.40431275926E+03  0.41249430092E+03  0.00000000000E+00 0. -1.
         21    1    1    2  504  505  0.54904953320E+02  0.29791739851E+02  0.14420336996E+03  0.15715188058E+03  0.00000000000E+00 0. -1.
         21    1    1    2  505  506 -0.11434729410E+02 -0.95284703763E+02  0.14888171162E+03  0.17713184881E+03  0.00000000000E+00 0. -1.
         21    1    1    2  506  502  0.35124384633E+02  0.43006779240E+02 -0.60313772911E+02  0.81982050836E+02  0.00000000000E+00 0. -1.
<scales pt_clust_3="69.45826" pt_clust_4="14000.00000" pt_clust_5="71.20928" pt_clust_6="55.52752"></scales>
<clustering>
<clus scale="   55.528">  2  6  1 -1</clus>
<clus scale="   71.209">  2  5  1 -1</clus>
<clus scale="   69.458">  1  3  2 -1</clus>
<clus scale="   69.458">  1  3  2 -1</clus>
</clustering>
</event>
<event>
 6    0  0.8610502E+002  0.1104941E+03  0.7546771E-02  0.1259658E+00
         21   -1    0    0  506  501  0.00000000000E+00  0.00000000000E+00  0.85482976880E+03  0.85482976880E+03  0.00000000000E+00 0. -1.
         21   -1    0    0  505  502 -0.00000000000E+00 -0.00000000000E+00 -0.22263389494E+03  0.22263389494E+03  0.00000000000E+00 0. -1.
         21    1    1    2  503  504 -0.33359061462E+02 -0.95562895411E+02  0.80084556514E+02  0.12906831584E+03  0.00000000000E+00 0. -1.
         21    1    1    2  504  501 -0.35677981543E+02 -0.17342901867E+02  0.70628473402E+03  0.70739792205E+03  0.00000000000E+00 0. -1.
         21    1    1    2  505  503  0.34354126301E+02  0.17329363658E+02 -0.13124558647E+03  0.13676957559E+03  0.00000000000E+00 0. -1.
         21    1    1    2  506  502  0.34682916705E+02  0.95576433620E+02 -0.22927830195E+02  0.10422785027E+03  0.00000000000E+00 0. -1.
<scales pt_clust_3="14000.00000" pt_clust_4="39.42820" pt_clust_5="38.47743" pt_clust_6="110.49406"></scales>
<clustering>
<clus scale="   38.477">  2  5  1 -1</clus>
<clus scale="   39.428">  1  4  2 -1</clus>
<clus scale="  110.494">  2  6  1 -1</clus>
<clus scale="   39.428">  1  3  2 -1</clus>
</clustering>
</event>
<event>
 6    0  0.8610502E+002  0.1435679E+03  0.7546771E-02  0.1208607E+00
         21   -1    0    0  503  501  0.00000000000E+00  0.00000000000E+00  0.16639773292E+03  0.16639773292E+03  0.00000000000E+00 0.  1.
         21   -1    0    0  505  502 -0.00000000000E+00 -0.00000000000E+00 -0.65750093548E+03  0.65750093548E+03  0.00000000000E+00 0. -1.
         21    1    1    2  503  502 -0.50590556278E+02  0.16047451360E+03  0.88101374471E+02  0.18992979251E+03  0.00000000000E+00 0.  1.
         21    1    1    2  504  501  0.37614675421E+02  0.88147342743E+00 -0.21234919757E+02  0.43203733861E+02  0.00000000000E+00 0. -1.
         21    1    1    2  505  506 -0.12504924587E+02 -0.67280379192E+02 -0.39492181649E+03  0.40080701554E+03  0.00000000000E+00 0. -1.
         21    1    1    2  506  504  0.25480805443E+02 -0.94075607837E+02 -0.16304784078E+03  0.18995812649E+03  0.00000000000E+00 0.  1.
<scales pt_clust_3="14000.00000" pt_clust_4="37.62500" pt_clust_5="68.28962" pt_clust_6="143.56793"></scales>
<clustering>
<clus scale="   37.625">  1  4  2 -1</clus>
<clus scale="   68.290">  2  5  1 -1</clus>
<clus scale="  143.568">  2  6  1 -1</clus>
<clus scale="   37.625">  1  3  2 -1</clus>
</clustering>
</event>
<event>
 6    0  0.8610502E+002  0.1010505E+03  0.7546771E-02  0.1278102E+00
         21   -1    0    0  505  501  0.00000000000E+00  0.00000000000E+00  0.12570003394E+03  0.12570003394E+03  0.00000000000E+00 0. -1.
         21   -1    0    0  504  502 -0.00000000000E+00 -0.00000000000E+00 -0.16288957103E+04  0.16288957103E+04  0.00000000000E+00 0.  1.
         21    1    1    2  503  501  0.42256388162E+01 -0.10649587849E+03 -0.10274564937E+03  0.14804018584E+03  0.00000000000E+00 0. -1.
         21    1    1    2  504  503 -0.26152515593E+02 -0.18826775495E+02 -0.10425120013E+03  0.10911789164E+03  0.00000000000E+00 0. -1.
         21    1    1    2  505  506  0.34959141498E+02  0.95063986909E+02  0.74880938219E+02  0.12596212959E+03  0.00000000000E+00 0. -1.
         21    1    1    2  506  502 -0.13032264721E+02  0.30258667071E+02 -0.13710797651E+04  0.13714755372E+04  0.00000000000E+00 0.  1.
<scales pt_clust_3="14000.00000" pt_clust_4="32.22424" pt_clust_5="101.05048" pt_clust_6="38.93331"></scales>
<clustering>
<clus scale="   32.224">  2  4  1 -1</clus>
<clus scale="   38.933">  2  6  1 -1</clus>
<clus scale="  101.050">  1  5  2 -1</clus>
<clus scale="  101.050">  1  3  2 -1</clus>
</clustering>
</event>
<event>
 6    0  0.8610502E+002  0.1352512E+03  0.7546771E-02  0.1219866E+00
         21   -1    0    0  504  501  0.00000000000E+00  0.00000000000E+00  0.43894029175E+03  0.43894029175E+03  0.00000000000E+00 0. -1.
         21   -1    0    0  505  502 -0.00000000000E+00 -0.00000000000E+00 -0.69987294030E+03  0.69987294030E+03  0.00000000000E+00 0.  1.
         21    1    1    2  503  502 -0.97747387037E+02 -0.10570060031E+03 -0.54411733334E+03  0.56284175487E+03  0.00000000000E+00 0.  1.
         21    1    1    2  504  503 -0.31681927815E+02  0.21549495655E+02  0.24775012124E+02  0.45628133194E+02  0.00000000000E+00 0.  1.
         21    1    1    2  505  506 -0.32406362924E+02  0.72230566929E+02 -0.10549542911E+03  0.13189659859E+03  0.00000000000E+00 0. -1.
         21    1    1    2  506  501  0.16183567778E+03  0.11920537725E+02  0.36390510177E+03  0.39844674540E+03  0.00000000000E+00 0. -1.
<scales pt_clust_3="135.25118" pt_clust_4="38.31612" pt_clust_5="80.23664" pt_clust_6="14000.00000"></scales>
<clustering>
<clus scale="   38.316">  1  4  2 -1</clus>
<clus scale="   80.237">  2  5  1 -1</clus>
<clus scale="  135.251">  2  3  1 -1</clus>
<clus scale="   38.316">  1  3  2 -1</clus>
</clustering>
</event>
<event>
 6    0  0.8610502E+002  0.1220727E+03  0.7546771E-02  0.1239716E+00
         21   -1    0    0  505  501  0.00000000000E+00  0.00000000000E+00  0.14877185520E+03  0.14877185520E+03  0.00000000000E+00 0. -1.
         21   -1    0    0  504  502 -0.00000000000E+00 -0.00000000000E+00 -0.35685933971E+03  0.35685933971E+03  0.00000000000E+00 0. -1.
         21    1    1    2  503  506 -0.28450503273E+02  0.43300168475E+02 -0.85477767883E+02  0.99953912023E+02  0.00000000000E+00 0.  1.
         21    1    1    2  504  501  0.48536231879E+02  0.49163637823E+02 -0.79105222533E+02  0.10502602211E+03  0.00000000000E+00 0. -1.
         21    1    1    2  505  503  0.22916301036E+02 -0.12013874726E+03  0.93800138427E+02  0.15413286935E+03  0.00000000000E+00 0. -1.
         21    1    1    2  506  502 -0.43002029642E+02  0.27674940958E+02 -0.13730463252E+03  0.14651839142E+03  0.00000000000E+00 0.  1.
<scales pt_clust_3="31.00040" pt_clust_4="69.08566" pt_clust_5="118.01726" pt_clust_6="31.00040"></scales>
<clustering>
<clus scale="   31.000">  3  6 -1 -1</clus>
<clus scale="   69.086">  2  4  1 -1</clus>
<clus scale="  118.017">  1  5  2 -1</clus>
<clus scale="  118.017">  1  3  2 -1</clus>
</clustering>
</event>
<event>
 6    0  0.8610502E+002  0.9771966E+02  0.7546771E-02  0.1285166E+00
         21   -1    0    0  503  501  0.00000000000E+00  0.00000000000E+00  0.27013712985E+04  0.27013712985E+04  0.00000000000E+00 0.  1.
         21   -1    0    0  504  502 -0.00000000000E+00 -0.00000000000E+00 -0.21698047664E+02  0.21698047664E+02  0.00000000000E+00 0. -1.
         21    1    1    2  503  506 -0.40838691875E+02  0.10765561972E+02  0.18582770031E+04  0.18587568739E+04  0.00000000000E+00 0.  1.
         21    1    1    2  504  505  0.15619997637E+02 -0.38895976048E+02  0.44184457913E+02  0.60902771694E+02  0.00000000000E+00 0. -1.
         21    1    1    2  505  501  0.11010856773E+03 -0.86414079062E+01  0.39382728114E+03  0.40902139062E+03  0.00000000000E+00 0. -1.
         21    1    1    2  506  502 -0.84889873488E+02  0.36771821983E+02  0.38338450870E+03  0.39438830995E+03  0.00000000000E+00 0. -1.
<scales pt_clust_3="41.78818" pt_clust_4="41.91517" pt_clust_5="14000.00000" pt_clust_6="97.71966"></scales>
<clustering>
<clus scale="   41.915">  2  4  1 -1</clus>
<clus scale="   41.788">  1  3  2 -1</clus>
<clus scale="   97.720">  2  6  1 -1</clus>
<clus scale="   41.788">  1  3  2 -1</clus>
</clustering>
</event>
<event>
 6    0  0.8610502E+002  0.9004167E+02  0.7546771E-02  0.1302751E+00
         21   -1    0    0  504  501  0.00000000000E+00  0.00000000000E+00  0.57377606211E+03  0.57377606211E+03  0.00000000000E+00 0.  1.
         21   -1    0    0  503  502 -0.00000000000E+00 -0.00000000000E+00 -0.15315532067E+03  0.15315532067E+03  0.00000000000E+00 0.  1.
         21    1    1    2  503  506  0.10117910620E+03  0.46340079914E+02 -0.46162031581E+02  0.12048048679E+03  0.00000000000E+00 0.  1.
         21    1    1    2  504  502 -0.80633161869E+02  0.16927819541E+02 -0.32698241265E+02  0.88642161804E+02  0.00000000000E+00 0.  1.
         21    1    1    2  505  501 -0.40638834278E+02 -0.13428185013E+02  0.41810950428E+03  0.42029440702E+03  0.00000000000E+00 0.  1.
         21    1    1    2  506  505  0.20092889951E+02 -0.49839714442E+02  0.81371510000E+02  0.97514327162E+02  0.00000000000E+00 0.  1.
<scales pt_clust_3="14000.00000" pt_clust_4="90.04167" pt_clust_5="42.79989" pt_clust_6="57.71138"></scales>
<clustering>
<clus scale="   42.800">  1  5  2 -1</clus>
<clus scale="   57.711">  1  6  2 -1</clus>
<clus scale="   90.042">  2  4  1 -1</clus>
<clus scale="   42.800">  1  3  2 -1</clus>
</clustering>
</event>
<event>
 6    0  0.8610502E+002  0.6051566E+02  0.7546771E-02  0.1395680E+00
         21   -1    0    0  504  501  0.00000000000E+00  0.00000000000E+00  0.63500463312E+02  0.63500463312E+02  0.00000000000E+00 0. -1.
         21   -1    0    0  506  502 -0.00000000000E+00 -0.00000000000E+00 -0.13624207557E+04  0.13624207557E+04  0.00000000000E+00 0. -1.
         21    1    1    2  503  502 -0.57125930285E+02 -0.30068463288E+02 -0.10213036399E+04  0.10233418829E+04  0.00000000000E+00 0. -1.
         21    1    1    2  504  503 -0.36068823726E+02 -0.44073918535E+02 -0.11709662176E+03  0.13021170903E+03  0.00000000000E+00 0. -1.
         21    1    1    2  505  501  0.79224630091E+02  0.16942006338E+02  0.19189677445E+02  0.83257536069E+02  0.00000000000E+00 0. -1.
         21    1    1    2  506  505  0.13970123921E+02  0.57200375485E+02 -0.17970970815E+03  0.18911009100E+03  0.00000000000E+00 0. -1.
<scales pt_clust_3="60.51566" pt_clust_4="56.95147" pt_clust_5="51.99765" pt_clust_6="14000.00000"></scales>
<clustering>
<clus scale="   56.951">  1  4  2 -1</clus>
<clus scale="   51.998">  1  5  2 -1</clus>
<clus scale="   60.516">  2  3  1 -1</clus>
<clus scale="   56.951">  1  3  2 -1</clus>
</clustering>
</event>
<event>
 6    0  0.8610502E+002  0.9994272E+02  0.7546771E-02  0.1280416E+00
         21   -1    0    0  506  501  0.00000000000E+00  0.00000000000E+00  0.42055322323E+02  0.42055322323E+02  0.00000000000E+00 0.  1.
         21   -1    0    0  504  502 -0.00000000000E+00 -0.00000000000E+00 -0.81389878326E+03  0.81389878326E+03  0.00000000000E+00 0. -1.
         21    1    1    2  503  502 -0.77989042538E+01  0.33346013098E+02 -0.44857471358E+03  0.44988004308E+03  0.00000000000E+00 0. -1.
         21    1    1    2  504  505  0.87364745187E+02  0.29413347157E+02 -0.15195297240E+03  0.17772858384E+03  0.00000000000E+00 0. -1.
         21    1    1    2  505  501 -0.69847002615E+01  0.31228460522E+02 -0.41567357201E+02  0.52458059143E+02  0.00000000000E+00 0.  1.
         21    1    1    2  506  503 -0.72581140671E+02 -0.93987820778E+02 -0.12974841776E+03  0.17588741952E+03  0.00000000000E+00 0.  1.
<scales pt_clust_3="34.81632" pt_clust_4="99.94272" pt_clust_5="32.00004" pt_clust_6="14000.00000"></scales>
<clustering>
<clus scale="   32.000">  1  5  2 -1</clus>
<clus scale="   34.816">  2  3  1 -1</clus>
<clus scale="   99.943">  2  4  1 -1</clus>
<clus scale="   32.000">  1  3  2 -1</clus>
</clustering>
</event>
<event>
 6    0  0.8610502E+002  0.7124367E+02  0.7546771E-02  0.1355914E+00
         21   -1    0    0  503  501  0.00000000000E+00  0.00000000000E+00  0.11286586149E+04  0.11286586149E+04  0.00000000000E+00 0. -1.
         21   -1    0    0  506  502 -0.00000000000E+00 -0.00000000000E+00 -0.73415969789E+02  0.73415969789E+02  0.00000000000E+00 0. -1.
         21    1    1    2  503  505  0.12927298169E+02  0.46125450060E+02  0.27434567586E+03  0.27849635912E+03  0.00000000000E+00 0.  1.
         21    1    1    2  504  502 -0.20634386333E+02  0.34831668265E+02 -0.56910184287E+02  0.69841191922E+02  0.00000000000E+00 0. -1.
         21    1    1    2  505  504 -0.48162682093E+02  0.17094730023E+02  0.28074716226E+03  0.28536089931E+03  0.00000000000E+00 0. -1.
         21    1    1    2  506  501  0.55869770257E+02 -0.98051848348E+02  0.55705999129E+03  0.56837613434E+03  0.00000000000E+00 0. -1.
<scales pt_clust_3="54.02417" pt_clust_4="40.48485" pt_clust_5="71.24367" pt_clust_6="14000.00000"></scales>
<clustering>
<clus scale="   40.485">  2  4  1 -1</clus>
<clus scale="   54.024">  1  3  2 -1</clus>
<clus scale="   71.244">  1  5  2 -1</clus>
<clus scale="   54.024">  1  3  2 -1</clus>
</clustering>
</event>
<event>
 6    0  0.8610502E+002  0.8332888E+02  0.7546771E-02  0.1319861E+00
         21   -1    0    0  505  501  0.00000000000E+00  0.00000000000E+00  0.55967091373E+03  0.55967091373E+03  0.00000000000E+00 0.  1.
         21   -1    0    0  503  502 -0.00000000000E+00 -0.00000000000E+00 -0.38436070564E+03  0.38436070564E+03  0.00000000000E+00 0. -1.
         21    1    1    2  503  506 -0.20654882033E+02  0.45004596545E+02 -0.34411340865E+03  0.34765798692E+03  0.00000000000E+00 0. -1.
         21    1    1    2  504  502  0.48058246855E+02  0.38798460588E+02  0.35725178786E+02  0.71352673629E+02  0.00000000000E+00 0.  1.
         21    1    1    2  505  504  0.55861923048E+02  0.82670380542E+01  0.28643359486E+03  0.29194708875E+03  0.00000000000E+00 0.  1.
         21    1    1    2  506  501 -0.83265287870E+02 -0.92070095187E+02  0.19726484309E+03  0.23307387007E+03  0.00000000000E+00 0. -1.
<scales pt_clust_3="49.51806" pt_clust_4="14000.00000" pt_clust_5="55.58290" pt_clust_6="83.32888"></scales>
<clustering>
<clus scale="   49.518">  2  3  1 -1</clus>
<clus scale="   55.583">  1  5  2 -1</clus>
<clus scale="   83.329">  1  6  2 -1</clus>
<clus scale="   55.583">  1  3  2 -1</clus>
</clustering>
</event>
<event>
 6    0  0.8610502E+002  0.1896820E+03  0.7546771E-02  0.1158748E+00
         21   -1    0    0  503  501  0.00000000000E+00  0.00000000000E+00  0.58236870714E+03  0.58236870714E+03  0.00000000000E+00 0.  1.
         21   -1    0    0  504  502 -0.00000000000E+00 -0.00000000000E+00 -0.19705396202E+03  0.19705396202E+03  0.00000000000E+00 0.  1.
         21    1    1    2  503  502  0.66302426984E+02 -0.19794567273E+02 -0.81226639442E+01  0.69669321706E+02  0.00000000000E+00 0. -1.
         21    1    1    2  504  506 -0.93021731999E+02 -0.40450170958E+02 -0.53896283356E+02  0.11486543568E+03  0.00000000000E+00 0.  1.
         21    1    1    2  505  501  0.15231876883E+03  0.71596650583E+02  0.43707421567E+03  0.46835985921E+03  0.00000000000E+00 0.  1.
         21    1    1    2  506  505 -0.12559946381E+03 -0.11351912353E+02  0.10259476753E+02  0.12652805257E+03  0.00000000000E+00 0.  1.
<scales pt_clust_3="69.19420" pt_clust_4="68.81788" pt_clust_5="173.46847" pt_clust_6="68.81788"></scales>
<clustering>
<clus scale="   68.818">  4  6 -1 -1</clus>
<clus scale="   69.194">  2  3  1 -1</clus>
<clus scale="  173.468">  1  5  2 -1</clus>
<clus scale="  173.468">  1  3  2 -1</clus>
</clustering>
</event>
<event>
 6    0  0.8610502E+002  0.1061493E+03  0.7546771E-02  0.1267872E+00
         21   -1    0    0  504  501  0.00000000000E+00  0.00000000000E+00  0.40311544660E+03  0.40311544660E+03  0.00000000000E+00 0. -1.
         21   -1    0    0  506  502 -0.00000000000E+00 -0.00000000000E+00 -0.83523847356E+02  0.83523847356E+02  0.00000000000E+00 0.  1.
         21    1    1    2  503  501 -0.12827656326E+02 -0.99773832335E+02  0.23299368070E+03  0.25378223269E+03  0.00000000000E+00 0. -1.
         21    1    1    2  504  505  0.38223609644E+02 -0.15372307077E+02  0.37803904882E+02  0.55915001417E+02  0.00000000000E+00 0. -1.
         21    1    1    2  505  502  0.36258551837E+02  0.10013170962E+03  0.33918896658E+02  0.11176552869E+03  0.00000000000E+00 0.  1.
         21    1    1    2  506  503 -0.61654505155E+02  0.15014429794E+02  0.14875117005E+02  0.65176531158E+02  0.00000000000E+00 0.  1.
<scales pt_clust_3="14000.00000" pt_clust_4="41.19893" pt_clust_5="106.14933" pt_clust_6="58.87891"></scales>
<clustering>
<clus scale="   41.199">  1  4  2 -1</clus>
<clus scale="   58.879">  2  6  1 -1</clus>
<clus scale="  106.149">  2  5  1 -1</clus>
<clus scale="   41.199">  1  3  2 -1</clus>
</clustering>
</event>
<event>
 6    0  0.8610502E+002  0.9046416E+02  0.7546771E-02  0.1301732E+00
         21   -1    0    0  505  501  0.00000000000E+00  0.00000000000E+00  0.32813014746E+03  0.32813014746E+03  0.00000000000E+00 0. -1.
         21   -1    0    0  503  502 -0.00000000000E+00 -0.00000000000E+00 -0.84260487729E+02  0.84260487729E+02  0.00000000000E+00 0. -1.
         21    1    1    2  503  506  0.94590407183E+02  0.64023861123E+02  0.10023673074E+03  0.15196645062E+03  0.00000000000E+00 0. -1.
         21    1    1    2  504  501 -0.34233075638E+00  0.32800253137E+02  0.59392739299E+02  0.67848885604E+02  0.00000000000E+00 0. -1.
         21    1    1    2  505  502 -0.70001790909E+02 -0.45281278820E+02 -0.84333931277E+01  0.83795984759E+02  0.00000000000E+00 0. -1.
         21    1    1    2  506  504 -0.24246285517E+02 -0.51542835440E+02  0.92673582823E+02  0.10877931421E+03  0.00000000000E+00 0. -1.
<scales pt_clust_3="90.46416" pt_clust_4="32.80204" pt_clust_5="14000.00000" pt_clust_6="46.03592"></scales>
<clustering>
<clus scale="   32.802">  1  4  2 -1</clus>
<clus scale="   46.036">  1  6  2 -1</clus>
<clus scale="   90.464">  1  3  2 -1</clus>
<clus scale="   32.802">  1  3  2 -1</clus>
</clustering>
</event>
<event>
 6    0  0.8610502E+002  0.1033858E+03  0.7546771E-02  0.1273333E+00
         21   -1    0    0  505  501  0.00000000000E+00  0.00000000000E+00  0.75480718923E+03  0.75480718923E+03  0.00000000000E+00 0. -1.
         21   -1    0    0  506  502 -0.00000000000E+00 -0.00000000000E+00 -0.45482661562E+03  0.45482661562E+03  0.00000000000E+00 0. -1.
         21    1    1    2  503  504  0.49545147544E+02  0.76018994883E+02  0.22394505594E+03  0.24162987669E+03  0.00000000000E+00 0. -1.
         21    1    1    2  504  502 -0.42621445918E+02 -0.48864616437E+02 -0.41408114205E+03  0.41912710553E+03  0.00000000000E+00 0. -1.
         21    1    1    2  505  503 -0.74384426965E+02 -0.87538599983E+02  0.41690481757E+03  0.43244152942E+03  0.00000000000E+00 0. -1.
         21    1    1    2  506  501  0.67460725339E+02  0.60384221536E+02  0.73211842157E+02  0.11643529321E+03  0.00000000000E+00 0. -1.
<scales pt_clust_3="103.38581" pt_clust_4="64.84087" pt_clust_5="14000.00000" pt_clust_6="54.34286"></scales>
<clustering>
<clus scale="   64.841">  2  4  1 -1</clus>
<clus scale="   54.343">  2  6  1 -1</clus>
<clus scale="  103.386">  2  3  1 -1</clus>
<clus scale="  103.386">  1  3  2 -1</clus>
</clustering>
</event>
<event>
 6    0  0.8610502E+002  0.1843733E+03  0.7546771E-02  0.1163636E+00
         21   -1    0    0  506  501  0.00000000000E+00  0.00000000000E+00  0.15621115357E+04  0.15621115357E+04  0.00000000000E+00 0.  1.
         21   -1    0    0  503  502 -0.00000000000E+00 -0.00000000000E+00 -0.92833978887E+02  0.92833978887E+02  0.00000000000E+00 0.  1.
         21    1    1    2  503  505  0.13721415110E+03  0.90040914169E+02  0.49844710557E+02  0.17152138251E+03  0.00000000000E+00 0.  1.
         21    1    1    2  504  502  0.76571897423E+01  0.62368217914E+02  0.79919041740E+02  0.10166356473E+03  0.00000000000E+00 0.  1.
         21    1    1    2  505  501 -0.12982103148E+03  0.11744536973E+02  0.27231031675E+03  0.30190121393E+03  0.00000000000E+00 0.  1.
         21    1    1    2  506  504 -0.15050309358E+02 -0.16415366906E+03  0.10672034878E+04  0.10798593534E+04  0.00000000000E+00 0.  1.
<scales pt_clust_3="14000.00000" pt_clust_4="62.83651" pt_clust_5="130.48241" pt_clust_6="184.37328"></scales>
<clustering>
<clus scale="   62.837">  2  4  1 -1</clus>
<clus scale="  130.482">  1  5  2 -1</clus>
<clus scale="  184.373">  1  6  2 -1</clus>
<clus scale="  130.482">  1  3  2 -1</clus>
</clustering>
</event>
<event>
 6    0  0.8610502E+002  0.6470672E+02  0.7546771E-02  0.1379078E+00
         21   -1    0    0  506  501  0.00000000000E+00  0.00000000000E+00  0.50651304694E+03  0.50651304694E+03  0.00000000000E+00 0.  1.
         21   -1    0    0  504  502 -0.00000000000E+00 -0.00000000000E+00 -0.43855038392E+03  0.43855038392E+03  0.00000000000E+00 0. -1.
         21    1    1    2  503  501  0.24160538942E+02  0.59355696263E+02  0.45346911276E+03  0.45797496280E+03  0.00000000000E+00 0.  1.
         21    1    1    2  504  505  0.22139488334E+02  0.29300870000E+02 -0.24379222117E+03  0.24654278539E+03  0.00000000000E+00 0. -1.
         21    1    1    2  505  503 -0.33850632598E+02  0.28145848453E+02  0.13359800188E+02  0.46005851514E+02  0.00000000000E+00 0. -1.
         21    1    1    2  506  502 -0.12449394677E+02 -0.11680241472E+03 -0.15507402876E+03  0.19453983116E+03  0.00000000000E+00 0.  1.
<scales pt_clust_3="14000.00000" pt_clust_4="36.72462" pt_clust_5="44.27605" pt_clust_6="64.70672"></scales>
<clustering>
<clus scale="   36.725">  2  4  1 -1</clus>
<clus scale="   44.276">  2  5  1 -1</clus>
<clus scale="   64.707">  2  6  1 -1</clus>
<clus scale="   64.707">  1  3  2 -1</clus>
</clustering>
</event>
<event>
 6    0  0.8610502E+002  0.1444370E+03  0.7546771E-02  0.1207480E+00
         21   -1    0    0  506  501  0.00000000000E+00  0.00000000000E+00  0.38915280737E+03  0.38915280737E+03  0.00000000000E+00 0.  1.
         21   -1    0    0  504  502 -0.00000000000E+00 -0.00000000000E+00 -0.25672684364E+04  0.25672684364E+04  0.00000000000E+00 0.  1.
         21    1    1    2  503  505  0.14809121179E+03  0.18510572439E+02 -0.28904367967E+02  0.15201681088E+03  0.00000000000E+00 0.  1.
         21    1    1    2  504  503 -0.13850052286E+03 -0.97606151564E+01 -0.21564538293E+04  0.21609189671E+04  0.00000000000E+00 0.  1.
         21    1    1    2  505  501 -0.47666296189E+01 -0.39269047823E+02  0.32340579214E+03  0.32581602978E+03  0.00000000000E+00 0.  1.
         21    1    1    2  506  502 -0.48240593125E+01  0.30519090540E+02 -0.31616322393E+03  0.31766943605E+03  0.00000000000E+00 0.  1.
<scales pt_clust_3="144.43705" pt_clust_4="14000.00000" pt_clust_5="39.54137" pt_clust_6="30.89800"></scales>
<clustering>
<clus scale="   30.898">  2  6  1 -1</clus>
<clus scale="   39.541">  1  5  2 -1</clus>
<clus scale="  144.437">  1  3  2 -1</clus>
<clus scale="   39.541">  1  3  2 -1</clus>
</clustering>
</event>
<event>
 6    0  0.8610502E+002  0.1136171E+03  0.7546771E-02  0.1254014E+00
         21   -1    0    0  504  501  0.00000000000E+00  0.00000000000E+00  0.36499202990E+03  0.36499202990E+03  0.00000000000E+00 0.  1.
         21   -1    0    0  506  502 -0.00000000000E+00 -0.00000000000E+00 -0.11391472510E+04  0.11391472510E+04  0.00000000000E+00 0. -1.
         21    1    1    2  503  501 -0.91401804280E+02 -0.18147644321E+01  0.74693826778E+02  0.11805401710E+03  0.00000000000E+00 0. -1.
         21    1    1    2  504  505 -0.29299902537E+02  0.40731948927E+02  0.25025737072E+03  0.25523778629E+03  0.00000000000E+00 0.  1.
         21    1    1    2  505  502  0.28884092193E+02 -0.98221731364E+01 -0.96634984780E+03  0.96683131631E+03  0.00000000000E+00 0. -1.
         21    1    1    2  506  503  0.91817614625E+02 -0.29095011358E+02 -0.13275657084E+03  0.16401616122E+03  0.00000000000E+00 0.  1.
<scales pt_clust_3="113.61713" pt_clust_4="49.81763" pt_clust_5="30.50846" pt_clust_6="14000.00000"></scales>
<clustering>
<clus scale="   30.508">  2  5  1 -1</clus>
<clus scale="   49.818">  1  4  2 -1</clus>
<clus scale="  113.617">  1  3  2 -1</clus>
<clus scale="   49.818">  1  3  2 -1</clus>
</clustering>
</event>
<event>
 6    0  0.8610502E+002  0.1872481E+03  0.7546771E-02  0.1160967E+00
         21   -1    0    0  503  501  0.00000000000E+00  0.00000000000E+00  0.12539460600E+03  0.12539460600E+03  0.00000000000E+00 0. -1.
         21   -1    0    0  506  502 -0.00000000000E+00 -0.00000000000E+00 -0.13295440630E+04  0.13295440630E+04  0.00000000000E+00 0. -1.
         21    1    1    2  503  505 -0.34424330899E+02 -0.25619903226E+02  0.12559178593E+01  0.42930074876E+02  0.00000000000E+00 0. -1.
         21    1    1    2  504  501  0.29365040815E+02  0.70887753220E+02 -0.14317207190E+01  0.76742615299E+02  0.00000000000E+00 0. -1.
         21    1    1    2  505  502 -0.13221292370E+03 -0.96193298288E+02 -0.11746117944E+04  0.11859368766E+04  0.00000000000E+00 0. -1.
         21    1    1    2  506  504  0.13727221378E+03  0.50925448293E+02 -0.29361859769E+02  0.14932910222E+03  0.00000000000E+00 0. -1.
<scales pt_clust_3="42.91170" pt_clust_4="62.67419" pt_clust_5="165.85564" pt_clust_6="62.67419"></scales>
<clustering>
<clus scale="   42.912">  1  3  2 -1</clus>
<clus scale="   62.674">  4  6 -1 -1</clus>
<clus scale="  165.856">  2  5  1 -1</clus>
<clus scale="   42.912">  1  3  2 -1</clus>
</clustering>
</event>
<event>
 6    0  0.8610502E+002  0.1598850E+03  0.7546771E-02  0.1188827E+00
         21   -1    0    0  504  501  0.00000000000E+00  0.00000000000E+00  0.90713592728E+02  0.90713592728E+02  0.00000000000E+00 0.  1.
         21   -1    0    0  505  502 -0.00000000000E+00 -0.00000000000E+00 -0.87007747159E+03  0.87007747159E+03  0.00000000000E+00 0.  1.
         21    1    1    2  503  501  0.47890767154E+02 -0.75399138235E+02 -0.66796099691E+02  0.11153597877E+03  0.00000000000E+00 0.  1.
         21    1    1    2  504  502  0.60509543279E+02 -0.11114358789E+03 -0.55465091747E+03  0.56890415907E+03  0.00000000000E+00 0.  1.
         21    1    1    2  505  506 -0.43404288918E+02  0.63953062027E+02 -0.10817508029E+03  0.13295027054E+03  0.00000000000E+00 0.  1.
         21    1    1    2  506  503 -0.64996021514E+02  0.12258966410E+03 -0.49741781408E+02  0.14740065595E+03  0.00000000000E+00 0.  1.
<scales pt_clust_3="89.32276" pt_clust_4="135.84222" pt_clust_5="62.93317" pt_clust_6="62.93317"></scales>
<clustering>
<clus scale="   62.933">  5  6 -1 -1</clus>
<clus scale="   89.323">  1  3  2 -1</clus>
<clus scale="  135.842">  2  4  1 -1</clus>
<clus scale="   89.323">  1  3  2 -1</clus>
</clustering>
</event>
<event>
 6    0  0.8610502E+002  0.1145694E+03  0.7546771E-02  0.1252335E+00
         21   -1    0    0  505  501  0.00000000000E+00  0.00000000000E+00  0.29158800933E+03  0.29158800933E+03  0.00000000000E+00 0. -1.
         21   -1    0    0  503  502 -0.00000000000E+00 -0.00000000000E+00 -0.24381249206E+03  0.24381249206E+03  0.00000000000E+00 0. -1.
         21    1    1    2  503  504 -0.83697685252E+02  0.94863140259E+02  0.12347750315E+02  0.12710934204E+03  0.00000000000E+00 0. -1.
         21    1    1    2  504  501 -0.40932222781E-01  0.67719780045E+02  0.14966663528E+03  0.16427438023E+03  0.00000000000E+00 0. -1.
         21    1    1    2  505  506  0.58091626020E+02 -0.51111663435E+02  0.65627823453E+01  0.77653778175E+02  0.00000000000E+00 0. -1.
         21    1    1    2  506  502  0.25646991455E+02 -0.11147125687E+03 -0.12080165067E+03  0.16636300094E+03  0.00000000000E+00 0. -1.
<scales pt_clust_3="14000.00000" pt_clust_4="67.71979" pt_clust_5="65.33676" pt_clust_6="114.56942"></scales>
<clustering>
<clus scale="   67.720">  1  4  2 -1</clus>
<clus scale="   65.337">  1  5  2 -1</clus>
<clus scale="  114.569">  2  6  1 -1</clus>
<clus scale="   67.720">  1  3  2 -1</clus>
</clustering>
</event>
<event>
 6    0  0.8610502E+002  0.1447537E+03  0.7546771E-02  0.1207072E+00
         21   -1    0    0  503  501  0.00000000000E+00  0.00000000000E+00  0.61031391871E+03  0.61031391871E+03  0.00000000000E+00 0.  1.
         21   -1    0    0  505  502 -0.00000000000E+00 -0.00000000000E+00 -0.62783623592E+03  0.62783623592E+03  0.00000000000E+00 0. -1.
         21    1    1    2  503  506  0.44993890535E+02 -0.11812806258E+03  0.34563727297E+03  0.36802691996E+03  0.00000000000E+00 0.  1.
         21    1    1    2  504  501 -0.55090334302E+02 -0.43360558039E+02  0.13022765242E+03  0.14789971056E+03  0.00000000000E+00 0.  1.
         21    1    1    2  505  504  0.73324590561E+02  0.13943557047E+03  0.57182415403E+02  0.16759654687E+03  0.00000000000E+00 0.  1.
         21    1    1    2  506  502 -0.63228146793E+02  0.22053050155E+02 -0.55056965800E+03  0.55462697724E+03  0.00000000000E+00 0. -1.
<scales pt_clust_3="14000.00000" pt_clust_4="74.63568" pt_clust_5="144.75365" pt_clust_6="66.96369"></scales>
<clustering>
<clus scale="   66.964">  2  6  1 -1</clus>
<clus scale="   74.636">  1  4  2 -1</clus>
<clus scale="  144.754">  2  5  1 -1</clus>
<clus scale="   74.636">  1  3  2 -1</clus>
</clustering>
</event>
<event>
 6    0  0.8610502E+002  0.1331944E+03  0.7546771E-02  0.1222791E+00
         21   -1    0    0  503  501  0.00000000000E+00  0.00000000000E+00  0.33061260444E+02  0.33061260444E+02  0.00000000000E+00 0.  1.
         21   -1    0    0  504  502 -0.00000000000E+00 -0.00000000000E+00 -0.99750830618E+03  0.99750830618E+03  0.00000000000E+00 0.  1.
         21    1    1    2  503  506 -0.50232347272E+02  0.15767961671E+02 -0.12019510294E+03  0.13122034940E+03  0.00000000000E+00 0.  1.
         21    1    1    2  504  505  0.11394599375E+03 -0.31312347292E+02 -0.51818852858E+03  0.53149177204E+03  0.00000000000E+00 0.  1.
         21    1    1    2  505  501  0.24307111128E+02  0.55522727362E+02 -0.62224819427E+02  0.86865050842E+02  0.00000000000E+00 0.  1.
         21    1    1    2  506  502 -0.88020757610E+02 -0.39978341741E+02 -0.26383859479E+03  0.28099239434E+03  0.00000000000E+00 0.  1.
<scales pt_clust_3="38.61080" pt_clust_4="122.48814" pt_clust_5="60.61030" pt_clust_6="38.61080"></scales>
<clustering>
<clus scale="   38.611">  3  6 -1 -1</clus>
<clus scale="   60.610">  1  5  2 -1</clus>
<clus scale="  122.488">  2  4  1 -1</clus>
<clus scale="   60.610">  1  3  2 -1</clus>
</clustering>
</event>
<event>
 6    0  0.8610502E+002  0.7374117E+02  0.7546771E-02  0.1347814E+00
         21   -1    0    0  504  501  0.00000000000E+00  0.00000000000E+00  0.10640580506E+03  0.10640580506E+03  0.00000000000E+00 0.  1.
         21   -1    0    0  505  502 -0.00000000000E+00 -0.00000000000E+00 -0.33550610888E+03  0.33550610888E+03  0.00000000000E+00 0.  1.
         21    1    1    2  503  506  0.26036015398E+02  0.84658974045E+02 -0.65657020617E+02  0.11025361826E+03  0.00000000000E+00 0.  1.
         21    1    1    2  504  503  0.52306319846E+02 -0.34903731709E+02 -0.61901439966E+01  0.63186544975E+02  0.00000000000E+00 0.  1.
         21    1    1    2  505  501 -0.32893024727E+02  0.49085498477E+01  0.43929385704E+02  0.55098419811E+02  0.00000000000E+00 0.  1.
         21    1    1    2  506  502 -0.45449310518E+02 -0.54663792183E+02 -0.20118252491E+03  0.21337333088E+03  0.00000000000E+00 0.  1.
<scales pt_clust_3="14000.00000" pt_clust_4="48.33668" pt_clust_5="33.25725" pt_clust_6="73.74117"></scales>
<clustering>
<clus scale="   33.257">  1  5  2 -1</clus>
<clus scale="   48.337">  1  4  2 -1</clus>
<clus scale="   73.741">  2  6  1 -1</clus>
<clus scale="   33.257">  1  3  2 -1</clus>
</clustering>
</event>
<event>
 6    0  0.8610502E+002  0.1829847E+03  0.7546771E-02  0.1164945E+00
         21   -1    0    0  505  501  0.00000000000E+00  0.00000000000E+00  0.18269037067E+03  0.18269037067E+03  0.00000000000E+00 0.  1.
         21   -1    0    0  503  502 -0.00000000000E+00 -0.00000000000E+00 -0.37884712639E+03  0.37884712639E+03  0.00000000000E+00 0.  1.
         21    1    1    2  503  504 -0.92528189017E+02 -0.13826973784E+03 -0.85638516815E+01  0.16659329435E+03  0.00000000000E+00 0.  1.
         21    1    1    2  504  506 -0.16272161045E+02 -0.34616556647E+02 -0.41741035689E+02  0.56616281047E+02  0.00000000000E+00 0.  1.
         21    1    1    2  505  502  0.11672663932E+03  0.10507459662E+03 -0.19777856955E+03  0.25255126559E+03  0.00000000000E+00 0.  1.
         21    1    1    2  506  501 -0.79262892543E+01  0.67811697874E+02  0.51926701201E+02  0.85776656075E+02  0.00000000000E+00 0.  1.
<scales pt_clust_3="35.76835" pt_clust_4="35.76835" pt_clust_5="167.08881" pt_clust_6="68.27337"></scales>
<clustering>
<clus scale="   35.768">  3  4 -1 -1</clus>
<clus scale="   68.273">  1  6  2 -1</clus>
<clus scale="  167.089">  2  5  1 -1</clus>
<clus scale="   68.273">  1  3  2 -1</clus>
</clustering>
</event>
<event>
 6    0  0.8610502E+002  0.1557845E+03  0.7546771E-02  0.1193540E+00
         21   -1    0    0  505  501  0.00000000000E+00  0.00000000000E+00  0.63337657825E+02  0.63337657825E+02  0.00000000000E+00 0.  1.
         21   -1    0    0  503  502 -0.00000000000E+00 -0.00000000000E+00 -0.89521899853E+03  0.89521899853E+03  0.00000000000E+00 0.  1.
         21    1    1    2  503  506 -0.29578536003E+02 -0.12694751067E+02 -0.16054953329E+03  0.16374431024E+03  0.00000000000E+00 0.  1.
         21    1    1    2  504  502  0.42325833517E+02 -0.98789976191E+00 -0.17341151676E+03  0.17850491947E+03  0.00000000000E+00 0.  1.
         21    1    1    2  505  504  0.10087126241E+03  0.12014731795E+03 -0.40656454398E+03  0.43578104366E+03  0.00000000000E+00 0.  1.
         21    1    1    2  506  501 -0.11361855992E+03 -0.10646466712E+03 -0.91355746678E+02  0.18052638299E+03  0.00000000000E+00 0.  1.
<scales pt_clust_3="32.18768" pt_clust_4="35.45648" pt_clust_5="14000.00000" pt_clust_6="155.78453"></scales>
<clustering>
<clus scale="   32.188">  2  3  1 -1</clus>
<clus scale="   35.456">  2  4  1 -1</clus>
<clus scale="  155.785">  1  6  2 -1</clus>
<clus scale="  155.785">  1  3  2 -1</clus>
</clustering>
</event>
<event>
 6    0  0.8610502E+002  0.1631298E+03  0.7546771E-02  0.1185208E+00
         21   -1    0    0  504  501  0.00000000000E+00  0.00000000000E+00  0.84010238661E+03  0.84010238661E+03  0.00000000000E+00 0. -1.
         21   -1    0    0  503  502 -0.00000000000E+00 -0.00000000000E+00 -0.43709279175E+02  0.43709279175E+02  0.00000000000E+00 0. -1.
         21    1    1    2  503  506  0.66513964449E+02 -0.77226905009E+01  0.39391022665E+02  0.77687837413E+02  0.00000000000E+00 0.  1.
         21    1    1    2  504  505 -0.51980110454E+02  0.19922135606E+00  0.34622782413E+03  0.35010809442E+03  0.00000000000E+00 0. -1.
         21    1    1    2  505  502 -0.99612921713E+02  0.12985899961E+02  0.29909844907E+03  0.31551743217E+03  0.00000000000E+00 0. -1.
         21    1    1    2  506  501  0.85079067718E+02 -0.54624308164E+01  0.11167581157E+03  0.14049830178E+03  0.00000000000E+00 0. -1.
<scales pt_clust_3="35.77727" pt_clust_4="42.29465" pt_clust_5="42.29465" pt_clust_6="157.42936"></scales>
<clustering>
<clus scale="   35.777">  3  6 -1 -1</clus>
<clus scale="   42.295">  4  5 -1 -1</clus>
<clus scale="  157.429">  2  3  1 -1</clus>
<clus scale="  163.130">  1  3  2 -1</clus>
</clustering>
</event>
<event>
 6    0  0.8610502E+002  0.1067022E+03  0.7546771E-02  0.1266802E+00
         21   -1    0    0  503  501  0.00000000000E+00  0.00000000000E+00  0.67929187529E+03  0.67929187529E+03  0.00000000000E+00 0. -1.
         21   -1    0    0  506  502 -0.00000000000E+00 -0.00000000000E+00 -0.65165933361E+02  0.65165933361E+02  0.00000000000E+00 0. -1.
         21    1    1    2  503  504  0.42485826059E+01  0.74648759085E+02  0.19218784547E+03  0.20621992055E+03  0.00000000000E+00 0. -1.
         21    1    1    2  504  502 -0.71341609173E+01  0.10708804714E+03  0.74041390348E+02  0.13038739808E+03  0.00000000000E+00 0. -1.
         21    1    1    2  505  501  0.54595780338E+02 -0.77727941127E+02  0.13103811971E+03  0.16184350738E+03  0.00000000000E+00 0. -1.
         21    1    1    2  506  505 -0.51710202027E+02 -0.10400886510E+03  0.21685858640E+03  0.24600698264E+03  0.00000000000E+00 0. -1.
<scales pt_clust_3="74.76956" pt_clust_4="14000.00000" pt_clust_5="78.38530" pt_clust_6="106.70221"></scales>
<clustering>
<clus scale="   74.770">  1  3  2 -1</clus>
<clus scale="   78.385">  1  5  2 -1</clus>
<clus scale="  106.702">  1  6  2 -1</clus>
<clus scale="   74.770">  1  3  2 -1</clus>
</clustering>
</event>
<event>
 6    0  0.8610502E+002  0.1225951E+03  0.7546771E-02  0.1238876E+00
         21   -1    0    0  505  501  0.00000000000E+00  0.00000000000E+00  0.61348592966E+03  0.61348592966E+03  0.00000000000E+00 0. -1.
         21   -1    0    0  504  502 -0.00000000000E+00 -0.00000000000E+00 -0.87588695255E+02  0.87588695255E+02  0.00000000000E+00 0. -1.
         21    1    1    2  503  501 -0.38018396635E+02  0.19174004512E+01  0.24692606702E+03  0.24984306570E+03  0.00000000000E+00 0. -1.
         21    1    1    2  504  506  0.22528079740E+02 -0.43774906381E+02 -0.20058758965E+02  0.53161175840E+02  0.00000000000E+00 0. -1.
         21    1    1    2  505  502 -0.93422252447E+02 -0.40738525667E+02  0.21416377555E+03  0.23717813450E+03  0.00000000000E+00 0. -1.
         21    1    1    2  506  503  0.10891256934E+03  0.82596031598E+02  0.84866150805E+02  0.16089224888E+03  0.00000000000E+00 0. -1.
<scales pt_clust_3="38.06672" pt_clust_4="48.38875" pt_clust_5="122.59506" pt_clust_6="14000.00000"></scales>
<clustering>
<clus scale="   38.067">  1  3  2 -1</clus>
<clus scale="   48.389">  2  4  1 -1</clus>
<clus scale="  122.595">  1  5  2 -1</clus>
<clus scale="   38.067">  1  3  2 -1</clus>
</clustering>
</event>
<event>
 6    0  0.8610502E+002  0.1851741E+03  0.7546771E-02  0.1162887E+00
         21   -1    0    0  502  501  0.00000000000E+00  0.00000000000E+00  0.13225089715E+04  0.13225089715E+04  0.00000000000E+00 0. -1.
         21   -1    0    0  504  502 -0.00000000000E+00 -0.00000000000E+00 -0.96630362251E+02  0.96630362251E+02  0.00000000000E+00 0.  1.
         21    1    1    2  503  505 -0.40842217168E+02  0.17691816297E+03  0.17807462967E+03  0.25432006768E+03  0.00000000000E+00 0.  1.
         21    1    1    2  504  506  0.69391293144E+01 -0.41002613185E+02 -0.26722717700E+01  0.41671415144E+02  0.00000000000E+00 0.  1.
         21    1    1    2  505  501  0.23206120492E+02 -0.18465652009E+03  0.10566064672E+04  0.10728717449E+04  0.00000000000E+00 0. -1.
         21    1    1    2  506  503  0.10696967361E+02  0.48740970307E+02 -0.61302158116E+01  0.50276106085E+02  0.00000000000E+00 0.  1.
<scales pt_clust_3="185.17414" pt_clust_4="41.58564" pt_clust_5="14000.00000" pt_clust_6="35.78376"></scales>
<clustering>
<clus scale="   41.586">  2  4  1 -1</clus>
<clus scale="   35.784">  2  6  1 -1</clus>
<clus scale="  185.174">  2  3  1 -1</clus>
<clus scale="  185.174">  1  3  2 -1</clus>
</clustering>
</event>
<event>
 6    0  0.8610502E+002  0.9274240E+02  0.7546771E-02  0.1296343E+00
         21   -1    0    0  502  501  0.00000000000E+00  0.00000000000E+00  0.56372548077E+03  0.56372548077E+03  0.00000000000E+00 0. -1.
         21   -1    0    0  504  502 -0.00000000000E+00 -0.00000000000E+00 -0.39858400139E+03  0.39858400139E+03  0.00000000000E+00 0.  1.
         21    1    1    2  503  506  0.65315420105E+02  0.77647876381E+01 -0.13557031884E+03  0.15068413116E+03  0.00000000000E+00 0.  1.
         21    1    1    2  504  503  0.41560797534E+02  0.23955351520E+02 -0.59446195627E+01  0.48337327810E+02  0.00000000000E+00 0.  1.
         21    1    1    2  505  501  0.59796253738E+02 -0.69768088585E+02  0.49816732892E+03  0.50657069176E+03  0.00000000000E+00 0. -1.
         21    1    1    2  506  505 -0.16667247138E+03  0.38047949426E+02 -0.19151091114E+03  0.25671733143E+03  0.00000000000E+00 0.  1.
<scales pt_clust_3="83.08673" pt_clust_4="47.97039" pt_clust_5="92.74240" pt_clust_6="14000.00000"></scales>
<clustering>
<clus scale="   47.970">  2  4  1 -1</clus>
<clus scale="   83.087">  2  3  1 -1</clus>
<clus scale="   92.742">  1  5  2 -1</clus>
<clus scale="   92.742">  1  3  2 -1</clus>
</clustering>
</event>
<event>
 6    0  0.8610502E+002  0.8642362E+02  0.7546771E-02  0.1311751E+00
         21   -1    0    0  504  501  0.00000000000E+00  0.00000000000E+00  0.28177143673E+03  0.28177143673E+03  0.00000000000E+00 0. -1.
         21   -1    0    0  503  502 -0.00000000000E+00 -0.00000000000E+00 -0.13301920565E+03  0.13301920565E+03  0.00000000000E+00 0. -1.
         21    1    1    2  503  501  0.33695698948E+02 -0.99221784276E+01  0.18097208697E+03  0.18434952133E+03  0.00000000000E+00 0. -1.
         21    1    1    2  504  505 -0.94932714885E+02 -0.38898888671E+02  0.18968985096E+02  0.10433200032E+03  0.00000000000E+00 0. -1.
         21    1    1    2  505  506  0.78408286478E+02  0.23601776020E+02 -0.49214600869E+02  0.95535229934E+02  0.00000000000E+00 0. -1.
         21    1    1    2  506  502 -0.17171270541E+02  0.25219291079E+02 -0.19742401137E+01  0.30573890798E+02  0.00000000000E+00 0. -1.
<scales pt_clust_3="34.78601" pt_clust_4="14000.00000" pt_clust_5="86.42362" pt_clust_6="30.51008"></scales>
<clustering>
<clus scale="   30.510">  2  6  1 -1</clus>
<clus scale="   34.786">  1  3  2 -1</clus>
<clus scale="   86.424">  2  5  1 -1</clus>
<clus scale="   34.786">  1  3  2 -1</clus>
</clustering>
</event>
<event>
 6    0  0.8610502E+002  0.1995967E+03  0.7546771E-02  0.1150080E+00
         21   -1    0    0  502  501  0.00000000000E+00  0.00000000000E+00  0.34636570200E+03  0.34636570200E+03  0.00000000000E+00 0.  1.
         21   -1    0    0  503  502 -0.00000000000E+00 -0.00000000000E+00 -0.29721403126E+04  0.29721403126E+04  0.00000000000E+00 0.  1.
         21    1    1    2  503  504  0.13633311138E+02  0.33880452294E+02 -0.19429758586E+04  0.19433190523E+04  0.00000000000E+00 0.  1.
         21    1    1    2  504  505  0.86071576166E+02 -0.14166649088E+03 -0.70418672407E+03  0.72343393148E+03  0.00000000000E+00 0.  1.
         21    1    1    2  505  506  0.41992647990E+02 -0.15379244267E+02 -0.28713472205E+03  0.29059637343E+03  0.00000000000E+00 0.  1.
         21    1    1    2  506  501 -0.14169753529E+03  0.12316528285E+03  0.30852269407E+03  0.36115665737E+03  0.00000000000E+00 0.  1.
<scales pt_clust_3="36.52057" pt_clust_4="34.74762" pt_clust_5="34.74762" pt_clust_6="188.05155"></scales>
<clustering>
<clus scale="   34.748">  4  5 -1 -1</clus>
<clus scale="   36.521">  2  3  1 -1</clus>
<clus scale="  188.052">  1  6  2 -1</clus>
<clus scale="  188.052">  1  3  2 -1</clus>
</clustering>
</event>
<event>
 6    0  0.8610502E+002  0.6445776E+02  0.7546771E-02  0.1380023E+00
         21   -1    0    0  506  501  0.00000000000E+00  0.00000000000E+00  0.79969658391E+03  0.79969658391E+03  0.00000000000E+00 0. -1.
         21   -1    0    0  504  502 -0.00000000000E+00 -0.00000000000E+00 -0.54876303714E+02  0.54876303714E+02  0.00000000000E+00 0. -1.
         21    1    1    2  503  501  0.27935529235E+02  0.56253987388E+02  0.57324689942E+03  0.57667747709E+03  0.00000000000E+00 0. -1.
         21    1    1    2  504  503 -0.35907430653E+02 -0.91973645049E+02  0.33818847017E+02  0.10436574808E+03  0.00000000000E+00 0. -1.
         21    1    1    2  505  502  0.63725260873E+01 -0.34522787608E+02  0.50494252453E+02  0.61498792539E+02  0.00000000000E+00 0.  1.
         21    1    1    2  506  505  0.15993753314E+01  0.70242445269E+02  0.87260281301E+02  0.11203086990E+03  0.00000000000E+00 0. -1.
<scales pt_clust_3="64.45776" pt_clust_4="14000.00000" pt_clust_5="35.10601" pt_clust_6="61.66551"></scales>
<clustering>
<clus scale="   35.106">  2  5  1 -1</clus>
<clus scale="   61.666">  2  6  1 -1</clus>
<clus scale="   64.458">  1  3  2 -1</clus>
<clus scale="   64.458">  1  3  2 -1</clus>
</clustering>
</event>
<event>
 6    0  0.8610502E+002  0.7779720E+02  0.7546771E-02  0.1335421E+00
         21   -1    0    0  503  501  0.00000000000E+00  0.00000000000E+00  0.34630483080E+03  0.34630483080E+03  0.00000000000E+00 0. -1.
         21   -1    0    0  505  502 -0.00000000000E+00 -0.00000000000E+00 -0.96955440461E+03  0.96955440461E+03  0.00000000000E+00 0. -1.
         21    1    1    2  503  506 -0.39377299256E+02 -0.90026789283E+02  0.30107648765E+01  0.98307981316E+02  0.00000000000E+00 0. -1.
         21    1    1    2  504  501 -0.10398761251E+02  0.32817838886E+02  0.28464447562E+03  0.28671871631E+03  0.00000000000E+00 0. -1.
         21    1    1    2  505  504 -0.25421653299E+02  0.29690657966E+02 -0.75083068569E+03  0.75184740088E+03  0.00000000000E+00 0. -1.
         21    1    1    2  506  502  0.75197713806E+02  0.27518292430E+02 -0.16007412861E+03  0.17898513690E+03  0.00000000000E+00 0. -1.
<scales pt_clust_3="77.79720" pt_clust_4="34.42593" pt_clust_5="39.35294" pt_clust_6="14000.00000"></scales>
<clustering>
<clus scale="   34.426">  1  4  2 -1</clus>
<clus scale="   39.353">  2  5  1 -1</clus>
<clus scale="   77.797">  1  3  2 -1</clus>
<clus scale="   34.426">  1  3  2 -1</clus>
</clustering>
</event>
<event>
 6    0  0.8610502E+002  0.8460167E+02  0.7546771E-02  0.1316477E+00
         21   -1    0    0  505  501  0.00000000000E+00  0.00000000000E+00  0.68418577935E+03  0.68418577935E+03  0.00000000000E+00 0. -1.
         21   -1    0    0  503  502 -0.00000000000E+00 -0.00000000000E+00 -0.15141861201E+03  0.15141861201E+03  0.00000000000E+00 0.  1.
         21    1    1    2  503  504  0.63403115176E+02  0.50855347550E+02 -0.70666680681E+01  0.81585287804E+02  0.00000000000E+00 0. -1.
         21    1    1    2  504  501 -0.41594268064E+02 -0.85973081390E+02  0.48024803762E+03  0.48965256202E+03  0.00000000000E+00 0. -1.
         21    1    1    2  505  506 -0.42037279769E+02  0.58155355888E+02  0.15141324732E+03  0.16755640774E+03  0.00000000000E+00 0. -1.
         21    1    1    2  506  502  0.20228432657E+02 -0.23037622049E+02 -0.91827449530E+02  0.96810133791E+02  0.00000000000E+00 0.  1.
<scales pt_clust_3="84.60167" pt_clust_4="14000.00000" pt_clust_5="67.44462" pt_clust_6="30.65814"></scales>
<clustering>
<clus scale="   30.658">  2  6  1 -1</clus>
<clus scale="   67.445">  1  5  2 -1</clus>
<clus scale="   84.602">  2  3  1 -1</clus>
<clus scale="   67.445">  1  3  2 -1</clus>
</clustering>
</event>
<event>
 6    0  0.8610502E+002  0.9527949E+02  0.7546771E-02  0.1290548E+00
         21   -1    0    0  503  501  0.00000000000E+00  0.00000000000E+00  0.19730512225E+03  0.19730512225E+03  0.00000000000E+00 0. -1.
         21   -1    0    0  504  502 -0.00000000000E+00 -0.00000000000E+00 -0.40796485427E+03  0.40796485427E+03  0.00000000000E+00 0. -1.
         21    1    1    2  503  505  0.62092202339E+02 -0.34360392522E+02  0.92551014349E+02  0.11662661970E+03  0.00000000000E+00 0. -1.
         21    1    1    2  504  506 -0.54608045860E+02  0.69211931591E+02 -0.74810776563E+01  0.88477661983E+02  0.00000000000E+00 0. -1.
         21    1    1    2  505  502  0.18219471557E+02 -0.75303117428E+02 -0.33145448154E+03  0.34038886875E+03  0.00000000000E+00 0. -1.
         21    1    1    2  506  501 -0.25703628036E+02  0.40451578358E+02  0.35724812828E+02  0.59776826091E+02  0.00000000000E+00 0. -1.
<scales pt_clust_3="70.96533" pt_clust_4="38.35194" pt_clust_5="79.82823" pt_clust_6="38.35194"></scales>
<clustering>
<clus scale="   38.352">  4  6 -1 -1</clus>
<clus scale="   70.965">  1  3  2 -1</clus>
<clus scale="   79.828">  2  5  1 -1</clus>
<clus scale="   70.965">  1  3  2 -1</clus>
</clustering>
</event>
<event>
 6    0  0.8610502E+002  0.1157676E+03  0.7546771E-02  0.1250247E+00
         21   -1    0    0  506  501  0.00000000000E+00  0.00000000000E+00  0.70637685844E+02  0.70637685844E+02  0.00000000000E+00 0.  1.
         21   -1    0    0  504  502 -0.00000000000E+00 -0.00000000000E+00 -0.70619401333E+03  0.70619401333E+03  0.00000000000E+00 0.  1.
         21    1    1    2  503  502  0.41283233412E+02 -0.38362715656E+02 -0.23670974097E+03  0.24332592295E+03  0.00000000000E+00 0.  1.
         21    1    1    2  504  501 -0.84224584391E+01 -0.43380949207E+02  0.18089747269E+02  0.47750220068E+02  0.00000000000E+00 0.  1.
         21    1    1    2  505  503  0.86278571266E+02  0.85195114508E+02 -0.27410614960E+03  0.29972717702E+03  0.00000000000E+00 0.  1.
         21    1    1    2  506  505 -0.11913934624E+03 -0.34514496447E+01 -0.14283018419E+03  0.18602837913E+03  0.00000000000E+00 0.  1.
<scales pt_clust_3="58.49750" pt_clust_4="44.19100" pt_clust_5="14000.00000" pt_clust_6="115.76756"></scales>
<clustering>
<clus scale="   44.191">  1  4  2 -1</clus>
<clus scale="   58.498">  2  3  1 -1</clus>
<clus scale="  115.768">  1  6  2 -1</clus>
<clus scale="   44.191">  1  3  2 -1</clus>
</clustering>
</event>
<event>
 6    0  0.8610502E+002  0.2497157E+03  0.7546771E-02  0.1113485E+00
         21   -1    0    0  505  501  0.00000000000E+00  0.00000000000E+00  0.94276415203E+03  0.94276415203E+03  0.00000000000E+00 0. -1.
         21   -1    0    0  506  502 -0.00000000000E+00 -0.00000000000E+00 -0.56999433849E+03  0.56999433849E+03  0.00000000000E+00 0. -1.
         21    1    1    2  503  504 -0.11464891388E+03  0.12188607145E+03  0.58416982553E+03  0.60766353595E+03  0.00000000000E+00 0. -1.
         21    1    1    2  504  501 -0.48985643493E+02  0.34570134797E+02  0.84446982938E+02  0.10356630927E+03  0.00000000000E+00 0. -1.
         21    1    1    2  505  502  0.24155287281E+03 -0.11998415802E+03  0.17589988488E+03  0.32200117708E+03  0.00000000000E+00 0.  1.
         21    1    1    2  506  503 -0.77918315436E+02 -0.36472048223E+02 -0.47174687980E+03  0.47952746823E+03  0.00000000000E+00 0. -1.
<scales pt_clust_3="51.99276" pt_clust_4="51.99276" pt_clust_5="234.12242" pt_clust_6="86.03182"></scales>
<clustering>
<clus scale="   51.993">  3  4 -1 -1</clus>
<clus scale="   86.032">  2  6  1 -1</clus>
<clus scale="  234.122">  2  5  1 -1</clus>
<clus scale="  249.716">  1  3  2 -1</clus>
</clustering>
</event>
<event>
 6    0  0.8610502E+002  0.1569982E+03  0.7546771E-02  0.1192128E+00
         21   -1    0    0  504  501  0.00000000000E+00  0.00000000000E+00  0.55330934635E+03  0.55330934635E+03  0.00000000000E+00 0.  1.
         21   -1    0    0  503  502 -0.00000000000E+00 -0.00000000000E+00 -0.13035369780E+03  0.13035369780E+03  0.00000000000E+00 0.  1.
         21    1    1    2  503  505 -0.94344657399E+02  0.18371841558E+02 -0.77634784481E+02  0.12355403151E+03  0.00000000000E+00 0.  1.
         21    1    1    2  504  502 -0.58113940668E+02 -0.23905784926E+02  0.48887331515E+02  0.79615876781E+02  0.00000000000E+00 0.  1.
         21    1    1    2  505  506  0.95295017072E+02 -0.10596485651E+02  0.19887607041E+03  0.22078296395E+03  0.00000000000E+00 0.  1.
         21    1    1    2  506  501  0.57163580996E+02  0.16130429019E+02  0.25282703110E+03  0.25971017190E+03  0.00000000000E+00 0.  1.
<scales pt_clust_3="145.20581" pt_clust_4="62.83881" pt_clust_5="46.98509" pt_clust_6="46.98509"></scales>
<clustering>
<clus scale="   46.985">  5  6 -1 -1</clus>
<clus scale="   62.839">  2  4  1 -1</clus>
<clus scale="  145.206">  2  3  1 -1</clus>
<clus scale="  156.998">  1  3  2 -1</clus>
</clustering>
</event>
<event>
 6    0  0.8610502E+002  0.1390121E+03  0.7546771E-02  0.1214665E+00
         21   -1    0    0  505  501  0.00000000000E+00  0.00000000000E+00  0.27598859962E+04  0.27598859962E+04  0.00000000000E+00 0.  1.
         21   -1    0    0  506  502 -0.00000000000E+00 -0.00000000000E+00 -0.43844394396E+03  0.43844394396E+03  0.00000000000E+00 0. -1.
         21    1    1    2  503  502 -0.76819779418E+02 -0.96486864288E+02  0.12349871205E+03  0.17453631533E+03  0.00000000000E+00 0.  1.
         21    1    1    2  504  503 -0.32319935625E+02  0.59623760959E+02  0.18210411407E+03  0.19432313159E+03  0.00000000000E+00 0.  1.
         21    1    1    2  505  504 -0.15005681179E+02 -0.30113407701E+02  0.24103060680E+04  0.24105408789E+04  0.00000000000E+00 0.  1.
         21    1    1    2  506  501  0.12414539622E+03  0.66976511031E+02 -0.39446684183E+03  0.41892961430E+03  0.00000000000E+00 0. -1.
<scales pt_clust_3="139.01207" pt_clust_4="59.29853" pt_clust_5="33.64503" pt_clust_6="14000.00000"></scales>
<clustering>
<clus scale="   33.645">  1  5  2 -1</clus>
<clus scale="   59.299">  1  4  2 -1</clus>
<clus scale="  139.012">  1  3  2 -1</clus>
<clus scale="   33.645">  1  3  2 -1</clus>
</clustering>
</event>
<event>
 6    0  0.8610502E+002  0.8037532E+02  0.7546771E-02  0.1327990E+00
         21   -1    0    0  504  501  0.00000000000E+00  0.00000000000E+00  0.29008568909E+03  0.29008568909E+03  0.00000000000E+00 0. -1.
         21   -1    0    0  505  502 -0.00000000000E+00 -0.00000000000E+00 -0.18068706169E+03  0.18068706169E+03  0.00000000000E+00 0.  1.
         21    1    1    2  503  501  0.44277820272E+02  0.15547045209E+02  0.12867567793E+03  0.13696593034E+03  0.00000000000E+00 0. -1.
         21    1    1    2  504  506 -0.14149969977E+02 -0.54300438993E+02  0.79670593298E+02  0.97448256843E+02  0.00000000000E+00 0. -1.
         21    1    1    2  505  503 -0.98785420010E+01  0.11075579051E+03  0.13978747053E+01  0.11120424801E+03  0.00000000000E+00 0.  1.
         21    1    1    2  506  502 -0.20249308294E+02 -0.72002396721E+02 -0.10034551853E+03  0.12515431558E+03  0.00000000000E+00 0.  1.
<scales pt_clust_3="46.92799" pt_clust_4="46.80479" pt_clust_5="80.37532" pt_clust_6="14000.00000"></scales>
<clustering>
<clus scale="   46.928">  1  3  2 -1</clus>
<clus scale="   46.805">  1  4  2 -1</clus>
<clus scale="   80.375">  1  5  2 -1</clus>
<clus scale="   46.928">  1  3  2 -1</clus>
</clustering>
</event>
<event>
 6    0  0.8610502E+002  0.9909749E+02  0.7546771E-02  0.1282205E+00
         21   -1    0    0  506  501  0.00000000000E+00  0.00000000000E+00  0.13820701820E+04  0.13820701820E+04  0.00000000000E+00 0.  1.
         21   -1    0    0  504  502 -0.00000000000E+00 -0.00000000000E+00 -0.23113169628E+03  0.23113169628E+03  0.00000000000E+00 0. -1.
         21    1    1    2  503  502  0.88265727113E+02  0.39523990144E+01  0.63719472095E+02  0.10893406797E+03  0.00000000000E+00 0.  1.
         21    1    1    2  504  505  0.19933184663E+02  0.28684532658E+02 -0.20211459278E+03  0.20511080635E+03  0.00000000000E+00 0. -1.
         21    1    1    2  505  501 -0.40422492122E+02  0.17708718500E+02  0.88514558820E+03  0.88624505013E+03  0.00000000000E+00 0.  1.
         21    1    1    2  506  503 -0.67776419654E+02 -0.50345650173E+02  0.40418801824E+03  0.41291195386E+03  0.00000000000E+00 0.  1.
<scales pt_clust_3="14000.00000" pt_clust_4="34.93042" pt_clust_5="44.00189" pt_clust_6="99.09749"></scales>
<clustering>
<clus scale="   34.930">  2  4  1 -1</clus>
<clus scale="   44.002">  1  5  2 -1</clus>
<clus scale="   99.097">  1  6  2 -1</clus>
<clus scale="   44.002">  1  3  2 -1</clus>
</clustering>
</event>
<event>
 6    0  0.8610502E+002  0.1231587E+03  0.7546771E-02  0.1237975E+00
         21   -1    0    0  502  501  0.00000000000E+00  0.00000000000E+00  0.11778511673E+04  0.11778511673E+04  0.00000000000E+00 0.  1.
         21   -1    0    0  504  502 -0.00000000000E+00 -0.00000000000E+00 -0.65402265623E+03  0.65402265623E+03  0.00000000000E+00 0. -1.
         21    1    1    2  503  505  0.49366462225E+02  0.17353852292E+02  0.41390950373E+02  0.66718922015E+02  0.00000000000E+00 0. -1.
         21    1    1    2  504  503 -0.95484892130E+02 -0.54938663692E+02 -0.62467302951E+03  0.63431223793E+03  0.00000000000E+00 0. -1.
         21    1    1    2  505  506  0.28756861061E+02  0.65982705142E+02  0.10014751288E+03  0.12332963461E+03  0.00000000000E+00 0.  1.
         21    1    1    2  506  501  0.17361568844E+02 -0.28397893741E+02  0.10069630773E+04  0.10075130289E+04  0.00000000000E+00 0.  1.
<scales pt_clust_3="52.10203" pt_clust_4="110.14077" pt_clust_5="52.10203" pt_clust_6="33.28460"></scales>
<clustering>
<clus scale="   33.285">  1  6  2 -1</clus>
<clus scale="   52.102">  3  5 -1 -1</clus>
<clus scale="  110.141">  2  4  1 -1</clus>
<clus scale="   33.285">  1  3  2 -1</clus>
</clustering>
</event>
<event>
 6    0  0.8610502E+002  0.1052066E+03  0.7546771E-02  0.1269713E+00
         21   -1    0    0  505  501  0.00000000000E+00  0.00000000000E+00  0.51181647541E+03  0.51181647541E+03  0.00000000000E+00 0. -1.
         21   -1    0    0  506  502 -0.00000000000E+00 -0.00000000000E+00 -0.81007845898E+03  0.81007845898E+03  0.00000000000E+00 0.  1.
         21    1    1    2  503  502 -0.34652024817E+02 -0.19403891082E+02 -0.62355340324E+03  0.62481686957E+03  0.00000000000E+00 0.  1.
         21    1    1    2  504  501  0.10623556480E+02  0.39358686468E+02  0.91008910927E+02  0.99722555226E+02  0.00000000000E+00 0. -1.
         21    1    1    2  505  503  0.67681268456E+02 -0.10975703839E+03  0.39089852250E+03  0.41161756093E+03  0.00000000000E+00 0. -1.
         21    1    1    2  506  504 -0.43652800120E+02  0.89802243003E+02 -0.15661601376E+03  0.18573794866E+03  0.00000000000E+00 0.  1.
<scales pt_clust_3="39.71491" pt_clust_4="40.12204" pt_clust_5="105.20660" pt_clust_6="14000.00000"></scales>
<clustering>
<clus scale="   39.715">  2  3  1 -1</clus>
<clus scale="   40.122">  1  4  2 -1</clus>
<clus scale="  105.207">  1  5  2 -1</clus>
<clus scale="   40.122">  1  3  2 -1</clus>
</clustering>
</event>
<event>
 6    0  0.8610502E+002  0.7855883E+02  0.7546771E-02  0.1333192E+00
         21   -1    0    0  503  501  0.00000000000E+00  0.00000000000E+00  0.30581544013E+03  0.30581544013E+03  0.00000000000E+00 0. -1.
         21   -1    0    0  505  502 -0.00000000000E+00 -0.00000000000E+00 -0.49070854601E+03  0.49070854601E+03  0.00000000000E+00 0. -1.
         21    1    1    2  503  504 -0.22308015460E+02 -0.75854325515E+02  0.27384797528E+03  0.28503375206E+03  0.00000000000E+00 0. -1.
         21    1    1    2  504  506 -0.66076100130E+02  0.70933811977E+02 -0.30498149275E+03  0.32001776140E+03  0.00000000000E+00 0. -1.
         21    1    1    2  505  501  0.54009092954E+02 -0.19078585762E+02 -0.13274660090E+03  0.14457743464E+03  0.00000000000E+00 0.  1.
         21    1    1    2  506  502  0.34375022636E+02  0.23999099300E+02 -0.21012987511E+02  0.46895038038E+02  0.00000000000E+00 0. -1.
<scales pt_clust_3="14000.00000" pt_clust_4="78.55883" pt_clust_5="65.51482" pt_clust_6="41.92373"></scales>
<clustering>
<clus scale="   41.924">  2  6  1 -1</clus>
<clus scale="   65.515">  2  5  1 -1</clus>
<clus scale="   78.559">  2  4  1 -1</clus>
<clus scale="   78.559">  1  3  2 -1</clus>
</clustering>
</event>
<event>
 6    0  0.8610502E+002  0.8901921E+02  0.7546771E-02  0.1305244E+00
         21   -1    0    0  505  501  0.00000000000E+00  0.00000000000E+00  0.81926776173E+03  0.81926776173E+03  0.00000000000E+00 0. -1.
         21   -1    0    0  504  502 -0.00000000000E+00 -0.00000000000E+00 -0.16196992873E+03  0.16196992873E+03  0.00000000000E+00 0. -1.
         21    1    1    2  503  501 -0.40251278130E+02  0.71686186628E+02  0.42301952069E+03  0.43093455376E+03  0.00000000000E+00 0. -1.
         21    1    1    2  504  503 -0.52602794923E+02 -0.17721311178E+02  0.19265277405E+03  0.20048987569E+03  0.00000000000E+00 0. -1.
         21    1    1    2  505  506  0.15276722519E+01 -0.45560417530E+02  0.17895802211E+03  0.18467284344E+03  0.00000000000E+00 0. -1.
         21    1    1    2  506  502  0.91326400802E+02 -0.84044579199E+01 -0.13733248384E+03  0.16514041757E+03  0.00000000000E+00 0. -1.
<scales pt_clust_3="56.86584" pt_clust_4="89.01921" pt_clust_5="45.58602" pt_clust_6="14000.00000"></scales>
<clustering>
<clus scale="   45.586">  1  5  2 -1</clus>
<clus scale="   56.866">  1  3  2 -1</clus>
<clus scale="   89.019">  1  4  2 -1</clus>
<clus scale="   45.586">  1  3  2 -1</clus>
</clustering>
</event>
<event>
 6    0  0.8610502E+002  0.7871527E+02  0.7546771E-02  0.1332737E+00
         21   -1    0    0  503  501  0.00000000000E+00  0.00000000000E+00  0.37518844800E+03  0.37518844800E+03  0.00000000000E+00 0.  1.
         21   -1    0    0  504  502 -0.00000000000E+00 -0.00000000000E+00 -0.27117985967E+03  0.27117985967E+03  0.00000000000E+00 0.  1.
         21    1    1    2  503  506  0.77096409965E+02 -0.27140524642E+02  0.31547118996E+03  0.32588730599E+03  0.00000000000E+00 0.  1.
         21    1    1    2  504  501 -0.28130881587E+02 -0.11024677906E+02 -0.16778038295E+03  0.17047916860E+03  0.00000000000E+00 0.  1.
         21    1    1    2  505  502  0.16840067163E+02  0.67967519552E+02 -0.31337355758E+02  0.76715066591E+02  0.00000000000E+00 0.  1.
         21    1    1    2  506  505 -0.65805595541E+02 -0.29802317004E+02 -0.12344862918E+02  0.73286766498E+02  0.00000000000E+00 0.  1.
<scales pt_clust_3="78.71527" pt_clust_4="30.21407" pt_clust_5="62.16147" pt_clust_6="14000.00000"></scales>
<clustering>
<clus scale="   30.214">  2  4  1 -1</clus>
<clus scale="   62.161">  2  5  1 -1</clus>
<clus scale="   78.715">  1  3  2 -1</clus>
<clus scale="   78.715">  1  3  2 -1</clus>
</clustering>
</event>
<event>
 6    0  0.8610502E+002  0.1042496E+03  0.7546771E-02  0.1271605E+00
         21   -1    0    0  505  501  0.00000000000E+00  0.00000000000E+00  0.28888490990E+03  0.28888490990E+03  0.00000000000E+00 0.  1.
         21   -1    0    0  506  502 -0.00000000000E+00 -0.00000000000E+00 -0.58237296273E+03  0.58237296273E+03  0.00000000000E+00 0.  1.
         21    1    1    2  503  502  0.32764024568E+02 -0.12416717206E+03 -0.92997922816E+02  0.15855466430E+03  0.00000000000E+00 0.  1.
         21    1    1    2  504  501  0.12361656008E+02  0.96851148244E+02 -0.28990425967E+03  0.30590429097E+03  0.00000000000E+00 0.  1.
         21    1    1    2  505  503 -0.64964800994E+02  0.79985920365E+02  0.23181142489E+03  0.25368230040E+03  0.00000000000E+00 0.  1.
         21    1    1    2  506  504  0.19839120418E+02 -0.52669896552E+02 -0.14239729523E+03  0.15311661697E+03  0.00000000000E+00 0.  1.
<scales pt_clust_3="104.24960" pt_clust_4="66.06338" pt_clust_5="14000.00000" pt_clust_6="56.28240"></scales>
<clustering>
<clus scale="   56.282">  2  6  1 -1</clus>
<clus scale="   66.063">  2  4  1 -1</clus>
<clus scale="  104.250">  2  3  1 -1</clus>
<clus scale="  104.250">  1  3  2 -1</clus>
</clustering>
</event>
<event>
 6    0  0.8610502E+002  0.1053786E+03  0.7546771E-02  0.1269376E+00
         21   -1    0    0  504  501  0.00000000000E+00  0.00000000000E+00  0.26137051066E+03  0.26137051066E+03  0.00000000000E+00 0. -1.
         21   -1    0    0  506  502 -0.00000000000E+00 -0.00000000000E+00 -0.97996550274E+03  0.97996550274E+03  0.00000000000E+00 0.  1.
         21    1    1    2  503  501 -0.57832574512E+01 -0.35777198038E+02  0.70261633446E+02  0.79057897143E+02  0.00000000000E+00 0. -1.
         21    1    1    2  504  502 -0.18823200603E+01 -0.88962068740E+02 -0.72453075753E+03  0.72997439093E+03  0.00000000000E+00 0.  1.
         21    1    1    2  505  503  0.10920580543E+03  0.22296647182E+02  0.14202517443E+03  0.18053863461E+03  0.00000000000E+00 0. -1.
         21    1    1    2  506  505 -0.10154022792E+03  0.10244261960E+03 -0.20635104242E+03  0.25176509071E+03  0.00000000000E+00 0.  1.
<scales pt_clust_3="36.24161" pt_clust_4="89.50523" pt_clust_5="14000.00000" pt_clust_6="105.37859"></scales>
<clustering>
<clus scale="   36.242">  1  3  2 -1</clus>
<clus scale="   89.505">  2  4  1 -1</clus>
<clus scale="  105.379">  2  6  1 -1</clus>
<clus scale="   36.242">  1  3  2 -1</clus>
</clustering>
</event>
<event>
 6    0  0.8610502E+002  0.6726016E+02  0.7546771E-02  0.1369666E+00
         21   -1    0    0  506  501  0.00000000000E+00  0.00000000000E+00  0.10081718170E+03  0.10081718170E+03  0.00000000000E+00 0. -1.
         21   -1    0    0  505  502 -0.00000000000E+00 -0.00000000000E+00 -0.14110489576E+04  0.14110489576E+04  0.00000000000E+00 0. -1.
         21    1    1    2  503  502 -0.11393787568E+03  0.19420662525E+02 -0.11056726697E+03  0.15995037409E+03  0.00000000000E+00 0. -1.
         21    1    1    2  504  503  0.25569715910E+02  0.41628887096E+02  0.13793908843E+02  0.50764618917E+02  0.00000000000E+00 0. -1.
         21    1    1    2  505  501  0.54645262775E+02 -0.36829446206E+02 -0.12464064108E+04  0.12481472083E+04  0.00000000000E+00 0. -1.
         21    1    1    2  506  504  0.33722896992E+02 -0.24220103415E+02  0.32947993031E+02  0.53003937927E+02  0.00000000000E+00 0. -1.
<scales pt_clust_3="14000.00000" pt_clust_4="52.54259" pt_clust_5="67.26016" pt_clust_6="41.51924"></scales>
<clustering>
<clus scale="   41.519">  1  6  2 -1</clus>
<clus scale="   52.543">  1  4  2 -1</clus>
<clus scale="   67.260">  2  5  1 -1</clus>
<clus scale="   41.519">  1  3  2 -1</clus>
</clustering>
</event>
<event>
 6    0  0.8610502E+002  0.2344261E+03  0.7546771E-02  0.1123563E+00
         21   -1    0    0  503  501  0.00000000000E+00  0.00000000000E+00  0.22059777031E+03  0.22059777031E+03  0.00000000000E+00 0.  1.
         21   -1    0    0  504  502 -0.00000000000E+00 -0.00000000000E+00 -0.77540847954E+03  0.77540847954E+03  0.00000000000E+00 0.  1.
         21    1    1    2  503  506 -0.33380921909E+02 -0.15871005091E+01 -0.20378904967E+02  0.39142107802E+02  0.00000000000E+00 0.  1.
         21    1    1    2  504  501 -0.18004576127E+03  0.94903821276E+02  0.13660435169E+03  0.24512029770E+03  0.00000000000E+00 0.  1.
         21    1    1    2  505  502  0.11894491087E+03 -0.48076452369E+02 -0.43460425276E+03  0.45314467184E+03  0.00000000000E+00 0.  1.
         21    1    1    2  506  505  0.94481772301E+02 -0.45240268397E+02 -0.23643190319E+03  0.25859917252E+03  0.00000000000E+00 0.  1.
<scales pt_clust_3="33.41863" pt_clust_4="230.05389" pt_clust_5="40.63181" pt_clust_6="40.63181"></scales>
<clustering>
<clus scale="   33.419">  1  3  2 -1</clus>
<clus scale="   40.632">  5  6 -1 -1</clus>
<clus scale="  230.054">  1  4  2 -1</clus>
<clus scale="   33.419">  1  3  2 -1</clus>
</clustering>
</event>
<event>
 6    0  0.8610502E+002  0.1485919E+03  0.7546771E-02  0.1202214E+00
         21   -1    0    0  506  501  0.00000000000E+00  0.00000000000E+00  0.17339648680E+03  0.17339648680E+03  0.00000000000E+00 0.  1.
         21   -1    0    0  505  502 -0.00000000000E+00 -0.00000000000E+00 -0.12856390674E+04  0.12856390674E+04  0.00000000000E+00 0.  1.
         21    1    1    2  503  502  0.10013814600E+03  0.10818732817E+03 -0.10701427609E+04  0.10802488949E+04  0.00000000000E+00 0.  1.
         21    1    1    2  504  503 -0.18442265846E+02 -0.20318909497E+03 -0.75253521842E+02  0.21746038267E+03  0.00000000000E+00 0.  1.
         21    1    1    2  505  501 -0.36079875521E+02  0.49297428032E+01 -0.25598100605E+02  0.44512049339E+02  0.00000000000E+00 0.  1.
         21    1    1    2  506  504 -0.45616004637E+02  0.90072023993E+02  0.58751802696E+02  0.11681422732E+03  0.00000000000E+00 0.  1.
<scales pt_clust_3="148.59191" pt_clust_4="14000.00000" pt_clust_5="36.41510" pt_clust_6="113.19036"></scales>
<clustering>
<clus scale="   36.415">  1  5  2 -1</clus>
<clus scale="  113.190">  1  6  2 -1</clus>
<clus scale="  148.592">  2  3  1 -1</clus>
<clus scale="   36.415">  1  3  2 -1</clus>
</clustering>
</event>
<event>
 6    0  0.8610502E+002  0.1448168E+03  0.7546771E-02  0.1206991E+00
         21   -1    0    0  506  501  0.00000000000E+00  0.00000000000E+00  0.27155633292E+02  0.27155633292E+02  0.00000000000E+00 0.  1.
         21   -1    0    0  504  502 -0.00000000000E+00 -0.00000000000E+00 -0.78612020723E+03  0.78612020723E+03  0.00000000000E+00 0. -1.
         21    1    1    2  503  502  0.55556462397E+02  0.13871987220E+02 -0.27620312259E+03  0.28207643905E+03  0.00000000000E+00 0. -1.
         21    1    1    2  504  505 -0.50843969756E+02  0.98018768020E+00 -0.71598390572E+02  0.87820268508E+02  0.00000000000E+00 0.  1.
         21    1    1    2  505  501 -0.58450955265E+02 -0.68456942505E+02 -0.22184631401E+03  0.23941314540E+03  0.00000000000E+00 0.  1.
         21    1    1    2  506  503  0.53738462623E+02  0.53604767605E+02 -0.18931674677E+03  0.20396598757E+03  0.00000000000E+00 0. -1.
<scales pt_clust_3="47.81069" pt_clust_4="50.27131" pt_clust_5="50.27131" pt_clust_6="139.74438"></scales>
<clustering>
<clus scale="   47.811">  3  6 -1 -1</clus>
<clus scale="   50.271">  4  5 -1 -1</clus>
<clus scale="  139.744">  2  3  1 -1</clus>
<clus scale="  144.817">  1  3  2 -1</clus>
</clustering>
</event>
<event>
 6    0  0.8610502E+002  0.9249494E+02  0.7546771E-02  0.1296920E+00
         21   -1    0    0  502  501  0.00000000000E+00  0.00000000000E+00  0.19827711789E+04  0.19827711789E+04  0.00000000000E+00 0. -1.
         21   -1    0    0  506  502 -0.00000000000E+00 -0.00000000000E+00 -0.60736643697E+02  0.60736643697E+02  0.00000000000E+00 0. -1.
         21    1    1    2  503  504 -0.14959711553E+03 -0.25637736593E+02  0.29367079369E+03  0.33057393361E+03  0.00000000000E+00 0. -1.
         21    1    1    2  504  505  0.49609313664E+02  0.33392166262E+02  0.10234018498E+04  0.10251475342E+04  0.00000000000E+00 0. -1.
         21    1    1    2  505  501  0.43624308311E+02 -0.30704767065E+02  0.62224129483E+03  0.62452389225E+03  0.00000000000E+00 0. -1.
         21    1    1    2  506  503  0.56363493552E+02  0.22950337396E+02 -0.17279403112E+02  0.63262462519E+02  0.00000000000E+00 0. -1.
<scales pt_clust_3="14000.00000" pt_clust_4="92.49494" pt_clust_5="53.34663" pt_clust_6="61.34909"></scales>
<clustering>
<clus scale="   53.347">  1  5  2 -1</clus>
<clus scale="   61.349">  2  6  1 -1</clus>
<clus scale="   92.495">  1  4  2 -1</clus>
<clus scale="   53.347">  1  3  2 -1</clus>
</clustering>
</event>
<event>
 6    0  0.8610502E+002  0.2105138E+03  0.7546771E-02  0.1141160E+00
         21   -1    0    0  503  501  0.00000000000E+00  0.00000000000E+00  0.86039612563E+03  0.86039612563E+03  0.00000000000E+00 0.  1.
         21   -1    0    0  505  502 -0.00000000000E+00 -0.00000000000E+00 -0.11560928946E+04  0.11560928946E+04  0.00000000000E+00 0.  1.
         21    1    1    2  503  506 -0.16468733762E+02 -0.18924308914E+03  0.83218308700E+03  0.85358822406E+03  0.00000000000E+00 0.  1.
         21    1    1    2  504  502  0.51197601622E+02  0.96683121758E+02 -0.87539167373E+03  0.88220145255E+03  0.00000000000E+00 0.  1.
         21    1    1    2  505  501 -0.34469630969E+02  0.25724197431E+02 -0.43044463078E+02  0.60849943256E+02  0.00000000000E+00 0. -1.
         21    1    1    2  506  504 -0.25923689100E+00  0.66835769948E+02 -0.20944371916E+03  0.21984940037E+03  0.00000000000E+00 0.  1.
<scales pt_clust_3="189.73922" pt_clust_4="70.85320" pt_clust_5="43.01035" pt_clust_6="70.85320"></scales>
<clustering>
<clus scale="   43.010">  2  5  1 -1</clus>
<clus scale="   70.853">  4  6 -1 -1</clus>
<clus scale="  189.739">  1  3  2 -1</clus>
<clus scale="  189.739">  1  3  2 -1</clus>
</clustering>
</event>
<event>
 6    0  0.8610502E+002  0.1225430E+03  0.7546771E-02  0.1238960E+00
         21   -1    0    0  505  501  0.00000000000E+00  0.00000000000E+00  0.92214514033E+03  0.92214514033E+03  0.00000000000E+00 0.  1.
         21   -1    0    0  503  502 -0.00000000000E+00 -0.00000000000E+00 -0.10994615829E+03  0.10994615829E+03  0.00000000000E+00 0. -1.
         21    1    1    2  503  504 -0.80486737226E+02 -0.80354237691E+02  0.20951541375E+03  0.23839384846E+03  0.00000000000E+00 0.  1.
         21    1    1    2  504  501 -0.96442315144E+01 -0.78642908792E+02  0.55828810909E+03  0.56388237342E+03  0.00000000000E+00 0.  1.
         21    1    1    2  505  506  0.20464729529E+02  0.55497652345E+02  0.80535914932E+02  0.99924112027E+02  0.00000000000E+00 0.  1.
         21    1    1    2  506  502  0.69666239212E+02  0.10349949414E+03 -0.36140455730E+02  0.12989096471E+03  0.00000000000E+00 0. -1.
<scales pt_clust_3="14000.00000" pt_clust_4="41.42176" pt_clust_5="59.15061" pt_clust_6="122.54303"></scales>
<clustering>
<clus scale="   59.151">  1  5  2 -1</clus>
<clus scale="   41.422">  1  4  2 -1</clus>
<clus scale="  122.543">  2  6  1 -1</clus>
<clus scale="   59.151">  1  3  2 -1</clus>
</clustering>
</event>
<event>
 6    0  0.8610502E+002  0.9962279E+02  0.7546771E-02  0.1281091E+00
         21   -1    0    0  506  501  0.00000000000E+00  0.00000000000E+00  0.24404019788E+04  0.24404019788E+04  0.00000000000E+00 0.  1.
         21   -1    0    0  503  502 -0.00000000000E+00 -0.00000000000E+00 -0.58850830473E+02  0.58850830473E+02  0.00000000000E+00 0. -1.
         21    1    1    2  503  505  0.56774447844E+02 -0.57377846795E+02  0.14953966922E+03  0.16993430466E+03  0.00000000000E+00 0.  1.
         21    1    1    2  504  502  0.47762723642E+02 -0.41131237344E-01  0.31838339726E+02  0.57401736367E+02  0.00000000000E+00 0. -1.
         21    1    1    2  505  501 -0.86335494506E+01 -0.97567538316E+02  0.19953147109E+04  0.19977173870E+04  0.00000000000E+00 0.  1.
         21    1    1    2  506  504 -0.95903622035E+02  0.15498651635E+03  0.20485842851E+03  0.27419938129E+03  0.00000000000E+00 0.  1.
<scales pt_clust_3="88.48069" pt_clust_4="47.76274" pt_clust_5="14000.00000" pt_clust_6="99.62279"></scales>
<clustering>
<clus scale="   47.763">  2  4  1 -1</clus>
<clus scale="   88.481">  2  3  1 -1</clus>
<clus scale="   99.623">  2  6  1 -1</clus>
<clus scale="   99.623">  1  3  2 -1</clus>
</clustering>
</event>
<event>
 6    0  0.8610502E+002  0.9637692E+02  0.7546771E-02  0.1288105E+00
         21   -1    0    0  503  501  0.00000000000E+00  0.00000000000E+00  0.37546690242E+03  0.37546690242E+03  0.00000000000E+00 0.  1.
         21   -1    0    0  506  502 -0.00000000000E+00 -0.00000000000E+00 -0.36377663830E+03  0.36377663830E+03  0.00000000000E+00 0.  1.
         21    1    1    2  503  505  0.17412970337E+02 -0.25396402590E+02  0.77104540688E+02  0.83025893522E+02  0.00000000000E+00 0.  1.
         21    1    1    2  504  501 -0.14107398898E+03 -0.29361298094E+02  0.11651282220E+03  0.18530837523E+03  0.00000000000E+00 0.  1.
         21    1    1    2  505  502  0.70259988856E+02  0.22784337201E+02  0.13179036542E+03  0.15107710771E+03  0.00000000000E+00 0.  1.
         21    1    1    2  506  504  0.53401029790E+02  0.31973363484E+02 -0.31371746419E+03  0.31983216426E+03  0.00000000000E+00 0.  1.
<scales pt_clust_3="30.79267" pt_clust_4="96.37692" pt_clust_5="14000.00000" pt_clust_6="62.26160"></scales>
<clustering>
<clus scale="   30.793">  1  3  2 -1</clus>
<clus scale="   62.262">  2  6  1 -1</clus>
<clus scale="   96.377">  2  4  1 -1</clus>
<clus scale="   30.793">  1  3  2 -1</clus>
</clustering>
</event>
<event>
 6    0  0.8610502E+002  0.1651862E+03  0.7546771E-02  0.1182963E+00
         21   -1    0    0  503  501  0.00000000000E+00  0.00000000000E+00  0.68543497069E+03  0.68543497069E+03  0.00000000000E+00 0. -1.
         21   -1    0    0  504  502 -0.00000000000E+00 -0.00000000000E+00 -0.88356255376E+03  0.88356255376E+03  0.00000000000E+00 0. -1.
         21    1    1    2  503  506  0.32842522480E+02 -0.19691580789E+02  0.85213819718E+02  0.93422613471E+02  0.00000000000E+00 0. -1.
         21    1    1    2  504  505  0.16513889668E+01 -0.16561209674E+03 -0.85355472941E+03  0.86947442157E+03  0.00000000000E+00 0. -1.
         21    1    1    2  505  501 -0.15096079820E+02  0.13721937415E+03  0.50068716315E+03  0.51936950585E+03  0.00000000000E+00 0. -1.
         21    1    1    2  506  502 -0.19397831627E+02  0.48084303378E+02  0.69526163466E+02  0.86730983561E+02  0.00000000000E+00 0. -1.
<scales pt_clust_3="38.29347" pt_clust_4="165.18624" pt_clust_5="14000.00000" pt_clust_6="47.94139"></scales>
<clustering>
<clus scale="   38.293">  1  3  2 -1</clus>
<clus scale="   47.941">  1  6  2 -1</clus>
<clus scale="  165.186">  2  4  1 -1</clus>
<clus scale="   38.293">  1  3  2 -1</clus>
</clustering>
</event>
<event>
 6    0  0.8610502E+002  0.1535371E+03  0.7546771E-02  0.1196193E+00
         21   -1    0    0  504  501  0.00000000000E+00  0.00000000000E+00  0.14392171577E+03  0.14392171577E+03  0.00000000000E+00 0. -1.
         21   -1    0    0  505  502 -0.00000000000E+00 -0.00000000000E+00 -0.28127557951E+03  0.28127557951E+03  0.00000000000E+00 0. -1.
         21    1    1    2  503  502  0.64166305631E+01  0.35029685780E+02 -0.39447863726E+02  0.53144952593E+02  0.00000000000E+00 0. -1.
         21    1    1    2  504  503  0.38249083286E+02  0.11535342561E+03 -0.13328623484E+02  0.12225815873E+03  0.00000000000E+00 0. -1.
         21    1    1    2  505  506 -0.80251495579E+02 -0.11169561569E+03 -0.12313541811E+03  0.18460374942E+03  0.00000000000E+00 0. -1.
         21    1    1    2  506  501  0.35585781729E+02 -0.38687495694E+02  0.38558041575E+02  0.65190434532E+02  0.00000000000E+00 0. -1.
<scales pt_clust_3="31.42869" pt_clust_4="31.42869" pt_clust_5="142.13670" pt_clust_6="52.56491"></scales>
<clustering>
<clus scale="   31.429">  3  4 -1 -1</clus>
<clus scale="   52.565">  1  6  2 -1</clus>
<clus scale="  142.137">  2  5  1 -1</clus>
<clus scale="   52.565">  1  3  2 -1</clus>
</clustering>
</event>
<event>
 6    0  0.8610502E+002  0.2237164E+03  0.7546771E-02  0.1131142E+00
         21   -1    0    0  502  501  0.00000000000E+00  0.00000000000E+00  0.17236377883E+03  0.17236377883E+03  0.00000000000E+00 0.  1.
         21   -1    0    0  506  502 -0.00000000000E+00 -0.00000000000E+00 -0.49885536703E+03  0.49885536703E+03  0.00000000000E+00 0.  1.
         21    1    1    2  503  501  0.10748639926E+03  0.27149000649E+01 -0.17346043981E+02  0.10891088995E+03  0.00000000000E+00 0.  1.
         21    1    1    2  504  505 -0.39626793796E+02  0.44727070304E+01 -0.69962163068E+02  0.80529448998E+02  0.00000000000E+00 0. -1.
         21    1    1    2  505  503  0.75683113537E+02 -0.15706850972E+03 -0.13033255132E+02  0.17483797116E+03  0.00000000000E+00 0.  1.
         21    1    1    2  506  504 -0.14354271900E+03  0.14988090263E+03 -0.22615012602E+03  0.30694083575E+03  0.00000000000E+00 0.  1.
<scales pt_clust_3="107.52068" pt_clust_4="31.22700" pt_clust_5="212.07166" pt_clust_6="31.22700"></scales>
<clustering>
<clus scale="   31.227">  4  6 -1 -1</clus>
<clus scale="  107.521">  1  3  2 -1</clus>
<clus scale="  212.072">  1  5  2 -1</clus>
<clus scale="  107.521">  1  3  2 -1</clus>
</clustering>
</event>
<event>
 6    0  0.8610502E+002  0.5107025E+03  0.7546771E-02  0.1011023E+00
         21   -1    0    0  505  501  0.00000000000E+00  0.00000000000E+00  0.29840816289E+04  0.29840816289E+04  0.00000000000E+00 0. -1.
         21   -1    0    0  504  502 -0.00000000000E+00 -0.00000000000E+00 -0.46760007153E+03  0.46760007153E+03  0.00000000000E+00 0.  1.
         21    1    1    2  503  506 -0.19285953126E+03  0.41923892244E+03 -0.23375205942E+03  0.51729691490E+03  0.00000000000E+00 0.  1.
         21    1    1    2  504  501  0.20753858296E+02 -0.27381305751E+02  0.48556859124E+03  0.48678261610E+03  0.00000000000E+00 0. -1.
         21    1    1    2  505  503  0.16518095419E+03 -0.43222787490E+03  0.23272507202E+04  0.23728045849E+04  0.00000000000E+00 0. -1.
         21    1    1    2  506  502  0.69247187767E+01  0.40370258218E+02 -0.62585694642E+02  0.74797584537E+02  0.00000000000E+00 0.  1.
<scales pt_clust_3="38.83763" pt_clust_4="34.35780" pt_clust_5="493.83149" pt_clust_6="38.83763"></scales>
<clustering>
<clus scale="   34.358">  1  4  2 -1</clus>
<clus scale="   38.838">  3  6 -1 -1</clus>
<clus scale="  493.831">  1  5  2 -1</clus>
<clus scale="   34.358">  1  3  2 -1</clus>
</clustering>
</event>
<event>
 6    0  0.8610502E+002  0.1418504E+03  0.7546771E-02  0.1210861E+00
         21   -1    0    0  506  501  0.00000000000E+00  0.00000000000E+00  0.27643252086E+03  0.27643252086E+03  0.00000000000E+00 0.  1.
         21   -1    0    0  503  502 -0.00000000000E+00 -0.00000000000E+00 -0.33034665178E+03  0.33034665178E+03  0.00000000000E+00 0.  1.
         21    1    1    2  503  501 -0.19515849906E+03  0.25810154232E+02  0.31716578938E+02  0.19939645231E+03  0.00000000000E+00 0.  1.
         21    1    1    2  504  505  0.20486823583E+02  0.77360106068E+02  0.39269713276E+02  0.89142617935E+02  0.00000000000E+00 0. -1.
         21    1    1    2  505  502  0.11785167746E+03 -0.62411335932E+02 -0.18361406992E+03  0.22693241154E+03  0.00000000000E+00 0.  1.
         21    1    1    2  506  504  0.56819998016E+02 -0.40758924368E+02  0.58713646792E+02  0.91307690858E+02  0.00000000000E+00 0.  1.
<scales pt_clust_3="14000.00000" pt_clust_4="75.05380" pt_clust_5="141.85042" pt_clust_6="69.92712"></scales>
<clustering>
<clus scale="   69.927">  1  6  2 -1</clus>
<clus scale="   75.054">  1  4  2 -1</clus>
<clus scale="  141.850">  2  5  1 -1</clus>
<clus scale="   69.927">  1  3  2 -1</clus>
</clustering>
</event>
<event>
 6    0  0.8610502E+002  0.8763637E+02  0.7546771E-02  0.1308679E+00
         21   -1    0    0  503  501  0.00000000000E+00  0.00000000000E+00  0.33662364233E+03  0.33662364233E+03  0.00000000000E+00 0. -1.
         21   -1    0    0  504  502 -0.00000000000E+00 -0.00000000000E+00 -0.65461851681E+03  0.65461851681E+03  0.00000000000E+00 0.  1.
         21    1    1    2  503  506  0.21309629546E+02 -0.38099958172E+02  0.12075328879E+00  0.43654572560E+02  0.00000000000E+00 0.  1.
         21    1    1    2  504  505 -0.22302317875E+02  0.13621517198E+03 -0.82664215478E+02  0.16088921337E+03  0.00000000000E+00 0.  1.
         21    1    1    2  505  501  0.29256395719E+02 -0.79847411842E+02  0.26848961452E+03  0.28163490369E+03  0.00000000000E+00 0. -1.
         21    1    1    2  506  502 -0.28263707390E+02 -0.18267801963E+02 -0.50394102681E+03  0.50506346952E+03  0.00000000000E+00 0.  1.
<scales pt_clust_3="44.23456" pt_clust_4="87.63637" pt_clust_5="14000.00000" pt_clust_6="33.65338"></scales>
<clustering>
<clus scale="   33.653">  2  6  1 -1</clus>
<clus scale="   44.235">  2  3  1 -1</clus>
<clus scale="   87.636">  2  4  1 -1</clus>
<clus scale="   87.636">  1  3  2 -1</clus>
</clustering>
</event>
<event>
 6    0  0.8610502E+002  0.1035976E+03  0.7546771E-02  0.1272908E+00
         21   -1    0    0  506  501  0.00000000000E+00  0.00000000000E+00  0.13629561354E+03  0.13629561354E+03  0.00000000000E+00 0.  1.
         21   -1    0    0  504  502 -0.00000000000E+00 -0.00000000000E+00 -0.71193455618E+03  0.71193455618E+03  0.00000000000E+00 0.  1.
         21    1    1    2  503  502 -0.17581269276E+02  0.29837139377E+02 -0.15927902069E+03  0.16300049800E+03  0.00000000000E+00 0.  1.
         21    1    1    2  504  501 -0.33403004511E+02  0.40696433991E+00 -0.20900000365E+03  0.21165284750E+03  0.00000000000E+00 0.  1.
         21    1    1    2  505  503  0.99379214298E+02  0.61491351737E+02 -0.30777400282E+03  0.32921459777E+03  0.00000000000E+00 0.  1.
         21    1    1    2  506  505 -0.48394940510E+02 -0.91735455454E+02  0.10041408452E+03  0.14436222644E+03  0.00000000000E+00 0.  1.
<scales pt_clust_3="41.22663" pt_clust_4="33.40548" pt_clust_5="103.59761" pt_clust_6="14000.00000"></scales>
<clustering>
<clus scale="   33.405">  2  4  1 -1</clus>
<clus scale="   41.227">  2  3  1 -1</clus>
<clus scale="  103.598">  2  5  1 -1</clus>
<clus scale="  103.598">  1  3  2 -1</clus>
</clustering>
</event>
<event>
 6    0  0.8610502E+002  0.1202451E+03  0.7546771E-02  0.1242693E+00
         21   -1    0    0  504  501  0.00000000000E+00  0.00000000000E+00  0.66167297900E+03  0.66167297900E+03  0.00000000000E+00 0.  1.
         21   -1    0    0  506  502 -0.00000000000E+00 -0.00000000000E+00 -0.51156756901E+03  0.51156756901E+03  0.00000000000E+00 0.  1.
         21    1    1    2  503  501 -0.24737034043E+02  0.26893010875E+02  0.48790419051E+03  0.48927053253E+03  0.00000000000E+00 0.  1.
         21    1    1    2  504  505  0.77019410649E+02 -0.65144082375E+02  0.10033561144E+03  0.14227781277E+03  0.00000000000E+00 0.  1.
         21    1    1    2  505  502  0.17357907220E+02 -0.48059399492E+02  0.30906993155E+02  0.59718046255E+02  0.00000000000E+00 0.  1.
         21    1    1    2  506  503 -0.69640283826E+02  0.86310470993E+02 -0.46904138512E+03  0.48197415645E+03  0.00000000000E+00 0.  1.
<scales pt_clust_3="36.53977" pt_clust_4="30.65861" pt_clust_5="30.65861" pt_clust_6="112.26434"></scales>
<clustering>
<clus scale="   30.659">  4  5 -1 -1</clus>
<clus scale="   36.540">  1  3  2 -1</clus>
<clus scale="  112.264">  2  6  1 -1</clus>
<clus scale="   36.540">  1  3  2 -1</clus>
</clustering>
</event>
<event>
 6    0  0.8610502E+002  0.1285498E+03  0.7546771E-02  0.1229624E+00
         21   -1    0    0  503  501  0.00000000000E+00  0.00000000000E+00  0.13765451381E+04  0.13765451381E+04  0.00000000000E+00 0.  1.
         21   -1    0    0  505  502 -0.00000000000E+00 -0.00000000000E+00 -0.22924660893E+03  0.22924660893E+03  0.00000000000E+00 0.  1.
         21    1    1    2  503  506  0.42641269960E+02  0.11129342207E+02  0.12254762807E+04  0.12262684269E+04  0.00000000000E+00 0.  1.
         21    1    1    2  504  501 -0.13854554370E+02 -0.11661977028E+03 -0.13137465429E+03  0.17621412907E+03  0.00000000000E+00 0.  1.
         21    1    1    2  505  504 -0.59806918631E+02 -0.65848061009E+01 -0.22851326927E+02  0.64361559411E+02  0.00000000000E+00 0.  1.
         21    1    1    2  506  502  0.31020203040E+02  0.11207523417E+03  0.76048229680E+02  0.13894763168E+03  0.00000000000E+00 0.  1.
<scales pt_clust_3="44.06972" pt_clust_4="128.54981" pt_clust_5="54.16917" pt_clust_6="14000.00000"></scales>
<clustering>
<clus scale="   44.070">  1  3  2 -1</clus>
<clus scale="   54.169">  2  5  1 -1</clus>
<clus scale="  128.550">  2  4  1 -1</clus>
<clus scale="   44.070">  1  3  2 -1</clus>
</clustering>
</event>
<event>
 6    0  0.8610502E+002  0.1242830E+03  0.7546771E-02  0.1236194E+00
         21   -1    0    0  505  501  0.00000000000E+00  0.00000000000E+00  0.14335409038E+03  0.14335409038E+03  0.00000000000E+00 0.  1.
         21   -1    0    0  503  502 -0.00000000000E+00 -0.00000000000E+00 -0.23777586572E+03  0.23777586572E+03  0.00000000000E+00 0. -1.
         21    1    1    2  503  501  0.75325164380E+02 -0.49695408153E+02 -0.10881178510E+03  0.14136307353E+03  0.00000000000E+00 0. -1.
         21    1    1    2  504  506 -0.11684302781E+03  0.22138755479E+02 -0.15219418892E+02  0.11989181938E+03  0.00000000000E+00 0.  1.
         21    1    1    2  505  504  0.58384440750E+02 -0.15811775604E+02  0.39579463453E+02  0.72286161170E+02  0.00000000000E+00 0. -1.
         21    1    1    2  506  502 -0.16866577317E+02  0.43368428279E+02 -0.99700348043E+01  0.47588902023E+02  0.00000000000E+00 0. -1.
<scales pt_clust_3="100.99722" pt_clust_4="45.30603" pt_clust_5="60.48764" pt_clust_6="45.30603"></scales>
<clustering>
<clus scale="   45.306">  4  6 -1 -1</clus>
<clus scale="   60.488">  1  5  2 -1</clus>
<clus scale="  100.997">  2  3  1 -1</clus>
<clus scale="   60.488">  1  3  2 -1</clus>
</clustering>
</event>
<event>
 6    0  0.8610502E+002  0.9835932E+02  0.7546771E-02  0.1283784E+00
         21   -1    0    0  504  501  0.00000000000E+00  0.00000000000E+00  0.90646008814E+02  0.90646008814E+02  0.00000000000E+00 0. -1.
         21   -1    0    0  503  502 -0.00000000000E+00 -0.00000000000E+00 -0.26168636533E+04  0.26168636533E+04  0.00000000000E+00 0.  1.
         21    1    1    2  503  506  0.40940051077E+02 -0.25275029358E+02 -0.23936975671E+04  0.23941810620E+04  0.00000000000E+00 0.  1.
         21    1    1    2  504  502  0.46904515809E+01  0.92820317160E+02 -0.64792272359E+02  0.11329452843E+03  0.00000000000E+00 0. -1.
         21    1    1    2  505  501 -0.86672761690E+01 -0.10061983630E+03  0.16456352196E+02  0.10232440892E+03  0.00000000000E+00 0. -1.
         21    1    1    2  506  505 -0.36963226489E+02  0.33074548501E+02 -0.84184157238E+02  0.97709662782E+02  0.00000000000E+00 0. -1.
<scales pt_clust_3="48.11356" pt_clust_4="98.35932" pt_clust_5="14000.00000" pt_clust_6="30.47388"></scales>
<clustering>
<clus scale="   48.114">  2  3  1 -1</clus>
<clus scale="   30.474">  2  6  1 -1</clus>
<clus scale="   98.359">  2  4  1 -1</clus>
<clus scale="   98.359">  1  3  2 -1</clus>
</clustering>
</event>
<event>
 6    0  0.8610502E+002  0.1517464E+03  0.7546771E-02  0.1198343E+00
         21   -1    0    0  506  501  0.00000000000E+00  0.00000000000E+00  0.14947321343E+04  0.14947321343E+04  0.00000000000E+00 0.  1.
         21   -1    0    0  504  502 -0.00000000000E+00 -0.00000000000E+00 -0.15266595319E+03  0.15266595319E+03  0.00000000000E+00 0.  1.
         21    1    1    2  503  502  0.21866784756E+02  0.55389002556E+02 -0.96817556694E+02  0.11366502173E+03  0.00000000000E+00 0.  1.
         21    1    1    2  504  501  0.28479096492E+02 -0.14165486795E+03  0.27356427247E+03  0.30937771691E+03  0.00000000000E+00 0.  1.
         21    1    1    2  505  503 -0.10823228860E+03  0.13149388284E+03  0.23017987638E+03  0.28633484770E+03  0.00000000000E+00 0.  1.
         21    1    1    2  506  505  0.57886407351E+02 -0.45228017447E+02  0.93513958900E+03  0.93802050118E+03  0.00000000000E+00 0.  1.
<scales pt_clust_3="59.54912" pt_clust_4="151.74644" pt_clust_5="14000.00000" pt_clust_6="72.96845"></scales>
<clustering>
<clus scale="   59.549">  2  3  1 -1</clus>
<clus scale="   72.968">  1  6  2 -1</clus>
<clus scale="  151.746">  2  4  1 -1</clus>
<clus scale="   72.968">  1  3  2 -1</clus>
</clustering>
</event>
<event>
 6    0  0.8610502E+002  0.7033370E+02  0.7546771E-02  0.1358962E+00
         21   -1    0    0  504  501  0.00000000000E+00  0.00000000000E+00  0.85618800307E+03  0.85618800307E+03  0.00000000000E+00 0. -1.
         21   -1    0    0  505  502 -0.00000000000E+00 -0.00000000000E+00 -0.10082636751E+03  0.10082636751E+03  0.00000000000E+00 0. -1.
         21    1    1    2  503  506  0.77245903065E+02  0.37705606640E+02  0.95004812174E+02  0.12811930631E+03  0.00000000000E+00 0.  1.
         21    1    1    2  504  502 -0.40240989137E+02  0.42761133101E+02  0.53366600304E+02  0.79346365631E+02  0.00000000000E+00 0. -1.
         21    1    1    2  505  503  0.19017302525E+02 -0.73303935896E+02 -0.49603936904E+02  0.90529969455E+02  0.00000000000E+00 0. -1.
         21    1    1    2  506  501 -0.56022216453E+02 -0.71628038438E+01  0.65659415998E+03  0.65901872919E+03  0.00000000000E+00 0. -1.
<scales pt_clust_3="56.80169" pt_clust_4="14000.00000" pt_clust_5="70.33370" pt_clust_6="56.47827"></scales>
<clustering>
<clus scale="   56.478">  1  6  2 -1</clus>
<clus scale="   56.802">  1  3  2 -1</clus>
<clus scale="   70.334">  2  5  1 -1</clus>
<clus scale="   56.478">  1  3  2 -1</clus>
</clustering>
</event>
<event>
 6    0  0.8610502E+002  0.7905216E+02  0.7546771E-02  0.1331763E+00
         21   -1    0    0  503  501  0.00000000000E+00  0.00000000000E+00  0.15804760755E+04  0.15804760755E+04  0.00000000000E+00 0. -1.
         21   -1    0    0  505  502 -0.00000000000E+00 -0.00000000000E+00 -0.36938506977E+03  0.36938506977E+03  0.00000000000E+00 0.  1.
         21    1    1    2  503  504 -0.62433816860E+01  0.31625280996E+02  0.56169668160E+02  0.64762410658E+02  0.00000000000E+00 0. -1.
         21    1    1    2  504  502 -0.53554310119E+02 -0.26824091627E+02  0.51492550501E+03  0.51839740714E+03  0.00000000000E+00 0. -1.
         21    1    1    2  505  506 -0.39138256099E+02 -0.38545535547E+02 -0.35853252509E+03  0.36271632573E+03  0.00000000000E+00 0.  1.
         21    1    1    2  506  501  0.98935947904E+02  0.33744346178E+02  0.99852835761E+03  0.10039850017E+04  0.00000000000E+00 0. -1.
<scales pt_clust_3="32.23567" pt_clust_4="14000.00000" pt_clust_5="54.90793" pt_clust_6="79.05216"></scales>
<clustering>
<clus scale="   32.236">  1  3  2 -1</clus>
<clus scale="   54.908">  2  5  1 -1</clus>
<clus scale="   79.052">  1  6  2 -1</clus>
<clus scale="   32.236">  1  3  2 -1</clus>
</clustering>
</event>
<event>
 6    0  0.8610502E+002  0.7155503E+02  0.7546771E-02  0.1354884E+00
         21   -1    0    0  505  501  0.00000000000E+00  0.00000000000E+00  0.15608644815E+04  0.15608644815E+04  0.00000000000E+00 0.  1.
         21   -1    0    0  503  502 -0.00000000000E+00 -0.00000000000E+00 -0.19251246603E+03  0.19251246603E+03  0.00000000000E+00 0.  1.
         21    1    1    2  503  504 -0.29697286256E+02 -0.55946562671E+02 -0.92247070157E+02  0.11189936836E+03  0.00000000000E+00 0.  1.
         21    1    1    2  504  506  0.57340823025E+02 -0.53906575294E+02 -0.60688520519E+02  0.99383023540E+02  0.00000000000E+00 0. -1.
         21    1    1    2  505  502 -0.45648261623E+01  0.42100031060E+02  0.37448041123E+02  0.56529691642E+02  0.00000000000E+00 0.  1.
         21    1    1    2  506  501 -0.23078710606E+02  0.67753106905E+02  0.14838395650E+04  0.14855648640E+04  0.00000000000E+00 0.  1.
<scales pt_clust_3="45.75312" pt_clust_4="14000.00000" pt_clust_5="42.34679" pt_clust_6="71.55503"></scales>
<clustering>
<clus scale="   42.347">  2  5  1 -1</clus>
<clus scale="   45.753">  2  3  1 -1</clus>
<clus scale="   71.555">  1  6  2 -1</clus>
<clus scale="   71.555">  1  3  2 -1</clus>
</clustering>
</event>
<event>
 6    0  0.8610502E+002  0.7005311E+02  0.7546771E-02  0.1359913E+00
         21   -1    0    0  503  501  0.00000000000E+00  0.00000000000E+00  0.32649672056E+03  0.32649672056E+03  0.00000000000E+00 0. -1.
         21   -1    0    0  506  502 -0.00000000000E+00 -0.00000000000E+00 -0.27771911649E+03  0.27771911649E+03  0.00000000000E+00 0. -1.
         21    1    1    2  503  504  0.30191389291E+02  0.10124115503E+03  0.22750633773E+03  0.25083944101E+03  0.00000000000E+00 0. -1.
         21    1    1    2  504  502  0.29012845047E+02 -0.33101635320E+02 -0.20205816245E+03  0.20679691596E+03  0.00000000000E+00 0. -1.
         21    1    1    2  505  501  0.15426231339E+02 -0.50932652040E+02  0.41945800286E+02  0.67761005149E+02  0.00000000000E+00 0.  1.
         21    1    1    2  506  505 -0.74630465678E+02 -0.17206867670E+02 -0.18616371497E+02  0.78818474928E+02  0.00000000000E+00 0. -1.
<scales pt_clust_3="14000.00000" pt_clust_4="44.01663" pt_clust_5="60.36286" pt_clust_6="70.05311"></scales>
<clustering>
<clus scale="   44.017">  2  4  1 -1</clus>
<clus scale="   60.363">  1  5  2 -1</clus>
<clus scale="   70.053">  2  6  1 -1</clus>
<clus scale="   60.363">  1  3  2 -1</clus>
</clustering>
</event>
<event>
 6    0  0.8610502E+002  0.2866525E+03  0.7546771E-02  0.1092110E+00
         21   -1    0    0  503  501  0.00000000000E+00  0.00000000000E+00  0.26474232925E+04  0.26474232925E+04  0.00000000000E+00 0. -1.
         21   -1    0    0  504  502 -0.00000000000E+00 -0.00000000000E+00 -0.12913273430E+04  0.12913273430E+04  0.00000000000E+00 0.  1.
         21    1    1    2  503  502  0.49808751309E+02  0.11642681435E+02 -0.98106559078E+03  0.98239816630E+03  0.00000000000E+00 0.  1.
         21    1    1    2  504  505  0.11148328157E+03 -0.61042551360E+02 -0.22054511890E+03  0.25454835418E+03  0.00000000000E+00 0.  1.
         21    1    1    2  505  506  0.93516839390E+02 -0.48300239938E+01 -0.32052119968E+02  0.98975081590E+02  0.00000000000E+00 0. -1.
         21    1    1    2  506  501 -0.25480887227E+03  0.54229893919E+02  0.25897587792E+04  0.26028290334E+04  0.00000000000E+00 0. -1.
<scales pt_clust_3="51.15138" pt_clust_4="98.61163" pt_clust_5="98.61163" pt_clust_6="259.53893"></scales>
<clustering>
<clus scale="   51.151">  2  3  1 -1</clus>
<clus scale="   98.612">  4  5 -1 -1</clus>
<clus scale="  259.539">  1  6  2 -1</clus>
<clus scale="  259.539">  1  3  2 -1</clus>
</clustering>
</event>
<event>
 6    0  0.8610502E+002  0.1372659E+03  0.7546771E-02  0.1217056E+00
         21   -1    0    0  504  501  0.00000000000E+00  0.00000000000E+00  0.42703093430E+02  0.42703093430E+02  0.00000000000E+00 0. -1.
         21   -1    0    0  503  502 -0.00000000000E+00 -0.00000000000E+00 -0.10370064402E+04  0.10370064402E+04  0.00000000000E+00 0. -1.
         21    1    1    2  503  506 -0.49652085768E+02  0.14501100378E+02 -0.27190917812E+03  0.27678549941E+03  0.00000000000E+00 0. -1.
         21    1    1    2  504  502 -0.32850493067E+02  0.77912603590E+02 -0.45032276839E+03  0.45819223523E+03  0.00000000000E+00 0. -1.
         21    1    1    2  505  501  0.12590159538E+03 -0.90937830444E+02 -0.15310186371E+03  0.21808503249E+03  0.00000000000E+00 0. -1.
         21    1    1    2  506  505 -0.43399016543E+02 -0.14758735238E+01 -0.11896953652E+03  0.12664676648E+03  0.00000000000E+00 0. -1.
<scales pt_clust_3="30.98005" pt_clust_4="84.55489" pt_clust_5="133.03637" pt_clust_6="30.98005"></scales>
<clustering>
<clus scale="   30.980">  3  6 -1 -1</clus>
<clus scale="   84.555">  2  4  1 -1</clus>
<clus scale="  133.036">  1  5  2 -1</clus>
<clus scale="  133.036">  1  3  2 -1</clus>
</clustering>
</event>
<event>
 6    0  0.8610502E+002  0.1847641E+03  0.7546771E-02  0.1163270E+00
         21   -1    0    0  503  501  0.00000000000E+00  0.00000000000E+00  0.10202870354E+04  0.10202870354E+04  0.00000000000E+00 0.  1.
         21   -1    0    0  506  502 -0.00000000000E+00 -0.00000000000E+00 -0.18266795699E+03  0.18266795699E+03  0.00000000000E+00 0.  1.
         21    1    1    2  503  504 -0.63563788419E+02  0.31769927658E+02  0.40860903299E+03  0.41474211908E+03  0.00000000000E+00 0.  1.
         21    1    1    2  504  505 -0.54190795073E+02  0.11034931534E+03  0.40189937480E+03  0.42028171639E+03  0.00000000000E+00 0.  1.
         21    1    1    2  505  502  0.25937473549E+02 -0.16526848060E+03 -0.11078949505E+03  0.20065077979E+03  0.00000000000E+00 0.  1.
         21    1    1    2  506  501  0.91817109942E+02  0.23149237608E+02  0.13790016569E+03  0.16728037714E+03  0.00000000000E+00 0.  1.
<scales pt_clust_3="60.23470" pt_clust_4="60.23470" pt_clust_5="166.91580" pt_clust_6="94.69038"></scales>
<clustering>
<clus scale="   60.235">  3  4 -1 -1</clus>
<clus scale="   94.690">  1  6  2 -1</clus>
<clus scale="  166.916">  2  5  1 -1</clus>
<clus scale="   94.690">  1  3  2 -1</clus>
</clustering>
</event>
<event>
 6    0  0.8610502E+002  0.9157231E+02  0.7546771E-02  0.1299088E+00
         21   -1    0    0  504  501  0.00000000000E+00  0.00000000000E+00  0.55514948944E+03  0.55514948944E+03  0.00000000000E+00 0.  1.
         21   -1    0    0  505  502 -0.00000000000E+00 -0.00000000000E+00 -0.28027005341E+03  0.28027005341E+03  0.00000000000E+00 0.  1.
         21    1    1    2  503  506  0.96643413699E+01  0.13154995400E+03  0.54326795262E+02  0.14265409414E+03  0.00000000000E+00 0. -1.
         21    1    1    2  504  503  0.31296396949E+02 -0.53037848388E+01  0.20845434913E+02  0.37975344005E+02  0.00000000000E+00 0. -1.
         21    1    1    2  505  501 -0.43336559634E+01 -0.75739264645E+02  0.41950488129E+03  0.42630923308E+03  0.00000000000E+00 0.  1.
         21    1    1    2  506  502 -0.36627082356E+02 -0.50506904521E+02 -0.21979767544E+03  0.22848087162E+03  0.00000000000E+00 0.  1.
<scales pt_clust_3="14000.00000" pt_clust_4="31.74263" pt_clust_5="91.57231" pt_clust_6="62.27400"></scales>
<clustering>
<clus scale="   31.743">  1  4  2 -1</clus>
<clus scale="   62.274">  2  6  1 -1</clus>
<clus scale="   91.572">  1  5  2 -1</clus>
<clus scale="   31.743">  1  3  2 -1</clus>
</clustering>
</event>
<event>
 6    0  0.8610502E+002  0.1103479E+03  0.7546771E-02  0.1259927E+00
         21   -1    0    0  504  501  0.00000000000E+00  0.00000000000E+00  0.17032287812E+03  0.17032287812E+03  0.00000000000E+00 0. -1.
         21   -1    0    0  506  502 -0.00000000000E+00 -0.00000000000E+00 -0.62018660805E+03  0.62018660805E+03  0.00000000000E+00 0. -1.
         21    1    1    2  503  502  0.10211853053E+03 -0.33297878698E+02 -0.91201545887E+02  0.14090658244E+03  0.00000000000E+00 0. -1.
         21    1    1    2  504  503  0.54710571380E+02  0.33638788373E+02  0.26685248222E+01  0.64280134790E+02  0.00000000000E+00 0. -1.
         21    1    1    2  505  501 -0.49154115310E+02  0.47962074018E+02  0.93172622661E+02  0.11574811104E+03  0.00000000000E+00 0. -1.
         21    1    1    2  506  505 -0.10767498660E+03 -0.48302983694E+02 -0.45450333153E+03  0.46957465790E+03  0.00000000000E+00 0. -1.
<scales pt_clust_3="110.34792" pt_clust_4="64.22472" pt_clust_5="74.00959" pt_clust_6="14000.00000"></scales>
<clustering>
<clus scale="   64.225">  1  4  2 -1</clus>
<clus scale="   74.010">  1  5  2 -1</clus>
<clus scale="  110.348">  1  3  2 -1</clus>
<clus scale="   64.225">  1  3  2 -1</clus>
</clustering>
</event>
<event>
 6    0  0.8610502E+002  0.1425363E+03  0.7546771E-02  0.1209956E+00
         21   -1    0    0  506  501  0.00000000000E+00  0.00000000000E+00  0.61454978798E+03  0.61454978798E+03  0.00000000000E+00 0. -1.
         21   -1    0    0  503  502 -0.00000000000E+00 -0.00000000000E+00 -0.37854664431E+03  0.37854664431E+03  0.00000000000E+00 0. -1.
         21    1    1    2  503  504  0.11775693151E+03  0.28444723093E+02  0.86006254513E+02  0.14856942151E+03  0.00000000000E+00 0. -1.
         21    1    1    2  504  501  0.94136349051E+01 -0.51123463875E+02  0.10376548743E+03  0.11605818136E+03  0.00000000000E+00 0. -1.
         21    1    1    2  505  502  0.28977567218E+02  0.32127361166E+02 -0.32382692577E+03  0.32670436880E+03  0.00000000000E+00 0. -1.
         21    1    1    2  506  505 -0.15614813364E+03 -0.94486203842E+01  0.37005832751E+03  0.40176446063E+03  0.00000000000E+00 0. -1.
<scales pt_clust_3="14000.00000" pt_clust_4="49.10326" pt_clust_5="43.26508" pt_clust_6="142.53627"></scales>
<clustering>
<clus scale="   43.265">  2  5  1 -1</clus>
<clus scale="   49.103">  1  4  2 -1</clus>
<clus scale="  142.536">  1  6  2 -1</clus>
<clus scale="   49.103">  1  3  2 -1</clus>
</clustering>
</event>
<event>
 6    0  0.8610502E+002  0.1064939E+03  0.7546771E-02  0.1267204E+00
         21   -1    0    0  506  501  0.00000000000E+00  0.00000000000E+00  0.18269932537E+03  0.18269932537E+03  0.00000000000E+00 0.  1.
         21   -1    0    0  503  502 -0.00000000000E+00 -0.00000000000E+00 -0.29946500369E+03  0.29946500369E+03  0.00000000000E+00 0.  1.
         21    1    1    2  503  504  0.52313941115E+02  0.19093748546E+02 -0.33676541495E+02  0.65080174520E+02  0.00000000000E+00 0.  1.
         21    1    1    2  504  501  0.81504382650E+02  0.66380333522E+02  0.10822091344E+03  0.15086775393E+03  0.00000000000E+00 0.  1.
         21    1    1    2  505  502 -0.30276985792E+02 -0.34646170044E+02 -0.12493370084E+03  0.13313708188E+03  0.00000000000E+00 0.  1.
         21    1    1    2  506  505 -0.10354133797E+03 -0.50827912024E+02 -0.66376349433E+02  0.13307931873E+03  0.00000000000E+00 0.  1.
<scales pt_clust_3="44.47356" pt_clust_4="106.49391" pt_clust_5="46.01144" pt_clust_6="14000.00000"></scales>
<clustering>
<clus scale="   46.011">  2  5  1 -1</clus>
<clus scale="   44.474">  2  3  1 -1</clus>
<clus scale="  106.494">  1  4  2 -1</clus>
<clus scale="  106.494">  1  3  2 -1</clus>
</clustering>
</event>
<event>
 6    0  0.8610502E+002  0.1572243E+03  0.7546771E-02  0.1191867E+00
         21   -1    0    0  506  501  0.00000000000E+00  0.00000000000E+00  0.58791781287E+03  0.58791781287E+03  0.00000000000E+00 0. -1.
         21   -1    0    0  503  502 -0.00000000000E+00 -0.00000000000E+00 -0.28913875215E+03  0.28913875215E+03  0.00000000000E+00 0. -1.
         21    1    1    2  503  501  0.11877075803E+03  0.12963871440E+03 -0.20809735983E+03  0.27242833994E+03  0.00000000000E+00 0. -1.
         21    1    1    2  504  502  0.33224995269E+01 -0.31685383922E+02 -0.13994791370E+02  0.34797366896E+02  0.00000000000E+00 0.  1.
         21    1    1    2  505  504 -0.14123228465E+03 -0.62172910649E+02  0.23526688349E+03  0.28135837559E+03  0.00000000000E+00 0. -1.
         21    1    1    2  506  505  0.19139027092E+02 -0.35780419832E+02  0.28560432842E+03  0.28847248259E+03  0.00000000000E+00 0. -1.
<scales pt_clust_3="157.22431" pt_clust_4="31.85910" pt_clust_5="14000.00000" pt_clust_6="40.73748"></scales>
<clustering>
<clus scale="   31.859">  2  4  1 -1</clus>
<clus scale="   40.737">  1  6  2 -1</clus>
<clus scale="  157.224">  2  3  1 -1</clus>
<clus scale="   40.737">  1  3  2 -1</clus>
</clustering>
</event>
<event>
 6    0  0.8610502E+002  0.2665706E+03  0.7546771E-02  0.1103259E+00
         21   -1    0    0  506  501  0.00000000000E+00  0.00000000000E+00  0.13517042947E+04  0.13517042947E+04  0.00000000000E+00 0. -1.
         21   -1    0    0  505  502 -0.00000000000E+00 -0.00000000000E+00 -0.40344481687E+03  0.40344481687E+03  0.00000000000E+00 0. -1.
         21    1    1    2  503  501 -0.13339940468E+03  0.58952677802E+02  0.41229002488E+03  0.43732583276E+03  0.00000000000E+00 0.  1.
         21    1    1    2  504  502 -0.63965484581E+02  0.27125732542E+03  0.46721026101E+03  0.54401980461E+03  0.00000000000E+00 0. -1.
         21    1    1    2  505  503  0.49582397139E+01 -0.12365147448E+03 -0.29117220987E+03  0.31637877154E+03  0.00000000000E+00 0. -1.
         21    1    1    2  506  504  0.19240664955E+03 -0.20655852874E+03  0.35993140176E+03  0.45742470261E+03  0.00000000000E+00 0. -1.
<scales pt_clust_3="139.69675" pt_clust_4="266.57055" pt_clust_5="123.75084" pt_clust_6="14000.00000"></scales>
<clustering>
<clus scale="  123.751">  2  5  1 -1</clus>
<clus scale="  139.697">  1  3  2 -1</clus>
<clus scale="  266.571">  2  4  1 -1</clus>
<clus scale="  139.697">  1  3  2 -1</clus>
</clustering>
</event>
<event>
 6    0  0.8610502E+002  0.1362915E+03  0.7546771E-02  0.1218408E+00
         21   -1    0    0  506  501  0.00000000000E+00  0.00000000000E+00  0.27166315484E+02  0.27166315484E+02  0.00000000000E+00 0. -1.
         21   -1    0    0  503  502 -0.00000000000E+00 -0.00000000000E+00 -0.13262998033E+04  0.13262998033E+04  0.00000000000E+00 0. -1.
         21    1    1    2  503  505  0.99678937055E+02 -0.11603373007E+03 -0.78019521594E+03  0.79504986761E+03  0.00000000000E+00 0. -1.
         21    1    1    2  504  502 -0.12091038256E+01  0.31718410022E+02 -0.11640714446E+03  0.12065712887E+03  0.00000000000E+00 0.  1.
         21    1    1    2  505  501 -0.12065923553E+03  0.56007848901E+02 -0.34671307538E+03  0.37135628027E+03  0.00000000000E+00 0. -1.
         21    1    1    2  506  504  0.22189402303E+02  0.28307471150E+02 -0.55818052061E+02  0.66402842058E+02  0.00000000000E+00 0. -1.
<scales pt_clust_3="136.29147" pt_clust_4="31.74145" pt_clust_5="14000.00000" pt_clust_6="37.20762"></scales>
<clustering>
<clus scale="   31.741">  2  4  1 -1</clus>
<clus scale="   37.208">  1  6  2 -1</clus>
<clus scale="  136.291">  2  3  1 -1</clus>
<clus scale="   37.208">  1  3  2 -1</clus>
</clustering>
</event>
<event>
 6    0  0.8610502E+002  0.8274689E+02  0.7546771E-02  0.1321432E+00
         21   -1    0    0  503  501  0.00000000000E+00  0.00000000000E+00  0.17438941794E+03  0.17438941794E+03  0.00000000000E+00 0. -1.
         21   -1    0    0  504  502 -0.00000000000E+00 -0.00000000000E+00 -0.58719146383E+03  0.58719146383E+03  0.00000000000E+00 0.  1.
         21    1    1    2  503  506  0.71399968892E+02  0.90523889641E+02 -0.13410593826E+03  0.17685285644E+03  0.00000000000E+00 0.  1.
         21    1    1    2  504  505  0.11431869835E+02 -0.29790035431E+02 -0.28567588490E+02  0.42828039542E+02  0.00000000000E+00 0.  1.
         21    1    1    2  505  501 -0.81831662802E+02 -0.10824215599E+02  0.13245675434E+03  0.15607170291E+03  0.00000000000E+00 0. -1.
         21    1    1    2  506  502 -0.10001759258E+01 -0.49909638611E+02 -0.38258527348E+03  0.38582828287E+03  0.00000000000E+00 0.  1.
<scales pt_clust_3="14000.00000" pt_clust_4="31.90821" pt_clust_5="82.74689" pt_clust_6="71.00567"></scales>
<clustering>
<clus scale="   31.908">  2  4  1 -1</clus>
<clus scale="   71.006">  2  6  1 -1</clus>
<clus scale="   82.747">  1  5  2 -1</clus>
<clus scale="   82.747">  1  3  2 -1</clus>
</clustering>
</event>
<event>
 6    0  0.8610502E+002  0.1331339E+03  0.7546771E-02  0.1222878E+00
         21   -1    0    0  505  501  0.00000000000E+00  0.00000000000E+00  0.61067330221E+03  0.61067330221E+03  0.00000000000E+00 0.  1.
         21   -1    0    0  503  502 -0.00000000000E+00 -0.00000000000E+00 -0.28770816394E+03  0.28770816394E+03  0.00000000000E+00 0.  1.
         21    1    1    2  503  506  0.34011820894E+02  0.32592859694E+01  0.25327896190E+03  0.25557319783E+03  0.00000000000E+00 0.  1.
         21    1    1    2  504  502 -0.12142504060E+03  0.42201881993E+02 -0.26266052123E+03  0.29243048532E+03  0.00000000000E+00 0.  1.
         21    1    1    2  505  504  0.52412332258E+02 -0.10666168930E+02  0.10620281082E+03  0.11891112966E+03  0.00000000000E+00 0.  1.
         21    1    1    2  506  501  0.35000887450E+02 -0.34794999032E+02  0.22614388678E+03  0.23146665334E+03  0.00000000000E+00 0. -1.
<scales pt_clust_3="33.32660" pt_clust_4="126.96589" pt_clust_5="53.48663" pt_clust_6="33.32660"></scales>
<clustering>
<clus scale="   33.327">  3  6 -1 -1</clus>
<clus scale="   53.487">  1  5  2 -1</clus>
<clus scale="  126.966">  2  4  1 -1</clus>
<clus scale="   53.487">  1  3  2 -1</clus>
</clustering>
</event>
<event>
 6    0  0.8610502E+002  0.6181901E+02  0.7546771E-02  0.1390353E+00
         21   -1    0    0  505  501  0.00000000000E+00  0.00000000000E+00  0.47816968573E+03  0.47816968573E+03  0.00000000000E+00 0. -1.
         21   -1    0    0  503  502 -0.00000000000E+00 -0.00000000000E+00 -0.68160158463E+03  0.68160158463E+03  0.00000000000E+00 0. -1.
         21    1    1    2  503  506  0.35693969306E+02 -0.27902362545E+02 -0.60600393065E+02  0.75663788697E+02  0.00000000000E+00 0. -1.
         21    1    1    2  504  502  0.73872936915E+02  0.47455032124E+02 -0.52685005761E+03  0.53411625521E+03  0.00000000000E+00 0. -1.
         21    1    1    2  505  504 -0.50296784821E+02 -0.35766141335E+02  0.45324468622E+03  0.45742729369E+03  0.00000000000E+00 0. -1.
         21    1    1    2  506  501 -0.59270121400E+02  0.16213471756E+02 -0.69226134453E+02  0.92563932763E+02  0.00000000000E+00 0. -1.
<scales pt_clust_3="45.30564" pt_clust_4="14000.00000" pt_clust_5="61.81901" pt_clust_6="55.98449"></scales>
<clustering>
<clus scale="   45.306">  2  3  1 -1</clus>
<clus scale="   55.984">  2  6  1 -1</clus>
<clus scale="   61.819">  1  5  2 -1</clus>
<clus scale="   61.819">  1  3  2 -1</clus>
</clustering>
</event>
<event>
 6    0  0.8610502E+002  0.7998792E+02  0.7546771E-02  0.1329086E+00
         21   -1    0    0  503  501  0.00000000000E+00  0.00000000000E+00  0.87854579201E+02  0.87854579201E+02  0.00000000000E+00 0. -1.
         21   -1    0    0  504  502 -0.00000000000E+00 -0.00000000000E+00 -0.73872499027E+03  0.73872499027E+03  0.00000000000E+00 0. -1.
         21    1    1    2  503  505 -0.96187059162E+02 -0.54243263774E+02 -0.41426034000E+03  0.42872591631E+03  0.00000000000E+00 0. -1.
         21    1    1    2  504  501  0.77571862193E+02 -0.19011902906E+02  0.50263984907E+02  0.94367973565E+02  0.00000000000E+00 0. -1.
         21    1    1    2  505  506 -0.14547781123E+02  0.44731861404E+02 -0.20841359407E+03  0.21365580628E+03  0.00000000000E+00 0. -1.
         21    1    1    2  506  502  0.33162978092E+02  0.28523305276E+02 -0.78460461900E+02  0.89829873324E+02  0.00000000000E+00 0. -1.
<scales pt_clust_3="14000.00000" pt_clust_4="79.98792" pt_clust_5="54.06539" pt_clust_6="43.74199"></scales>
<clustering>
<clus scale="   43.742">  2  6  1 -1</clus>
<clus scale="   54.065">  2  5  1 -1</clus>
<clus scale="   79.988">  1  4  2 -1</clus>
<clus scale="   79.988">  1  3  2 -1</clus>
</clustering>
</event>
<event>
 6    0  0.8610502E+002  0.1011957E+03  0.7546771E-02  0.1277801E+00
         21   -1    0    0  506  501  0.00000000000E+00  0.00000000000E+00  0.36280407943E+03  0.36280407943E+03  0.00000000000E+00 0.  1.
         21   -1    0    0  504  502 -0.00000000000E+00 -0.00000000000E+00 -0.38671315108E+03  0.38671315108E+03  0.00000000000E+00 0.  1.
         21    1    1    2  503  502  0.59646570047E+02  0.86624003700E+02 -0.33230950009E+03  0.34855564145E+03  0.00000000000E+00 0.  1.
         21    1    1    2  504  505 -0.70916265991E+02 -0.21947688847E+02  0.69702673852E+02  0.10182966449E+03  0.00000000000E+00 0.  1.
         21    1    1    2  505  501 -0.43696241979E+02 -0.48423186537E+02  0.23250438754E+03  0.24147972333E+03  0.00000000000E+00 0.  1.
         21    1    1    2  506  503  0.54965937923E+02 -0.16253128316E+02  0.61933670552E+01  0.57652201236E+02  0.00000000000E+00 0.  1.
<scales pt_clust_3="14000.00000" pt_clust_4="101.19572" pt_clust_5="60.22007" pt_clust_6="57.31857"></scales>
<clustering>
<clus scale="   57.319">  1  6  2 -1</clus>
<clus scale="   60.220">  1  5  2 -1</clus>
<clus scale="  101.196">  1  4  2 -1</clus>
<clus scale="   57.319">  1  3  2 -1</clus>
</clustering>
</event>
<event>
 6    0  0.8610502E+002  0.7114273E+02  0.7546771E-02  0.1356250E+00
         21   -1    0    0  504  501  0.00000000000E+00  0.00000000000E+00  0.32104185416E+02  0.32104185416E+02  0.00000000000E+00 0.  1.
         21   -1    0    0  505  502 -0.00000000000E+00 -0.00000000000E+00 -0.79182852316E+03  0.79182852316E+03  0.00000000000E+00 0.  1.
         21    1    1    2  503  506 -0.51628657313E+02  0.19390018674E+02 -0.36174060744E+03  0.36592042598E+03  0.00000000000E+00 0.  1.
         21    1    1    2  504  502  0.77200769986E+02 -0.51959619858E+02 -0.17239239251E+03  0.19590532912E+03  0.00000000000E+00 0.  1.
         21    1    1    2  505  503 -0.26372858149E+02 -0.41146546529E+02 -0.14437082858E+03  0.15241883770E+03  0.00000000000E+00 0.  1.
         21    1    1    2  506  501  0.80074547656E+00  0.73716147712E+02 -0.81220509210E+02  0.10968811578E+03  0.00000000000E+00 0.  1.
<scales pt_clust_3="66.65404" pt_clust_4="14000.00000" pt_clust_5="48.87296" pt_clust_6="71.14273"></scales>
<clustering>
<clus scale="   48.873">  2  5  1 -1</clus>
<clus scale="   66.654">  2  3  1 -1</clus>
<clus scale="   71.143">  1  6  2 -1</clus>
<clus scale="   71.143">  1  3  2 -1</clus>
</clustering>
</event>
<event>
 6    0  0.8610502E+002  0.1162160E+03  0.7546771E-02  0.1249473E+00
         21   -1    0    0  505  501  0.00000000000E+00  0.00000000000E+00  0.48099516705E+03  0.48099516705E+03  0.00000000000E+00 0. -1.
         21   -1    0    0  503  502 -0.00000000000E+00 -0.00000000000E+00 -0.40231038774E+03  0.40231038774E+03  0.00000000000E+00 0. -1.
         21    1    1    2  503  506  0.23101750799E+02 -0.27076570337E+02 -0.48549447705E+02  0.60198674600E+02  0.00000000000E+00 0. -1.
         21    1    1    2  504  502  0.36169771920E+02 -0.42393286494E+01 -0.11333893857E+03  0.11904595459E+03  0.00000000000E+00 0. -1.
         21    1    1    2  505  504 -0.30925223283E+02 -0.82861662948E+02 -0.21556102929E+03  0.23299996131E+03  0.00000000000E+00 0. -1.
         21    1    1    2  506  501 -0.28346299436E+02  0.11417756193E+03  0.45613419487E+03  0.47106096429E+03  0.00000000000E+00 0. -1.
<scales pt_clust_3="35.59258" pt_clust_4="45.85031" pt_clust_5="116.21603" pt_clust_6="14000.00000"></scales>
<clustering>
<clus scale="   35.593">  2  3  1 -1</clus>
<clus scale="   45.850">  2  4  1 -1</clus>
<clus scale="  116.216">  2  5  1 -1</clus>
<clus scale="  116.216">  1  3  2 -1</clus>
</clustering>
</event>
<event>
 6    0  0.8610502E+002  0.1108695E+03  0.7546771E-02  0.1258968E+00
         21   -1    0    0  503  501  0.00000000000E+00  0.00000000000E+00  0.79898271980E+03  0.79898271980E+03  0.00000000000E+00 0. -1.
         21   -1    0    0  504  502 -0.00000000000E+00 -0.00000000000E+00 -0.27107038288E+03  0.27107038288E+03  0.00000000000E+00 0.  1.
         21    1    1    2  503  506 -0.38208580292E+02 -0.25516008773E+02  0.23113509373E+03  0.23565736539E+03  0.00000000000E+00 0. -1.
         21    1    1    2  504  505 -0.10555473540E+02 -0.10988950040E+03 -0.24040817460E+03  0.26454340047E+03  0.00000000000E+00 0.  1.
         21    1    1    2  505  501  0.37145779745E+02  0.50402209720E+01  0.36417982627E+02  0.52263584253E+02  0.00000000000E+00 0. -1.
         21    1    1    2  506  502  0.11618274087E+02  0.13036528820E+03  0.50076743516E+03  0.51758875256E+03  0.00000000000E+00 0. -1.
<scales pt_clust_3="35.88746" pt_clust_4="110.86952" pt_clust_5="37.48617" pt_clust_6="14000.00000"></scales>
<clustering>
<clus scale="   37.486">  1  5  2 -1</clus>
<clus scale="   35.887">  1  3  2 -1</clus>
<clus scale="  110.870">  2  4  1 -1</clus>
<clus scale="   37.486">  1  3  2 -1</clus>
</clustering>
</event>
<event>
 6    0  0.8610502E+002  0.1363447E+03  0.7546771E-02  0.1218334E+00
         21   -1    0    0  505  501  0.00000000000E+00  0.00000000000E+00  0.78709248574E+02  0.78709248574E+02  0.00000000000E+00 0. -1.
         21   -1    0    0  501  502 -0.00000000000E+00 -0.00000000000E+00 -0.92706187165E+03  0.92706187165E+03  0.00000000000E+00 0.  1.
         21    1    1    2  503  502  0.51862263342E+02  0.54340372819E+02 -0.52471728531E+03  0.53006678823E+03  0.00000000000E+00 0.  1.
         21    1    1    2  504  503  0.27432035851E+02  0.59843105429E+02 -0.31066034978E+03  0.31755876115E+03  0.00000000000E+00 0.  1.
         21    1    1    2  505  506 -0.82395810719E+01 -0.52291129456E+02  0.22417568588E+02  0.57487392509E+02  0.00000000000E+00 0. -1.
         21    1    1    2  506  504 -0.71054718121E+02 -0.61892348791E+02 -0.35392556579E+02  0.10065817834E+03  0.00000000000E+00 0.  1.
<scales pt_clust_3="33.59498" pt_clust_4="33.59498" pt_clust_5="52.93631" pt_clust_6="131.53729"></scales>
<clustering>
<clus scale="   33.595">  3  4 -1 -1</clus>
<clus scale="   52.936">  1  5  2 -1</clus>
<clus scale="  131.537">  1  6  2 -1</clus>
<clus scale="   52.936">  1  3  2 -1</clus>
</clustering>
</event>
<event>
 6    0  0.8610502E+002  0.6397793E+02  0.7546771E-02  0.1381858E+00
         21   -1    0    0  506  501  0.00000000000E+00  0.00000000000E+00  0.18563502079E+03  0.18563502079E+03  0.00000000000E+00 0.  1.
         21   -1    0    0  503  502 -0.00000000000E+00 -0.00000000000E+00 -0.29729669599E+03  0.29729669599E+03  0.00000000000E+00 0.  1.
         21    1    1    2  503  504  0.62756741749E+02 -0.48819051223E+01 -0.22431111713E+03  0.23297579038E+03  0.00000000000E+00 0.  1.
         21    1    1    2  504  501 -0.87805203747E+02  0.20135750151E+02  0.86554956408E+02  0.12492783004E+03  0.00000000000E+00 0.  1.
         21    1    1    2  505  502  0.78130073485E+01 -0.55863958316E+02 -0.21284799330E+02  0.60289863203E+02  0.00000000000E+00 0.  1.
         21    1    1    2  506  505  0.17235454649E+02  0.40610113288E+02  0.47379284858E+02  0.64738233153E+02  0.00000000000E+00 0. -1.
<scales pt_clust_3="14000.00000" pt_clust_4="63.97793" pt_clust_5="50.82856" pt_clust_6="44.11624"></scales>
<clustering>
<clus scale="   44.116">  1  6  2 -1</clus>
<clus scale="   50.829">  1  5  2 -1</clus>
<clus scale="   63.978">  1  4  2 -1</clus>
<clus scale="   44.116">  1  3  2 -1</clus>
</clustering>
</event>
<event>
 6    0  0.8610502E+002  0.8295822E+02  0.7546771E-02  0.1320860E+00
         21   -1    0    0  506  501  0.00000000000E+00  0.00000000000E+00  0.18939296038E+04  0.18939296038E+04  0.00000000000E+00 0.  1.
         21   -1    0    0  503  502 -0.00000000000E+00 -0.00000000000E+00 -0.65381648346E+02  0.65381648346E+02  0.00000000000E+00 0.  1.
         21    1    1    2  503  501  0.71880903191E+02 -0.69420357829E+02  0.60578277482E+03  0.61396972286E+03  0.00000000000E+00 0.  1.
         21    1    1    2  504  502 -0.74042900477E+01 -0.33993403135E+02 -0.51524885681E+02  0.62170642688E+02  0.00000000000E+00 0.  1.
         21    1    1    2  505  504 -0.31364350401E+02  0.77397909615E+02  0.44224357101E+03  0.45005947939E+03  0.00000000000E+00 0.  1.
         21    1    1    2  506  505 -0.33112262742E+02  0.26015851349E+02  0.83204649527E+03  0.83311140717E+03  0.00000000000E+00 0.  1.
<scales pt_clust_3="82.95822" pt_clust_4="34.79044" pt_clust_5="14000.00000" pt_clust_6="41.20917"></scales>
<clustering>
<clus scale="   34.790">  2  4  1 -1</clus>
<clus scale="   41.209">  1  6  2 -1</clus>
<clus scale="   82.958">  1  3  2 -1</clus>
<clus scale="   41.209">  1  3  2 -1</clus>
</clustering>
</event>
<event>
 6    0  0.8610502E+002  0.1039257E+03  0.7546771E-02  0.1272251E+00
         21   -1    0    0  504  501  0.00000000000E+00  0.00000000000E+00  0.16854108774E+04  0.16854108774E+04  0.00000000000E+00 0.  1.
         21   -1    0    0  503  502 -0.00000000000E+00 -0.00000000000E+00 -0.15243081351E+03  0.15243081351E+03  0.00000000000E+00 0. -1.
         21    1    1    2  503  501 -0.41892777454E+02  0.17674581547E+02  0.11220275021E+04  0.11229484009E+04  0.00000000000E+00 0.  1.
         21    1    1    2  504  505  0.54331486149E+02  0.91673611059E+02  0.48410037490E+03  0.49569056308E+03  0.00000000000E+00 0.  1.
         21    1    1    2  505  506  0.45319799275E+02 -0.88400406579E+02  0.25886758223E+02  0.10265788007E+03  0.00000000000E+00 0.  1.
         21    1    1    2  506  502 -0.57758507970E+02 -0.20947786026E+02 -0.99034571388E+02  0.11654484679E+03  0.00000000000E+00 0. -1.
<scales pt_clust_3="45.46862" pt_clust_4="103.92567" pt_clust_5="14000.00000" pt_clust_6="61.96051"></scales>
<clustering>
<clus scale="   45.469">  1  3  2 -1</clus>
<clus scale="   61.961">  2  6  1 -1</clus>
<clus scale="  103.926">  1  4  2 -1</clus>
<clus scale="   45.469">  1  3  2 -1</clus>
</clustering>
</event>
<event>
 6    0  0.8610502E+002  0.6744241E+02  0.7546771E-02  0.1369013E+00
         21   -1    0    0  504  501  0.00000000000E+00  0.00000000000E+00  0.34576198723E+03  0.34576198723E+03  0.00000000000E+00 0. -1.
         21   -1    0    0  506  502 -0.00000000000E+00 -0.00000000000E+00 -0.27480353490E+03  0.27480353490E+03  0.00000000000E+00 0. -1.
         21    1    1    2  503  502 -0.86995112494E+02 -0.46164537186E+02  0.21647003245E+03  0.23782049752E+03  0.00000000000E+00 0. -1.
         21    1    1    2  504  503 -0.35191116380E+02  0.94524379284E+01  0.14777861971E+02  0.39321094330E+02  0.00000000000E+00 0. -1.
         21    1    1    2  505  501  0.59453023416E+02  0.13679852684E+02  0.76234969837E+02  0.97640007111E+02  0.00000000000E+00 0. -1.
         21    1    1    2  506  505  0.62733205458E+02  0.23032246573E+02 -0.23652441193E+03  0.24578392317E+03  0.00000000000E+00 0. -1.
<scales pt_clust_3="67.44241" pt_clust_4="36.43849" pt_clust_5="52.43779" pt_clust_6="14000.00000"></scales>
<clustering>
<clus scale="   36.438">  1  4  2 -1</clus>
<clus scale="   52.438">  1  5  2 -1</clus>
<clus scale="   67.442">  1  3  2 -1</clus>
<clus scale="   36.438">  1  3  2 -1</clus>
</clustering>
</event>
<event>
 6    0  0.8610502E+002  0.7646111E+02  0.7546771E-02  0.1339405E+00
         21   -1    0    0  504  501  0.00000000000E+00  0.00000000000E+00  0.55705084902E+03  0.55705084902E+03  0.00000000000E+00 0.  1.
         21   -1    0    0  505  502 -0.00000000000E+00 -0.00000000000E+00 -0.61325761929E+02  0.61325761929E+02  0.00000000000E+00 0.  1.
         21    1    1    2  503  501 -0.38088506932E+02 -0.44246227869E+01  0.67561185493E+02  0.77684138872E+02  0.00000000000E+00 0.  1.
         21    1    1    2  504  502  0.50338967222E+02  0.10768997312E+03  0.31076745503E+03  0.33272744557E+03  0.00000000000E+00 0.  1.
         21    1    1    2  505  506 -0.39632758703E+02 -0.60463388709E+02 -0.79312538714E+01  0.72728823203E+02  0.00000000000E+00 0.  1.
         21    1    1    2  506  503  0.27382298413E+02 -0.42801961626E+02  0.12532770044E+03  0.13523620330E+03  0.00000000000E+00 0.  1.
<scales pt_clust_3="38.34464" pt_clust_4="14000.00000" pt_clust_5="76.46111" pt_clust_6="47.21257"></scales>
<clustering>
<clus scale="   38.345">  1  3  2 -1</clus>
<clus scale="   47.213">  1  6  2 -1</clus>
<clus scale="   76.461">  2  5  1 -1</clus>
<clus scale="   38.345">  1  3  2 -1</clus>
</clustering>
</event>
<event>
 6    0  0.8610502E+002  0.1847329E+03  0.7546771E-02  0.1163300E+00
         21   -1    0    0  505  501  0.00000000000E+00  0.00000000000E+00  0.62200935485E+02  0.62200935485E+02  0.00000000000E+00 0.  1.
         21   -1    0    0  503  502 -0.00000000000E+00 -0.00000000000E+00 -0.87107103558E+03  0.87107103558E+03  0.00000000000E+00 0. -1.
         21    1    1    2  503  501  0.32067992670E+02  0.16753283926E+03 -0.37092807782E+03  0.40826859701E+03  0.00000000000E+00 0.  1.
         21    1    1    2  504  502 -0.37715186366E+02  0.11941876354E+02 -0.26858807042E+03  0.27148590252E+03  0.00000000000E+00 0. -1.
         21    1    1    2  505  506 -0.17133557725E+02 -0.52203344897E+02 -0.27024812845E+02  0.61229800980E+02  0.00000000000E+00 0. -1.
         21    1    1    2  506  504  0.22780751421E+02 -0.12727137072E+03 -0.14232913901E+03  0.19228767056E+03  0.00000000000E+00 0. -1.
<scales pt_clust_3="175.43931" pt_clust_4="39.56063" pt_clust_5="37.71495" pt_clust_6="37.71495"></scales>
<clustering>
<clus scale="   37.715">  5  6 -1 -1</clus>
<clus scale="   39.561">  2  4  1 -1</clus>
<clus scale="  175.439">  2  3  1 -1</clus>
<clus scale="  184.733">  1  3  2 -1</clus>
</clustering>
</event>
<event>
 6    0  0.8610502E+002  0.2147716E+03  0.7546771E-02  0.1137842E+00
         21   -1    0    0  504  501  0.00000000000E+00  0.00000000000E+00  0.15506317742E+03  0.15506317742E+03  0.00000000000E+00 0.  1.
         21   -1    0    0  506  502 -0.00000000000E+00 -0.00000000000E+00 -0.10271660754E+04  0.10271660754E+04  0.00000000000E+00 0.  1.
         21    1    1    2  503  505 -0.17303797171E+03  0.79868082918E+02 -0.98281943983E+02  0.21443038692E+03  0.00000000000E+00 0.  1.
         21    1    1    2  504  503 -0.10383275733E+02  0.31039649635E+02  0.13590682267E+01  0.32758500131E+02  0.00000000000E+00 0.  1.
         21    1    1    2  505  502  0.18339380344E+03 -0.77545668908E+02 -0.83938858736E+03  0.86268175969E+03  0.00000000000E+00 0.  1.
         21    1    1    2  506  501  0.27444000455E-01 -0.33362063645E+02  0.64208565115E+02  0.72358606109E+02  0.00000000000E+00 0.  1.
<scales pt_clust_3="31.46395" pt_clust_4="31.46395" pt_clust_5="200.90405" pt_clust_6="33.36207"></scales>
<clustering>
<clus scale="   31.464">  3  4 -1 -1</clus>
<clus scale="   33.362">  1  6  2 -1</clus>
<clus scale="  200.904">  2  5  1 -1</clus>
<clus scale="   33.362">  1  3  2 -1</clus>
</clustering>
</event>
<event>
 6    0  0.8610502E+002  0.1139701E+03  0.7546771E-02  0.1253390E+00
         21   -1    0    0  504  501  0.00000000000E+00  0.00000000000E+00  0.77686075048E+02  0.77686075048E+02  0.00000000000E+00 0. -1.
         21   -1    0    0  505  502 -0.00000000000E+00 -0.00000000000E+00 -0.19351075745E+04  0.19351075745E+04  0.00000000000E+00 0.  1.
         21    1    1    2  503  502  0.27816036332E+02 -0.20143759755E+02 -0.52821877888E+03  0.52933409233E+03  0.00000000000E+00 0.  1.
         21    1    1    2  504  503  0.73721310397E+02 -0.49730297099E+02 -0.32014776064E+03  0.33226875071E+03  0.00000000000E+00 0. -1.
         21    1    1    2  505  506 -0.58546520856E+02 -0.42437935583E+02 -0.10270506178E+04  0.10295929511E+04  0.00000000000E+00 0.  1.
         21    1    1    2  506  501 -0.42990825873E+02  0.11231199244E+03  0.17995657793E+02  0.12159785546E+03  0.00000000000E+00 0. -1.
<scales pt_clust_3="34.34389" pt_clust_4="113.97013" pt_clust_5="68.75959" pt_clust_6="14000.00000"></scales>
<clustering>
<clus scale="   34.344">  2  3  1 -1</clus>
<clus scale="   68.760">  2  5  1 -1</clus>
<clus scale="  113.970">  2  4  1 -1</clus>
<clus scale="  113.970">  1  3  2 -1</clus>
</clustering>
</event>
<event>
 6    0  0.8610502E+002  0.5991324E+02  0.7546771E-02  0.1398196E+00
         21   -1    0    0  503  501  0.00000000000E+00  0.00000000000E+00  0.69014185673E+03  0.69014185673E+03  0.00000000000E+00 0.  1.
         21   -1    0    0  504  502 -0.00000000000E+00 -0.00000000000E+00 -0.87803523545E+03  0.87803523545E+03  0.00000000000E+00 0.  1.
         21    1    1    2  503  505  0.13387121349E+03  0.20443950210E+01  0.47011683390E+03  0.48881030970E+03  0.00000000000E+00 0.  1.
         21    1    1    2  504  506 -0.46502336900E+02  0.13087097193E+02  0.62168765836E+02  0.78731790883E+02  0.00000000000E+00 0.  1.
         21    1    1    2  505  502 -0.56006598335E+02  0.20879923203E+02 -0.85526791739E+03  0.85735402301E+03  0.00000000000E+00 0.  1.
         21    1    1    2  506  501 -0.31362278252E+02 -0.36011415417E+02  0.13508893894E+03  0.14328096859E+03  0.00000000000E+00 0.  1.
<scales pt_clust_3="14000.00000" pt_clust_4="51.21985" pt_clust_5="59.91324" pt_clust_6="47.75369"></scales>
<clustering>
<clus scale="   47.754">  1  6  2 -1</clus>
<clus scale="   51.220">  1  4  2 -1</clus>
<clus scale="   59.913">  2  5  1 -1</clus>
<clus scale="   47.754">  1  3  2 -1</clus>
</clustering>
</event>
<event>
 6    0  0.8610502E+002  0.1899868E+03  0.7546771E-02  0.1158473E+00
         21   -1    0    0  504  501  0.00000000000E+00  0.00000000000E+00  0.87795583514E+02  0.87795583514E+02  0.00000000000E+00 0. -1.
         21   -1    0    0  505  502 -0.00000000000E+00 -0.00000000000E+00 -0.44232507844E+03  0.44232507844E+03  0.00000000000E+00 0. -1.
         21    1    1    2  503  501 -0.90074428644E+02  0.35110127026E+02 -0.15205308552E+03  0.18018397413E+03  0.00000000000E+00 0. -1.
         21    1    1    2  504  506  0.91639616974E+02 -0.33335319577E+02 -0.73374026334E+02  0.12203610396E+03  0.00000000000E+00 0. -1.
         21    1    1    2  505  503 -0.71523473015E+02  0.53617714062E+02 -0.99800581438E+02  0.13397993323E+03  0.00000000000E+00 0. -1.
         21    1    1    2  506  502  0.69958284685E+02 -0.55392521512E+02 -0.29301801627E+02  0.93920650626E+02  0.00000000000E+00 0. -1.
<scales pt_clust_3="187.79960" pt_clust_4="43.92511" pt_clust_5="34.43179" pt_clust_6="43.92511"></scales>
<clustering>
<clus scale="   34.432">  3  5 -1 -1</clus>
<clus scale="   43.925">  4  6 -1 -1</clus>
<clus scale="  187.800">  2  3  1 -1</clus>
<clus scale="  189.987">  1  3  2 -1</clus>
</clustering>
</event>
<event>
 6    0  0.8610502E+002  0.3546900E+03  0.7546771E-02  0.1060706E+00
         21   -1    0    0  505  501  0.00000000000E+00  0.00000000000E+00  0.39516841913E+03  0.39516841913E+03  0.00000000000E+00 0.  1.
         21   -1    0    0  506  502 -0.00000000000E+00 -0.00000000000E+00 -0.16834516519E+04  0.16834516519E+04  0.00000000000E+00 0.  1.
         21    1    1    2  503  501  0.14365828084E+03  0.29011874908E+03 -0.92903129266E+02  0.33680496085E+03  0.00000000000E+00 0.  1.
         21    1    1    2  504  502  0.17854575460E+03  0.12012782832E+03 -0.10935155313E+04  0.11144888958E+04  0.00000000000E+00 0.  1.
         21    1    1    2  505  504 -0.11836982369E+03 -0.19514436855E+02  0.86657863948E+02  0.14799261397E+03  0.00000000000E+00 0. -1.
         21    1    1    2  506  503 -0.20383421174E+03 -0.39073214055E+03 -0.18852243610E+03  0.47933360038E+03  0.00000000000E+00 0.  1.
<scales pt_clust_3="354.69002" pt_clust_4="211.08640" pt_clust_5="119.96761" pt_clust_6="14000.00000"></scales>
<clustering>
<clus scale="  119.968">  1  5  2 -1</clus>
<clus scale="  211.086">  2  4  1 -1</clus>
<clus scale="  354.690">  1  3  2 -1</clus>
<clus scale="  119.968">  1  3  2 -1</clus>
</clustering>
</event>
<event>
 6    0  0.8610502E+002  0.9320306E+02  0.7546771E-02  0.1295275E+00
         21   -1    0    0  505  501  0.00000000000E+00  0.00000000000E+00  0.11997205400E+04  0.11997205400E+04  0.00000000000E+00 0.  1.
         21   -1    0    0  506  502 -0.00000000000E+00 -0.00000000000E+00 -0.10518008305E+04  0.10518008305E+04  0.00000000000E+00 0.  1.
         21    1    1    2  503  501 -0.46039467179E+02  0.23447053215E+02  0.10609476159E+03  0.11800633576E+03  0.00000000000E+00 0. -1.
         21    1    1    2  504  502 -0.70764813662E+02  0.13526977248E+02  0.58232102405E+03  0.58676095048E+03  0.00000000000E+00 0.  1.
         21    1    1    2  505  504  0.72069660598E+02  0.44985167041E+02  0.49743185110E+03  0.50463466757E+03  0.00000000000E+00 0.  1.
         21    1    1    2  506  503  0.44734620243E+02 -0.81959197504E+02 -0.10379279273E+04  0.10421194166E+04  0.00000000000E+00 0.  1.
<scales pt_clust_3="51.66621" pt_clust_4="93.20306" pt_clust_5="75.49164" pt_clust_6="14000.00000"></scales>
<clustering>
<clus scale="   51.666">  1  3  2 -1</clus>
<clus scale="   75.492">  1  5  2 -1</clus>
<clus scale="   93.203">  1  4  2 -1</clus>
<clus scale="   51.666">  1  3  2 -1</clus>
</clustering>
</event>
<event>
 6    0  0.8610502E+002  0.1719822E+03  0.7546771E-02  0.1175796E+00
         21   -1    0    0  504  501  0.00000000000E+00  0.00000000000E+00  0.84456076734E+03  0.84456076734E+03  0.00000000000E+00 0.  1.
         21   -1    0    0  506  502 -0.00000000000E+00 -0.00000000000E+00 -0.80525113839E+02  0.80525113839E+02  0.00000000000E+00 0.  1.
         21    1    1    2  503  502  0.60572993121E+02  0.14724589796E+02  0.77470624489E+02  0.99436405300E+02  0.00000000000E+00 0.  1.
         21    1    1    2  504  503  0.14678285446E+03  0.11147151464E+02  0.54139910071E+03  0.56105476702E+03  0.00000000000E+00 0.  1.
         21    1    1    2  505  501 -0.31828546873E+02  0.14238560516E+01  0.59246911642E+02  0.67270203665E+02  0.00000000000E+00 0.  1.
         21    1    1    2  506  505 -0.17552730070E+03 -0.27295597311E+02  0.85919016657E+02  0.19732450519E+03  0.00000000000E+00 0.  1.
<scales pt_clust_3="62.33700" pt_clust_4="155.90533" pt_clust_5="30.74840" pt_clust_6="30.74840"></scales>
<clustering>
<clus scale="   30.748">  5  6 -1 -1</clus>
<clus scale="   62.337">  2  3  1 -1</clus>
<clus scale="  155.905">  1  4  2 -1</clus>
<clus scale="  155.905">  1  3  2 -1</clus>
</clustering>
</event>
<event>
 6    0  0.8610502E+002  0.8279791E+02  0.7546771E-02  0.1321294E+00
         21   -1    0    0  503  501  0.00000000000E+00  0.00000000000E+00  0.71960606963E+03  0.71960606963E+03  0.00000000000E+00 0.  1.
         21   -1    0    0  504  502 -0.00000000000E+00 -0.00000000000E+00 -0.40378893536E+02  0.40378893536E+02  0.00000000000E+00 0.  1.
         21    1    1    2  503  506  0.17026204202E+02 -0.30130163122E+02  0.31641563075E+03  0.31830263860E+03  0.00000000000E+00 0.  1.
         21    1    1    2  504  505  0.45639899984E+02 -0.22815584710E+02  0.54261690212E+02  0.74484108378E+02  0.00000000000E+00 0.  1.
         21    1    1    2  505  501  0.11647168149E+01 -0.52902185584E+02  0.26344059337E+02  0.59110128296E+02  0.00000000000E+00 0.  1.
         21    1    1    2  506  502 -0.63830821001E+02  0.10584793342E+03  0.28220579580E+03  0.30808808789E+03  0.00000000000E+00 0.  1.
<scales pt_clust_3="34.60807" pt_clust_4="55.70428" pt_clust_5="14000.00000" pt_clust_6="82.79791"></scales>
<clustering>
<clus scale="   34.608">  1  3  2 -1</clus>
<clus scale="   55.704">  2  4  1 -1</clus>
<clus scale="   82.798">  1  6  2 -1</clus>
<clus scale="   34.608">  1  3  2 -1</clus>
</clustering>
</event>
<event>
 6    0  0.8610502E+002  0.1026800E+03  0.7546771E-02  0.1274759E+00
         21   -1    0    0  505  501  0.00000000000E+00  0.00000000000E+00  0.18976769982E+03  0.18976769982E+03  0.00000000000E+00 0.  1.
         21   -1    0    0  503  502 -0.00000000000E+00 -0.00000000000E+00 -0.17189459230E+04  0.17189459230E+04  0.00000000000E+00 0. -1.
         21    1    1    2  503  506 -0.29407337894E+02  0.59989237355E+01 -0.54089676384E+03  0.54172879538E+03  0.00000000000E+00 0. -1.
         21    1    1    2  504  502  0.21321492009E+02  0.10140262629E+03 -0.10904896372E+04  0.10954016375E+04  0.00000000000E+00 0. -1.
         21    1    1    2  505  504  0.23615230939E+02 -0.30218523771E+02  0.16592548235E+03  0.17030004112E+03  0.00000000000E+00 0.  1.
         21    1    1    2  506  501 -0.15529385054E+02 -0.77183026253E+02 -0.63717304478E+02  0.10128314880E+03  0.00000000000E+00 0. -1.
<scales pt_clust_3="30.01297" pt_clust_4="14000.00000" pt_clust_5="38.30912" pt_clust_6="102.68001"></scales>
<clustering>
<clus scale="   30.013">  2  3  1 -1</clus>
<clus scale="   38.309">  1  5  2 -1</clus>
<clus scale="  102.680">  1  6  2 -1</clus>
<clus scale="   38.309">  1  3  2 -1</clus>
</clustering>
</event>
<event>
 6    0  0.8610502E+002  0.1275974E+03  0.7546771E-02  0.1231065E+00
         21   -1    0    0  503  501  0.00000000000E+00  0.00000000000E+00  0.64393584776E+03  0.64393584776E+03  0.00000000000E+00 0.  1.
         21   -1    0    0  505  502 -0.00000000000E+00 -0.00000000000E+00 -0.52179701636E+03  0.52179701636E+03  0.00000000000E+00 0.  1.
         21    1    1    2  503  504  0.10813657366E+03  0.66641809930E+02  0.59981712875E+03  0.61311926844E+03  0.00000000000E+00 0.  1.
         21    1    1    2  504  506 -0.13734783281E+03 -0.70897942458E+02 -0.28741437833E+03  0.32634026765E+03  0.00000000000E+00 0.  1.
         21    1    1    2  505  501  0.86106258059E+01  0.37038949719E+02 -0.66278599383E+01  0.38599937829E+02  0.00000000000E+00 0.  1.
         21    1    1    2  506  502  0.20600633340E+02 -0.32782817191E+02 -0.18363605908E+03  0.18767339020E+03  0.00000000000E+00 0. -1.
<scales pt_clust_3="127.59739" pt_clust_4="14000.00000" pt_clust_5="38.02666" pt_clust_6="30.46092"></scales>
<clustering>
<clus scale="   38.027">  2  5  1 -1</clus>
<clus scale="   30.461">  2  6  1 -1</clus>
<clus scale="  127.597">  1  3  2 -1</clus>
<clus scale="  127.597">  1  3  2 -1</clus>
</clustering>
</event>
<event>
 6    0  0.8610502E+002  0.8735821E+02  0.7546771E-02  0.1309378E+00
         21   -1    0    0  506  501  0.00000000000E+00  0.00000000000E+00  0.66924525253E+03  0.66924525253E+03  0.00000000000E+00 0. -1.
         21   -1    0    0  504  502 -0.00000000000E+00 -0.00000000000E+00 -0.69085588296E+03  0.69085588296E+03  0.00000000000E+00 0. -1.
         21    1    1    2  503  502 -0.11742873427E+02 -0.46764046961E+02 -0.22056934829E+03  0.22577778582E+03  0.00000000000E+00 0. -1.
         21    1    1    2  504  505  0.89776232192E+02  0.97072565845E+02 -0.44267764925E+03  0.46200254984E+03  0.00000000000E+00 0. -1.
         21    1    1    2  505  501 -0.49490516784E+02 -0.79467992844E+01  0.61038317776E+03  0.61243782261E+03  0.00000000000E+00 0. -1.
         21    1    1    2  506  503 -0.28542841981E+02 -0.42361719600E+02  0.31253189351E+02  0.59882977218E+02  0.00000000000E+00 0. -1.
<scales pt_clust_3="48.21588" pt_clust_4="87.35821" pt_clust_5="50.16632" pt_clust_6="14000.00000"></scales>
<clustering>
<clus scale="   48.216">  2  3  1 -1</clus>
<clus scale="   50.166">  1  5  2 -1</clus>
<clus scale="   87.358">  2  4  1 -1</clus>
<clus scale="   50.166">  1  3  2 -1</clus>
</clustering>
</event>
<event>
 6    0  0.8610502E+002  0.8874486E+02  0.7546771E-02  0.1305920E+00
         21   -1    0    0  505  501  0.00000000000E+00  0.00000000000E+00  0.13183544637E+04  0.13183544637E+04  0.00000000000E+00 0. -1.
         21   -1    0    0  503  502 -0.00000000000E+00 -0.00000000000E+00 -0.16877356972E+03  0.16877356972E+03  0.00000000000E+00 0.  1.
         21    1    1    2  503  506  0.59347388231E+02 -0.46440578321E+01 -0.32619810532E+02  0.67880275501E+02  0.00000000000E+00 0.  1.
         21    1    1    2  504  502 -0.11535159076E+03 -0.62322015677E+02 -0.73184198681E+02  0.15015308877E+03  0.00000000000E+00 0.  1.
         21    1    1    2  505  504  0.19459232337E+02  0.77607455737E+02  0.11952569475E+04  0.11979318634E+04  0.00000000000E+00 0. -1.
         21    1    1    2  506  501  0.36544970196E+02 -0.10641382229E+02  0.60127955748E+02  0.71162805769E+02  0.00000000000E+00 0. -1.
<scales pt_clust_3="60.05335" pt_clust_4="88.74486" pt_clust_5="14000.00000" pt_clust_6="38.06276"></scales>
<clustering>
<clus scale="   38.063">  1  6  2 -1</clus>
<clus scale="   60.053">  2  3  1 -1</clus>
<clus scale="   88.745">  2  4  1 -1</clus>
<clus scale="   38.063">  1  3  2 -1</clus>
</clustering>
</event>
<event>
 6    0  0.8610502E+002  0.7892362E+02  0.7546771E-02  0.1332134E+00
         21   -1    0    0  506  501  0.00000000000E+00  0.00000000000E+00  0.29076339548E+03  0.29076339548E+03  0.00000000000E+00 0.  1.
         21   -1    0    0  504  502 -0.00000000000E+00 -0.00000000000E+00 -0.17078977250E+03  0.17078977250E+03  0.00000000000E+00 0. -1.
         21    1    1    2  503  501 -0.33106116527E+02  0.47728338732E+02  0.94447111195E+02  0.11087951156E+03  0.00000000000E+00 0.  1.
         21    1    1    2  504  503  0.56206433865E+02  0.52334165692E+02  0.13425915092E+03  0.15467238833E+03  0.00000000000E+00 0.  1.
         21    1    1    2  505  502 -0.46356171632E+02 -0.64213441490E+02 -0.12688579520E+03  0.14957361311E+03  0.00000000000E+00 0. -1.
         21    1    1    2  506  505  0.23255854294E+02 -0.35849062934E+02  0.18153156060E+02  0.46427654982E+02  0.00000000000E+00 0.  1.
<scales pt_clust_3="41.12508" pt_clust_4="14000.00000" pt_clust_5="78.92362" pt_clust_6="42.73161"></scales>
<clustering>
<clus scale="   42.732">  1  6  2 -1</clus>
<clus scale="   41.125">  1  3  2 -1</clus>
<clus scale="   78.924">  2  5  1 -1</clus>
<clus scale="   42.732">  1  3  2 -1</clus>
</clustering>
</event>
<event>
 6    0  0.8610502E+002  0.6316235E+02  0.7546771E-02  0.1385020E+00
         21   -1    0    0  503  501  0.00000000000E+00  0.00000000000E+00  0.37337794757E+03  0.37337794757E+03  0.00000000000E+00 0. -1.
         21   -1    0    0  505  502 -0.00000000000E+00 -0.00000000000E+00 -0.52201223795E+03  0.52201223795E+03  0.00000000000E+00 0. -1.
         21    1    1    2  503  504 -0.39423548408E+02 -0.92619915730E+01  0.39205559074E+02  0.56365561465E+02  0.00000000000E+00 0. -1.
         21    1    1    2  504  502 -0.47430854988E+00  0.62837590667E+02 -0.49431470290E+03  0.49829289908E+03  0.00000000000E+00 0. -1.
         21    1    1    2  505  506  0.29728560715E+02 -0.98439094541E+02  0.20692057654E+03  0.23106312482E+03  0.00000000000E+00 0. -1.
         21    1    1    2  506  501  0.10169296243E+02  0.44863495447E+02  0.99554276908E+02  0.10966860016E+03  0.00000000000E+00 0. -1.
<scales pt_clust_3="40.49692" pt_clust_4="14000.00000" pt_clust_5="63.16235" pt_clust_6="41.96204"></scales>
<clustering>
<clus scale="   40.497">  1  3  2 -1</clus>
<clus scale="   41.962">  1  6  2 -1</clus>
<clus scale="   63.162">  1  5  2 -1</clus>
<clus scale="   40.497">  1  3  2 -1</clus>
</clustering>
</event>
<event>
 6    0  0.8610502E+002  0.1981991E+03  0.7546771E-02  0.1151267E+00
         21   -1    0    0  504  501  0.00000000000E+00  0.00000000000E+00  0.48629094528E+03  0.48629094528E+03  0.00000000000E+00 0.  1.
         21   -1    0    0  505  502 -0.00000000000E+00 -0.00000000000E+00 -0.12320987702E+04  0.12320987702E+04  0.00000000000E+00 0. -1.
         21    1    1    2  503  506  0.62641646390E+02  0.27575798932E+02 -0.25755887845E+03  0.26649761053E+03  0.00000000000E+00 0.  1.
         21    1    1    2  504  503 -0.19156350059E+02 -0.29630163997E+02  0.45098836205E+03  0.45236646103E+03  0.00000000000E+00 0.  1.
         21    1    1    2  505  501 -0.17537308822E+03  0.30257322582E+02 -0.32379294662E+03  0.36947678942E+03  0.00000000000E+00 0. -1.
         21    1    1    2  506  502  0.13188779189E+03 -0.28202957517E+02 -0.61544436195E+03  0.63004885455E+03  0.00000000000E+00 0. -1.
<scales pt_clust_3="43.19289" pt_clust_4="35.28332" pt_clust_5="188.31906" pt_clust_6="43.19289"></scales>
<clustering>
<clus scale="   35.283">  1  4  2 -1</clus>
<clus scale="   43.193">  3  6 -1 -1</clus>
<clus scale="  188.319">  1  5  2 -1</clus>
<clus scale="   35.283">  1  3  2 -1</clus>
</clustering>
</event>
<event>
 6    0  0.8610502E+002  0.1022363E+03  0.7546771E-02  0.1275662E+00
         21   -1    0    0  503  501  0.00000000000E+00  0.00000000000E+00  0.43917651717E+03  0.43917651717E+03  0.00000000000E+00 0.  1.
         21   -1    0    0  506  502 -0.00000000000E+00 -0.00000000000E+00 -0.74315324852E+03  0.74315324852E+03  0.00000000000E+00 0.  1.
         21    1    1    2  503  504 -0.41695267498E+02  0.94822941731E+02  0.39457910840E+03  0.40794921056E+03  0.00000000000E+00 0.  1.
         21    1    1    2  504  502  0.11810476109E+03 -0.11903290447E+02 -0.43708202741E+03  0.45291403335E+03  0.00000000000E+00 0.  1.
         21    1    1    2  505  501 -0.48704368541E+02 -0.10483252347E+03 -0.90293192132E+02  0.14667935791E+03  0.00000000000E+00 0.  1.
         21    1    1    2  506  505 -0.27705125050E+02  0.21912872183E+02 -0.17118062021E+03  0.17478716388E+03  0.00000000000E+00 0.  1.
<scales pt_clust_3="14000.00000" pt_clust_4="96.62181" pt_clust_5="102.23626" pt_clust_6="35.32348"></scales>
<clustering>
<clus scale="   35.323">  2  6  1 -1</clus>
<clus scale="   96.622">  2  4  1 -1</clus>
<clus scale="  102.236">  2  5  1 -1</clus>
<clus scale="  102.236">  1  3  2 -1</clus>
</clustering>
</event>
<event>
 6    0  0.8610502E+002  0.1467664E+03  0.7546771E-02  0.1204504E+00
         21   -1    0    0  505  501  0.00000000000E+00  0.00000000000E+00  0.21306348202E+03  0.21306348202E+03  0.00000000000E+00 0. -1.
         21   -1    0    0  501  502 -0.00000000000E+00 -0.00000000000E+00 -0.10304139756E+04  0.10304139756E+04  0.00000000000E+00 0.  1.
         21    1    1    2  503  502  0.30795883871E+02 -0.17888266178E+02 -0.93119516260E+03  0.93187596137E+03  0.00000000000E+00 0.  1.
         21    1    1    2  504  506 -0.58310534815E+01  0.73517566483E+02  0.37804536112E+02  0.82873498278E+02  0.00000000000E+00 0. -1.
         21    1    1    2  505  504  0.28572092014E+02 -0.12293849530E+03  0.65147420154E+02  0.14203670097E+03  0.00000000000E+00 0. -1.
         21    1    1    2  506  503 -0.53536922404E+02  0.67309194997E+02  0.10892712728E+02  0.86691297039E+02  0.00000000000E+00 0. -1.
<scales pt_clust_3="35.61427" pt_clust_4="53.47033" pt_clust_5="136.07462" pt_clust_6="53.47033"></scales>
<clustering>
<clus scale="   35.614">  2  3  1 -1</clus>
<clus scale="   53.470">  4  6 -1 -1</clus>
<clus scale="  136.075">  1  5  2 -1</clus>
<clus scale="  136.075">  1  3  2 -1</clus>
</clustering>
</event>
<event>
 6    0  0.8610502E+002  0.2064611E+03  0.7546771E-02  0.1144399E+00
         21   -1    0    0  504  501  0.00000000000E+00  0.00000000000E+00  0.26353385797E+03  0.26353385797E+03  0.00000000000E+00 0.  1.
         21   -1    0    0  503  502 -0.00000000000E+00 -0.00000000000E+00 -0.44880214621E+03  0.44880214621E+03  0.00000000000E+00 0.  1.
         21    1    1    2  503  506 -0.69282860027E+02  0.57975759916E+02 -0.10606514665E+03  0.13932379110E+03  0.00000000000E+00 0.  1.
         21    1    1    2  504  502 -0.23145656922E+02 -0.25442875208E+02  0.15263628261E+03  0.15646372136E+03  0.00000000000E+00 0.  1.
         21    1    1    2  505  501  0.20241351943E+03 -0.53344340769E+02 -0.71898600666E+02  0.22132839926E+03  0.00000000000E+00 0.  1.
         21    1    1    2  506  505 -0.10998500248E+03  0.20811456061E+02 -0.15994082353E+03  0.19522009247E+03  0.00000000000E+00 0.  1.
<scales pt_clust_3="47.14003" pt_clust_4="34.39566" pt_clust_5="199.52475" pt_clust_6="47.14003"></scales>
<clustering>
<clus scale="   34.396">  1  4  2 -1</clus>
<clus scale="   47.140">  3  6 -1 -1</clus>
<clus scale="  199.525">  1  5  2 -1</clus>
<clus scale="   34.396">  1  3  2 -1</clus>
</clustering>
</event>
<event>
 6    0  0.8610502E+002  0.4985235E+03  0.7546771E-02  0.1014165E+00
         21   -1    0    0  505  501  0.00000000000E+00  0.00000000000E+00  0.15858263054E+04  0.15858263054E+04  0.00000000000E+00 0.  1.
         21   -1    0    0  503  502 -0.00000000000E+00 -0.00000000000E+00 -0.69473625524E+03  0.69473625524E+03  0.00000000000E+00 0.  1.
         21    1    1    2  503  504  0.29386139242E+02 -0.36925476161E+02 -0.53889298738E+03  0.54095534734E+03  0.00000000000E+00 0.  1.
         21    1    1    2  504  501  0.58207121188E+02 -0.43580883508E+03  0.85942543543E+03  0.96536495108E+03  0.00000000000E+00 0.  1.
         21    1    1    2  505  506 -0.78355586841E+02  0.17128267677E+03  0.94599572484E+02  0.21077578719E+03  0.00000000000E+00 0.  1.
         21    1    1    2  506  502 -0.92376735885E+01  0.30145163447E+03  0.47595802962E+03  0.56346647504E+03  0.00000000000E+00 0.  1.
<scales pt_clust_3="47.19148" pt_clust_4="453.60871" pt_clust_5="158.62179" pt_clust_6="158.62179"></scales>
<clustering>
<clus scale="   47.191">  2  3  1 -1</clus>
<clus scale="  158.622">  5  6 -1 -1</clus>
<clus scale="  453.609">  1  4  2 -1</clus>
<clus scale="  453.609">  1  3  2 -1</clus>
</clustering>
</event>
<event>
 6    0  0.8610502E+002  0.2440806E+03  0.7546771E-02  0.1117104E+00
         21   -1    0    0  505  501  0.00000000000E+00  0.00000000000E+00  0.66855406092E+03  0.66855406092E+03  0.00000000000E+00 0. -1.
         21   -1    0    0  503  502 -0.00000000000E+00 -0.00000000000E+00 -0.22812956094E+03  0.22812956094E+03  0.00000000000E+00 0. -1.
         21    1    1    2  503  504 -0.83419161160E+02  0.16690986922E+03  0.44286612015E+02  0.19177842657E+03  0.00000000000E+00 0. -1.
         21    1    1    2  504  506  0.35778109149E+02 -0.10436427908E+03  0.15340835563E+03  0.18896057637E+03  0.00000000000E+00 0. -1.
         21    1    1    2  505  502 -0.22715816726E+02  0.66628537433E+02 -0.11179797891E+03  0.13211418704E+03  0.00000000000E+00 0. -1.
         21    1    1    2  506  501  0.70356868737E+02 -0.12917412758E+03  0.35452751124E+03  0.38383043188E+03  0.00000000000E+00 0. -1.
<scales pt_clust_3="235.13714" pt_clust_4="56.69770" pt_clust_5="70.39439" pt_clust_6="56.69770"></scales>
<clustering>
<clus scale="   56.698">  4  6 -1 -1</clus>
<clus scale="   70.394">  2  5  1 -1</clus>
<clus scale="  235.137">  2  3  1 -1</clus>
<clus scale="  244.081">  1  3  2 -1</clus>
</clustering>
</event>
<event>
 6    0  0.8610502E+002  0.1115742E+03  0.7546771E-02  0.1257682E+00
         21   -1    0    0  504  501  0.00000000000E+00  0.00000000000E+00  0.29330983764E+03  0.29330983764E+03  0.00000000000E+00 0.  1.
         21   -1    0    0  503  502 -0.00000000000E+00 -0.00000000000E+00 -0.12668534860E+04  0.12668534860E+04  0.00000000000E+00 0.  1.
         21    1    1    2  503  501 -0.96270348015E+02 -0.67061429403E+02  0.98234891297E+02  0.15302061655E+03  0.00000000000E+00 0.  1.
         21    1    1    2  504  505  0.10331456770E+03  0.35586879367E+02  0.13258585228E+03  0.17181191491E+03  0.00000000000E+00 0.  1.
         21    1    1    2  505  506  0.31028724124E+02  0.41521579805E+02 -0.29173456944E+02  0.59480365671E+02  0.00000000000E+00 0.  1.
         21    1    1    2  506  502 -0.38072943812E+02 -0.10047029770E+02 -0.11751909350E+04  0.11758504265E+04  0.00000000000E+00 0.  1.
<scales pt_clust_3="111.57424" pt_clust_4="14000.00000" pt_clust_5="38.73506" pt_clust_6="39.37629"></scales>
<clustering>
<clus scale="   39.376">  2  6  1 -1</clus>
<clus scale="   38.735">  2  5  1 -1</clus>
<clus scale="  111.574">  2  3  1 -1</clus>
<clus scale="  111.574">  1  3  2 -1</clus>
</clustering>
</event>
<event>
 6    0  0.8610502E+002  0.1196144E+03  0.7546771E-02  0.1243734E+00
         21   -1    0    0  506  501  0.00000000000E+00  0.00000000000E+00  0.16661711043E+04  0.16661711043E+04  0.00000000000E+00 0.  1.
         21   -1    0    0  501  502 -0.00000000000E+00 -0.00000000000E+00 -0.42760046743E+02  0.42760046743E+02  0.00000000000E+00 0. -1.
         21    1    1    2  503  505  0.10560006345E+02 -0.49617057173E+02  0.65015842368E+02  0.82464694599E+02  0.00000000000E+00 0. -1.
         21    1    1    2  504  502 -0.13367813416E+02  0.11584358990E+03  0.98849349914E+02  0.15287128486E+03  0.00000000000E+00 0. -1.
         21    1    1    2  505  504  0.44490412606E+02 -0.44612811689E+02  0.14362590306E+03  0.15683781372E+03  0.00000000000E+00 0.  1.
         21    1    1    2  506  503 -0.41682605535E+02 -0.21613721040E+02  0.13159199622E+04  0.13167573578E+04  0.00000000000E+00 0.  1.
<scales pt_clust_3="38.32723" pt_clust_4="111.72787" pt_clust_5="38.32723" pt_clust_6="46.95309"></scales>
<clustering>
<clus scale="   38.327">  3  5 -1 -1</clus>
<clus scale="   46.953">  1  6  2 -1</clus>
<clus scale="  111.728">  2  4  1 -1</clus>
<clus scale="   46.953">  1  3  2 -1</clus>
</clustering>
</event>
<event>
 6    0  0.8610502E+002  0.8739287E+02  0.7546771E-02  0.1309291E+00
         21   -1    0    0  503  501  0.00000000000E+00  0.00000000000E+00  0.10403150603E+04  0.10403150603E+04  0.00000000000E+00 0.  1.
         21   -1    0    0  505  502 -0.00000000000E+00 -0.00000000000E+00 -0.53964940270E+02  0.53964940270E+02  0.00000000000E+00 0. -1.
         21    1    1    2  503  504  0.51738600598E+02 -0.90268759382E+02  0.72309302565E+03  0.73054011215E+03  0.00000000000E+00 0.  1.
         21    1    1    2  504  502 -0.46038568532E+02 -0.27792617432E+02  0.91833392735E+02  0.10642063426E+03  0.00000000000E+00 0. -1.
         21    1    1    2  505  506 -0.83981066988E-01  0.51714158846E+02 -0.19383841426E+02  0.55227661424E+02  0.00000000000E+00 0. -1.
         21    1    1    2  506  501 -0.56160509998E+01  0.66347217969E+02  0.19080754308E+03  0.20209159275E+03  0.00000000000E+00 0. -1.
<scales pt_clust_3="87.39287" pt_clust_4="46.36242" pt_clust_5="51.71423" pt_clust_6="14000.00000"></scales>
<clustering>
<clus scale="   51.714">  2  5  1 -1</clus>
<clus scale="   46.362">  2  4  1 -1</clus>
<clus scale="   87.393">  1  3  2 -1</clus>
<clus scale="   87.393">  1  3  2 -1</clus>
</clustering>
</event>
<event>
 6    0  0.8610502E+002  0.9528031E+02  0.7546771E-02  0.1290546E+00
         21   -1    0    0  505  501  0.00000000000E+00  0.00000000000E+00  0.12208497995E+04  0.12208497995E+04  0.00000000000E+00 0. -1.
         21   -1    0    0  503  502 -0.00000000000E+00 -0.00000000000E+00 -0.46169498307E+02  0.46169498307E+02  0.00000000000E+00 0. -1.
         21    1    1    2  503  504 -0.66425656012E+02 -0.17748631337E+01  0.13999125292E+03  0.15496150751E+03  0.00000000000E+00 0. -1.
         21    1    1    2  504  501 -0.62407257675E+02  0.79795101413E+01  0.52681794218E+02  0.82059184950E+02  0.00000000000E+00 0. -1.
         21    1    1    2  505  506  0.77334082521E+02 -0.12228852197E+02  0.97446221577E+03  0.97760253432E+03  0.00000000000E+00 0. -1.
         21    1    1    2  506  502  0.51498831167E+02  0.60242051893E+01  0.75450383227E+01  0.52396071064E+02  0.00000000000E+00 0. -1.
<scales pt_clust_3="47.86241" pt_clust_4="47.86241" pt_clust_5="81.60177" pt_clust_6="51.84998"></scales>
<clustering>
<clus scale="   47.862">  3  4 -1 -1</clus>
<clus scale="   51.850">  2  6  1 -1</clus>
<clus scale="   81.602">  1  5  2 -1</clus>
<clus scale="   81.602">  1  3  2 -1</clus>
</clustering>
</event>
<event>
 6    0  0.8610502E+002  0.6449947E+02  0.7546771E-02  0.1379864E+00
         21   -1    0    0  503  501  0.00000000000E+00  0.00000000000E+00  0.48001952566E+02  0.48001952566E+02  0.00000000000E+00 0. -1.
         21   -1    0    0  506  502 -0.00000000000E+00 -0.00000000000E+00 -0.10291883572E+04  0.10291883572E+04  0.00000000000E+00 0.  1.
         21    1    1    2  503  502 -0.52987402905E+02 -0.26247306351E+02 -0.87085177217E+02  0.10526354568E+03  0.00000000000E+00 0.  1.
         21    1    1    2  504  505 -0.15775161383E+02 -0.73964956791E+02 -0.28296494915E+02  0.80748759583E+02  0.00000000000E+00 0. -1.
         21    1    1    2  505  501  0.45512972858E+02  0.40584715942E+02 -0.70132863502E+02  0.92936367529E+02  0.00000000000E+00 0. -1.
         21    1    1    2  506  504  0.23249591431E+02  0.59627547200E+02 -0.79567186899E+03  0.79824163697E+03  0.00000000000E+00 0.  1.
<scales pt_clust_3="59.13194" pt_clust_4="64.49947" pt_clust_5="44.51127" pt_clust_6="14000.00000"></scales>
<clustering>
<clus scale="   59.132">  1  3  2 -1</clus>
<clus scale="   44.511">  1  5  2 -1</clus>
<clus scale="   64.499">  1  4  2 -1</clus>
<clus scale="   59.132">  1  3  2 -1</clus>
</clustering>
</event>
<event>
 6    0  0.8610502E+002  0.8989376E+02  0.7546771E-02  0.1303109E+00
         21   -1    0    0  504  501  0.00000000000E+00  0.00000000000E+00  0.94580560451E+03  0.94580560451E+03  0.00000000000E+00 0.  1.
         21   -1    0    0  506  502 -0.00000000000E+00 -0.00000000000E+00 -0.28636534300E+03  0.28636534300E+03  0.00000000000E+00 0. -1.
         21    1    1    2  503  501 -0.75452637053E+01  0.37221150790E+02  0.60753910461E+02  0.71647628760E+02  0.00000000000E+00 0.  1.
         21    1    1    2  504  502 -0.44038733945E+02  0.38311518329E+02  0.85656368040E+03  0.85855024379E+03  0.00000000000E+00 0.  1.
         21    1    1    2  505  503  0.90313463228E+02 -0.31269045420E+02 -0.13132159961E+03  0.16241809433E+03  0.00000000000E+00 0. -1.
         21    1    1    2  506  505 -0.38729465578E+02 -0.44263623700E+02 -0.12655572975E+03  0.13955498063E+03  0.00000000000E+00 0. -1.
<scales pt_clust_3="37.97822" pt_clust_4="14000.00000" pt_clust_5="89.89376" pt_clust_6="58.64545"></scales>
<clustering>
<clus scale="   37.978">  1  3  2 -1</clus>
<clus scale="   58.645">  2  6  1 -1</clus>
<clus scale="   89.894">  2  5  1 -1</clus>
<clus scale="   37.978">  1  3  2 -1</clus>
</clustering>
</event>
<event>
 6    0  0.8610502E+002  0.1551661E+03  0.7546771E-02  0.1194265E+00
         21   -1    0    0  506  501  0.00000000000E+00  0.00000000000E+00  0.10671780567E+04  0.10671780567E+04  0.00000000000E+00 0. -1.
         21   -1    0    0  503  502 -0.00000000000E+00 -0.00000000000E+00 -0.23394741160E+03  0.23394741160E+03  0.00000000000E+00 0. -1.
         21    1    1    2  503  505 -0.14346754917E+02 -0.10223379059E+03 -0.46230687802E+02  0.11311433954E+03  0.00000000000E+00 0. -1.
         21    1    1    2  504  502  0.45047840835E+02 -0.25278166898E+02 -0.96398243446E+02  0.10936596831E+03  0.00000000000E+00 0. -1.
         21    1    1    2  505  501 -0.81046134830E+02  0.12620447500E+03  0.10078712858E+04  0.10189703500E+04  0.00000000000E+00 0. -1.
         21    1    1    2  506  504  0.50345048912E+02  0.13074824950E+01 -0.32011709434E+02  0.59674810443E+02  0.00000000000E+00 0. -1.
<scales pt_clust_3="103.23554" pt_clust_4="48.48599" pt_clust_5="147.19120" pt_clust_6="48.48599"></scales>
<clustering>
<clus scale="   48.486">  4  6 -1 -1</clus>
<clus scale="  103.236">  2  3  1 -1</clus>
<clus scale="  147.191">  1  5  2 -1</clus>
<clus scale="  147.191">  1  3  2 -1</clus>
</clustering>
</event>
<event>
 6    0  0.8610502E+002  0.6605358E+02  0.7546771E-02  0.1374052E+00
         21   -1    0    0  505  501  0.00000000000E+00  0.00000000000E+00  0.12005663901E+03  0.12005663901E+03  0.00000000000E+00 0.  1.
         21   -1    0    0  503  502 -0.00000000000E+00 -0.00000000000E+00 -0.23381786252E+03  0.23381786252E+03  0.00000000000E+00 0.  1.
         21    1    1    2  503  506  0.57866144391E+02 -0.48321824936E+02  0.18390278298E+02  0.77599560358E+02  0.00000000000E+00 0.  1.
         21    1    1    2  504  502 -0.42049805886E+01  0.56471776136E+02 -0.13139730288E+03  0.14308037799E+03  0.00000000000E+00 0.  1.
         21    1    1    2  505  504 -0.73969303481E+02 -0.47878040065E+02  0.47411552763E+01  0.88239691360E+02  0.00000000000E+00 0.  1.
         21    1    1    2  506  501  0.20308139679E+02  0.39728088865E+02 -0.54953542072E+01  0.44954871816E+02  0.00000000000E+00 0.  1.
<scales pt_clust_3="66.05358" pt_clust_4="58.86260" pt_clust_5="14000.00000" pt_clust_6="44.61773"></scales>
<clustering>
<clus scale="   44.618">  1  6  2 -1</clus>
<clus scale="   58.863">  2  4  1 -1</clus>
<clus scale="   66.054">  2  3  1 -1</clus>
<clus scale="   44.618">  1  3  2 -1</clus>
</clustering>
</event>
<event>
 6    0  0.8610502E+002  0.1147849E+03  0.7546771E-02  0.1251957E+00
         21   -1    0    0  504  501  0.00000000000E+00  0.00000000000E+00  0.22750741163E+03  0.22750741163E+03  0.00000000000E+00 0.  1.
         21   -1    0    0  506  502 -0.00000000000E+00 -0.00000000000E+00 -0.28199241890E+03  0.28199241890E+03  0.00000000000E+00 0.  1.
         21    1    1    2  503  501  0.28837069116E+02 -0.11727860130E+02  0.85770335011E+01  0.32290629633E+02  0.00000000000E+00 0.  1.
         21    1    1    2  504  502 -0.42754463887E+01 -0.51064720901E+02  0.37176399906E+02  0.63308529224E+02  0.00000000000E+00 0. -1.
         21    1    1    2  505  503 -0.11053507311E+03 -0.16426150272E+02  0.12036047921E+03  0.16423905064E+03  0.00000000000E+00 0.  1.
         21    1    1    2  506  505  0.85973450384E+02  0.79218731303E+02 -0.22059891989E+03  0.24966162103E+03  0.00000000000E+00 0.  1.
<scales pt_clust_3="31.13068" pt_clust_4="53.97890" pt_clust_5="114.78492" pt_clust_6="14000.00000"></scales>
<clustering>
<clus scale="   31.131">  1  3  2 -1</clus>
<clus scale="   53.979">  1  4  2 -1</clus>
<clus scale="  114.785">  1  5  2 -1</clus>
<clus scale="   31.131">  1  3  2 -1</clus>
</clustering>
</event>
<event>
 6    0  0.8610502E+002  0.1268919E+03  0.7546771E-02  0.1232142E+00
         21   -1    0    0  506  501  0.00000000000E+00  0.00000000000E+00  0.60648063795E+03  0.60648063795E+03  0.00000000000E+00 0.  1.
         21   -1    0    0  505  502 -0.00000000000E+00 -0.00000000000E+00 -0.72513848518E+02  0.72513848518E+02  0.00000000000E+00 0.  1.
         21    1    1    2  503  502  0.10517622835E+03  0.36938540090E+02  0.12382181114E+03  0.16660833013E+03  0.00000000000E+00 0.  1.
         21    1    1    2  504  501 -0.41069038953E+02 -0.16903636097E+02  0.33124068652E+01  0.44535052633E+02  0.00000000000E+00 0. -1.
         21    1    1    2  505  504 -0.81224322495E+02  0.32507515499E+02  0.38821711848E+02  0.95714442167E+02  0.00000000000E+00 0.  1.
         21    1    1    2  506  503  0.17117133094E+02 -0.52542419491E+02  0.36801085958E+03  0.37213666154E+03  0.00000000000E+00 0.  1.
<scales pt_clust_3="115.78455" pt_clust_4="36.99079" pt_clust_5="36.99079" pt_clust_6="55.26031"></scales>
<clustering>
<clus scale="   36.991">  4  5 -1 -1</clus>
<clus scale="   55.260">  1  6  2 -1</clus>
<clus scale="  115.785">  1  3  2 -1</clus>
<clus scale="   55.260">  1  3  2 -1</clus>
</clustering>
</event>
<event>
 6    0  0.8610502E+002  0.9396734E+02  0.7546771E-02  0.1293519E+00
         21   -1    0    0  505  501  0.00000000000E+00  0.00000000000E+00  0.28088683906E+03  0.28088683906E+03  0.00000000000E+00 0.  1.
         21   -1    0    0  506  502 -0.00000000000E+00 -0.00000000000E+00 -0.12089409860E+03  0.12089409860E+03  0.00000000000E+00 0.  1.
         21    1    1    2  503  501 -0.42994853361E+01 -0.55586344181E+02  0.72690456529E+02  0.91609113651E+02  0.00000000000E+00 0.  1.
         21    1    1    2  504  503  0.11413084027E+03  0.58558384719E+02  0.60674772036E+02  0.14190264650E+03  0.00000000000E+00 0.  1.
         21    1    1    2  505  502 -0.76810246653E+02  0.13810065108E+02  0.74396899887E+02  0.10782129011E+03  0.00000000000E+00 0.  1.
         21    1    1    2  506  504 -0.33021108283E+02 -0.16782105647E+02 -0.47769387992E+02  0.60447887401E+02  0.00000000000E+00 0.  1.
<scales pt_clust_3="58.65428" pt_clust_4="14000.00000" pt_clust_5="93.96734" pt_clust_6="37.04096"></scales>
<clustering>
<clus scale="   37.041">  2  6  1 -1</clus>
<clus scale="   58.654">  1  3  2 -1</clus>
<clus scale="   93.967">  1  5  2 -1</clus>
<clus scale="   58.654">  1  3  2 -1</clus>
</clustering>
</event>
<event>
 6    0  0.8610502E+002  0.1067382E+03  0.7546771E-02  0.1266732E+00
         21   -1    0    0  506  501  0.00000000000E+00  0.00000000000E+00  0.71656311500E+03  0.71656311500E+03  0.00000000000E+00 0. -1.
         21   -1    0    0  503  502 -0.00000000000E+00 -0.00000000000E+00 -0.18775378037E+03  0.18775378037E+03  0.00000000000E+00 0. -1.
         21    1    1    2  503  505  0.11437594917E+02  0.44013353859E+02 -0.48210398794E+02  0.66273949990E+02  0.00000000000E+00 0.  1.
         21    1    1    2  504  502 -0.16698924784E+01 -0.14925780369E+03 -0.71663433932E+02  0.16557876756E+03  0.00000000000E+00 0. -1.
         21    1    1    2  505  501 -0.21936793605E+01  0.58172372412E+02  0.60502019279E+03  0.60781433911E+03  0.00000000000E+00 0. -1.
         21    1    1    2  506  504 -0.75740230781E+01  0.47072077422E+02  0.43662974562E+02  0.64649838716E+02  0.00000000000E+00 0. -1.
<scales pt_clust_3="45.47520" pt_clust_4="14000.00000" pt_clust_5="106.73815" pt_clust_6="51.04645"></scales>
<clustering>
<clus scale="   45.475">  2  3  1 -1</clus>
<clus scale="   51.046">  1  6  2 -1</clus>
<clus scale="  106.738">  1  5  2 -1</clus>
<clus scale="   51.046">  1  3  2 -1</clus>
</clustering>
</event>
<event>
 6    0  0.8610502E+002  0.1923617E+03  0.7546771E-02  0.1156348E+00
         21   -1    0    0  503  501  0.00000000000E+00  0.00000000000E+00  0.19364771270E+04  0.19364771270E+04  0.00000000000E+00 0.  1.
         21   -1    0    0  505  502 -0.00000000000E+00 -0.00000000000E+00 -0.19311689721E+03  0.19311689721E+03  0.00000000000E+00 0.  1.
         21    1    1    2  503  504 -0.37641070315E+00 -0.31456447005E+02  0.18541206079E+03  0.18806191009E+03  0.00000000000E+00 0. -1.
         21    1    1    2  504  506 -0.76252131954E+02 -0.11362585651E+03  0.37125313729E+03  0.39566919876E+03  0.00000000000E+00 0. -1.
         21    1    1    2  505  501  0.62117284685E+02  0.18093250999E+03  0.13574091083E+04  0.13708226061E+04  0.00000000000E+00 0.  1.
         21    1    1    2  506  502  0.14511257973E+02 -0.35850206478E+02 -0.17071407657E+03  0.17504030922E+03  0.00000000000E+00 0.  1.
<scales pt_clust_3="30.11551" pt_clust_4="30.11551" pt_clust_5="181.81852" pt_clust_6="38.67575"></scales>
<clustering>
<clus scale="   30.116">  3  4 -1 -1</clus>
<clus scale="   38.676">  2  6  1 -1</clus>
<clus scale="  181.819">  1  5  2 -1</clus>
<clus scale="  181.819">  1  3  2 -1</clus>
</clustering>
</event>
<event>
 6    0  0.8610502E+002  0.1479295E+03  0.7546771E-02  0.1203041E+00
         21   -1    0    0  506  501  0.00000000000E+00  0.00000000000E+00  0.13769558450E+04  0.13769558450E+04  0.00000000000E+00 0. -1.
         21   -1    0    0  505  502 -0.00000000000E+00 -0.00000000000E+00 -0.27215037761E+03  0.27215037761E+03  0.00000000000E+00 0. -1.
         21    1    1    2  503  501  0.11426123078E+03 -0.38018230069E+02  0.49138596206E+03  0.50592606020E+03  0.00000000000E+00 0.  1.
         21    1    1    2  504  502 -0.11641080755E+03  0.89023111812E+02 -0.98905240698E+02  0.17680168887E+03  0.00000000000E+00 0.  1.
         21    1    1    2  505  503 -0.20617190076E+02 -0.25730866017E+02 -0.12453590472E+03  0.12882677345E+03  0.00000000000E+00 0. -1.
         21    1    1    2  506  504  0.22766766843E+02 -0.25274015726E+02  0.83686065076E+03  0.83755170010E+03  0.00000000000E+00 0. -1.
<scales pt_clust_3="147.92952" pt_clust_4="14000.00000" pt_clust_5="32.97190" pt_clust_6="34.02892"></scales>
<clustering>
<clus scale="   32.972">  2  5  1 -1</clus>
<clus scale="   34.029">  1  6  2 -1</clus>
<clus scale="  147.930">  1  3  2 -1</clus>
<clus scale="   34.029">  1  3  2 -1</clus>
</clustering>
</event>
<event>
 6    0  0.8610502E+002  0.1411392E+03  0.7546771E-02  0.1211804E+00
         21   -1    0    0  506  501  0.00000000000E+00  0.00000000000E+00  0.90466106336E+02  0.90466106336E+02  0.00000000000E+00 0. -1.
         21   -1    0    0  503  502 -0.00000000000E+00 -0.00000000000E+00 -0.44899567958E+03  0.44899567958E+03  0.00000000000E+00 0. -1.
         21    1    1    2  503  501  0.42331453880E+02 -0.43346677446E+02 -0.43385244781E+02  0.74519567215E+02  0.00000000000E+00 0. -1.
         21    1    1    2  504  505 -0.47664332167E+02  0.90902658553E+02 -0.17269210959E+03  0.20089237569E+03  0.00000000000E+00 0. -1.
         21    1    1    2  505  502 -0.19340912062E+02  0.32447923751E+02 -0.17136245805E+03  0.17547658153E+03  0.00000000000E+00 0. -1.
         21    1    1    2  506  504  0.24673790348E+02 -0.80003904857E+02  0.28910239176E+02  0.88573261494E+02  0.00000000000E+00 0. -1.
<scales pt_clust_3="60.58784" pt_clust_4="36.27250" pt_clust_5="36.27250" pt_clust_6="127.84876"></scales>
<clustering>
<clus scale="   36.272">  4  5 -1 -1</clus>
<clus scale="   60.588">  1  3  2 -1</clus>
<clus scale="  127.849">  1  6  2 -1</clus>
<clus scale="   60.588">  1  3  2 -1</clus>
</clustering>
</event>
<event>
 6    0  0.8610502E+002  0.1519809E+03  0.7546771E-02  0.1198060E+00
         21   -1    0    0  503  501  0.00000000000E+00  0.00000000000E+00  0.13128863525E+04  0.13128863525E+04  0.00000000000E+00 0.  1.
         21   -1    0    0  505  502 -0.00000000000E+00 -0.00000000000E+00 -0.88932682166E+02  0.88932682166E+02  0.00000000000E+00 0. -1.
         21    1    1    2  503  506  0.82565957440E+02  0.34820671318E+02  0.41267459761E+03  0.42229129755E+03  0.00000000000E+00 0.  1.
         21    1    1    2  504  502 -0.12755730703E+03 -0.57503904938E+02 -0.18879766525E+02  0.14118785799E+03  0.00000000000E+00 0. -1.
         21    1    1    2  505  501  0.29079962481E+02 -0.32238149649E+02  0.58467044842E+03  0.58628020243E+03  0.00000000000E+00 0.  1.
         21    1    1    2  506  504  0.15911387107E+02  0.54921383270E+02  0.24548839083E+03  0.25205967669E+03  0.00000000000E+00 0. -1.
<scales pt_clust_3="43.98149" pt_clust_4="138.84846" pt_clust_5="43.41592" pt_clust_6="43.98149"></scales>
<clustering>
<clus scale="   43.416">  1  5  2 -1</clus>
<clus scale="   43.981">  3  6 -1 -1</clus>
<clus scale="  138.848">  2  4  1 -1</clus>
<clus scale="   43.416">  1  3  2 -1</clus>
</clustering>
</event>
<event>
 6    0  0.8610502E+002  0.1068735E+03  0.7546771E-02  0.1266472E+00
         21   -1    0    0  504  501  0.00000000000E+00  0.00000000000E+00  0.14184453485E+03  0.14184453485E+03  0.00000000000E+00 0.  1.
         21   -1    0    0  505  502 -0.00000000000E+00 -0.00000000000E+00 -0.40088624408E+03  0.40088624408E+03  0.00000000000E+00 0.  1.
         21    1    1    2  503  501  0.42170343437E+01  0.98687998557E+02  0.54706278818E+02  0.11291537265E+03  0.00000000000E+00 0.  1.
         21    1    1    2  504  506  0.31514804172E+02 -0.14060665824E+03 -0.77532308771E+02  0.16362968595E+03  0.00000000000E+00 0.  1.
         21    1    1    2  505  503 -0.29110543158E+02 -0.30652393528E+02 -0.45924479158E+02  0.62418352573E+02  0.00000000000E+00 0.  1.
         21    1    1    2  506  502 -0.66212953574E+01  0.72571053208E+02 -0.19029120012E+03  0.20376736775E+03  0.00000000000E+00 0.  1.
<scales pt_clust_3="14000.00000" pt_clust_4="106.87346" pt_clust_5="42.27284" pt_clust_6="59.81911"></scales>
<clustering>
<clus scale="   42.273">  2  5  1 -1</clus>
<clus scale="   59.819">  2  6  1 -1</clus>
<clus scale="  106.873">  2  4  1 -1</clus>
<clus scale="  106.873">  1  3  2 -1</clus>
</clustering>
</event>
<event>
 6    0  0.8610502E+002  0.1761572E+03  0.7546771E-02  0.1171575E+00
         21   -1    0    0  503  501  0.00000000000E+00  0.00000000000E+00  0.70139256732E+03  0.70139256732E+03  0.00000000000E+00 0. -1.
         21   -1    0    0  505  502 -0.00000000000E+00 -0.00000000000E+00 -0.86538102672E+02  0.86538102672E+02  0.00000000000E+00 0.  1.
         21    1    1    2  503  506  0.81510383066E+02  0.63986255349E+02  0.24442181879E+03  0.26548108958E+03  0.00000000000E+00 0. -1.
         21    1    1    2  504  501 -0.94420259945E+02 -0.32032066872E+01  0.78047709979E+01  0.94796415921E+02  0.00000000000E+00 0.  1.
         21    1    1    2  505  504 -0.85391338622E+02  0.22603339907E+02  0.90099154617E+02  0.12617626302E+03  0.00000000000E+00 0. -1.
         21    1    1    2  506  502  0.98301215500E+02 -0.83386388569E+02  0.27252872024E+03  0.30147690148E+03  0.00000000000E+00 0. -1.
<scales pt_clust_3="103.62521" pt_clust_4="78.16830" pt_clust_5="78.16830" pt_clust_6="156.51259"></scales>
<clustering>
<clus scale="   78.168">  4  5 -1 -1</clus>
<clus scale="  103.625">  1  3  2 -1</clus>
<clus scale="  156.513">  1  6  2 -1</clus>
<clus scale="  103.625">  1  3  2 -1</clus>
</clustering>
</event>
<event>
 6    0  0.8610502E+002  0.6333729E+02  0.7546771E-02  0.1384337E+00
         21   -1    0    0  503  501  0.00000000000E+00  0.00000000000E+00  0.92128978099E+02  0.92128978099E+02  0.00000000000E+00 0.  1.
         21   -1    0    0  505  502 -0.00000000000E+00 -0.00000000000E+00 -0.27335158982E+04  0.27335158982E+04  0.00000000000E+00 0.  1.
         21    1    1    2  503  502  0.28351400422E+02 -0.48500866632E+02 -0.38264735355E+02  0.67972979497E+02  0.00000000000E+00 0.  1.
         21    1    1    2  504  501 -0.82958654826E+02  0.17085095519E+02  0.50193530810E+02  0.98455215375E+02  0.00000000000E+00 0.  1.
         21    1    1    2  505  506  0.61356703898E+01 -0.32555259591E+02 -0.11615777181E+03  0.12078956631E+03  0.00000000000E+00 0. -1.
         21    1    1    2  506  504  0.48471584014E+02  0.63971030705E+02 -0.25371579438E+04  0.25384271152E+04  0.00000000000E+00 0.  1.
<scales pt_clust_3="56.81375" pt_clust_4="63.33729" pt_clust_5="33.12841" pt_clust_6="14000.00000"></scales>
<clustering>
<clus scale="   33.128">  2  5  1 -1</clus>
<clus scale="   56.814">  1  3  2 -1</clus>
<clus scale="   63.337">  1  4  2 -1</clus>
<clus scale="   56.814">  1  3  2 -1</clus>
</clustering>
</event>
<event>
 6    0  0.8610502E+002  0.1687666E+03  0.7546771E-02  0.1179140E+00
         21   -1    0    0  506  501  0.00000000000E+00  0.00000000000E+00  0.98963547474E+02  0.98963547474E+02  0.00000000000E+00 0.  1.
         21   -1    0    0  504  502 -0.00000000000E+00 -0.00000000000E+00 -0.14553081943E+04  0.14553081943E+04  0.00000000000E+00 0.  1.
         21    1    1    2  503  502  0.32278364069E+02 -0.65407377112E+02 -0.76439764139E+03  0.76786963212E+03  0.00000000000E+00 0.  1.
         21    1    1    2  504  505  0.30093206077E+02  0.27452458235E+02 -0.80475042198E+02  0.90196845466E+02  0.00000000000E+00 0. -1.
         21    1    1    2  505  501 -0.23964616771E+02 -0.13421674142E+03 -0.50129921275E+03  0.51950874606E+03  0.00000000000E+00 0. -1.
         21    1    1    2  506  503 -0.38406953375E+02  0.17217166030E+03 -0.10172750528E+02  0.17669651816E+03  0.00000000000E+00 0.  1.
<scales pt_clust_3="70.12170" pt_clust_4="40.73375" pt_clust_5="14000.00000" pt_clust_6="168.76661"></scales>
<clustering>
<clus scale="   40.734">  2  4  1 -1</clus>
<clus scale="   70.122">  2  3  1 -1</clus>
<clus scale="  168.767">  1  6  2 -1</clus>
<clus scale="  168.767">  1  3  2 -1</clus>
</clustering>
</event>
<event>
 6    0  0.8610502E+002  0.1542278E+03  0.7546771E-02  0.1195372E+00
         21   -1    0    0  503  501  0.00000000000E+00  0.00000000000E+00  0.15761036357E+04  0.15761036357E+04  0.00000000000E+00 0. -1.
         21   -1    0    0  505  502 -0.00000000000E+00 -0.00000000000E+00 -0.92121784131E+03  0.92121784131E+03  0.00000000000E+00 0.  1.
         21    1    1    2  503  506 -0.67515871321E+02  0.98535393456E+02 -0.80393454744E+02  0.14398168012E+03  0.00000000000E+00 0.  1.
         21    1    1    2  504  501  0.54829705004E+02  0.11739778098E+02  0.55080735040E+03  0.55365409435E+03  0.00000000000E+00 0.  1.
         21    1    1    2  505  504  0.18545324473E+02 -0.15098062520E+03  0.98571739044E+03  0.99738550825E+03  0.00000000000E+00 0. -1.
         21    1    1    2  506  502 -0.58591581562E+01  0.40705453651E+02 -0.80124549174E+03  0.80230019427E+03  0.00000000000E+00 0.  1.
<scales pt_clust_3="154.22784" pt_clust_4="56.10786" pt_clust_5="14000.00000" pt_clust_6="41.12498"></scales>
<clustering>
<clus scale="   41.125">  2  6  1 -1</clus>
<clus scale="   56.108">  1  4  2 -1</clus>
<clus scale="  154.228">  2  3  1 -1</clus>
<clus scale="   56.108">  1  3  2 -1</clus>
</clustering>
</event>
<event>
 6    0  0.8610502E+002  0.1070342E+03  0.7546771E-02  0.1266163E+00
         21   -1    0    0  506  501  0.00000000000E+00  0.00000000000E+00  0.22028104942E+03  0.22028104942E+03  0.00000000000E+00 0. -1.
         21   -1    0    0  505  502 -0.00000000000E+00 -0.00000000000E+00 -0.10720651734E+04  0.10720651734E+04  0.00000000000E+00 0. -1.
         21    1    1    2  503  504  0.77568711474E+02  0.12446984194E+02 -0.23023195484E+03  0.24326649059E+03  0.00000000000E+00 0. -1.
         21    1    1    2  504  502 -0.22917368287E+02 -0.30792919065E+02 -0.75615675863E+03  0.75713040704E+03  0.00000000000E+00 0. -1.
         21    1    1    2  505  501  0.53965807056E+02  0.10043865109E+02 -0.52169745613E+02  0.75728923899E+02  0.00000000000E+00 0. -1.
         21    1    1    2  506  503 -0.10861715024E+03  0.83020697623E+01  0.18677433510E+03  0.21622040130E+03  0.00000000000E+00 0. -1.
<scales pt_clust_3="14000.00000" pt_clust_4="38.38502" pt_clust_5="49.46572" pt_clust_6="107.03425"></scales>
<clustering>
<clus scale="   38.385">  2  4  1 -1</clus>
<clus scale="   49.466">  2  5  1 -1</clus>
<clus scale="  107.034">  1  6  2 -1</clus>
<clus scale="  107.034">  1  3  2 -1</clus>
</clustering>
</event>
<event>
 6    0  0.8610502E+002  0.7064361E+02  0.7546771E-02  0.1357918E+00
         21   -1    0    0  506  501  0.00000000000E+00  0.00000000000E+00  0.10011242950E+03  0.10011242950E+03  0.00000000000E+00 0.  1.
         21   -1    0    0  505  502 -0.00000000000E+00 -0.00000000000E+00 -0.10172829269E+04  0.10172829269E+04  0.00000000000E+00 0.  1.
         21    1    1    2  503  501  0.31223299507E+02  0.59502787256E+02  0.20711752584E+02  0.70316803244E+02  0.00000000000E+00 0. -1.
         21    1    1    2  504  502 -0.58314224943E+02 -0.21828892509E+02 -0.86503678522E+03  0.86727486367E+03  0.00000000000E+00 0.  1.
         21    1    1    2  505  503 -0.13116125831E+02  0.40562098750E+02 -0.80928784117E+02  0.91470130154E+02  0.00000000000E+00 0. -1.
         21    1    1    2  506  504  0.40207051266E+02 -0.78235993497E+02  0.80833193607E+01  0.88333559319E+02  0.00000000000E+00 0.  1.
<scales pt_clust_3="67.99657" pt_clust_4="70.64361" pt_clust_5="42.63000" pt_clust_6="14000.00000"></scales>
<clustering>
<clus scale="   42.630">  2  5  1 -1</clus>
<clus scale="   67.997">  1  3  2 -1</clus>
<clus scale="   70.644">  2  4  1 -1</clus>
<clus scale="   67.997">  1  3  2 -1</clus>
</clustering>
</event>
<event>
 6    0  0.8610502E+002  0.8141380E+02  0.7546771E-02  0.1325086E+00
         21   -1    0    0  503  501  0.00000000000E+00  0.00000000000E+00  0.39594499928E+03  0.39594499928E+03  0.00000000000E+00 0.  1.
         21   -1    0    0  504  502 -0.00000000000E+00 -0.00000000000E+00 -0.11364738828E+03  0.11364738828E+03  0.00000000000E+00 0.  1.
         21    1    1    2  503  506 -0.76070170882E+01 -0.39374111136E+02  0.27826243865E+03  0.28113728337E+03  0.00000000000E+00 0.  1.
         21    1    1    2  504  505  0.58393779454E+02  0.10057997761E+03 -0.14276176392E+02  0.11717497424E+03  0.00000000000E+00 0.  1.
         21    1    1    2  505  501 -0.46867849256E+02  0.96098484894E+00  0.13606488202E+02  0.48812450327E+02  0.00000000000E+00 0. -1.
         21    1    1    2  506  502 -0.39189131100E+01 -0.62166851326E+02  0.47048605406E+01  0.62467679615E+02  0.00000000000E+00 0. -1.
<scales pt_clust_3="40.10221" pt_clust_4="14000.00000" pt_clust_5="49.84537" pt_clust_6="81.41380"></scales>
<clustering>
<clus scale="   40.102">  1  3  2 -1</clus>
<clus scale="   49.845">  1  5  2 -1</clus>
<clus scale="   81.414">  2  6  1 -1</clus>
<clus scale="   40.102">  1  3  2 -1</clus>
</clustering>
</event>
<event>
 6    0  0.8610502E+002  0.9620913E+02  0.7546771E-02  0.1288476E+00
         21   -1    0    0  506  501  0.00000000000E+00  0.00000000000E+00  0.86168680016E+02  0.86168680016E+02  0.00000000000E+00 0. -1.
         21   -1    0    0  504  502 -0.00000000000E+00 -0.00000000000E+00 -0.11742515489E+04  0.11742515489E+04  0.00000000000E+00 0. -1.
         21    1    1    2  503  502  0.10983051743E+03  0.68368369033E+02 -0.54162132897E+02  0.14025160635E+03  0.00000000000E+00 0. -1.
         21    1    1    2  504  505 -0.54895709359E+02 -0.77188332055E+02 -0.83336820083E+03  0.83873365002E+03  0.00000000000E+00 0. -1.
         21    1    1    2  505  501  0.49498121156E+02 -0.52171324591E+02 -0.10517783835E+03  0.12741384849E+03  0.00000000000E+00 0. -1.
         21    1    1    2  506  503 -0.10443292923E+03  0.60991287613E+02 -0.95374696850E+02  0.15402112411E+03  0.00000000000E+00 0. -1.
<scales pt_clust_3="14000.00000" pt_clust_4="96.20913" pt_clust_5="71.91600" pt_clust_6="94.28596"></scales>
<clustering>
<clus scale="   71.916">  1  5  2 -1</clus>
<clus scale="   94.286">  1  6  2 -1</clus>
<clus scale="   96.209">  2  4  1 -1</clus>
<clus scale="   71.916">  1  3  2 -1</clus>
</clustering>
</event>
<event>
 6    0  0.8610502E+002  0.1015397E+03  0.7546771E-02  0.1277091E+00
         21   -1    0    0  503  501  0.00000000000E+00  0.00000000000E+00  0.55507958442E+03  0.55507958442E+03  0.00000000000E+00 0.  1.
         21   -1    0    0  505  502 -0.00000000000E+00 -0.00000000000E+00 -0.65033279671E+02  0.65033279671E+02  0.00000000000E+00 0.  1.
         21    1    1    2  503  506 -0.33147950468E+02  0.87492667570E+01  0.15733336855E+03  0.16102523141E+03  0.00000000000E+00 0. -1.
         21    1    1    2  504  501 -0.11702198871E+02 -0.46336373415E+02  0.19086295347E+03  0.19675535054E+03  0.00000000000E+00 0.  1.
         21    1    1    2  505  504  0.11207669818E+03 -0.18881389157E+02  0.25340243628E+02  0.11644664477E+03  0.00000000000E+00 0.  1.
         21    1    1    2  506  502 -0.67226548837E+02  0.56468495814E+02  0.11650973910E+03  0.14588563738E+03  0.00000000000E+00 0.  1.
<scales pt_clust_3="34.28318" pt_clust_4="50.48298" pt_clust_5="101.53973" pt_clust_6="14000.00000"></scales>
<clustering>
<clus scale="   34.283">  1  3  2 -1</clus>
<clus scale="   50.483">  1  4  2 -1</clus>
<clus scale="  101.540">  2  5  1 -1</clus>
<clus scale="   34.283">  1  3  2 -1</clus>
</clustering>
</event>
<event>
 6    0  0.8610502E+002  0.1305600E+03  0.7546771E-02  0.1226627E+00
         21   -1    0    0  505  501  0.00000000000E+00  0.00000000000E+00  0.26230638588E+02  0.26230638588E+02  0.00000000000E+00 0. -1.
         21   -1    0    0  506  502 -0.00000000000E+00 -0.00000000000E+00 -0.13254671369E+04  0.13254671369E+04  0.00000000000E+00 0. -1.
         21    1    1    2  503  502  0.46611757282E+02  0.46078676658E+02 -0.30877086637E+03  0.31565067444E+03  0.00000000000E+00 0. -1.
         21    1    1    2  504  501 -0.10359105196E+03 -0.32044464562E+02 -0.15804415131E+03  0.19166613555E+03  0.00000000000E+00 0. -1.
         21    1    1    2  505  503  0.97091966373E+02  0.44242964635E+01 -0.59562510845E+03  0.60350285347E+03  0.00000000000E+00 0. -1.
         21    1    1    2  506  504 -0.40112671691E+02 -0.18458508560E+02 -0.23679637224E+03  0.24087811207E+03  0.00000000000E+00 0. -1.
<scales pt_clust_3="51.52135" pt_clust_4="115.48206" pt_clust_5="51.52135" pt_clust_6="44.15589"></scales>
<clustering>
<clus scale="   44.156">  2  6  1 -1</clus>
<clus scale="   51.521">  3  5 -1 -1</clus>
<clus scale="  115.482">  1  4  2 -1</clus>
<clus scale="  115.482">  1  3  2 -1</clus>
</clustering>
</event>
<event>
 6    0  0.8610502E+002  0.1123031E+03  0.7546771E-02  0.1256363E+00
         21   -1    0    0  503  501  0.00000000000E+00  0.00000000000E+00  0.91107567783E+03  0.91107567783E+03  0.00000000000E+00 0.  1.
         21   -1    0    0  506  502 -0.00000000000E+00 -0.00000000000E+00 -0.39556356568E+03  0.39556356568E+03  0.00000000000E+00 0. -1.
         21    1    1    2  503  504 -0.14066812307E+03 -0.50601695561E+02 -0.15587430274E+03  0.21597418988E+03  0.00000000000E+00 0. -1.
         21    1    1    2  504  502 -0.50358950109E+01  0.46876612641E+02 -0.18255661111E+03  0.18854626305E+03  0.00000000000E+00 0. -1.
         21    1    1    2  505  501  0.11072189219E+03  0.14334479833E+02  0.85809555214E+03  0.86532814084E+03  0.00000000000E+00 0.  1.
         21    1    1    2  506  505  0.34982125885E+02 -0.10609396913E+02 -0.41525261409E+01  0.36790649732E+02  0.00000000000E+00 0. -1.
<scales pt_clust_3="112.30307" pt_clust_4="43.39873" pt_clust_5="14000.00000" pt_clust_6="36.55555"></scales>
<clustering>
<clus scale="   36.556">  2  6  1 -1</clus>
<clus scale="   43.399">  2  4  1 -1</clus>
<clus scale="  112.303">  2  3  1 -1</clus>
<clus scale="  112.303">  1  3  2 -1</clus>
</clustering>
</event>
<event>
 6    0  0.8610502E+002  0.1316940E+03  0.7546771E-02  0.1224964E+00
         21   -1    0    0  505  501  0.00000000000E+00  0.00000000000E+00  0.21904374357E+04  0.21904374357E+04  0.00000000000E+00 0.  1.
         21   -1    0    0  504  502 -0.00000000000E+00 -0.00000000000E+00 -0.20511522656E+02  0.20511522656E+02  0.00000000000E+00 0.  1.
         21    1    1    2  503  506 -0.63065789238E+02 -0.29456529550E+02  0.65801024164E+03  0.66168153897E+03  0.00000000000E+00 0. -1.
         21    1    1    2  504  503  0.39341771645E+02  0.28710493482E+02  0.21407161958E+03  0.21954208194E+03  0.00000000000E+00 0. -1.
         21    1    1    2  505  502  0.59426385354E+02  0.46660818659E+02  0.78353214820E+02  0.10884830521E+03  0.00000000000E+00 0.  1.
         21    1    1    2  506  501 -0.35702367762E+02 -0.45914782591E+02  0.12194908370E+04  0.12208770322E+04  0.00000000000E+00 0.  1.
<scales pt_clust_3="55.84697" pt_clust_4="48.70387" pt_clust_5="117.31500" pt_clust_6="55.84697"></scales>
<clustering>
<clus scale="   48.704">  2  4  1 -1</clus>
<clus scale="   55.847">  3  6 -1 -1</clus>
<clus scale="  117.315">  2  5  1 -1</clus>
<clus scale="  131.694">  1  3  2 -1</clus>
</clustering>
</event>
<event>
 6    0  0.8610502E+002  0.8580822E+02  0.7546771E-02  0.1313332E+00
         21   -1    0    0  503  501  0.00000000000E+00  0.00000000000E+00  0.86114786769E+03  0.86114786769E+03  0.00000000000E+00 0.  1.
         21   -1    0    0  504  502 -0.00000000000E+00 -0.00000000000E+00 -0.62206830247E+02  0.62206830247E+02  0.00000000000E+00 0. -1.
         21    1    1    2  503  506  0.11522079016E+03  0.54955331462E+02  0.47351422243E+03  0.49041985868E+03  0.00000000000E+00 0.  1.
         21    1    1    2  504  505 -0.76801158978E+02  0.25785204550E+02  0.22766976787E+01  0.81046148252E+02  0.00000000000E+00 0. -1.
         21    1    1    2  505  501 -0.46718000620E+02  0.50691641534E+01  0.16740417511E+03  0.17387474184E+03  0.00000000000E+00 0.  1.
         21    1    1    2  506  502  0.82983694391E+01 -0.85809700166E+02  0.15574594222E+03  0.17801394916E+03  0.00000000000E+00 0. -1.
<scales pt_clust_3="85.80822" pt_clust_4="83.78583" pt_clust_5="46.99221" pt_clust_6="14000.00000"></scales>
<clustering>
<clus scale="   46.992">  1  5  2 -1</clus>
<clus scale="   83.786">  2  4  1 -1</clus>
<clus scale="   85.808">  1  3  2 -1</clus>
<clus scale="   46.992">  1  3  2 -1</clus>
</clustering>
</event>
<event>
 6    0  0.8610502E+002  0.1008742E+03  0.7546771E-02  0.1278468E+00
         21   -1    0    0  505  501  0.00000000000E+00  0.00000000000E+00  0.11538809865E+03  0.11538809865E+03  0.00000000000E+00 0. -1.
         21   -1    0    0  503  502 -0.00000000000E+00 -0.00000000000E+00 -0.55655371971E+03  0.55655371971E+03  0.00000000000E+00 0.  1.
         21    1    1    2  503  504 -0.80202915220E+02 -0.24847996584E+02 -0.30363936219E+03  0.31503458987E+03  0.00000000000E+00 0.  1.
         21    1    1    2  504  501  0.42803355560E+02 -0.34946636006E+02 -0.15995663902E+02  0.57526132140E+02  0.00000000000E+00 0.  1.
         21    1    1    2  505  506  0.67169232458E+02  0.82147414418E+01  0.70861529898E+02  0.97982366707E+02  0.00000000000E+00 0. -1.
         21    1    1    2  506  502 -0.29769672798E+02  0.51579891149E+02 -0.19239212487E+03  0.20139872965E+03  0.00000000000E+00 0.  1.
<scales pt_clust_3="14000.00000" pt_clust_4="55.25753" pt_clust_5="100.87422" pt_clust_6="57.10318"></scales>
<clustering>
<clus scale="   55.258">  1  4  2 -1</clus>
<clus scale="   57.103">  2  6  1 -1</clus>
<clus scale="  100.874">  1  5  2 -1</clus>
<clus scale="   55.258">  1  3  2 -1</clus>
</clustering>
</event>
<event>
 6    0  0.8610502E+002  0.1571724E+03  0.7546771E-02  0.1191927E+00
         21   -1    0    0  506  501  0.00000000000E+00  0.00000000000E+00  0.18196942214E+03  0.18196942214E+03  0.00000000000E+00 0. -1.
         21   -1    0    0  503  502 -0.00000000000E+00 -0.00000000000E+00 -0.65736259586E+03  0.65736259586E+03  0.00000000000E+00 0. -1.
         21    1    1    2  503  504 -0.16813133970E+03 -0.19580791763E+02 -0.47878747727E+03  0.50782772984E+03  0.00000000000E+00 0. -1.
         21    1    1    2  504  501  0.54228388346E+02 -0.16620361295E+02 -0.17355173389E+02  0.59314050237E+02  0.00000000000E+00 0. -1.
         21    1    1    2  505  502  0.11105459170E+02  0.89421907638E+02 -0.78655331142E+02  0.11960882035E+03  0.00000000000E+00 0. -1.
         21    1    1    2  506  505  0.10279749219E+03 -0.53220754581E+02  0.99404808089E+02  0.15258141758E+03  0.00000000000E+00 0. -1.
<scales pt_clust_3="157.17238" pt_clust_4="56.71820" pt_clust_5="89.14470" pt_clust_6="14000.00000"></scales>
<clustering>
<clus scale="   56.718">  1  4  2 -1</clus>
<clus scale="   89.145">  2  5  1 -1</clus>
<clus scale="  157.172">  2  3  1 -1</clus>
<clus scale="   56.718">  1  3  2 -1</clus>
</clustering>
</event>
<event>
 6    0  0.8610502E+002  0.8482878E+02  0.7546771E-02  0.1315881E+00
         21   -1    0    0  503  501  0.00000000000E+00  0.00000000000E+00  0.52576168692E+02  0.52576168692E+02  0.00000000000E+00 0.  1.
         21   -1    0    0  506  502 -0.00000000000E+00 -0.00000000000E+00 -0.42669298126E+03  0.42669298126E+03  0.00000000000E+00 0.  1.
         21    1    1    2  503  505 -0.69017987256E+02  0.10564159210E+02 -0.85503355091E+02  0.11038979915E+03  0.00000000000E+00 0.  1.
         21    1    1    2  504  501  0.33953379252E+02  0.94060421088E+01 -0.45547575220E+01  0.35525362868E+02  0.00000000000E+00 0.  1.
         21    1    1    2  505  502 -0.25394264920E+02  0.62599249800E+02 -0.77328305263E+02  0.10268009331E+03  0.00000000000E+00 0.  1.
         21    1    1    2  506  504  0.60458872924E+02 -0.82569451119E+02 -0.20673039469E+03  0.23067389463E+03  0.00000000000E+00 0.  1.
<scales pt_clust_3="59.23798" pt_clust_4="35.23217" pt_clust_5="84.82878" pt_clust_6="14000.00000"></scales>
<clustering>
<clus scale="   35.232">  1  4  2 -1</clus>
<clus scale="   59.238">  1  3  2 -1</clus>
<clus scale="   84.829">  1  5  2 -1</clus>
<clus scale="   35.232">  1  3  2 -1</clus>
</clustering>
</event>
<event>
 6    0  0.8610502E+002  0.1076338E+03  0.7546771E-02  0.1265016E+00
         21   -1    0    0  504  501  0.00000000000E+00  0.00000000000E+00  0.11114014327E+03  0.11114014327E+03  0.00000000000E+00 0.  1.
         21   -1    0    0  505  502 -0.00000000000E+00 -0.00000000000E+00 -0.11476554404E+04  0.11476554404E+04  0.00000000000E+00 0.  1.
         21    1    1    2  503  502  0.75554637467E+02 -0.77917642776E+02 -0.10547511235E+04  0.10603205151E+04  0.00000000000E+00 0.  1.
         21    1    1    2  504  506 -0.19383209202E+02 -0.23427044665E+02  0.70659598283E+01  0.31216390070E+02  0.00000000000E+00 0. -1.
         21    1    1    2  505  501 -0.23893412183E+02  0.88725861070E+02  0.58252678764E+02  0.10879590136E+03  0.00000000000E+00 0.  1.
         21    1    1    2  506  503 -0.32278016081E+02  0.12618826370E+02 -0.47082812212E+02  0.58462777105E+02  0.00000000000E+00 0.  1.
<scales pt_clust_3="107.63380" pt_clust_4="30.40617" pt_clust_5="14000.00000" pt_clust_6="35.29115"></scales>
<clustering>
<clus scale="   30.406">  1  4  2 -1</clus>
<clus scale="   35.291">  1  6  2 -1</clus>
<clus scale="  107.634">  2  3  1 -1</clus>
<clus scale="   30.406">  1  3  2 -1</clus>
</clustering>
</event>
<event>
 6    0  0.8610502E+002  0.7434752E+02  0.7546771E-02  0.1345904E+00
         21   -1    0    0  505  501  0.00000000000E+00  0.00000000000E+00  0.57376350265E+03  0.57376350265E+03  0.00000000000E+00 0.  1.
         21   -1    0    0  504  502 -0.00000000000E+00 -0.00000000000E+00 -0.54190054936E+02  0.54190054936E+02  0.00000000000E+00 0.  1.
         21    1    1    2  503  506 -0.58918084940E+02  0.63722325432E+02  0.16947539301E+03  0.19040426552E+03  0.00000000000E+00 0.  1.
         21    1    1    2  504  503  0.48177253251E+02  0.27397662622E+02 -0.96977129370E+01  0.56264778363E+02  0.00000000000E+00 0.  1.
         21    1    1    2  505  502 -0.26479571265E+02 -0.45473222398E+02  0.82874686271E+02  0.98169217549E+02  0.00000000000E+00 0.  1.
         21    1    1    2  506  501  0.37220402955E+02 -0.45646765656E+02  0.27692108137E+03  0.28311529616E+03  0.00000000000E+00 0.  1.
<scales pt_clust_3="74.34752" pt_clust_4="53.24584" pt_clust_5="52.62111" pt_clust_6="14000.00000"></scales>
<clustering>
<clus scale="   52.621">  1  5  2 -1</clus>
<clus scale="   53.246">  2  4  1 -1</clus>
<clus scale="   74.348">  2  3  1 -1</clus>
<clus scale="   52.621">  1  3  2 -1</clus>
</clustering>
</event>
<event>
 6    0  0.8610502E+002  0.1691723E+03  0.7546771E-02  0.1178714E+00
         21   -1    0    0  502  501  0.00000000000E+00  0.00000000000E+00  0.47356290846E+02  0.47356290846E+02  0.00000000000E+00 0. -1.
         21   -1    0    0  506  502 -0.00000000000E+00 -0.00000000000E+00 -0.12343145389E+04  0.12343145389E+04  0.00000000000E+00 0. -1.
         21    1    1    2  503  501 -0.83821042319E+02 -0.63909402761E+02 -0.17286326875E+03  0.20246503051E+03  0.00000000000E+00 0. -1.
         21    1    1    2  504  505 -0.48278341830E+01  0.41918822832E+02 -0.12212531099E+03  0.12920947053E+03  0.00000000000E+00 0. -1.
         21    1    1    2  505  503  0.21653548577E+02 -0.10866589412E+03 -0.11661385789E+03  0.16086001543E+03  0.00000000000E+00 0. -1.
         21    1    1    2  506  504  0.66995327926E+02  0.13065647405E+03 -0.77535581041E+03  0.78913631326E+03  0.00000000000E+00 0. -1.
<scales pt_clust_3="105.40578" pt_clust_4="34.90497" pt_clust_5="156.13992" pt_clust_6="34.90497"></scales>
<clustering>
<clus scale="   34.905">  4  6 -1 -1</clus>
<clus scale="  105.406">  1  3  2 -1</clus>
<clus scale="  156.140">  1  5  2 -1</clus>
<clus scale="  105.406">  1  3  2 -1</clus>
</clustering>
</event>
<event>
 6    0  0.8610502E+002  0.1229858E+03  0.7546771E-02  0.1238251E+00
         21   -1    0    0  504  501  0.00000000000E+00  0.00000000000E+00  0.57365040106E+03  0.57365040106E+03  0.00000000000E+00 0.  1.
         21   -1    0    0  505  502 -0.00000000000E+00 -0.00000000000E+00 -0.14085024262E+03  0.14085024262E+03  0.00000000000E+00 0.  1.
         21    1    1    2  503  506  0.34036748582E+02 -0.56034676956E+02  0.35573526167E+02  0.74591293323E+02  0.00000000000E+00 0.  1.
         21    1    1    2  504  503  0.66252560580E+02 -0.88373323608E+02  0.29469742545E+03  0.31471545669E+03  0.00000000000E+00 0.  1.
         21    1    1    2  505  501 -0.55199065331E+02  0.16989860323E+03  0.16559348491E+03  0.24358504559E+03  0.00000000000E+00 0.  1.
         21    1    1    2  506  502 -0.45090243831E+02 -0.25490602666E+02 -0.63064278088E+02  0.81608848073E+02  0.00000000000E+00 0.  1.
<scales pt_clust_3="66.74832" pt_clust_4="14000.00000" pt_clust_5="122.98576" pt_clust_6="51.79673"></scales>
<clustering>
<clus scale="   51.797">  2  6  1 -1</clus>
<clus scale="   66.748">  2  3  1 -1</clus>
<clus scale="  122.986">  2  5  1 -1</clus>
<clus scale="  122.986">  1  3  2 -1</clus>
</clustering>
</event>
<event>
 6    0  0.8610502E+002  0.7092368E+02  0.7546771E-02  0.1356980E+00
         21   -1    0    0  503  501  0.00000000000E+00  0.00000000000E+00  0.10080042623E+04  0.10080042623E+04  0.00000000000E+00 0. -1.
         21   -1    0    0  504  502 -0.00000000000E+00 -0.00000000000E+00 -0.56192298727E+02  0.56192298727E+02  0.00000000000E+00 0. -1.
         21    1    1    2  503  506  0.49921267679E+02 -0.10224398103E+02  0.53394182556E+03  0.53636791885E+03  0.00000000000E+00 0. -1.
         21    1    1    2  504  501  0.13946157590E+02 -0.44329236619E+02 -0.25492523487E+02  0.53004200631E+02  0.00000000000E+00 0. -1.
         21    1    1    2  505  502 -0.61343603560E+02 -0.29911813203E+02  0.98995536814E+02  0.12024088562E+03  0.00000000000E+00 0. -1.
         21    1    1    2  506  505 -0.25238217093E+01  0.84465447926E+02  0.34436712471E+03  0.35458355595E+03  0.00000000000E+00 0. -1.
<scales pt_clust_3="52.65285" pt_clust_4="46.47124" pt_clust_5="70.92368" pt_clust_6="14000.00000"></scales>
<clustering>
<clus scale="   46.471">  2  4  1 -1</clus>
<clus scale="   52.653">  1  3  2 -1</clus>
<clus scale="   70.924">  2  5  1 -1</clus>
<clus scale="   52.653">  1  3  2 -1</clus>
</clustering>
</event>
<event>
 6    0  0.8610502E+002  0.2288744E+03  0.7546771E-02  0.1127434E+00
         21   -1    0    0  503  501  0.00000000000E+00  0.00000000000E+00  0.16938365554E+04  0.16938365554E+04  0.00000000000E+00 0. -1.
         21   -1    0    0  504  502 -0.00000000000E+00 -0.00000000000E+00 -0.42349331906E+03  0.42349331906E+03  0.00000000000E+00 0.  1.
         21    1    1    2  503  506 -0.36851321487E+02 -0.37642609962E+02  0.57632313899E+03  0.57872562282E+03  0.00000000000E+00 0.  1.
         21    1    1    2  504  501 -0.46569250908E+02  0.21029833087E+03 -0.38427277671E+03  0.44052201990E+03  0.00000000000E+00 0.  1.
         21    1    1    2  505  502 -0.31619671941E+01 -0.43850743783E+02  0.13153913399E+03  0.13869185101E+03  0.00000000000E+00 0. -1.
         21    1    1    2  506  505  0.86582539589E+02 -0.12880497712E+03  0.94675374007E+03  0.95939038073E+03  0.00000000000E+00 0. -1.
<scales pt_clust_3="52.67814" pt_clust_4="214.67052" pt_clust_5="42.24522" pt_clust_6="42.24522"></scales>
<clustering>
<clus scale="   42.245">  5  6 -1 -1</clus>
<clus scale="   52.678">  1  3  2 -1</clus>
<clus scale="  214.671">  2  4  1 -1</clus>
<clus scale="   52.678">  1  3  2 -1</clus>
</clustering>
</event>
<event>
 6    0  0.8610502E+002  0.7252397E+02  0.7546771E-02  0.1351715E+00
         21   -1    0    0  506  501  0.00000000000E+00  0.00000000000E+00  0.49244673941E+03  0.49244673941E+03  0.00000000000E+00 0.  1.
         21   -1    0    0  505  502 -0.00000000000E+00 -0.00000000000E+00 -0.56419429594E+02  0.56419429594E+02  0.00000000000E+00 0.  1.
         21    1    1    2  503  504 -0.56973958386E+01  0.48702979065E+02 -0.25849956703E+01  0.49103184131E+02  0.00000000000E+00 0.  1.
         21    1    1    2  504  501  0.58271879710E+01  0.46851404249E+02  0.73065959897E+02  0.86992210544E+02  0.00000000000E+00 0.  1.
         21    1    1    2  505  503 -0.49478018860E+02  0.69359554412E+01  0.29561835707E+02  0.58052424226E+02  0.00000000000E+00 0.  1.
         21    1    1    2  506  502  0.49348226727E+02 -0.10249033876E+03  0.33598450989E+03  0.35471835011E+03  0.00000000000E+00 0.  1.
<scales pt_clust_3="14000.00000" pt_clust_4="47.21239" pt_clust_5="50.29031" pt_clust_6="72.52397"></scales>
<clustering>
<clus scale="   47.212">  1  4  2 -1</clus>
<clus scale="   50.290">  2  5  1 -1</clus>
<clus scale="   72.524">  1  6  2 -1</clus>
<clus scale="   47.212">  1  3  2 -1</clus>
</clustering>
</event>
<event>
 6    0  0.8610502E+002  0.1306753E+03  0.7546771E-02  0.1226457E+00
         21   -1    0    0  504  501  0.00000000000E+00  0.00000000000E+00  0.12415242575E+04  0.12415242575E+04  0.00000000000E+00 0. -1.
         21   -1    0    0  503  502 -0.00000000000E+00 -0.00000000000E+00 -0.51698766458E+02  0.51698766458E+02  0.00000000000E+00 0.  1.
         21    1    1    2  503  505 -0.12197919043E+03  0.61582757829E+02  0.68074329840E+02  0.15266130271E+03  0.00000000000E+00 0.  1.
         21    1    1    2  504  506  0.63930283225E+01  0.33827668026E+02  0.13450264789E+03  0.13883855454E+03  0.00000000000E+00 0. -1.
         21    1    1    2  505  501  0.57250440774E+02 -0.81748609922E+02  0.76718724867E+03  0.77365155122E+03  0.00000000000E+00 0. -1.
         21    1    1    2  506  502  0.58335721338E+02 -0.13661815933E+02  0.22006126467E+03  0.22807161552E+03  0.00000000000E+00 0. -1.
<scales pt_clust_3="130.67531" pt_clust_4="34.42647" pt_clust_5="14000.00000" pt_clust_6="60.01887"></scales>
<clustering>
<clus scale="   34.426">  1  4  2 -1</clus>
<clus scale="   60.019">  1  6  2 -1</clus>
<clus scale="  130.675">  2  3  1 -1</clus>
<clus scale="   34.426">  1  3  2 -1</clus>
</clustering>
</event>
<event>
 6    0  0.8610502E+002  0.1279577E+03  0.7546771E-02  0.1230518E+00
         21   -1    0    0  504  501  0.00000000000E+00  0.00000000000E+00  0.46224688296E+03  0.46224688296E+03  0.00000000000E+00 0.  1.
         21   -1    0    0  503  502 -0.00000000000E+00 -0.00000000000E+00 -0.40718167835E+03  0.40718167835E+03  0.00000000000E+00 0.  1.
         21    1    1    2  503  505 -0.13866168507E+02 -0.31419871606E+02 -0.20461030488E+02  0.39976652304E+02  0.00000000000E+00 0. -1.
         21    1    1    2  504  506  0.62006091135E+02  0.11549799608E+03  0.43061631163E+03  0.45012770441E+03  0.00000000000E+00 0.  1.
         21    1    1    2  505  501 -0.53553147173E+02 -0.60688860834E+01 -0.17165276814E+03  0.17991510153E+03  0.00000000000E+00 0.  1.
         21    1    1    2  506  502  0.54132245446E+01 -0.78009238396E+02 -0.18343730840E+03  0.19940910307E+03  0.00000000000E+00 0.  1.
<scales pt_clust_3="34.34354" pt_clust_4="127.95766" pt_clust_5="63.49519" pt_clust_6="14000.00000"></scales>
<clustering>
<clus scale="   34.344">  2  3  1 -1</clus>
<clus scale="   63.495">  2  5  1 -1</clus>
<clus scale="  127.958">  1  4  2 -1</clus>
<clus scale="  127.958">  1  3  2 -1</clus>
</clustering>
</event>
<event>
 6    0  0.8610502E+002  0.8839627E+02  0.7546771E-02  0.1306782E+00
         21   -1    0    0  503  501  0.00000000000E+00  0.00000000000E+00  0.23278100413E+03  0.23278100413E+03  0.00000000000E+00 0. -1.
         21   -1    0    0  501  502 -0.00000000000E+00 -0.00000000000E+00 -0.41316050967E+03  0.41316050967E+03  0.00000000000E+00 0.  1.
         21    1    1    2  503  506 -0.81419528891E+02 -0.21896107928E+02  0.76961460679E+02  0.11415623354E+03  0.00000000000E+00 0. -1.
         21    1    1    2  504  505 -0.21984121622E+02  0.53499955416E+02  0.18277958411E+02  0.60659958760E+02  0.00000000000E+00 0. -1.
         21    1    1    2  505  502  0.10090304943E+02 -0.42524902528E+02 -0.34911666288E+03  0.35184176257E+03  0.00000000000E+00 0.  1.
         21    1    1    2  506  504  0.93313345570E+02  0.10921055039E+02  0.73497738245E+02  0.11928355893E+03  0.00000000000E+00 0. -1.
<scales pt_clust_3="14000.00000" pt_clust_4="43.30803" pt_clust_5="43.70562" pt_clust_6="88.39627"></scales>
<clustering>
<clus scale="   43.706">  2  5  1 -1</clus>
<clus scale="   43.308">  2  4  1 -1</clus>
<clus scale="   88.396">  2  6  1 -1</clus>
<clus scale="   88.396">  1  3  2 -1</clus>
</clustering>
</event>
<event>
 6    0  0.8610502E+002  0.2824851E+03  0.7546771E-02  0.1094339E+00
         21   -1    0    0  503  501  0.00000000000E+00  0.00000000000E+00  0.38915029938E+03  0.38915029938E+03  0.00000000000E+00 0.  1.
         21   -1    0    0  504  502 -0.00000000000E+00 -0.00000000000E+00 -0.44898960783E+03  0.44898960783E+03  0.00000000000E+00 0.  1.
         21    1    1    2  503  506 -0.20778458578E+02 -0.11423564396E+03  0.18371390059E+03  0.21732998864E+03  0.00000000000E+00 0.  1.
         21    1    1    2  504  505 -0.14774125224E+03  0.21424645847E+03 -0.16853139426E+03  0.31005137225E+03  0.00000000000E+00 0.  1.
         21    1    1    2  505  501 -0.47828668179E+02  0.11811865928E+02 -0.42488685262E+02  0.65056821716E+02  0.00000000000E+00 0. -1.
         21    1    1    2  506  502  0.21634837900E+03 -0.11182268044E+03 -0.32533129509E+02  0.24570172460E+03  0.00000000000E+00 0.  1.
<scales pt_clust_3="116.10998" pt_clust_4="35.94880" pt_clust_5="35.94880" pt_clust_6="270.13168"></scales>
<clustering>
<clus scale="   35.949">  4  5 -1 -1</clus>
<clus scale="  116.110">  1  3  2 -1</clus>
<clus scale="  270.132">  1  6  2 -1</clus>
<clus scale="  116.110">  1  3  2 -1</clus>
</clustering>
</event>
<event>
 6    0  0.8610502E+002  0.6383761E+02  0.7546771E-02  0.1382398E+00
         21   -1    0    0  505  501  0.00000000000E+00  0.00000000000E+00  0.58074940009E+03  0.58074940009E+03  0.00000000000E+00 0.  1.
         21   -1    0    0  503  502 -0.00000000000E+00 -0.00000000000E+00 -0.72976402928E+02  0.72976402928E+02  0.00000000000E+00 0.  1.
         21    1    1    2  503  506 -0.15727839101E+02  0.82486499357E+02  0.16120751776E+03  0.18176702474E+03  0.00000000000E+00 0.  1.
         21    1    1    2  504  502 -0.76837911879E+01 -0.61132956462E+02 -0.18583636925E+02  0.64355501507E+02  0.00000000000E+00 0.  1.
         21    1    1    2  505  504  0.40152751706E+00 -0.67502981459E+02  0.40157326924E+02  0.78545685024E+02  0.00000000000E+00 0.  1.
         21    1    1    2  506  501  0.23010102772E+02  0.46149438565E+02  0.32499178940E+03  0.32905759175E+03  0.00000000000E+00 0.  1.
<scales pt_clust_3="14000.00000" pt_clust_4="63.83761" pt_clust_5="57.00188" pt_clust_6="51.56778"></scales>
<clustering>
<clus scale="   51.568">  1  6  2 -1</clus>
<clus scale="   57.002">  1  5  2 -1</clus>
<clus scale="   63.838">  2  4  1 -1</clus>
<clus scale="   51.568">  1  3  2 -1</clus>
</clustering>
</event>
<event>
 6    0  0.8610502E+002  0.8210359E+02  0.7546771E-02  0.1323186E+00
         21   -1    0    0  504  501  0.00000000000E+00  0.00000000000E+00  0.17778357405E+03  0.17778357405E+03  0.00000000000E+00 0. -1.
         21   -1    0    0  503  502 -0.00000000000E+00 -0.00000000000E+00 -0.18957339136E+03  0.18957339136E+03  0.00000000000E+00 0. -1.
         21    1    1    2  503  506  0.29329679169E+02 -0.17791061883E+02 -0.19090710093E+02  0.39258211561E+02  0.00000000000E+00 0. -1.
         21    1    1    2  504  505 -0.46504675097E+02 -0.34348960060E+02 -0.12672716163E+01  0.57828555580E+02  0.00000000000E+00 0. -1.
         21    1    1    2  505  502 -0.65710681188E+02  0.14851353799E+01 -0.10309708555E+03  0.12226654611E+03  0.00000000000E+00 0. -1.
         21    1    1    2  506  501  0.82885677116E+02  0.50654886563E+02  0.11166524995E+03  0.14800365215E+03  0.00000000000E+00 0. -1.
<scales pt_clust_3="34.30382" pt_clust_4="14000.00000" pt_clust_5="46.43134" pt_clust_6="82.10359"></scales>
<clustering>
<clus scale="   34.304">  2  3  1 -1</clus>
<clus scale="   46.431">  2  5  1 -1</clus>
<clus scale="   82.104">  1  6  2 -1</clus>
<clus scale="   82.104">  1  3  2 -1</clus>
</clustering>
</event>
<event>
 6    0  0.8610502E+002  0.1155644E+03  0.7546771E-02  0.1250599E+00
         21   -1    0    0  504  501  0.00000000000E+00  0.00000000000E+00  0.35216646140E+03  0.35216646140E+03  0.00000000000E+00 0. -1.
         21   -1    0    0  505  502 -0.00000000000E+00 -0.00000000000E+00 -0.38995262161E+03  0.38995262161E+03  0.00000000000E+00 0.  1.
         21    1    1    2  503  501  0.84456921246E+02  0.36032981768E+02  0.28530986450E+03  0.29972164770E+03  0.00000000000E+00 0. -1.
         21    1    1    2  504  506 -0.60285801619E+02 -0.48038517850E+02 -0.53907435986E+01  0.77273133693E+02  0.00000000000E+00 0.  1.
         21    1    1    2  505  503  0.32064910457E+02  0.72169684470E+02 -0.23702717341E+03  0.24983695238E+03  0.00000000000E+00 0.  1.
         21    1    1    2  506  502 -0.56236030084E+02 -0.60164148387E+02 -0.80678107705E+02  0.11528734924E+03  0.00000000000E+00 0.  1.
<scales pt_clust_3="94.70262" pt_clust_4="64.07707" pt_clust_5="78.97229" pt_clust_6="64.07707"></scales>
<clustering>
<clus scale="   64.077">  4  6 -1 -1</clus>
<clus scale="   78.972">  2  5  1 -1</clus>
<clus scale="   94.703">  1  3  2 -1</clus>
<clus scale="   94.703">  1  3  2 -1</clus>
</clustering>
</event>
<event>
 6    0  0.8610502E+002  0.7755657E+02  0.7546771E-02  0.1336132E+00
         21   -1    0    0  506  501  0.00000000000E+00  0.00000000000E+00  0.10981784622E+03  0.10981784622E+03  0.00000000000E+00 0. -1.
         21   -1    0    0  505  502 -0.00000000000E+00 -0.00000000000E+00 -0.62228399470E+03  0.62228399470E+03  0.00000000000E+00 0. -1.
         21    1    1    2  503  502 -0.57563947126E+02  0.52019064217E+02 -0.52848846764E+03  0.53415320974E+03  0.00000000000E+00 0. -1.
         21    1    1    2  504  503  0.50637970808E+02 -0.17219066037E+02 -0.12214052269E+02  0.54862404209E+02  0.00000000000E+00 0. -1.
         21    1    1    2  505  501  0.29762957582E+02 -0.81104633143E+02  0.29923623546E+02  0.91428761379E+02  0.00000000000E+00 0. -1.
         21    1    1    2  506  504 -0.22836981264E+02  0.46304634962E+02 -0.16872521191E+01  0.51657465597E+02  0.00000000000E+00 0. -1.
<scales pt_clust_3="14000.00000" pt_clust_4="45.24287" pt_clust_5="77.55657" pt_clust_6="51.62990"></scales>
<clustering>
<clus scale="   51.630">  1  6  2 -1</clus>
<clus scale="   45.243">  1  4  2 -1</clus>
<clus scale="   77.557">  1  5  2 -1</clus>
<clus scale="   51.630">  1  3  2 -1</clus>
</clustering>
</event>
<event>
 6    0  0.8610502E+002  0.4704148E+03  0.7546771E-02  0.1021803E+00
         21   -1    0    0  505  501  0.00000000000E+00  0.00000000000E+00  0.12478166736E+04  0.12478166736E+04  0.00000000000E+00 0.  1.
         21   -1    0    0  504  502 -0.00000000000E+00 -0.00000000000E+00 -0.12996821019E+04  0.12996821019E+04  0.00000000000E+00 0.  1.
         21    1    1    2  503  501  0.25537509201E+03  0.22095311886E+03  0.23647942400E+03  0.41226112639E+03  0.00000000000E+00 0. -1.
         21    1    1    2  504  503  0.22185885080E+03  0.12100542821E+03 -0.10986497688E+04  0.11273397792E+04  0.00000000000E+00 0.  1.
         21    1    1    2  505  506 -0.13876023032E+03 -0.73255529765E+02  0.13961347769E+03  0.21003022952E+03  0.00000000000E+00 0. -1.
         21    1    1    2  506  502 -0.33847371248E+03 -0.26870301731E+03  0.67069143875E+03  0.79786764038E+03  0.00000000000E+00 0.  1.
<scales pt_clust_3="454.65806" pt_clust_4="252.71261" pt_clust_5="72.74831" pt_clust_6="72.74831"></scales>
<clustering>
<clus scale="   72.748">  5  6 -1 -1</clus>
<clus scale="  252.713">  2  4  1 -1</clus>
<clus scale="  454.658">  1  3  2 -1</clus>
<clus scale="  454.658">  1  3  2 -1</clus>
</clustering>
</event>
<event>
 6    0  0.8610502E+002  0.1167361E+03  0.7546771E-02  0.1248581E+00
         21   -1    0    0  502  501  0.00000000000E+00  0.00000000000E+00  0.16453680359E+03  0.16453680359E+03  0.00000000000E+00 0. -1.
         21   -1    0    0  506  502 -0.00000000000E+00 -0.00000000000E+00 -0.18289096375E+03  0.18289096375E+03  0.00000000000E+00 0. -1.
         21    1    1    2  503  501 -0.21301609154E+02 -0.65826275817E+02  0.71032754980E+02  0.99159010789E+02  0.00000000000E+00 0. -1.
         21    1    1    2  504  505  0.19414110016E+02  0.66941922992E+02 -0.46291432077E+02  0.83672130398E+02  0.00000000000E+00 0.  1.
         21    1    1    2  505  503 -0.56077282997E+02 -0.21538848253E+02  0.31593535773E+02  0.67872933892E+02  0.00000000000E+00 0. -1.
         21    1    1    2  506  504  0.57964782134E+02  0.20423201079E+02 -0.74689018840E+02  0.96723692265E+02  0.00000000000E+00 0. -1.
<scales pt_clust_3="57.04060" pt_clust_4="99.39799" pt_clust_5="57.04060" pt_clust_6="61.45749"></scales>
<clustering>
<clus scale="   57.041">  3  5 -1 -1</clus>
<clus scale="   61.457">  2  6  1 -1</clus>
<clus scale="   99.398">  2  4  1 -1</clus>
<clus scale="  116.736">  1  3  2 -1</clus>
</clustering>
</event>
<event>
 6    0  0.8610502E+002  0.1016190E+03  0.7546771E-02  0.1276928E+00
         21   -1    0    0  505  501  0.00000000000E+00  0.00000000000E+00  0.12256037848E+03  0.12256037848E+03  0.00000000000E+00 0.  1.
         21   -1    0    0  506  502 -0.00000000000E+00 -0.00000000000E+00 -0.51858736504E+03  0.51858736504E+03  0.00000000000E+00 0.  1.
         21    1    1    2  503  502 -0.51256379921E+02 -0.10992832520E+03 -0.29325357201E+03  0.31734698779E+03  0.00000000000E+00 0.  1.
         21    1    1    2  504  503 -0.29245881311E+02  0.86608166711E+02 -0.10930837934E+03  0.14249427325E+03  0.00000000000E+00 0.  1.
         21    1    1    2  505  504 -0.23726541310E+02  0.21593506502E+02  0.57062960361E+02  0.65463040953E+02  0.00000000000E+00 0.  1.
         21    1    1    2  506  501  0.10422880254E+03  0.17266519913E+01 -0.50527995572E+02  0.11584344152E+03  0.00000000000E+00 0.  1.
<scales pt_clust_3="14000.00000" pt_clust_4="101.61900" pt_clust_5="32.08159" pt_clust_6="92.53866"></scales>
<clustering>
<clus scale="   32.082">  1  5  2 -1</clus>
<clus scale="   92.539">  1  6  2 -1</clus>
<clus scale="  101.619">  1  4  2 -1</clus>
<clus scale="   32.082">  1  3  2 -1</clus>
</clustering>
</event>
<event>
 6    0  0.8610502E+002  0.1358656E+03  0.7546771E-02  0.1219003E+00
         21   -1    0    0  505  501  0.00000000000E+00  0.00000000000E+00  0.57504473017E+03  0.57504473017E+03  0.00000000000E+00 0. -1.
         21   -1    0    0  506  502 -0.00000000000E+00 -0.00000000000E+00 -0.21229992650E+03  0.21229992650E+03  0.00000000000E+00 0. -1.
         21    1    1    2  503  502 -0.46415165682E+02  0.41881190466E+02  0.28440200609E+02  0.68682215535E+02  0.00000000000E+00 0. -1.
         21    1    1    2  504  501  0.13443025786E+03 -0.15740202322E+03  0.17495724429E+03  0.27102938673E+03  0.00000000000E+00 0. -1.
         21    1    1    2  505  503 -0.51405222598E+02  0.52772334798E+02  0.28941933751E+03  0.29864857132E+03  0.00000000000E+00 0. -1.
         21    1    1    2  506  504 -0.36609869580E+02  0.62748497955E+02 -0.13007197873E+03  0.14898448308E+03  0.00000000000E+00 0. -1.
<scales pt_clust_3="62.51721" pt_clust_4="14000.00000" pt_clust_5="75.16912" pt_clust_6="135.86557"></scales>
<clustering>
<clus scale="   62.517">  2  3  1 -1</clus>
<clus scale="   75.169">  1  5  2 -1</clus>
<clus scale="  135.866">  2  6  1 -1</clus>
<clus scale="   75.169">  1  3  2 -1</clus>
</clustering>
</event>
<event>
 6    0  0.8610502E+002  0.1236602E+03  0.7546771E-02  0.1237178E+00
         21   -1    0    0  506  501  0.00000000000E+00  0.00000000000E+00  0.24846680850E+03  0.24846680850E+03  0.00000000000E+00 0. -1.
         21   -1    0    0  503  502 -0.00000000000E+00 -0.00000000000E+00 -0.14602584797E+03  0.14602584797E+03  0.00000000000E+00 0. -1.
         21    1    1    2  503  504 -0.37025113371E+02 -0.54407100178E+01 -0.26115697761E+02  0.45634307436E+02  0.00000000000E+00 0.  1.
         21    1    1    2  504  505  0.14485775617E+03 -0.13006103603E+02  0.13729721170E+01  0.14544694327E+03  0.00000000000E+00 0. -1.
         21    1    1    2  505  501 -0.12150572893E+03 -0.14174838473E+02  0.10794717078E+03  0.16314766284E+03  0.00000000000E+00 0. -1.
         21    1    1    2  506  502  0.13673086138E+02  0.32621652094E+02  0.19236515398E+02  0.40263742927E+02  0.00000000000E+00 0. -1.
<scales pt_clust_3="36.63242" pt_clust_4="14000.00000" pt_clust_5="123.66018" pt_clust_6="35.37125"></scales>
<clustering>
<clus scale="   35.371">  1  6  2 -1</clus>
<clus scale="   36.632">  2  3  1 -1</clus>
<clus scale="  123.660">  1  5  2 -1</clus>
<clus scale="   35.371">  1  3  2 -1</clus>
</clustering>
</event>
<event>
 6    0  0.8610502E+002  0.1519311E+03  0.7546771E-02  0.1198120E+00
         21   -1    0    0  506  501  0.00000000000E+00  0.00000000000E+00  0.44834441425E+02  0.44834441425E+02  0.00000000000E+00 0. -1.
         21   -1    0    0  504  502 -0.00000000000E+00 -0.00000000000E+00 -0.98572020274E+03  0.98572020274E+03  0.00000000000E+00 0. -1.
         21    1    1    2  503  501  0.24319622144E+02 -0.30176786190E+02 -0.11715856243E+02  0.40488809979E+02  0.00000000000E+00 0. -1.
         21    1    1    2  504  503  0.11786243044E+03 -0.67223919595E+01 -0.13172565262E+03  0.17688524704E+03  0.00000000000E+00 0. -1.
         21    1    1    2  505  502 -0.83877351507E+02  0.10818283380E+02 -0.59274041353E+03  0.59874338675E+03  0.00000000000E+00 0. -1.
         21    1    1    2  506  505 -0.58304701082E+02  0.26080894770E+02 -0.20470383892E+03  0.21443720039E+03  0.00000000000E+00 0. -1.
<scales pt_clust_3="38.75671" pt_clust_4="138.97846" pt_clust_5="51.85852" pt_clust_6="51.85852"></scales>
<clustering>
<clus scale="   38.757">  1  3  2 -1</clus>
<clus scale="   51.859">  5  6 -1 -1</clus>
<clus scale="  138.978">  1  4  2 -1</clus>
<clus scale="   38.757">  1  3  2 -1</clus>
</clustering>
</event>
<event>
 6    0  0.8610502E+002  0.1978399E+03  0.7546771E-02  0.1151574E+00
         21   -1    0    0  504  501  0.00000000000E+00  0.00000000000E+00  0.16693171740E+04  0.16693171740E+04  0.00000000000E+00 0. -1.
         21   -1    0    0  503  502 -0.00000000000E+00 -0.00000000000E+00 -0.16595248074E+03  0.16595248074E+03  0.00000000000E+00 0.  1.
         21    1    1    2  503  505  0.27605606048E+02  0.52612301663E+02 -0.52444134598E+02  0.79249675238E+02  0.00000000000E+00 0.  1.
         21    1    1    2  504  502 -0.13572123043E+03  0.10609803493E+03 -0.14693982568E+02  0.17289580252E+03  0.00000000000E+00 0.  1.
         21    1    1    2  505  506  0.40823971206E+02 -0.39354201654E+02  0.30508478707E+03  0.31030964715E+03  0.00000000000E+00 0.  1.
         21    1    1    2  506  501  0.67291653177E+02 -0.11935613493E+03  0.12654180234E+04  0.12728145298E+04  0.00000000000E+00 0. -1.
<scales pt_clust_3="59.41484" pt_clust_4="190.30371" pt_clust_5="34.79282" pt_clust_6="34.79282"></scales>
<clustering>
<clus scale="   34.793">  5  6 -1 -1</clus>
<clus scale="   59.415">  2  3  1 -1</clus>
<clus scale="  190.304">  2  4  1 -1</clus>
<clus scale="  197.840">  1  3  2 -1</clus>
</clustering>
</event>
<event>
 6    0  0.8610502E+002  0.1417895E+03  0.7546771E-02  0.1210941E+00
         21   -1    0    0  502  501  0.00000000000E+00  0.00000000000E+00  0.12360611505E+03  0.12360611505E+03  0.00000000000E+00 0.  1.
         21   -1    0    0  504  502 -0.00000000000E+00 -0.00000000000E+00 -0.52751612917E+03  0.52751612917E+03  0.00000000000E+00 0. -1.
         21    1    1    2  503  501  0.94535659800E+01  0.55030923249E+02  0.77849463484E+02  0.95803504050E+02  0.00000000000E+00 0.  1.
         21    1    1    2  504  506 -0.46328702839E+02 -0.53417292419E+02 -0.14779384513E+03  0.16383765286E+03  0.00000000000E+00 0. -1.
         21    1    1    2  505  503  0.11973274440E+03  0.19154872123E+01 -0.17290871087E+03  0.21032598857E+03  0.00000000000E+00 0.  1.
         21    1    1    2  506  505 -0.82857607544E+02 -0.35291180424E+01 -0.16105692161E+03  0.18115509874E+03  0.00000000000E+00 0. -1.
<scales pt_clust_3="55.83702" pt_clust_4="52.58513" pt_clust_5="128.08226" pt_clust_6="52.58513"></scales>
<clustering>
<clus scale="   55.837">  1  3  2 -1</clus>
<clus scale="   52.585">  4  6 -1 -1</clus>
<clus scale="  128.082">  1  5  2 -1</clus>
<clus scale="   55.837">  1  3  2 -1</clus>
</clustering>
</event>
<event>
 6    0  0.8610502E+002  0.1287900E+03  0.7546771E-02  0.1229262E+00
         21   -1    0    0  504  501  0.00000000000E+00  0.00000000000E+00  0.54156722133E+03  0.54156722133E+03  0.00000000000E+00 0.  1.
         21   -1    0    0  503  502 -0.00000000000E+00 -0.00000000000E+00 -0.62349017823E+02  0.62349017823E+02  0.00000000000E+00 0.  1.
         21    1    1    2  503  506 -0.99563651847E+02 -0.38710304030E+02  0.10354098418E+03  0.14876875953E+03  0.00000000000E+00 0.  1.
         21    1    1    2  504  502 -0.12054619708E+02 -0.65736854281E+02  0.23522897900E+03  0.24453899572E+03  0.00000000000E+00 0.  1.
         21    1    1    2  505  501  0.62609159670E+02  0.40385944219E+02  0.83293660166E+02  0.11175314398E+03  0.00000000000E+00 0.  1.
         21    1    1    2  506  505  0.49009111885E+02  0.64061214091E+02  0.57154580168E+02  0.98855339931E+02  0.00000000000E+00 0.  1.
<scales pt_clust_3="123.79208" pt_clust_4="66.83298" pt_clust_5="34.14775" pt_clust_6="34.14775"></scales>
<clustering>
<clus scale="   34.148">  5  6 -1 -1</clus>
<clus scale="   66.833">  1  4  2 -1</clus>
<clus scale="  123.792">  2  3  1 -1</clus>
<clus scale="   66.833">  1  3  2 -1</clus>
</clustering>
</event>
<event>
 6    0  0.8610502E+002  0.9930831E+02  0.7546771E-02  0.1281757E+00
         21   -1    0    0  506  501  0.00000000000E+00  0.00000000000E+00  0.20633053572E+03  0.20633053572E+03  0.00000000000E+00 0. -1.
         21   -1    0    0  505  502 -0.00000000000E+00 -0.00000000000E+00 -0.54577518678E+03  0.54577518678E+03  0.00000000000E+00 0. -1.
         21    1    1    2  503  504  0.75447793707E+01  0.12292481202E+03 -0.14717206120E+03  0.19190374854E+03  0.00000000000E+00 0. -1.
         21    1    1    2  504  501  0.14397301883E+02 -0.12254300964E+03  0.12991803836E+03  0.17917245381E+03  0.00000000000E+00 0. -1.
         21    1    1    2  505  503  0.46446367714E+01 -0.32943963286E+02 -0.33533778764E+03  0.33698413788E+03  0.00000000000E+00 0. -1.
         21    1    1    2  506  502 -0.26586718026E+02  0.32562160906E+02  0.13147159414E+02  0.44045382265E+02  0.00000000000E+00 0.  1.
<scales pt_clust_3="14000.00000" pt_clust_4="99.30831" pt_clust_5="33.26977" pt_clust_6="39.96039"></scales>
<clustering>
<clus scale="   33.270">  2  5  1 -1</clus>
<clus scale="   39.960">  1  6  2 -1</clus>
<clus scale="   99.308">  1  4  2 -1</clus>
<clus scale="   39.960">  1  3  2 -1</clus>
</clustering>
</event>
<event>
 6    0  0.8610502E+002  0.7194522E+02  0.7546771E-02  0.1353600E+00
         21   -1    0    0  505  501  0.00000000000E+00  0.00000000000E+00  0.13709964912E+04  0.13709964912E+04  0.00000000000E+00 0.  1.
         21   -1    0    0  506  502 -0.00000000000E+00 -0.00000000000E+00 -0.30217058064E+02  0.30217058064E+02  0.00000000000E+00 0.  1.
         21    1    1    2  503  504  0.31645154930E+02 -0.52433406420E+02  0.15911419853E+03  0.17049341956E+03  0.00000000000E+00 0.  1.
         21    1    1    2  504  502  0.41305484305E+02 -0.49296331139E+02  0.60534422462E+02  0.88321501347E+02  0.00000000000E+00 0.  1.
         21    1    1    2  505  503 -0.10989880435E+02  0.31336709656E+02  0.91871116609E+03  0.91931114076E+03  0.00000000000E+00 0.  1.
         21    1    1    2  506  501 -0.61960758800E+02  0.70393027903E+02  0.20241964601E+03  0.22308748755E+03  0.00000000000E+00 0.  1.
<scales pt_clust_3="49.45161" pt_clust_4="71.94522" pt_clust_5="33.20793" pt_clust_6="14000.00000"></scales>
<clustering>
<clus scale="   33.208">  1  5  2 -1</clus>
<clus scale="   49.452">  1  3  2 -1</clus>
<clus scale="   71.945">  2  4  1 -1</clus>
<clus scale="   33.208">  1  3  2 -1</clus>
</clustering>
</event>
<event>
 6    0  0.8610502E+002  0.1659683E+03  0.7546771E-02  0.1182119E+00
         21   -1    0    0  504  501  0.00000000000E+00  0.00000000000E+00  0.37095668248E+02  0.37095668248E+02  0.00000000000E+00 0.  1.
         21   -1    0    0  506  502 -0.00000000000E+00 -0.00000000000E+00 -0.12640329130E+04  0.12640329130E+04  0.00000000000E+00 0. -1.
         21    1    1    2  503  501 -0.34058341995E+02  0.60729562149E+02 -0.32099530981E+03  0.32846010305E+03  0.00000000000E+00 0. -1.
         21    1    1    2  504  502 -0.60717004976E+02 -0.13726055686E+03 -0.20066206688E+03  0.25058387867E+03  0.00000000000E+00 0.  1.
         21    1    1    2  505  503  0.40154011211E+02  0.88483349016E+02 -0.49829585449E+03  0.50768140233E+03  0.00000000000E+00 0. -1.
         21    1    1    2  506  505  0.54621335760E+02 -0.11952354305E+02 -0.20698401353E+03  0.21440319715E+03  0.00000000000E+00 0.  1.
<scales pt_clust_3="56.06780" pt_clust_4="148.16384" pt_clust_5="56.06780" pt_clust_6="55.91376"></scales>
<clustering>
<clus scale="   55.914">  2  6  1 -1</clus>
<clus scale="   56.068">  3  5 -1 -1</clus>
<clus scale="  148.164">  1  4  2 -1</clus>
<clus scale="  148.164">  1  3  2 -1</clus>
</clustering>
</event>
<event>
 6    0  0.8777114E+002  0.1534708E+03  0.7546771E-02  0.1196272E+00
         21   -1    0    0  503  501  0.00000000000E+00  0.00000000000E+00  0.70606315608E+03  0.70606315608E+03  0.00000000000E+00 0. -1.
         21   -1    0    0  506  502 -0.00000000000E+00 -0.00000000000E+00 -0.62233541167E+03  0.62233541167E+03  0.00000000000E+00 0. -1.
         21    1    1    2  503  504 -0.15563299324E+03  0.47345276357E+02  0.65072761199E+03  0.67075303114E+03  0.00000000000E+00 0. -1.
         21    1    1    2  504  505  0.81922122753E+02 -0.27430196170E+02 -0.47444315501E+02  0.98562736020E+02  0.00000000000E+00 0.  1.
         21    1    1    2  505  502  0.10239781116E+03  0.39893573941E+01 -0.51046726446E+03  0.52065156755E+03  0.00000000000E+00 0. -1.
         21    1    1    2  506  501 -0.28686940672E+02 -0.23904437581E+02 -0.90882876179E+01  0.38431233040E+02  0.00000000000E+00 0.  1.
<scales pt_clust_3="14000.00000" pt_clust_4="153.47083" pt_clust_5="79.44308" pt_clust_6="37.34117"></scales>
<clustering>
<clus scale="   37.341">  2  6  1 -1</clus>
<clus scale="   79.443">  2  5  1 -1</clus>
<clus scale="  153.471">  2  4  1 -1</clus>
<clus scale="  153.471">  1  3  2 -1</clus>
</clustering>
</event>
<event>
 6    0  0.8610502E+002  0.1215894E+03  0.7546771E-02  0.1240498E+00
         21   -1    0    0  505  501  0.00000000000E+00  0.00000000000E+00  0.39094579593E+03  0.39094579593E+03  0.00000000000E+00 0. -1.
         21   -1    0    0  503  502 -0.00000000000E+00 -0.00000000000E+00 -0.18341328452E+03  0.18341328452E+03  0.00000000000E+00 0. -1.
         21    1    1    2  503  506  0.58022543760E+02 -0.11150787472E+03  0.12355132440E+03  0.17625422398E+03  0.00000000000E+00 0. -1.
         21    1    1    2  504  502 -0.35269302145E+01  0.12279820597E+03 -0.99357568300E+02  0.15799925634E+03  0.00000000000E+00 0. -1.
         21    1    1    2  505  504 -0.56888414235E+02 -0.47663879607E+02  0.26061968880E+02  0.78659794783E+02  0.00000000000E+00 0. -1.
         21    1    1    2  506  501  0.23928006900E+01  0.36373548357E+02  0.15727678643E+03  0.16144580534E+03  0.00000000000E+00 0.  1.
<scales pt_clust_3="121.58941" pt_clust_4="14000.00000" pt_clust_5="68.77888" pt_clust_6="36.45217"></scales>
<clustering>
<clus scale="   36.452">  1  6  2 -1</clus>
<clus scale="   68.779">  1  5  2 -1</clus>
<clus scale="  121.589">  1  3  2 -1</clus>
<clus scale="   36.452">  1  3  2 -1</clus>
</clustering>
</event>
<event>
 6    0  0.8610502E+002  0.1322517E+03  0.7546771E-02  0.1224152E+00
         21   -1    0    0  504  501  0.00000000000E+00  0.00000000000E+00  0.22860387994E+04  0.22860387994E+04  0.00000000000E+00 0.  1.
         21   -1    0    0  506  502 -0.00000000000E+00 -0.00000000000E+00 -0.16426969362E+03  0.16426969362E+03  0.00000000000E+00 0. -1.
         21    1    1    2  503  501 -0.49536996690E+02 -0.62704223583E+01  0.38663403048E+03  0.38984497657E+03  0.00000000000E+00 0.  1.
         21    1    1    2  504  502  0.74249217143E+01 -0.43306078361E+02  0.59610274124E+03  0.59771985411E+03  0.00000000000E+00 0. -1.
         21    1    1    2  505  503 -0.70130152810E+02  0.35081376949E+01  0.12770499505E+04  0.12789789371E+04  0.00000000000E+00 0.  1.
         21    1    1    2  506  505  0.11224222779E+03  0.46068363024E+02 -0.13801761649E+03  0.18376472521E+03  0.00000000000E+00 0. -1.
<scales pt_clust_3="44.68934" pt_clust_4="43.93798" pt_clust_5="44.68934" pt_clust_6="121.20027"></scales>
<clustering>
<clus scale="   43.938">  1  4  2 -1</clus>
<clus scale="   44.689">  3  5 -1 -1</clus>
<clus scale="  121.200">  2  6  1 -1</clus>
<clus scale="   43.938">  1  3  2 -1</clus>
</clustering>
</event>
<event>
 6    0  0.8610502E+002  0.9032243E+02  0.7546771E-02  0.1302073E+00
         21   -1    0    0  503  501  0.00000000000E+00  0.00000000000E+00  0.43977664251E+02  0.43977664251E+02  0.00000000000E+00 0. -1.
         21   -1    0    0  505  502 -0.00000000000E+00 -0.00000000000E+00 -0.75705002486E+03  0.75705002486E+03  0.00000000000E+00 0. -1.
         21    1    1    2  503  502  0.50747654754E+02 -0.74251547414E-01 -0.15535317011E+03  0.16343175162E+03  0.00000000000E+00 0. -1.
         21    1    1    2  504  506  0.52201901958E+01  0.85502994615E+02 -0.12019934337E+03  0.14760045603E+03  0.00000000000E+00 0. -1.
         21    1    1    2  505  504 -0.94128451178E+02 -0.76678091805E+02 -0.43402874004E+03  0.45068907494E+03  0.00000000000E+00 0. -1.
         21    1    1    2  506  501  0.38160606228E+02 -0.87506512625E+01 -0.34911070941E+01  0.39306406526E+02  0.00000000000E+00 0. -1.
<scales pt_clust_3="56.67831" pt_clust_4="14000.00000" pt_clust_5="90.32243" pt_clust_6="39.15106"></scales>
<clustering>
<clus scale="   39.151">  1  6  2 -1</clus>
<clus scale="   56.678">  2  3  1 -1</clus>
<clus scale="   90.322">  2  5  1 -1</clus>
<clus scale="   39.151">  1  3  2 -1</clus>
</clustering>
</event>
<event>
 6    0  0.8610502E+002  0.1476620E+03  0.7546771E-02  0.1203376E+00
         21   -1    0    0  503  501  0.00000000000E+00  0.00000000000E+00  0.21485574276E+03  0.21485574276E+03  0.00000000000E+00 0.  1.
         21   -1    0    0  506  502 -0.00000000000E+00 -0.00000000000E+00 -0.39071824419E+03  0.39071824419E+03  0.00000000000E+00 0.  1.
         21    1    1    2  503  505 -0.45731320499E+02 -0.33549867614E+02  0.10840944294E+03  0.12235013122E+03  0.00000000000E+00 0. -1.
         21    1    1    2  504  501  0.98528886483E+02  0.78650555338E+02 -0.14656915807E+03  0.19332969101E+03  0.00000000000E+00 0. -1.
         21    1    1    2  505  502 -0.77348753653E+02 -0.26940028385E+02  0.52479060192E+02  0.97276135715E+02  0.00000000000E+00 0.  1.
         21    1    1    2  506  504  0.24551187669E+02 -0.18160659339E+02 -0.19018184649E+03  0.19261802900E+03  0.00000000000E+00 0.  1.
<scales pt_clust_3="49.97501" pt_clust_4="135.13407" pt_clust_5="49.97501" pt_clust_6="30.53802"></scales>
<clustering>
<clus scale="   30.538">  2  6  1 -1</clus>
<clus scale="   49.975">  3  5 -1 -1</clus>
<clus scale="  135.134">  2  4  1 -1</clus>
<clus scale="  147.662">  1  3  2 -1</clus>
</clustering>
</event>
<event>
 6    0  0.8610502E+002  0.2143083E+03  0.7546771E-02  0.1138199E+00
         21   -1    0    0  503  501  0.00000000000E+00  0.00000000000E+00  0.32052507737E+04  0.32052507737E+04  0.00000000000E+00 0.  1.
         21   -1    0    0  504  502 -0.00000000000E+00 -0.00000000000E+00 -0.19969372062E+02  0.19969372062E+02  0.00000000000E+00 0.  1.
         21    1    1    2  503  506  0.21440894007E+02 -0.17213058960E+03  0.14115317197E+04  0.14221499385E+04  0.00000000000E+00 0.  1.
         21    1    1    2  504  501 -0.59900477787E+02  0.18547185692E+03  0.14930686558E+04  0.15057363274E+04  0.00000000000E+00 0.  1.
         21    1    1    2  505  502  0.16954333803E+02  0.31035304338E+02  0.48796691391E+02  0.60264057620E+02  0.00000000000E+00 0.  1.
         21    1    1    2  506  505  0.21505249977E+02 -0.44376571656E+02  0.23188433482E+03  0.23706982225E+03  0.00000000000E+00 0.  1.
<scales pt_clust_3="31.42711" pt_clust_4="206.04343" pt_clust_5="35.36438" pt_clust_6="31.42711"></scales>
<clustering>
<clus scale="   31.427">  3  6 -1 -1</clus>
<clus scale="   35.364">  2  5  1 -1</clus>
<clus scale="  206.043">  1  4  2 -1</clus>
<clus scale="  206.043">  1  3  2 -1</clus>
</clustering>
</event>
<event>
 6    0  0.8610502E+002  0.2078236E+03  0.7546771E-02  0.1143301E+00
         21   -1    0    0  506  501  0.00000000000E+00  0.00000000000E+00  0.48785505222E+03  0.48785505222E+03  0.00000000000E+00 0. -1.
         21   -1    0    0  503  502 -0.00000000000E+00 -0.00000000000E+00 -0.21985452725E+03  0.21985452725E+03  0.00000000000E+00 0.  1.
         21    1    1    2  503  501  0.68579781621E+02 -0.22589543268E+03  0.43652384870E+02  0.24007803660E+03  0.00000000000E+00 0.  1.
         21    1    1    2  504  505  0.62276102444E+02  0.40436394904E+02  0.44187348854E+02  0.86405652403E+02  0.00000000000E+00 0.  1.
         21    1    1    2  505  502 -0.12843847391E+03  0.14827708411E+03 -0.11023347426E+01  0.19617275650E+03  0.00000000000E+00 0.  1.
         21    1    1    2  506  504 -0.24174101573E+01  0.37181953668E+02  0.18126312599E+03  0.18505313397E+03  0.00000000000E+00 0. -1.
<scales pt_clust_3="207.82356" pt_clust_4="78.46688" pt_clust_5="14000.00000" pt_clust_6="37.26046"></scales>
<clustering>
<clus scale="   37.260">  1  6  2 -1</clus>
<clus scale="   78.467">  1  4  2 -1</clus>
<clus scale="  207.824">  1  3  2 -1</clus>
<clus scale="   37.260">  1  3  2 -1</clus>
</clustering>
</event>
<event>
 6    0  0.8610502E+002  0.2202046E+03  0.7546771E-02  0.1133731E+00
         21   -1    0    0  504  501  0.00000000000E+00  0.00000000000E+00  0.36740295204E+03  0.36740295204E+03  0.00000000000E+00 0. -1.
         21   -1    0    0  505  502 -0.00000000000E+00 -0.00000000000E+00 -0.40593636942E+03  0.40593636942E+03  0.00000000000E+00 0. -1.
         21    1    1    2  503  502  0.64942686295E+02  0.14141147321E+00 -0.11617570212E+03  0.13309532773E+03  0.00000000000E+00 0. -1.
         21    1    1    2  504  503 -0.20288967764E+03  0.14100852176E+03 -0.59164065290E+02  0.25406300621E+03  0.00000000000E+00 0. -1.
         21    1    1    2  505  506 -0.30686340235E+02 -0.11445401591E+02 -0.77544037974E+02  0.84176757599E+02  0.00000000000E+00 0.  1.
         21    1    1    2  506  501  0.16863333158E+03 -0.12970453164E+03  0.21435038801E+03  0.30200422991E+03  0.00000000000E+00 0. -1.
<scales pt_clust_3="53.34672" pt_clust_4="220.20459" pt_clust_5="32.75132" pt_clust_6="14000.00000"></scales>
<clustering>
<clus scale="   32.751">  2  5  1 -1</clus>
<clus scale="   53.347">  2  3  1 -1</clus>
<clus scale="  220.205">  2  4  1 -1</clus>
<clus scale="  220.205">  1  3  2 -1</clus>
</clustering>
</event>
<event>
 6    0  0.8610502E+002  0.1041735E+03  0.7546771E-02  0.1271757E+00
         21   -1    0    0  506  501  0.00000000000E+00  0.00000000000E+00  0.13776027011E+03  0.13776027011E+03  0.00000000000E+00 0.  1.
         21   -1    0    0  503  502 -0.00000000000E+00 -0.00000000000E+00 -0.81392820693E+03  0.81392820693E+03  0.00000000000E+00 0.  1.
         21    1    1    2  503  504  0.35734723877E+02 -0.40654478087E+01 -0.38371281844E+02  0.52591383580E+02  0.00000000000E+00 0.  1.
         21    1    1    2  504  501  0.41656893108E+02 -0.48273536630E+02  0.10438593940E+03  0.12231948098E+03  0.00000000000E+00 0.  1.
         21    1    1    2  505  502 -0.84028653721E+02  0.12704247898E+03 -0.54242517991E+03  0.56340543298E+03  0.00000000000E+00 0.  1.
         21    1    1    2  506  505  0.66370367358E+01 -0.74703494540E+02 -0.19975741446E+03  0.21337217950E+03  0.00000000000E+00 0.  1.
<scales pt_clust_3="35.96524" pt_clust_4="64.07127" pt_clust_5="104.17345" pt_clust_6="14000.00000"></scales>
<clustering>
<clus scale="   35.965">  2  3  1 -1</clus>
<clus scale="   64.071">  1  4  2 -1</clus>
<clus scale="  104.173">  2  5  1 -1</clus>
<clus scale="   64.071">  1  3  2 -1</clus>
</clustering>
</event>
<event>
 6    0  0.8610502E+002  0.1164462E+03  0.7546771E-02  0.1249078E+00
         21   -1    0    0  506  501  0.00000000000E+00  0.00000000000E+00  0.27669458795E+03  0.27669458795E+03  0.00000000000E+00 0. -1.
         21   -1    0    0  505  502 -0.00000000000E+00 -0.00000000000E+00 -0.19710222009E+03  0.19710222009E+03  0.00000000000E+00 0.  1.
         21    1    1    2  503  504 -0.47467061113E+02 -0.26271917394E+02  0.68782033598E+02  0.87603103142E+02  0.00000000000E+00 0. -1.
         21    1    1    2  504  502 -0.48579541343E+02  0.13892495320E+02  0.33572072499E+02  0.60663475957E+02  0.00000000000E+00 0. -1.
         21    1    1    2  505  501  0.97353923238E+02  0.48987088323E+02 -0.15434451841E+03  0.18894377882E+03  0.00000000000E+00 0.  1.
         21    1    1    2  506  503 -0.13073207824E+01 -0.36607666249E+02  0.13158278017E+03  0.13658645011E+03  0.00000000000E+00 0. -1.
<scales pt_clust_3="39.51482" pt_clust_4="39.51482" pt_clust_5="106.91729" pt_clust_6="36.63100"></scales>
<clustering>
<clus scale="   36.631">  1  6  2 -1</clus>
<clus scale="   39.515">  3  4 -1 -1</clus>
<clus scale="  106.917">  2  5  1 -1</clus>
<clus scale="   36.631">  1  3  2 -1</clus>
</clustering>
</event>
<event>
 6    0  0.8610502E+002  0.1209847E+03  0.7546771E-02  0.1241481E+00
         21   -1    0    0  503  501  0.00000000000E+00  0.00000000000E+00  0.43111535424E+03  0.43111535424E+03  0.00000000000E+00 0. -1.
         21   -1    0    0  506  502 -0.00000000000E+00 -0.00000000000E+00 -0.14672477415E+03  0.14672477415E+03  0.00000000000E+00 0. -1.
         21    1    1    2  503  504 -0.11155121967E+03  0.36524808834E+01  0.29995812297E+03  0.32004982544E+03  0.00000000000E+00 0. -1.
         21    1    1    2  504  502 -0.32334863498E+02  0.78876312122E+02 -0.22218336831E+02  0.88094667846E+02  0.00000000000E+00 0. -1.
         21    1    1    2  505  501  0.81492753252E+02 -0.26824759549E+02  0.66866149550E+01  0.86054328055E+02  0.00000000000E+00 0. -1.
         21    1    1    2  506  505  0.62393329919E+02 -0.55704033456E+02 -0.35820997911E-01  0.83641307049E+02  0.00000000000E+00 0. -1.
<scales pt_clust_3="115.75462" pt_clust_4="85.24679" pt_clust_5="34.74333" pt_clust_6="34.74333"></scales>
<clustering>
<clus scale="   34.743">  5  6 -1 -1</clus>
<clus scale="   85.247">  2  4  1 -1</clus>
<clus scale="  115.755">  1  3  2 -1</clus>
<clus scale="  115.755">  1  3  2 -1</clus>
</clustering>
</event>
<event>
 6    0  0.8610502E+002  0.1054737E+03  0.7546771E-02  0.1269189E+00
         21   -1    0    0  505  501  0.00000000000E+00  0.00000000000E+00  0.74046541796E+02  0.74046541796E+02  0.00000000000E+00 0.  1.
         21   -1    0    0  504  502 -0.00000000000E+00 -0.00000000000E+00 -0.87933837054E+03  0.87933837054E+03  0.00000000000E+00 0. -1.
         21    1    1    2  503  506 -0.90817197301E+02  0.29919242100E+02 -0.49011116205E+02  0.10744772629E+03  0.00000000000E+00 0.  1.
         21    1    1    2  504  501  0.51791410612E+02  0.31969192502E+02 -0.93826157880E+01  0.61582570273E+02  0.00000000000E+00 0.  1.
         21    1    1    2  505  503 -0.40874588601E+02 -0.21646801641E+02 -0.17440568552E+02  0.49431664407E+02  0.00000000000E+00 0.  1.
         21    1    1    2  506  502  0.79900375290E+02 -0.40241632961E+02 -0.72945752820E+03  0.73492295136E+03  0.00000000000E+00 0. -1.
<scales pt_clust_3="36.69816" pt_clust_4="60.86361" pt_clust_5="36.69816" pt_clust_6="91.32663"></scales>
<clustering>
<clus scale="   36.698">  3  5 -1 -1</clus>
<clus scale="   60.864">  1  4  2 -1</clus>
<clus scale="   91.327">  2  6  1 -1</clus>
<clus scale="   60.864">  1  3  2 -1</clus>
</clustering>
</event>
<event>
 6    0  0.8610502E+002  0.1651396E+03  0.7546771E-02  0.1183013E+00
         21   -1    0    0  504  501  0.00000000000E+00  0.00000000000E+00  0.99679394779E+03  0.99679394779E+03  0.00000000000E+00 0.  1.
         21   -1    0    0  506  502 -0.00000000000E+00 -0.00000000000E+00 -0.18388749510E+03  0.18388749510E+03  0.00000000000E+00 0. -1.
         21    1    1    2  503  502  0.22409560364E+02  0.63309762526E+02  0.19741369461E+03  0.20852453392E+03  0.00000000000E+00 0.  1.
         21    1    1    2  504  503  0.56880572530E+02  0.33995228224E+02  0.39209255322E+03  0.39765266925E+03  0.00000000000E+00 0.  1.
         21    1    1    2  505  501  0.72181777583E+01  0.29469118768E+02  0.36465669538E+03  0.36591670710E+03  0.00000000000E+00 0.  1.
         21    1    1    2  506  505 -0.86508310653E+02 -0.12677410952E+03 -0.14125649051E+03  0.20858753263E+03  0.00000000000E+00 0. -1.
<scales pt_clust_3="63.07249" pt_clust_4="63.07249" pt_clust_5="30.34025" pt_clust_6="151.96407"></scales>
<clustering>
<clus scale="   30.340">  1  5  2 -1</clus>
<clus scale="   63.072">  3  4 -1 -1</clus>
<clus scale="  151.964">  2  6  1 -1</clus>
<clus scale="   30.340">  1  3  2 -1</clus>
</clustering>
</event>
<event>
 6    0  0.8610502E+002  0.1315275E+03  0.7546771E-02  0.1225207E+00
         21   -1    0    0  506  501  0.00000000000E+00  0.00000000000E+00  0.58896489876E+03  0.58896489876E+03  0.00000000000E+00 0. -1.
         21   -1    0    0  505  502 -0.00000000000E+00 -0.00000000000E+00 -0.45508107973E+03  0.45508107973E+03  0.00000000000E+00 0. -1.
         21    1    1    2  503  502  0.11865601602E+03 -0.57337133840E+02 -0.37946340223E+03  0.40169549498E+03  0.00000000000E+00 0. -1.
         21    1    1    2  504  501  0.86709826076E+02 -0.62121462429E+02  0.79902749777E+02  0.13327460169E+03  0.00000000000E+00 0. -1.
         21    1    1    2  505  504 -0.13441973577E+03  0.93869182722E+01  0.24476629356E+03  0.27940529355E+03  0.00000000000E+00 0. -1.
         21    1    1    2  506  503 -0.70946106318E+02  0.11007167800E+03  0.18867817793E+03  0.22967058829E+03  0.00000000000E+00 0. -1.
<scales pt_clust_3="131.52755" pt_clust_4="106.66616" pt_clust_5="14000.00000" pt_clust_6="89.57212"></scales>
<clustering>
<clus scale="  106.666">  1  4  2 -1</clus>
<clus scale="   89.572">  1  6  2 -1</clus>
<clus scale="  131.528">  2  3  1 -1</clus>
<clus scale="  106.666">  1  3  2 -1</clus>
</clustering>
</event>
<event>
 6    0  0.8610502E+002  0.8127497E+02  0.7546771E-02  0.1325472E+00
         21   -1    0    0  503  501  0.00000000000E+00  0.00000000000E+00  0.62841046491E+03  0.62841046491E+03  0.00000000000E+00 0.  1.
         21   -1    0    0  506  502 -0.00000000000E+00 -0.00000000000E+00 -0.71711999675E+03  0.71711999675E+03  0.00000000000E+00 0.  1.
         21    1    1    2  503  505  0.76773629234E+02 -0.26497596461E+02  0.60043034198E+03  0.60589843071E+03  0.00000000000E+00 0.  1.
         21    1    1    2  504  502 -0.66000732795E+02 -0.39681226413E+02 -0.22642099000E+03  0.23915927992E+03  0.00000000000E+00 0.  1.
         21    1    1    2  505  504 -0.74821311246E+02  0.58113386349E+02 -0.39778237114E+03  0.40890855834E+03  0.00000000000E+00 0.  1.
         21    1    1    2  506  501  0.64048414806E+02  0.80654365241E+01 -0.64936512687E+02  0.91564192704E+02  0.00000000000E+00 0.  1.
<scales pt_clust_3="81.27497" pt_clust_4="56.30385" pt_clust_5="14000.00000" pt_clust_6="64.55425"></scales>
<clustering>
<clus scale="   64.554">  2  6  1 -1</clus>
<clus scale="   56.304">  2  4  1 -1</clus>
<clus scale="   81.275">  1  3  2 -1</clus>
<clus scale="   81.275">  1  3  2 -1</clus>
</clustering>
</event>
<event>
 6    0  0.8610502E+002  0.1423240E+03  0.7546771E-02  0.1210236E+00
         21   -1    0    0  504  501  0.00000000000E+00  0.00000000000E+00  0.12348051132E+03  0.12348051132E+03  0.00000000000E+00 0.  1.
         21   -1    0    0  505  502 -0.00000000000E+00 -0.00000000000E+00 -0.31112577665E+03  0.31112577665E+03  0.00000000000E+00 0.  1.
         21    1    1    2  503  501 -0.46808023919E+00 -0.67327802659E+02  0.18481723028E+02  0.69819955572E+02  0.00000000000E+00 0. -1.
         21    1    1    2  504  502  0.44257206504E+02 -0.97160254325E+02 -0.12045012428E+03  0.16095666431E+03  0.00000000000E+00 0.  1.
         21    1    1    2  505  506  0.26497432023E+01  0.75191166105E+02 -0.60318459501E+01  0.75479240622E+02  0.00000000000E+00 0.  1.
         21    1    1    2  506  503 -0.46438869467E+02  0.89296890878E+02 -0.79645018134E+02  0.12835042747E+03  0.00000000000E+00 0.  1.
<scales pt_clust_3="67.32943" pt_clust_4="122.57210" pt_clust_5="62.53924" pt_clust_6="62.53924"></scales>
<clustering>
<clus scale="   62.539">  5  6 -1 -1</clus>
<clus scale="   67.329">  1  3  2 -1</clus>
<clus scale="  122.572">  2  4  1 -1</clus>
<clus scale="   67.329">  1  3  2 -1</clus>
</clustering>
</event>
<event>
 6    0  0.8610502E+002  0.2859783E+03  0.7546771E-02  0.1092468E+00
         21   -1    0    0  505  501  0.00000000000E+00  0.00000000000E+00  0.56679293179E+03  0.56679293179E+03  0.00000000000E+00 0.  1.
         21   -1    0    0  504  502 -0.00000000000E+00 -0.00000000000E+00 -0.88443583195E+03  0.88443583195E+03  0.00000000000E+00 0.  1.
         21    1    1    2  503  501 -0.10905063445E+03  0.12982514229E+03  0.47150763839E+03  0.50106492744E+03  0.00000000000E+00 0.  1.
         21    1    1    2  504  506  0.86088472464E+02 -0.11796577672E+03 -0.55861597095E+03  0.57738977526E+03  0.00000000000E+00 0.  1.
         21    1    1    2  505  502 -0.29402284613E+02  0.10496991756E+03  0.74094844375E-01  0.10901001524E+03  0.00000000000E+00 0. -1.
         21    1    1    2  506  503  0.52364446601E+02 -0.11682928313E+03 -0.23060866244E+03  0.26376404580E+03  0.00000000000E+00 0. -1.
<scales pt_clust_3="267.24009" pt_clust_4="95.33026" pt_clust_5="109.00999" pt_clust_6="95.33026"></scales>
<clustering>
<clus scale="   95.330">  4  6 -1 -1</clus>
<clus scale="  109.010">  1  5  2 -1</clus>
<clus scale="  267.240">  1  3  2 -1</clus>
<clus scale="  109.010">  1  3  2 -1</clus>
</clustering>
</event>
<event>
 6    0  0.1956616E+003  0.1063247E+03  0.7546771E-02  0.1267531E+00
         21   -1    0    0  504  501  0.00000000000E+00  0.00000000000E+00  0.34183935823E+03  0.34183935823E+03  0.00000000000E+00 0. -1.
         21   -1    0    0  503  502 -0.00000000000E+00 -0.00000000000E+00 -0.46054975210E+03  0.46054975210E+03  0.00000000000E+00 0. -1.
         21    1    1    2  503  501 -0.45354660093E+02  0.65589124791E+02  0.28109977187E+03  0.29219182094E+03  0.00000000000E+00 0. -1.
         21    1    1    2  504  506 -0.19339183389E+02  0.25559155783E+02  0.63542730414E+01  0.32674932967E+02  0.00000000000E+00 0.  1.
         21    1    1    2  505  502  0.29630527703E+02 -0.10285447098E+03 -0.42341124166E+03  0.43673114147E+03  0.00000000000E+00 0. -1.
         21    1    1    2  506  505  0.35063315779E+02  0.11706190402E+02  0.17246802874E+02  0.40791214943E+02  0.00000000000E+00 0. -1.
<scales pt_clust_3="106.32473" pt_clust_4="32.05112" pt_clust_5="14000.00000" pt_clust_6="36.14655"></scales>
<clustering>
<clus scale="   32.051">  1  4  2 -1</clus>
<clus scale="   36.147">  1  6  2 -1</clus>
<clus scale="  106.325">  1  3  2 -1</clus>
<clus scale="   32.051">  1  3  2 -1</clus>
</clustering>
</event>
<event>
 6    0  0.8610502E+002  0.9745472E+02  0.7546771E-02  0.1285741E+00
         21   -1    0    0  504  501  0.00000000000E+00  0.00000000000E+00  0.52628956733E+03  0.52628956733E+03  0.00000000000E+00 0. -1.
         21   -1    0    0  506  502 -0.00000000000E+00 -0.00000000000E+00 -0.62524114171E+03  0.62524114171E+03  0.00000000000E+00 0.  1.
         21    1    1    2  503  501 -0.52900848608E+02 -0.91318394140E+01  0.46604394834E+02  0.71090504938E+02  0.00000000000E+00 0. -1.
         21    1    1    2  504  505 -0.81400206278E+01 -0.98160454136E+02  0.43637815786E+03  0.44735626893E+03  0.00000000000E+00 0. -1.
         21    1    1    2  505  502  0.18453903104E+02  0.82328641816E+02 -0.48394467186E+02  0.97265493661E+02  0.00000000000E+00 0.  1.
         21    1    1    2  506  503  0.42586966132E+02  0.24963651735E+02 -0.53353965989E+03  0.53581844151E+03  0.00000000000E+00 0.  1.
<scales pt_clust_3="47.49375" pt_clust_4="97.45472" pt_clust_5="14000.00000" pt_clust_6="49.36429"></scales>
<clustering>
<clus scale="   49.364">  2  6  1 -1</clus>
<clus scale="   47.494">  2  3  1 -1</clus>
<clus scale="   97.455">  1  4  2 -1</clus>
<clus scale="   97.455">  1  3  2 -1</clus>
</clustering>
</event>
<event>
 6    0  0.8610502E+002  0.1968431E+03  0.7546771E-02  0.1152430E+00
         21   -1    0    0  506  501  0.00000000000E+00  0.00000000000E+00  0.78095682560E+03  0.78095682560E+03  0.00000000000E+00 0. -1.
         21   -1    0    0  503  502 -0.00000000000E+00 -0.00000000000E+00 -0.36770139846E+03  0.36770139846E+03  0.00000000000E+00 0. -1.
         21    1    1    2  503  505  0.21877990597E+03 -0.79007679294E+01 -0.12712219321E+03  0.25315434304E+03  0.00000000000E+00 0. -1.
         21    1    1    2  504  501 -0.13327146767E+03  0.63947877039E+02  0.50775808870E+03  0.52883730175E+03  0.00000000000E+00 0. -1.
         21    1    1    2  505  504 -0.15372853639E+03 -0.13219020582E+03 -0.76903729647E+02  0.21684302398E+03  0.00000000000E+00 0. -1.
         21    1    1    2  506  502  0.68220098088E+02  0.76143096707E+02  0.10952326129E+03  0.14982355530E+03  0.00000000000E+00 0. -1.
<scales pt_clust_3="196.84313" pt_clust_4="147.47566" pt_clust_5="14000.00000" pt_clust_6="102.23382"></scales>
<clustering>
<clus scale="  102.234">  1  6  2 -1</clus>
<clus scale="  147.476">  1  4  2 -1</clus>
<clus scale="  196.843">  2  3  1 -1</clus>
<clus scale="  102.234">  1  3  2 -1</clus>
</clustering>
</event>
<event>
 6    0  0.8610502E+002  0.8698729E+02  0.7546771E-02  0.1310316E+00
         21   -1    0    0  506  501  0.00000000000E+00  0.00000000000E+00  0.29918757514E+04  0.29918757514E+04  0.00000000000E+00 0.  1.
         21   -1    0    0  504  502 -0.00000000000E+00 -0.00000000000E+00 -0.14014956484E+02  0.14014956484E+02  0.00000000000E+00 0.  1.
         21    1    1    2  503  505  0.48558385639E+02  0.11199313624E+03  0.17422320609E+04  0.17465030586E+04  0.00000000000E+00 0.  1.
         21    1    1    2  504  503 -0.21663060238E+02 -0.80667403319E+02  0.16813115348E+03  0.18773545991E+03  0.00000000000E+00 0.  1.
         21    1    1    2  505  501  0.30204490806E+02 -0.12469308057E+02  0.47066043826E+03  0.47179343261E+03  0.00000000000E+00 0.  1.
         21    1    1    2  506  502 -0.57099816207E+02 -0.18856424862E+02  0.59683714219E+03  0.59985875677E+03  0.00000000000E+00 0.  1.
<scales pt_clust_3="86.98729" pt_clust_4="14000.00000" pt_clust_5="32.67713" pt_clust_6="54.48808"></scales>
<clustering>
<clus scale="   32.677">  1  5  2 -1</clus>
<clus scale="   54.488">  1  6  2 -1</clus>
<clus scale="   86.987">  1  3  2 -1</clus>
<clus scale="   32.677">  1  3  2 -1</clus>
</clustering>
</event>
<event>
 6    0  0.8610502E+002  0.8808460E+02  0.7546771E-02  0.1307558E+00
         21   -1    0    0  505  501  0.00000000000E+00  0.00000000000E+00  0.45518136169E+03  0.45518136169E+03  0.00000000000E+00 0. -1.
         21   -1    0    0  506  502 -0.00000000000E+00 -0.00000000000E+00 -0.88334565103E+02  0.88334565103E+02  0.00000000000E+00 0. -1.
         21    1    1    2  503  504  0.21085782917E+02  0.58193448325E+02  0.32876074399E+02  0.70085119227E+02  0.00000000000E+00 0. -1.
         21    1    1    2  504  502 -0.87864510900E+02 -0.37904148754E+01  0.55920111472E+02  0.10421899245E+03  0.00000000000E+00 0. -1.
         21    1    1    2  505  503 -0.21341519233E+02 -0.57244500337E+02  0.27424094135E+03  0.28096349794E+03  0.00000000000E+00 0. -1.
         21    1    1    2  506  501  0.88120247216E+02  0.28414668873E+01  0.38096693659E+01  0.88248317175E+02  0.00000000000E+00 0. -1.
<scales pt_clust_3="44.18575" pt_clust_4="88.08460" pt_clust_5="61.09332" pt_clust_6="14000.00000"></scales>
<clustering>
<clus scale="   61.093">  1  5  2 -1</clus>
<clus scale="   44.186">  1  3  2 -1</clus>
<clus scale="   88.085">  1  4  2 -1</clus>
<clus scale="   61.093">  1  3  2 -1</clus>
</clustering>
</event>
<event>
 6    0  0.8610502E+002  0.8737637E+02  0.7546771E-02  0.1309333E+00
         21   -1    0    0  504  501  0.00000000000E+00  0.00000000000E+00  0.14277295933E+03  0.14277295933E+03  0.00000000000E+00 0.  1.
         21   -1    0    0  506  502 -0.00000000000E+00 -0.00000000000E+00 -0.31227416391E+03  0.31227416391E+03  0.00000000000E+00 0.  1.
         21    1    1    2  503  505  0.48521157301E+02 -0.26691612969E+02 -0.88114946585E+02  0.10407203621E+03  0.00000000000E+00 0.  1.
         21    1    1    2  504  503 -0.63341359651E+02  0.75296715065E+02  0.89244694567E+02  0.13283952217E+03  0.00000000000E+00 0.  1.
         21    1    1    2  505  502  0.19470983012E+02  0.24278980694E+02 -0.13179445598E+03  0.13541922578E+03  0.00000000000E+00 0.  1.
         21    1    1    2  506  501 -0.46507806626E+01 -0.72884082790E+02 -0.38836496578E+02  0.82716339083E+02  0.00000000000E+00 0.  1.
<scales pt_clust_3="60.54821" pt_clust_4="87.37637" pt_clust_5="31.12215" pt_clust_6="14000.00000"></scales>
<clustering>
<clus scale="   31.122">  2  5  1 -1</clus>
<clus scale="   60.548">  2  3  1 -1</clus>
<clus scale="   87.376">  1  4  2 -1</clus>
<clus scale="   87.376">  1  3  2 -1</clus>
</clustering>
</event>
<event>
 6    0  0.8610502E+002  0.1077331E+03  0.7546771E-02  0.1264826E+00
         21   -1    0    0  506  501  0.00000000000E+00  0.00000000000E+00  0.64134449043E+03  0.64134449043E+03  0.00000000000E+00 0.  1.
         21   -1    0    0  501  502 -0.00000000000E+00 -0.00000000000E+00 -0.11930094397E+03  0.11930094397E+03  0.00000000000E+00 0. -1.
         21    1    1    2  503  502 -0.77041073495E+02  0.22045777130E+02  0.24669697815E+01  0.80171249425E+02  0.00000000000E+00 0. -1.
         21    1    1    2  504  503 -0.17000306996E+02 -0.87362922567E+02 -0.36546752826E+02  0.96213075097E+02  0.00000000000E+00 0. -1.
         21    1    1    2  505  504  0.72945517930E+02  0.95761071687E+02  0.26834830826E+03  0.29411230165E+03  0.00000000000E+00 0.  1.
         21    1    1    2  506  505  0.21095862561E+02 -0.30443926250E+02  0.28777502125E+03  0.29014880823E+03  0.00000000000E+00 0.  1.
<scales pt_clust_3="76.82232" pt_clust_4="107.73310" pt_clust_5="14000.00000" pt_clust_6="37.03874"></scales>
<clustering>
<clus scale="   37.039">  1  6  2 -1</clus>
<clus scale="   76.822">  2  3  1 -1</clus>
<clus scale="  107.733">  2  4  1 -1</clus>
<clus scale="   37.039">  1  3  2 -1</clus>
</clustering>
</event>
<event>
 6    0  0.8610502E+002  0.1638373E+03  0.7546771E-02  0.1184431E+00
         21   -1    0    0  503  501  0.00000000000E+00  0.00000000000E+00  0.38238334602E+02  0.38238334602E+02  0.00000000000E+00 0.  1.
         21   -1    0    0  504  502 -0.00000000000E+00 -0.00000000000E+00 -0.83824040325E+03  0.83824040325E+03  0.00000000000E+00 0.  1.
         21    1    1    2  503  506 -0.12350045391E+03  0.50129423308E+02 -0.45739489577E+03  0.47641936555E+03  0.00000000000E+00 0.  1.
         21    1    1    2  504  505  0.34168710930E+02 -0.30847133884E+02 -0.26462298466E+02  0.53097078221E+02  0.00000000000E+00 0.  1.
         21    1    1    2  505  501  0.93982618677E+02 -0.49156177584E+02 -0.19366223852E+03  0.22080336283E+03  0.00000000000E+00 0.  1.
         21    1    1    2  506  502 -0.46508756951E+01  0.29873888160E+02 -0.12248263589E+03  0.12615893125E+03  0.00000000000E+00 0.  1.
<scales pt_clust_3="30.19473" pt_clust_4="40.30752" pt_clust_5="162.99276" pt_clust_6="30.19473"></scales>
<clustering>
<clus scale="   30.195">  3  6 -1 -1</clus>
<clus scale="   40.308">  4  5 -1 -1</clus>
<clus scale="  162.993">  1  4  2 -1</clus>
<clus scale="  162.993">  1  3  2 -1</clus>
</clustering>
</event>
<event>
 6    0  0.8610502E+002  0.1151595E+03  0.7546771E-02  0.1251303E+00
         21   -1    0    0  502  501  0.00000000000E+00  0.00000000000E+00  0.16903389211E+03  0.16903389211E+03  0.00000000000E+00 0. -1.
         21   -1    0    0  503  502 -0.00000000000E+00 -0.00000000000E+00 -0.11098771023E+03  0.11098771023E+03  0.00000000000E+00 0. -1.
         21    1    1    2  503  504 -0.27391460628E+02  0.21766339664E+02 -0.19292410492E+02  0.39953257193E+02  0.00000000000E+00 0. -1.
         21    1    1    2  504  506  0.20940059213E+02 -0.65607886463E+02 -0.72610734822E+01  0.69250299884E+02  0.00000000000E+00 0. -1.
         21    1    1    2  505  501 -0.74793500439E+01  0.94582082961E+02  0.45260981173E+02  0.10512025262E+03  0.00000000000E+00 0. -1.
         21    1    1    2  506  505  0.13930751459E+02 -0.50740536163E+02  0.39338684673E+02  0.65697792642E+02  0.00000000000E+00 0. -1.
<scales pt_clust_3="34.98665" pt_clust_4="45.72297" pt_clust_5="104.07991" pt_clust_6="45.72297"></scales>
<clustering>
<clus scale="   34.987">  2  3  1 -1</clus>
<clus scale="   45.723">  4  6 -1 -1</clus>
<clus scale="  104.080">  1  5  2 -1</clus>
<clus scale="  104.080">  1  3  2 -1</clus>
</clustering>
</event>
<event>
 6    0  0.8610502E+002  0.1020992E+03  0.7546771E-02  0.1275943E+00
         21   -1    0    0  503  501  0.00000000000E+00  0.00000000000E+00  0.22960850112E+03  0.22960850112E+03  0.00000000000E+00 0.  1.
         21   -1    0    0  506  502 -0.00000000000E+00 -0.00000000000E+00 -0.85189285148E+02  0.85189285148E+02  0.00000000000E+00 0.  1.
         21    1    1    2  503  504 -0.43276977570E+02  0.37015633370E+02  0.51519707049E+02  0.76794102090E+02  0.00000000000E+00 0. -1.
         21    1    1    2  504  502 -0.30116018499E+02  0.55286475942E+02  0.44546244363E+01  0.63114282625E+02  0.00000000000E+00 0.  1.
         21    1    1    2  505  501 -0.17663961004E+01 -0.73238537329E+02  0.45771507674E+02  0.86383067902E+02  0.00000000000E+00 0.  1.
         21    1    1    2  506  505  0.75159392170E+02 -0.19063571984E+02  0.42673376813E+02  0.88506333653E+02  0.00000000000E+00 0.  1.
<scales pt_clust_3="47.88589" pt_clust_4="47.88589" pt_clust_5="73.25984" pt_clust_6="88.82128"></scales>
<clustering>
<clus scale="   47.886">  3  4 -1 -1</clus>
<clus scale="   73.260">  1  5  2 -1</clus>
<clus scale="   88.821">  2  6  1 -1</clus>
<clus scale="   73.260">  1  3  2 -1</clus>
</clustering>
</event>
<event>
 6    0  0.8610502E+002  0.9499905E+02  0.7546771E-02  0.1291178E+00
         21   -1    0    0  504  501  0.00000000000E+00  0.00000000000E+00  0.15834223674E+03  0.15834223674E+03  0.00000000000E+00 0. -1.
         21   -1    0    0  505  502 -0.00000000000E+00 -0.00000000000E+00 -0.67632693387E+03  0.67632693387E+03  0.00000000000E+00 0. -1.
         21    1    1    2  503  506 -0.11877979112E+03  0.49686781224E+02 -0.76848890118E+02  0.14994387923E+03  0.00000000000E+00 0. -1.
         21    1    1    2  504  503  0.38951406596E+02  0.49389646198E+01  0.11305162022E+03  0.11967570464E+03  0.00000000000E+00 0. -1.
         21    1    1    2  505  501  0.59902103675E+02 -0.19264519747E+02 -0.42508688143E+03  0.42971879236E+03  0.00000000000E+00 0. -1.
         21    1    1    2  506  502  0.19926280848E+02 -0.35361226097E+02 -0.12910054581E+03  0.13533079438E+03  0.00000000000E+00 0. -1.
<scales pt_clust_3="94.99905" pt_clust_4="39.26328" pt_clust_5="14000.00000" pt_clust_6="41.77601"></scales>
<clustering>
<clus scale="   39.263">  1  4  2 -1</clus>
<clus scale="   41.776">  2  6  1 -1</clus>
<clus scale="   94.999">  1  3  2 -1</clus>
<clus scale="   39.263">  1  3  2 -1</clus>
</clustering>
</event>
<event>
 6    0  0.8610502E+002  0.7798560E+02  0.7546771E-02  0.1334867E+00
         21   -1    0    0  506  501  0.00000000000E+00  0.00000000000E+00  0.16326318405E+04  0.16326318405E+04  0.00000000000E+00 0. -1.
         21   -1    0    0  504  502 -0.00000000000E+00 -0.00000000000E+00 -0.29866781661E+03  0.29866781661E+03  0.00000000000E+00 0.  1.
         21    1    1    2  503  502  0.10099276398E+02  0.34390244178E+02 -0.28750891556E+03  0.28973446603E+03  0.00000000000E+00 0.  1.
         21    1    1    2  504  505  0.97967714831E+00  0.63536354263E+02  0.56412179060E+03  0.56768937167E+03  0.00000000000E+00 0. -1.
         21    1    1    2  505  501  0.55642083717E+02 -0.10695623618E+02  0.63346897009E+03  0.63599793546E+03  0.00000000000E+00 0. -1.
         21    1    1    2  506  503 -0.66721037263E+02 -0.87230974823E+02  0.42388217879E+03  0.43787788398E+03  0.00000000000E+00 0. -1.
<scales pt_clust_3="35.84249" pt_clust_4="77.98560" pt_clust_5="57.26829" pt_clust_6="14000.00000"></scales>
<clustering>
<clus scale="   35.842">  2  3  1 -1</clus>
<clus scale="   57.268">  1  5  2 -1</clus>
<clus scale="   77.986">  1  4  2 -1</clus>
<clus scale="   57.268">  1  3  2 -1</clus>
</clustering>
</event>
<event>
 6    0  0.8610502E+002  0.1207046E+03  0.7546771E-02  0.1241939E+00
         21   -1    0    0  502  501  0.00000000000E+00  0.00000000000E+00  0.65257013311E+03  0.65257013311E+03  0.00000000000E+00 0.  1.
         21   -1    0    0  504  502 -0.00000000000E+00 -0.00000000000E+00 -0.37676052294E+03  0.37676052294E+03  0.00000000000E+00 0. -1.
         21    1    1    2  503  506 -0.36823372904E+02  0.22186592907E+02  0.38753126990E+02  0.57879275637E+02  0.00000000000E+00 0.  1.
         21    1    1    2  504  505 -0.10837473390E+03 -0.53939477120E+02 -0.34564555106E+03  0.36623134370E+03  0.00000000000E+00 0. -1.
         21    1    1    2  505  503  0.11844980120E+03  0.44992965533E+01  0.35312444743E+03  0.37248822054E+03  0.00000000000E+00 0.  1.
         21    1    1    2  506  501  0.26748305599E+02  0.27253587660E+02  0.22957758681E+03  0.23273181617E+03  0.00000000000E+00 0.  1.
<scales pt_clust_3="42.19206" pt_clust_4="14000.00000" pt_clust_5="120.70457" pt_clust_6="38.18678"></scales>
<clustering>
<clus scale="   38.187">  1  6  2 -1</clus>
<clus scale="   42.192">  1  3  2 -1</clus>
<clus scale="  120.705">  1  5  2 -1</clus>
<clus scale="   38.187">  1  3  2 -1</clus>
</clustering>
</event>
<event>
 6    0  0.8610502E+002  0.1381537E+03  0.7546771E-02  0.1215835E+00
         21   -1    0    0  503  501  0.00000000000E+00  0.00000000000E+00  0.66624691293E+03  0.66624691293E+03  0.00000000000E+00 0. -1.
         21   -1    0    0  506  502 -0.00000000000E+00 -0.00000000000E+00 -0.58978685129E+02  0.58978685129E+02  0.00000000000E+00 0. -1.
         21    1    1    2  503  505  0.31447908327E+02  0.49121618644E+02  0.89374940604E+02  0.10672293270E+03  0.00000000000E+00 0. -1.
         21    1    1    2  504  501 -0.10129141991E+03 -0.10988742161E+03  0.48475926127E+03  0.50727382996E+03  0.00000000000E+00 0. -1.
         21    1    1    2  505  502  0.19073492512E+02  0.44639740223E+02  0.31627620683E+02  0.57937991973E+02  0.00000000000E+00 0. -1.
         21    1    1    2  506  504  0.50770019068E+02  0.16126062748E+02  0.15064052417E+01  0.53290843423E+02  0.00000000000E+00 0. -1.
<scales pt_clust_3="30.64011" pt_clust_4="134.00915" pt_clust_5="30.64011" pt_clust_6="53.26955"></scales>
<clustering>
<clus scale="   30.640">  3  5 -1 -1</clus>
<clus scale="   53.270">  2  6  1 -1</clus>
<clus scale="  134.009">  1  4  2 -1</clus>
<clus scale="  134.009">  1  3  2 -1</clus>
</clustering>
</event>
<event>
 6    0  0.8610502E+002  0.1494451E+03  0.7546771E-02  0.1201157E+00
         21   -1    0    0  504  501  0.00000000000E+00  0.00000000000E+00  0.82141402227E+02  0.82141402227E+02  0.00000000000E+00 0.  1.
         21   -1    0    0  505  502 -0.00000000000E+00 -0.00000000000E+00 -0.93221238222E+03  0.93221238222E+03  0.00000000000E+00 0.  1.
         21    1    1    2  503  502 -0.29535944321E+02  0.59337402537E+02 -0.36649591421E+03  0.37244134368E+03  0.00000000000E+00 0.  1.
         21    1    1    2  504  503 -0.14934932959E+02  0.10244439485E+03 -0.39707569674E+03  0.41034986926E+03  0.00000000000E+00 0.  1.
         21    1    1    2  505  506  0.40240651728E+02 -0.19655829768E+02 -0.76974903110E+02  0.89055024587E+02  0.00000000000E+00 0.  1.
         21    1    1    2  506  501  0.42302255513E+01 -0.14212596762E+03 -0.95244659347E+01  0.14250754693E+03  0.00000000000E+00 0.  1.
<scales pt_clust_3="31.69908" pt_clust_4="31.69908" pt_clust_5="44.78461" pt_clust_6="144.09848"></scales>
<clustering>
<clus scale="   31.699">  3  4 -1 -1</clus>
<clus scale="   44.785">  2  5  1 -1</clus>
<clus scale="  144.098">  1  6  2 -1</clus>
<clus scale="  144.098">  1  3  2 -1</clus>
</clustering>
</event>
<event>
 6    0  0.8610502E+002  0.1670726E+03  0.7546771E-02  0.1180935E+00
         21   -1    0    0  503  501  0.00000000000E+00  0.00000000000E+00  0.35854231956E+03  0.35854231956E+03  0.00000000000E+00 0. -1.
         21   -1    0    0  504  502 -0.00000000000E+00 -0.00000000000E+00 -0.97518603586E+03  0.97518603586E+03  0.00000000000E+00 0.  1.
         21    1    1    2  503  506 -0.12387307723E+03  0.45722803472E+02  0.23104678557E+03  0.26611601068E+03  0.00000000000E+00 0. -1.
         21    1    1    2  504  501 -0.10802785173E+01 -0.16576659121E+03  0.25761795595E+02  0.16775994717E+03  0.00000000000E+00 0. -1.
         21    1    1    2  505  502  0.31982652611E+02 -0.26431593978E+02 -0.13168864850E+03  0.13807034212E+03  0.00000000000E+00 0.  1.
         21    1    1    2  506  505  0.92970703133E+02  0.14647538172E+03 -0.74176364896E+03  0.76178205545E+03  0.00000000000E+00 0.  1.
<scales pt_clust_3="131.22533" pt_clust_4="167.07263" pt_clust_5="41.49119" pt_clust_6="14000.00000"></scales>
<clustering>
<clus scale="   41.491">  2  5  1 -1</clus>
<clus scale="  131.225">  1  3  2 -1</clus>
<clus scale="  167.073">  1  4  2 -1</clus>
<clus scale="  131.225">  1  3  2 -1</clus>
</clustering>
</event>
<event>
 6    0  0.8610502E+002  0.9386288E+02  0.7546771E-02  0.1293758E+00
         21   -1    0    0  505  501  0.00000000000E+00  0.00000000000E+00  0.37614260586E+03  0.37614260586E+03  0.00000000000E+00 0. -1.
         21   -1    0    0  503  502 -0.00000000000E+00 -0.00000000000E+00 -0.15438716642E+03  0.15438716642E+03  0.00000000000E+00 0. -1.
         21    1    1    2  503  506 -0.35543821818E+02  0.26155348685E+02  0.16347597742E+02  0.47060700018E+02  0.00000000000E+00 0. -1.
         21    1    1    2  504  502  0.20130829307E+01  0.66853342392E+02 -0.11078367593E+03  0.12940805518E+03  0.00000000000E+00 0. -1.
         21    1    1    2  505  504 -0.46078198065E+02 -0.19387727545E+02  0.11785259724E+03  0.12801686995E+03  0.00000000000E+00 0.  1.
         21    1    1    2  506  501  0.79608936952E+02 -0.73620963532E+02  0.19833892039E+03  0.22604414713E+03  0.00000000000E+00 0. -1.
<scales pt_clust_3="44.13010" pt_clust_4="14000.00000" pt_clust_5="50.83650" pt_clust_6="93.86288"></scales>
<clustering>
<clus scale="   44.130">  2  3  1 -1</clus>
<clus scale="   50.837">  1  5  2 -1</clus>
<clus scale="   93.863">  1  6  2 -1</clus>
<clus scale="   50.837">  1  3  2 -1</clus>
</clustering>
</event>
<event>
 6    0  0.8610502E+002  0.8172501E+02  0.7546771E-02  0.1324226E+00
         21   -1    0    0  504  501  0.00000000000E+00  0.00000000000E+00  0.23670681177E+03  0.23670681177E+03  0.00000000000E+00 0. -1.
         21   -1    0    0  506  502 -0.00000000000E+00 -0.00000000000E+00 -0.19068882519E+03  0.19068882519E+03  0.00000000000E+00 0. -1.
         21    1    1    2  503  505 -0.35805218156E+02  0.57274266228E+02  0.73991092238E+02  0.10018501360E+03  0.00000000000E+00 0. -1.
         21    1    1    2  504  502 -0.37507911592E+02  0.66646455228E+01  0.10298480656E+02  0.39462889349E+02  0.00000000000E+00 0. -1.
         21    1    1    2  505  501  0.33284130922E+02 -0.94638726787E+02  0.99338651201E+02  0.14118246917E+03  0.00000000000E+00 0. -1.
         21    1    1    2  506  503  0.40028998827E+02  0.30699815036E+02 -0.13761023751E+03  0.14656526484E+03  0.00000000000E+00 0. -1.
<scales pt_clust_3="14000.00000" pt_clust_4="38.09542" pt_clust_5="81.72501" pt_clust_6="49.90616"></scales>
<clustering>
<clus scale="   38.095">  1  4  2 -1</clus>
<clus scale="   49.906">  2  6  1 -1</clus>
<clus scale="   81.725">  1  5  2 -1</clus>
<clus scale="   38.095">  1  3  2 -1</clus>
</clustering>
</event>
<event>
 6    0  0.8610502E+002  0.9923042E+02  0.7546771E-02  0.1281923E+00
         21   -1    0    0  504  501  0.00000000000E+00  0.00000000000E+00  0.59074412480E+03  0.59074412480E+03  0.00000000000E+00 0. -1.
         21   -1    0    0  503  502 -0.00000000000E+00 -0.00000000000E+00 -0.37174437455E+03  0.37174437455E+03  0.00000000000E+00 0. -1.
         21    1    1    2  503  501 -0.96664184174E+01  0.79932012950E+02  0.14963462272E+03  0.16992082467E+03  0.00000000000E+00 0. -1.
         21    1    1    2  504  506  0.82064576047E+02 -0.10128363885E+03  0.33674132694E+03  0.36109235856E+03  0.00000000000E+00 0. -1.
         21    1    1    2  505  502 -0.31682047963E+02  0.10689611905E+02 -0.34316160077E+03  0.34478675179E+03  0.00000000000E+00 0. -1.
         21    1    1    2  506  505 -0.40716109666E+02  0.10662013996E+02  0.75785401351E+02  0.86688564336E+02  0.00000000000E+00 0. -1.
<scales pt_clust_3="99.23042" pt_clust_4="14000.00000" pt_clust_5="33.43681" pt_clust_6="48.63932"></scales>
<clustering>
<clus scale="   33.437">  2  5  1 -1</clus>
<clus scale="   48.639">  2  6  1 -1</clus>
<clus scale="   99.230">  1  3  2 -1</clus>
<clus scale="   99.230">  1  3  2 -1</clus>
</clustering>
</event>
<event>
 6    0  0.8610502E+002  0.1468020E+03  0.7546771E-02  0.1204459E+00
         21   -1    0    0  504  501  0.00000000000E+00  0.00000000000E+00  0.34124111911E+03  0.34124111911E+03  0.00000000000E+00 0.  1.
         21   -1    0    0  503  502 -0.00000000000E+00 -0.00000000000E+00 -0.41943700915E+03  0.41943700915E+03  0.00000000000E+00 0.  1.
         21    1    1    2  503  506  0.12341262372E+03 -0.52900738411E+02 -0.36075902926E+03  0.38493667143E+03  0.00000000000E+00 0.  1.
         21    1    1    2  504  502  0.42977999719E+02 -0.30817523097E+02  0.48394266056E+02  0.71685655306E+02  0.00000000000E+00 0.  1.
         21    1    1    2  505  501 -0.74457444213E+02  0.44007787596E+02  0.15040146172E+03  0.17349696267E+03  0.00000000000E+00 0.  1.
         21    1    1    2  506  505 -0.91933179228E+02  0.39710473911E+02  0.83767411459E+02  0.13055883886E+03  0.00000000000E+00 0.  1.
<scales pt_clust_3="136.49375" pt_clust_4="52.88505" pt_clust_5="50.22108" pt_clust_6="50.22108"></scales>
<clustering>
<clus scale="   50.221">  5  6 -1 -1</clus>
<clus scale="   52.885">  1  4  2 -1</clus>
<clus scale="  136.494">  2  3  1 -1</clus>
<clus scale="   52.885">  1  3  2 -1</clus>
</clustering>
</event>
<event>
 6    0  0.8610502E+002  0.1070665E+03  0.7546771E-02  0.1266101E+00
         21   -1    0    0  505  501  0.00000000000E+00  0.00000000000E+00  0.82622225025E+03  0.82622225025E+03  0.00000000000E+00 0.  1.
         21   -1    0    0  503  502 -0.00000000000E+00 -0.00000000000E+00 -0.69215141921E+02  0.69215141921E+02  0.00000000000E+00 0. -1.
         21    1    1    2  503  504  0.10549057177E+03 -0.15447381606E+02 -0.16454109175E+01  0.10662827819E+03  0.00000000000E+00 0. -1.
         21    1    1    2  504  501 -0.10161534115E+03  0.69874863999E+02  0.55086733692E+03  0.56450243317E+03  0.00000000000E+00 0.  1.
         21    1    1    2  505  506 -0.32772607161E+02 -0.16171628330E+02  0.90761445378E+02  0.97842758087E+02  0.00000000000E+00 0.  1.
         21    1    1    2  506  502  0.28897376540E+02 -0.38255854062E+02  0.11702373696E+03  0.12646392273E+03  0.00000000000E+00 0. -1.
<scales pt_clust_3="107.06651" pt_clust_4="14000.00000" pt_clust_5="36.54539" pt_clust_6="47.18344"></scales>
<clustering>
<clus scale="   36.545">  1  5  2 -1</clus>
<clus scale="   47.183">  1  6  2 -1</clus>
<clus scale="  107.067">  2  3  1 -1</clus>
<clus scale="   36.545">  1  3  2 -1</clus>
</clustering>
</event>
<event>
 6    0  0.8610502E+002  0.1540610E+03  0.7546771E-02  0.1195570E+00
         21   -1    0    0  503  501  0.00000000000E+00  0.00000000000E+00  0.10861941708E+03  0.10861941708E+03  0.00000000000E+00 0. -1.
         21   -1    0    0  504  502 -0.00000000000E+00 -0.00000000000E+00 -0.13340762731E+04  0.13340762731E+04  0.00000000000E+00 0. -1.
         21    1    1    2  503  505 -0.87353921855E+02 -0.12382870556E+03 -0.18556296995E+03  0.23957852951E+03  0.00000000000E+00 0. -1.
         21    1    1    2  504  506  0.17592656365E+03  0.37896736756E+02 -0.86982627180E+02  0.19988070413E+03  0.00000000000E+00 0. -1.
         21    1    1    2  505  502 -0.37942571425E+02  0.27542954278E+02 -0.91668651686E+03  0.91788475488E+03  0.00000000000E+00 0. -1.
         21    1    1    2  506  501 -0.50630070370E+02  0.58389014526E+02 -0.36224742049E+02  0.85351701679E+02  0.00000000000E+00 0. -1.
<scales pt_clust_3="14000.00000" pt_clust_4="154.06104" pt_clust_5="46.88553" pt_clust_6="83.95778"></scales>
<clustering>
<clus scale="   46.886">  2  5  1 -1</clus>
<clus scale="   83.958">  1  6  2 -1</clus>
<clus scale="  154.061">  1  4  2 -1</clus>
<clus scale="   83.958">  1  3  2 -1</clus>
</clustering>
</event>
<event>
 6    0  0.8610502E+002  0.1085727E+03  0.7546771E-02  0.1263236E+00
         21   -1    0    0  506  501  0.00000000000E+00  0.00000000000E+00  0.36800387806E+03  0.36800387806E+03  0.00000000000E+00 0. -1.
         21   -1    0    0  505  502 -0.00000000000E+00 -0.00000000000E+00 -0.36388613833E+03  0.36388613833E+03  0.00000000000E+00 0. -1.
         21    1    1    2  503  501  0.31009826117E+02 -0.10607682389E+03  0.32249470616E+03  0.34090576027E+03  0.00000000000E+00 0. -1.
         21    1    1    2  504  503  0.52115647002E+02  0.76214561061E+02 -0.22360090555E+03  0.24191334181E+03  0.00000000000E+00 0. -1.
         21    1    1    2  505  504 -0.65800956086E+02 -0.17262765052E+01 -0.24754396590E+02  0.70324433897E+02  0.00000000000E+00 0. -1.
         21    1    1    2  506  502 -0.17324517033E+02  0.31588539339E+02 -0.70021664292E+02  0.78746480417E+02  0.00000000000E+00 0.  1.
<scales pt_clust_3="14000.00000" pt_clust_4="108.57267" pt_clust_5="68.73302" pt_clust_6="36.02742"></scales>
<clustering>
<clus scale="   36.027">  2  6  1 -1</clus>
<clus scale="   68.733">  2  5  1 -1</clus>
<clus scale="  108.573">  2  4  1 -1</clus>
<clus scale="  108.573">  1  3  2 -1</clus>
</clustering>
</event>
<event>
 6    0  0.8610502E+002  0.1026844E+03  0.7546771E-02  0.1274750E+00
         21   -1    0    0  506  501  0.00000000000E+00  0.00000000000E+00  0.96470772321E+02  0.96470772321E+02  0.00000000000E+00 0.  1.
         21   -1    0    0  504  502 -0.00000000000E+00 -0.00000000000E+00 -0.30531596665E+03  0.30531596665E+03  0.00000000000E+00 0.  1.
         21    1    1    2  503  505 -0.13627906707E+02  0.31126733773E+02 -0.24564868364E+02  0.41928822477E+02  0.00000000000E+00 0.  1.
         21    1    1    2  504  503 -0.27424972502E+02  0.24982160195E+02 -0.83519394151E+02  0.91387781700E+02  0.00000000000E+00 0.  1.
         21    1    1    2  505  501 -0.12793369254E+02 -0.11032953977E+03  0.31738546470E+02  0.11551455742E+03  0.00000000000E+00 0.  1.
         21    1    1    2  506  502  0.53846248463E+02  0.54220645805E+02 -0.13249947829E+03  0.15295557738E+03  0.00000000000E+00 0.  1.
<scales pt_clust_3="33.93897" pt_clust_4="33.93897" pt_clust_5="96.36660" pt_clust_6="76.41529"></scales>
<clustering>
<clus scale="   33.939">  3  4 -1 -1</clus>
<clus scale="   76.415">  2  6  1 -1</clus>
<clus scale="   96.367">  1  5  2 -1</clus>
<clus scale="   96.367">  1  3  2 -1</clus>
</clustering>
</event>
<event>
 6    0  0.8610502E+002  0.1692682E+03  0.7546771E-02  0.1178613E+00
         21   -1    0    0  504  501  0.00000000000E+00  0.00000000000E+00  0.63049332446E+02  0.63049332446E+02  0.00000000000E+00 0. -1.
         21   -1    0    0  503  502 -0.00000000000E+00 -0.00000000000E+00 -0.18759369004E+04  0.18759369004E+04  0.00000000000E+00 0.  1.
         21    1    1    2  503  506  0.31956478356E+02  0.28978699912E+02 -0.19248858497E+03  0.19726336939E+03  0.00000000000E+00 0.  1.
         21    1    1    2  504  505 -0.15815229340E+03  0.30488507307E+02 -0.12858260044E+04  0.12958743036E+04  0.00000000000E+00 0.  1.
         21    1    1    2  505  502 -0.22902445460E+02 -0.22796857656E+02 -0.28156675146E+03  0.28341498594E+03  0.00000000000E+00 0.  1.
         21    1    1    2  506  501  0.14909826051E+03 -0.36670349564E+02 -0.53006227037E+02  0.16243357389E+03  0.00000000000E+00 0. -1.
<scales pt_clust_3="43.13910" pt_clust_4="30.36152" pt_clust_5="30.36152" pt_clust_6="155.10346"></scales>
<clustering>
<clus scale="   30.362">  4  5 -1 -1</clus>
<clus scale="   43.139">  2  3  1 -1</clus>
<clus scale="  155.103">  1  6  2 -1</clus>
<clus scale="  155.103">  1  3  2 -1</clus>
</clustering>
</event>
<event>
 6    0  0.8610502E+002  0.7125062E+02  0.7546771E-02  0.1355891E+00
         21   -1    0    0  505  501  0.00000000000E+00  0.00000000000E+00  0.10238045650E+02  0.10238045650E+02  0.00000000000E+00 0. -1.
         21   -1    0    0  506  502 -0.00000000000E+00 -0.00000000000E+00 -0.27353659108E+04  0.27353659108E+04  0.00000000000E+00 0. -1.
         21    1    1    2  503  501  0.42323958739E+02  0.13348156539E+02 -0.30290328199E+03  0.30613704286E+03  0.00000000000E+00 0. -1.
         21    1    1    2  504  503  0.21533272003E+02 -0.54357407818E+02 -0.27043270006E+03  0.27668078149E+03  0.00000000000E+00 0. -1.
         21    1    1    2  505  502 -0.10896469380E+03  0.22571429711E+02 -0.60014920575E+03  0.61037844253E+03  0.00000000000E+00 0. -1.
         21    1    1    2  506  504  0.45107463056E+02  0.18437821569E+02 -0.15516426774E+04  0.15524076896E+04  0.00000000000E+00 0. -1.
<scales pt_clust_3="44.37895" pt_clust_4="71.25062" pt_clust_5="14000.00000" pt_clust_6="50.69282"></scales>
<clustering>
<clus scale="   44.379">  1  3  2 -1</clus>
<clus scale="   50.693">  2  6  1 -1</clus>
<clus scale="   71.251">  1  4  2 -1</clus>
<clus scale="   44.379">  1  3  2 -1</clus>
</clustering>
</event>
<event>
 6    0  0.8610502E+002  0.1364913E+03  0.7546771E-02  0.1218130E+00
         21   -1    0    0  505  501  0.00000000000E+00  0.00000000000E+00  0.13989534726E+03  0.13989534726E+03  0.00000000000E+00 0. -1.
         21   -1    0    0  504  502 -0.00000000000E+00 -0.00000000000E+00 -0.78974301636E+03  0.78974301636E+03  0.00000000000E+00 0.  1.
         21    1    1    2  503  506 -0.91111739484E+01  0.47306194352E+02 -0.22028398964E+03  0.22549041135E+03  0.00000000000E+00 0. -1.
         21    1    1    2  504  503  0.20058027141E+02  0.14810557185E+03 -0.37099847279E+03  0.39997181361E+03  0.00000000000E+00 0.  1.
         21    1    1    2  505  502 -0.62900208130E+01 -0.75377546301E+02 -0.13994686302E+03  0.15908005317E+03  0.00000000000E+00 0. -1.
         21    1    1    2  506  501 -0.46568323797E+01 -0.12003421990E+03  0.81381656357E+02  0.14509608549E+03  0.00000000000E+00 0. -1.
<scales pt_clust_3="32.52773" pt_clust_4="32.52773" pt_clust_5="75.63953" pt_clust_6="123.88466"></scales>
<clustering>
<clus scale="   32.528">  3  4 -1 -1</clus>
<clus scale="   75.640">  2  5  1 -1</clus>
<clus scale="  123.885">  1  6  2 -1</clus>
<clus scale="  123.885">  1  3  2 -1</clus>
</clustering>
</event>
<event>
 6    0  0.8610502E+002  0.9284924E+02  0.7546771E-02  0.1296095E+00
         21   -1    0    0  506  501  0.00000000000E+00  0.00000000000E+00  0.19987806987E+03  0.19987806987E+03  0.00000000000E+00 0. -1.
         21   -1    0    0  504  502 -0.00000000000E+00 -0.00000000000E+00 -0.54388743802E+03  0.54388743802E+03  0.00000000000E+00 0. -1.
         21    1    1    2  503  502 -0.62382158725E+02 -0.67584966478E+02 -0.45816930909E+03  0.46730972300E+03  0.00000000000E+00 0. -1.
         21    1    1    2  504  505  0.55513385688E+02  0.98814969189E+02  0.56921945053E+02  0.12683154953E+03  0.00000000000E+00 0. -1.
         21    1    1    2  505  501  0.41885987251E+02  0.23440552910E+02 -0.17074919704E+02  0.50945542804E+02  0.00000000000E+00 0. -1.
         21    1    1    2  506  503 -0.35017214213E+02 -0.54670555621E+02  0.74312915587E+02  0.98678692565E+02  0.00000000000E+00 0.  1.
<scales pt_clust_3="14000.00000" pt_clust_4="92.84924" pt_clust_5="47.99891" pt_clust_6="46.16649"></scales>
<clustering>
<clus scale="   47.999">  1  5  2 -1</clus>
<clus scale="   46.166">  1  6  2 -1</clus>
<clus scale="   92.849">  1  4  2 -1</clus>
<clus scale="   47.999">  1  3  2 -1</clus>
</clustering>
</event>
<event>
 6    0  0.8610502E+002  0.7789869E+02  0.7546771E-02  0.1335123E+00
         21   -1    0    0  504  501  0.00000000000E+00  0.00000000000E+00  0.25165827107E+03  0.25165827107E+03  0.00000000000E+00 0.  1.
         21   -1    0    0  506  502 -0.00000000000E+00 -0.00000000000E+00 -0.93388922359E+03  0.93388922359E+03  0.00000000000E+00 0.  1.
         21    1    1    2  503  501 -0.49404534363E+02 -0.10220478170E+02  0.43787653408E+02  0.66802880033E+02  0.00000000000E+00 0.  1.
         21    1    1    2  504  505  0.23944966924E+01  0.81614465781E+02  0.17611826221E+03  0.19412443670E+03  0.00000000000E+00 0.  1.
         21    1    1    2  505  502  0.64436333940E+02 -0.15695728155E+02 -0.97784136137E+02  0.11815301221E+03  0.00000000000E+00 0.  1.
         21    1    1    2  506  503 -0.17426296269E+02 -0.55698259456E+02 -0.80435273200E+03  0.80646716572E+03  0.00000000000E+00 0.  1.
<scales pt_clust_3="50.45063" pt_clust_4="14000.00000" pt_clust_5="77.89869" pt_clust_6="58.49313"></scales>
<clustering>
<clus scale="   50.451">  1  3  2 -1</clus>
<clus scale="   58.493">  2  6  1 -1</clus>
<clus scale="   77.899">  2  5  1 -1</clus>
<clus scale="   50.451">  1  3  2 -1</clus>
</clustering>
</event>
<event>
 6    0  0.8610502E+002  0.7590860E+02  0.7546771E-02  0.1341080E+00
         21   -1    0    0  504  501  0.00000000000E+00  0.00000000000E+00  0.22323539771E+04  0.22323539771E+04  0.00000000000E+00 0.  1.
         21   -1    0    0  505  502 -0.00000000000E+00 -0.00000000000E+00 -0.12180450471E+03  0.12180450471E+03  0.00000000000E+00 0.  1.
         21    1    1    2  503  502 -0.25587330701E+02 -0.81550745217E+02 -0.70571194491E+02  0.11084010569E+03  0.00000000000E+00 0.  1.
         21    1    1    2  504  503  0.36880202461E+02  0.66279018032E+02  0.20739805705E+04  0.20753670673E+04  0.00000000000E+00 0.  1.
         21    1    1    2  505  506 -0.30241583188E+02 -0.51082956202E+02  0.59834824346E+02  0.84286582400E+02  0.00000000000E+00 0. -1.
         21    1    1    2  506  501  0.18948711428E+02  0.66354683387E+02  0.47305272035E+02  0.83664726345E+02  0.00000000000E+00 0.  1.
<scales pt_clust_3="14000.00000" pt_clust_4="75.90860" pt_clust_5="59.36347" pt_clust_6="59.53275"></scales>
<clustering>
<clus scale="   59.363">  2  5  1 -1</clus>
<clus scale="   59.533">  2  6  1 -1</clus>
<clus scale="   75.909">  1  4  2 -1</clus>
<clus scale="   75.909">  1  3  2 -1</clus>
</clustering>
</event>
<event>
 6    0  0.8610502E+002  0.9484607E+02  0.7546771E-02  0.1291523E+00
         21   -1    0    0  503  501  0.00000000000E+00  0.00000000000E+00  0.43678300787E+03  0.43678300787E+03  0.00000000000E+00 0. -1.
         21   -1    0    0  506  502 -0.00000000000E+00 -0.00000000000E+00 -0.44721086625E+03  0.44721086625E+03  0.00000000000E+00 0.  1.
         21    1    1    2  503  505 -0.13917520182E+03  0.17793514680E+02 -0.13513730389E+03  0.19480358536E+03  0.00000000000E+00 0.  1.
         21    1    1    2  504  501  0.46710725578E+02 -0.32138549248E+02  0.37732519520E+03  0.38156137273E+03  0.00000000000E+00 0. -1.
         21    1    1    2  505  502  0.44924566573E+02  0.44928101235E+02 -0.24188710131E+03  0.25009222447E+03  0.00000000000E+00 0.  1.
         21    1    1    2  506  504  0.47539909673E+02 -0.30583066667E+02 -0.10728648382E+02  0.57536691550E+02  0.00000000000E+00 0.  1.
<scales pt_clust_3="94.84607" pt_clust_4="56.98873" pt_clust_5="14000.00000" pt_clust_6="56.52758"></scales>
<clustering>
<clus scale="   56.528">  2  6  1 -1</clus>
<clus scale="   56.989">  1  4  2 -1</clus>
<clus scale="   94.846">  1  3  2 -1</clus>
<clus scale="   56.989">  1  3  2 -1</clus>
</clustering>
</event>
<event>
 6    0  0.8610502E+002  0.1022446E+03  0.7546771E-02  0.1275645E+00
         21   -1    0    0  503  501  0.00000000000E+00  0.00000000000E+00  0.39755318522E+02  0.39755318522E+02  0.00000000000E+00 0.  1.
         21   -1    0    0  505  502 -0.00000000000E+00 -0.00000000000E+00 -0.14659010811E+04  0.14659010811E+04  0.00000000000E+00 0.  1.
         21    1    1    2  503  502 -0.30945008730E+02 -0.76774032811E+02 -0.70107278932E+03  0.70594256254E+03  0.00000000000E+00 0.  1.
         21    1    1    2  504  501  0.45876749588E+02  0.96342708301E+01 -0.40104811739E+02  0.61691905886E+02  0.00000000000E+00 0.  1.
         21    1    1    2  505  506  0.11125156275E+03  0.47645233484E+02 -0.49178449165E+03  0.50645726840E+03  0.00000000000E+00 0.  1.
         21    1    1    2  506  504 -0.12618330360E+03  0.19494528497E+02 -0.19318366983E+03  0.23156466276E+03  0.00000000000E+00 0.  1.
<scales pt_clust_3="80.64924" pt_clust_4="46.87745" pt_clust_5="102.24464" pt_clust_6="14000.00000"></scales>
<clustering>
<clus scale="   46.877">  1  4  2 -1</clus>
<clus scale="   80.649">  2  3  1 -1</clus>
<clus scale="  102.245">  2  5  1 -1</clus>
<clus scale="   46.877">  1  3  2 -1</clus>
</clustering>
</event>
<event>
 6    0  0.8610502E+002  0.1496466E+03  0.7546771E-02  0.1200908E+00
         21   -1    0    0  503  501  0.00000000000E+00  0.00000000000E+00  0.33236326201E+02  0.33236326201E+02  0.00000000000E+00 0.  1.
         21   -1    0    0  504  502 -0.00000000000E+00 -0.00000000000E+00 -0.12350338360E+04  0.12350338360E+04  0.00000000000E+00 0.  1.
         21    1    1    2  503  502  0.16662046809E+03 -0.35500821351E+02 -0.35861688904E+03  0.39702488814E+03  0.00000000000E+00 0.  1.
         21    1    1    2  504  505 -0.73872479975E+02 -0.49434551778E+02 -0.36776383819E+03  0.37835321974E+03  0.00000000000E+00 0.  1.
         21    1    1    2  505  506 -0.56666747038E+02  0.30095311957E+02 -0.25101090098E+03  0.25908168679E+03  0.00000000000E+00 0.  1.
         21    1    1    2  506  501 -0.36081241080E+02  0.54840061172E+02 -0.22440588158E+03  0.23381036751E+03  0.00000000000E+00 0.  1.
<scales pt_clust_3="145.90701" pt_clust_4="88.88711" pt_clust_5="32.86781" pt_clust_6="32.86781"></scales>
<clustering>
<clus scale="   32.868">  5  6 -1 -1</clus>
<clus scale="   88.887">  2  4  1 -1</clus>
<clus scale="  145.907">  1  3  2 -1</clus>
<clus scale="  145.907">  1  3  2 -1</clus>
</clustering>
</event>
<event>
 6    0  0.8610502E+002  0.1693974E+03  0.7546771E-02  0.1178478E+00
         21   -1    0    0  504  501  0.00000000000E+00  0.00000000000E+00  0.20216194442E+03  0.20216194442E+03  0.00000000000E+00 0. -1.
         21   -1    0    0  503  502 -0.00000000000E+00 -0.00000000000E+00 -0.23407260541E+03  0.23407260541E+03  0.00000000000E+00 0. -1.
         21    1    1    2  503  501  0.36630621875E+02 -0.14438999154E+03 -0.51392918269E+02  0.15758015156E+03  0.00000000000E+00 0. -1.
         21    1    1    2  504  505  0.69690735579E+02 -0.24012942662E+02  0.26983160300E+01  0.73761107301E+02  0.00000000000E+00 0. -1.
         21    1    1    2  505  506 -0.23773324446E+02  0.59168750061E+02 -0.12248983833E+02  0.64931883878E+02  0.00000000000E+00 0.  1.
         21    1    1    2  506  502 -0.82548033008E+02  0.10923418414E+03  0.29032925082E+02  0.13996140710E+03  0.00000000000E+00 0. -1.
<scales pt_clust_3="163.27798" pt_clust_4="73.71174" pt_clust_5="30.79155" pt_clust_6="30.79155"></scales>
<clustering>
<clus scale="   30.792">  5  6 -1 -1</clus>
<clus scale="   73.712">  1  4  2 -1</clus>
<clus scale="  163.278">  2  3  1 -1</clus>
<clus scale="   73.712">  1  3  2 -1</clus>
</clustering>
</event>
<event>
 6    0  0.8610502E+002  0.1196665E+03  0.7546771E-02  0.1243648E+00
         21   -1    0    0  506  501  0.00000000000E+00  0.00000000000E+00  0.15258108513E+04  0.15258108513E+04  0.00000000000E+00 0.  1.
         21   -1    0    0  505  502 -0.00000000000E+00 -0.00000000000E+00 -0.12138119796E+03  0.12138119796E+03  0.00000000000E+00 0.  1.
         21    1    1    2  503  502  0.55437705206E+01 -0.11761222435E+03 -0.66569893980E+02  0.13525871319E+03  0.00000000000E+00 0.  1.
         21    1    1    2  504  503 -0.53600521384E+02  0.57996842110E+01  0.89356453682E+02  0.10436104658E+03  0.00000000000E+00 0.  1.
         21    1    1    2  505  501  0.66444454567E+02  0.15336542431E+03  0.55353963498E+03  0.57822309398E+03  0.00000000000E+00 0.  1.
         21    1    1    2  506  504 -0.18387703703E+02 -0.41552884172E+02  0.82810345869E+03  0.82934919553E+03  0.00000000000E+00 0.  1.
<scales pt_clust_3="119.66647" pt_clust_4="56.15547" pt_clust_5="14000.00000" pt_clust_6="45.43952"></scales>
<clustering>
<clus scale="   45.440">  1  6  2 -1</clus>
<clus scale="   56.155">  1  4  2 -1</clus>
<clus scale="  119.666">  2  3  1 -1</clus>
<clus scale="   45.440">  1  3  2 -1</clus>
</clustering>
</event>
<event>
 6    0  0.8610502E+002  0.7706974E+02  0.7546771E-02  0.1337579E+00
         21   -1    0    0  504  501  0.00000000000E+00  0.00000000000E+00  0.13381663546E+04  0.13381663546E+04  0.00000000000E+00 0.  1.
         21   -1    0    0  501  502 -0.00000000000E+00 -0.00000000000E+00 -0.25025877445E+03  0.25025877445E+03  0.00000000000E+00 0.  1.
         21    1    1    2  503  505  0.11290888714E+03  0.56802017886E+02  0.34730291244E+03  0.36958652440E+03  0.00000000000E+00 0.  1.
         21    1    1    2  504  503 -0.44110025686E+02 -0.29382730278E+02  0.92484779947E+03  0.92636520412E+03  0.00000000000E+00 0.  1.
         21    1    1    2  505  506 -0.63960959311E+02  0.95390367151E+01  0.32620455252E+02  0.72429908452E+02  0.00000000000E+00 0.  1.
         21    1    1    2  506  502 -0.48379021395E+01 -0.36958324323E+02 -0.21686358702E+03  0.22004349209E+03  0.00000000000E+00 0.  1.
<scales pt_clust_3="14000.00000" pt_clust_4="53.58937" pt_clust_5="77.06974" pt_clust_6="37.27362"></scales>
<clustering>
<clus scale="   37.274">  2  6  1 -1</clus>
<clus scale="   53.589">  1  4  2 -1</clus>
<clus scale="   77.070">  2  5  1 -1</clus>
<clus scale="   53.589">  1  3  2 -1</clus>
</clustering>
</event>
<event>
 6    0  0.8610502E+002  0.9918385E+02  0.7546771E-02  0.1282022E+00
         21   -1    0    0  504  501  0.00000000000E+00  0.00000000000E+00  0.11247090112E+04  0.11247090112E+04  0.00000000000E+00 0.  1.
         21   -1    0    0  506  502 -0.00000000000E+00 -0.00000000000E+00 -0.26361506896E+02  0.26361506896E+02  0.00000000000E+00 0.  1.
         21    1    1    2  503  501 -0.72849958490E+02 -0.52140959405E+01  0.66311799857E+03  0.66712801117E+03  0.00000000000E+00 0.  1.
         21    1    1    2  504  505  0.57327122327E+02  0.44909911966E+01  0.19953425210E+03  0.20765472718E+03  0.00000000000E+00 0. -1.
         21    1    1    2  505  502  0.73944268910E+02 -0.27580702919E+02  0.12004478041E+03  0.14366349356E+03  0.00000000000E+00 0.  1.
         21    1    1    2  506  503 -0.58421432748E+02  0.28303807663E+02  0.11565047318E+03  0.13262428616E+03  0.00000000000E+00 0.  1.
<scales pt_clust_3="79.42931" pt_clust_4="50.70369" pt_clust_5="50.70369" pt_clust_6="64.91663"></scales>
<clustering>
<clus scale="   50.704">  4  5 -1 -1</clus>
<clus scale="   64.917">  2  6  1 -1</clus>
<clus scale="   79.429">  1  3  2 -1</clus>
<clus scale="   79.429">  1  3  2 -1</clus>
</clustering>
</event>
<event>
 6    0  0.8610502E+002  0.9191869E+02  0.7546771E-02  0.1298271E+00
         21   -1    0    0  505  501  0.00000000000E+00  0.00000000000E+00  0.31744800905E+03  0.31744800905E+03  0.00000000000E+00 0. -1.
         21   -1    0    0  503  502 -0.00000000000E+00 -0.00000000000E+00 -0.10938447799E+04  0.10938447799E+04  0.00000000000E+00 0.  1.
         21    1    1    2  503  506  0.27269785815E+02  0.88482174953E+02 -0.10237818580E+04  0.10279601302E+04  0.00000000000E+00 0.  1.
         21    1    1    2  504  502 -0.64101938113E+02 -0.57554359099E+02  0.21254481037E+02  0.88731706200E+02  0.00000000000E+00 0. -1.
         21    1    1    2  505  504 -0.41187948031E+02  0.57328226773E+01  0.20035604880E+03  0.20462614351E+03  0.00000000000E+00 0. -1.
         21    1    1    2  506  501  0.78020100329E+02 -0.36660638532E+02  0.25774557252E+02  0.89974809110E+02  0.00000000000E+00 0. -1.
<scales pt_clust_3="14000.00000" pt_clust_4="91.91869" pt_clust_5="41.58500" pt_clust_6="66.49955"></scales>
<clustering>
<clus scale="   41.585">  1  5  2 -1</clus>
<clus scale="   66.500">  1  6  2 -1</clus>
<clus scale="   91.919">  1  4  2 -1</clus>
<clus scale="   41.585">  1  3  2 -1</clus>
</clustering>
</event>
<event>
 6    0  0.8610502E+002  0.1000888E+03  0.7546771E-02  0.1280109E+00
         21   -1    0    0  502  501  0.00000000000E+00  0.00000000000E+00  0.17830054515E+03  0.17830054515E+03  0.00000000000E+00 0. -1.
         21   -1    0    0  504  502 -0.00000000000E+00 -0.00000000000E+00 -0.34639551242E+03  0.34639551242E+03  0.00000000000E+00 0. -1.
         21    1    1    2  503  506  0.41374826451E+02 -0.70927695277E+02 -0.91638005950E+02  0.12304526954E+03  0.00000000000E+00 0. -1.
         21    1    1    2  504  503  0.62391901151E+02 -0.29762380199E+01 -0.19940366582E+03  0.20895796052E+03  0.00000000000E+00 0. -1.
         21    1    1    2  505  501 -0.34690033244E+02  0.16957514986E+02  0.88882347566E+02  0.96907313604E+02  0.00000000000E+00 0. -1.
         21    1    1    2  506  505 -0.69076694358E+02  0.56946418311E+02  0.34064356933E+02  0.95785513910E+02  0.00000000000E+00 0.  1.
<scales pt_clust_3="14000.00000" pt_clust_4="60.48552" pt_clust_5="38.61290" pt_clust_6="100.08879"></scales>
<clustering>
<clus scale="   38.613">  1  5  2 -1</clus>
<clus scale="   60.486">  2  4  1 -1</clus>
<clus scale="  100.089">  1  6  2 -1</clus>
<clus scale="   38.613">  1  3  2 -1</clus>
</clustering>
</event>
<event>
 6    0  0.8610502E+002  0.1439244E+03  0.7546771E-02  0.1208144E+00
         21   -1    0    0  506  501  0.00000000000E+00  0.00000000000E+00  0.30929736748E+03  0.30929736748E+03  0.00000000000E+00 0.  1.
         21   -1    0    0  504  502 -0.00000000000E+00 -0.00000000000E+00 -0.24604247192E+03  0.24604247192E+03  0.00000000000E+00 0. -1.
         21    1    1    2  503  502  0.13884803895E+02  0.43038794417E+02 -0.15353582024E+03  0.16005740752E+03  0.00000000000E+00 0. -1.
         21    1    1    2  504  505 -0.21654686952E+02 -0.43461973378E+02  0.65353404798E+02  0.81418278756E+02  0.00000000000E+00 0.  1.
         21    1    1    2  505  501  0.20840593732E+02 -0.10283606436E+03  0.17783812988E+03  0.20648483460E+03  0.00000000000E+00 0.  1.
         21    1    1    2  506  503 -0.13070710675E+02  0.10325924333E+03 -0.26400818873E+02  0.10737931852E+03  0.00000000000E+00 0. -1.
<scales pt_clust_3="45.22306" pt_clust_4="32.92369" pt_clust_5="32.92369" pt_clust_6="135.54315"></scales>
<clustering>
<clus scale="   32.924">  4  5 -1 -1</clus>
<clus scale="   45.223">  2  3  1 -1</clus>
<clus scale="  135.543">  2  6  1 -1</clus>
<clus scale="  143.924">  1  3  2 -1</clus>
</clustering>
</event>
<event>
 6    0  0.8610502E+002  0.1940979E+03  0.7546771E-02  0.1154816E+00
         21   -1    0    0  503  501  0.00000000000E+00  0.00000000000E+00  0.52879086616E+03  0.52879086616E+03  0.00000000000E+00 0. -1.
         21   -1    0    0  506  502 -0.00000000000E+00 -0.00000000000E+00 -0.19518642378E+03  0.19518642378E+03  0.00000000000E+00 0.  1.
         21    1    1    2  503  505 -0.13027340947E+03 -0.12137001468E+03 -0.25861124764E+02  0.17991842444E+03  0.00000000000E+00 0. -1.
         21    1    1    2  504  501  0.27520874616E+02  0.33931968486E+02  0.19289589560E+03  0.19778170685E+03  0.00000000000E+00 0.  1.
         21    1    1    2  505  502 -0.57764076983E+02  0.68641235178E+01 -0.41466782058E+02  0.71437376741E+02  0.00000000000E+00 0.  1.
         21    1    1    2  506  504  0.16051661183E+03  0.80573922675E+02  0.20803645360E+03  0.27483978190E+03  0.00000000000E+00 0. -1.
<scales pt_clust_3="14000.00000" pt_clust_4="43.68955" pt_clust_5="57.14639" pt_clust_6="194.09792"></scales>
<clustering>
<clus scale="   43.690">  1  4  2 -1</clus>
<clus scale="   57.146">  2  5  1 -1</clus>
<clus scale="  194.098">  1  6  2 -1</clus>
<clus scale="   43.690">  1  3  2 -1</clus>
</clustering>
</event>
<event>
 6    0  0.8610502E+002  0.1802024E+03  0.7546771E-02  0.1167607E+00
         21   -1    0    0  503  501  0.00000000000E+00  0.00000000000E+00  0.38519808499E+03  0.38519808499E+03  0.00000000000E+00 0. -1.
         21   -1    0    0  505  502 -0.00000000000E+00 -0.00000000000E+00 -0.44803094208E+03  0.44803094208E+03  0.00000000000E+00 0.  1.
         21    1    1    2  503  502 -0.42983906765E+02  0.76689414359E+01 -0.13857874232E+01  0.43684657607E+02  0.00000000000E+00 0.  1.
         21    1    1    2  504  506  0.14502535409E+03  0.98026510988E+02 -0.24688884740E+03  0.30264773773E+03  0.00000000000E+00 0.  1.
         21    1    1    2  505  504  0.95652275809E+01  0.37272535915E+02 -0.12311118140E+03  0.12898487701E+03  0.00000000000E+00 0.  1.
         21    1    1    2  506  501 -0.11160667491E+03 -0.14296798834E+03  0.30855295913E+03  0.35791175471E+03  0.00000000000E+00 0. -1.
<scales pt_clust_3="43.54471" pt_clust_4="180.20239" pt_clust_5="38.48033" pt_clust_6="14000.00000"></scales>
<clustering>
<clus scale="   38.480">  2  5  1 -1</clus>
<clus scale="   43.545">  2  3  1 -1</clus>
<clus scale="  180.202">  2  4  1 -1</clus>
<clus scale="  180.202">  1  3  2 -1</clus>
</clustering>
</event>
<event>
 6    0  0.8610502E+002  0.1031869E+03  0.7546771E-02  0.1273734E+00
         21   -1    0    0  506  501  0.00000000000E+00  0.00000000000E+00  0.46961364362E+03  0.46961364362E+03  0.00000000000E+00 0. -1.
         21   -1    0    0  503  502 -0.00000000000E+00 -0.00000000000E+00 -0.19461013753E+03  0.19461013753E+03  0.00000000000E+00 0. -1.
         21    1    1    2  503  504  0.36699520359E+02  0.91224449684E+01 -0.62910919456E+02  0.73402027108E+02  0.00000000000E+00 0. -1.
         21    1    1    2  504  501  0.22562839418E+02  0.38423401784E+02 -0.60046299719E+02  0.74772973976E+02  0.00000000000E+00 0. -1.
         21    1    1    2  505  502 -0.49780098714E+02  0.51773851940E+02 -0.29095491062E+02  0.77492822718E+02  0.00000000000E+00 0. -1.
         21    1    1    2  506  505 -0.94822610629E+01 -0.99319698692E+02  0.42705621633E+03  0.43855595735E+03  0.00000000000E+00 0. -1.
<scales pt_clust_3="30.06027" pt_clust_4="30.06027" pt_clust_5="71.82332" pt_clust_6="97.89187"></scales>
<clustering>
<clus scale="   30.060">  3  4 -1 -1</clus>
<clus scale="   71.823">  2  5  1 -1</clus>
<clus scale="   97.892">  1  6  2 -1</clus>
<clus scale="   97.892">  1  3  2 -1</clus>
</clustering>
</event>
<event>
 6    0  0.8610502E+002  0.1110996E+03  0.7546771E-02  0.1258547E+00
         21   -1    0    0  503  501  0.00000000000E+00  0.00000000000E+00  0.46975854547E+03  0.46975854547E+03  0.00000000000E+00 0. -1.
         21   -1    0    0  505  502 -0.00000000000E+00 -0.00000000000E+00 -0.32939217228E+03  0.32939217228E+03  0.00000000000E+00 0. -1.
         21    1    1    2  503  506 -0.81301760060E+02  0.19141960670E+02  0.88968615995E+02  0.12203198548E+03  0.00000000000E+00 0.  1.
         21    1    1    2  504  501  0.76344273204E+02  0.95803232240E+01  0.11679836560E+03  0.13986453750E+03  0.00000000000E+00 0. -1.
         21    1    1    2  505  504  0.89552811715E+02  0.31374272547E+02  0.21675860219E+03  0.23661855947E+03  0.00000000000E+00 0. -1.
         21    1    1    2  506  502 -0.84595324859E+02 -0.60096556440E+02 -0.28215921060E+03  0.30063563530E+03  0.00000000000E+00 0. -1.
<scales pt_clust_3="83.52479" pt_clust_4="32.21852" pt_clust_5="32.21852" pt_clust_6="105.18063"></scales>
<clustering>
<clus scale="   32.219">  4  5 -1 -1</clus>
<clus scale="   83.525">  1  3  2 -1</clus>
<clus scale="  105.181">  2  6  1 -1</clus>
<clus scale="   83.525">  1  3  2 -1</clus>
</clustering>
</event>
<event>
 6    0  0.8610502E+002  0.1606695E+03  0.7546771E-02  0.1187943E+00
         21   -1    0    0  503  501  0.00000000000E+00  0.00000000000E+00  0.52389780023E+03  0.52389780023E+03  0.00000000000E+00 0.  1.
         21   -1    0    0  506  502 -0.00000000000E+00 -0.00000000000E+00 -0.13400620290E+03  0.13400620290E+03  0.00000000000E+00 0.  1.
         21    1    1    2  503  505  0.26226118304E+02 -0.62911366073E+02  0.27498145871E+03  0.28330275660E+03  0.00000000000E+00 0.  1.
         21    1    1    2  504  501 -0.17824207853E+03  0.46795148810E+02  0.53929686063E+02  0.19201155056E+03  0.00000000000E+00 0.  1.
         21    1    1    2  505  502  0.14042078322E+03 -0.12369039728E+02  0.54667425072E+02  0.15119364030E+03  0.00000000000E+00 0.  1.
         21    1    1    2  506  504  0.11595177009E+02  0.28485256991E+02  0.63130274856E+01  0.31396055672E+02  0.00000000000E+00 0.  1.
<scales pt_clust_3="67.41530" pt_clust_4="160.66949" pt_clust_5="14000.00000" pt_clust_6="30.75480"></scales>
<clustering>
<clus scale="   30.755">  2  6  1 -1</clus>
<clus scale="   67.415">  1  3  2 -1</clus>
<clus scale="  160.669">  1  4  2 -1</clus>
<clus scale="   67.415">  1  3  2 -1</clus>
</clustering>
</event>
<event>
 6    0  0.8610502E+002  0.1442128E+03  0.7546771E-02  0.1207770E+00
         21   -1    0    0  504  501  0.00000000000E+00  0.00000000000E+00  0.53102526635E+02  0.53102526635E+02  0.00000000000E+00 0. -1.
         21   -1    0    0  506  502 -0.00000000000E+00 -0.00000000000E+00 -0.12679971059E+04  0.12679971059E+04  0.00000000000E+00 0. -1.
         21    1    1    2  503  502 -0.39117538694E+02  0.92767653359E+02 -0.76022455979E+03  0.76686204800E+03  0.00000000000E+00 0. -1.
         21    1    1    2  504  505  0.30673382523E+02 -0.77332522259E+02 -0.64243598228E+01  0.83441283508E+02  0.00000000000E+00 0. -1.
         21    1    1    2  505  503 -0.44632745194E+02  0.23182467963E+02 -0.34364791049E+03  0.34730878934E+03  0.00000000000E+00 0. -1.
         21    1    1    2  506  501  0.53076901365E+02 -0.38617599063E+02 -0.10459774915E+03  0.12348751169E+03  0.00000000000E+00 0. -1.
<scales pt_clust_3="34.50774" pt_clust_4="135.69692" pt_clust_5="34.50774" pt_clust_6="65.63899"></scales>
<clustering>
<clus scale="   34.508">  3  5 -1 -1</clus>
<clus scale="   65.639">  1  6  2 -1</clus>
<clus scale="  135.697">  1  4  2 -1</clus>
<clus scale="   65.639">  1  3  2 -1</clus>
</clustering>
</event>
<event>
 6    0  0.8610502E+002  0.1108217E+03  0.7546771E-02  0.1259056E+00
         21   -1    0    0  504  501  0.00000000000E+00  0.00000000000E+00  0.10878336389E+03  0.10878336389E+03  0.00000000000E+00 0.  1.
         21   -1    0    0  506  502 -0.00000000000E+00 -0.00000000000E+00 -0.19116511558E+04  0.19116511558E+04  0.00000000000E+00 0. -1.
         21    1    1    2  503  502 -0.46194416273E+01  0.10052216190E+03 -0.17609826061E+04  0.17638553748E+04  0.00000000000E+00 0. -1.
         21    1    1    2  504  503 -0.66264314197E+02  0.33795543059E+01 -0.92073825150E+02  0.11348995551E+03  0.00000000000E+00 0.  1.
         21    1    1    2  505  501  0.42293961948E+02 -0.72082442482E+02  0.54991718022E+02  0.10004372435E+03  0.00000000000E+00 0.  1.
         21    1    1    2  506  505  0.28589793876E+02 -0.31819273723E+02 -0.48030786922E+01  0.43045465023E+02  0.00000000000E+00 0.  1.
<scales pt_clust_3="100.72689" pt_clust_4="66.35044" pt_clust_5="33.06141" pt_clust_6="33.06141"></scales>
<clustering>
<clus scale="   33.061">  5  6 -1 -1</clus>
<clus scale="   66.350">  1  4  2 -1</clus>
<clus scale="  100.727">  2  3  1 -1</clus>
<clus scale="   66.350">  1  3  2 -1</clus>
</clustering>
</event>
<event>
 6    0  0.8610502E+002  0.9991283E+02  0.7546771E-02  0.1280479E+00
         21   -1    0    0  505  501  0.00000000000E+00  0.00000000000E+00  0.64971004112E+02  0.64971004112E+02  0.00000000000E+00 0.  1.
         21   -1    0    0  503  502 -0.00000000000E+00 -0.00000000000E+00 -0.11390351919E+04  0.11390351919E+04  0.00000000000E+00 0. -1.
         21    1    1    2  503  504 -0.94370367127E+02 -0.18757906268E+02 -0.80376972086E+02  0.12537177865E+03  0.00000000000E+00 0. -1.
         21    1    1    2  504  506  0.10047481199E+03  0.65741292992E+01 -0.34190816812E+02  0.10633634833E+03  0.00000000000E+00 0.  1.
         21    1    1    2  505  502 -0.23310717877E+02  0.45630154332E+02 -0.90284203392E+03  0.90429488485E+03  0.00000000000E+00 0. -1.
         21    1    1    2  506  501  0.17206273010E+02 -0.33446377364E+02 -0.56654364961E+02  0.68003184181E+02  0.00000000000E+00 0.  1.
<scales pt_clust_3="14000.00000" pt_clust_4="99.91283" pt_clust_5="50.77886" pt_clust_6="37.61271"></scales>
<clustering>
<clus scale="   37.613">  1  6  2 -1</clus>
<clus scale="   50.779">  2  5  1 -1</clus>
<clus scale="   99.913">  1  4  2 -1</clus>
<clus scale="   37.613">  1  3  2 -1</clus>
</clustering>
</event>
<event>
 6    0  0.8610502E+002  0.9674136E+02  0.7546771E-02  0.1287302E+00
         21   -1    0    0  506  501  0.00000000000E+00  0.00000000000E+00  0.47422290556E+03  0.47422290556E+03  0.00000000000E+00 0.  1.
         21   -1    0    0  504  502 -0.00000000000E+00 -0.00000000000E+00 -0.20413319522E+03  0.20413319522E+03  0.00000000000E+00 0.  1.
         21    1    1    2  503  502  0.17434405164E+02 -0.41904633639E+02 -0.13622467030E+03  0.14358662055E+03  0.00000000000E+00 0.  1.
         21    1    1    2  504  505  0.52117261981E+02  0.88403292985E+02  0.29539120793E+02  0.10678909525E+03  0.00000000000E+00 0.  1.
         21    1    1    2  505  501  0.61632250492E+01  0.65994038489E+02  0.10335570163E+03  0.12278273298E+03  0.00000000000E+00 0.  1.
         21    1    1    2  506  503 -0.75714892194E+02 -0.11249269784E+03  0.27341955822E+03  0.30519765199E+03  0.00000000000E+00 0.  1.
<scales pt_clust_3="45.38675" pt_clust_4="14000.00000" pt_clust_5="60.30210" pt_clust_6="96.74136"></scales>
<clustering>
<clus scale="   45.387">  2  3  1 -1</clus>
<clus scale="   60.302">  1  5  2 -1</clus>
<clus scale="   96.741">  1  6  2 -1</clus>
<clus scale="   60.302">  1  3  2 -1</clus>
</clustering>
</event>
<event>
 6    0  0.8610502E+002  0.1026919E+03  0.7546771E-02  0.1274735E+00
         21   -1    0    0  506  501  0.00000000000E+00  0.00000000000E+00  0.58111484308E+03  0.58111484308E+03  0.00000000000E+00 0.  1.
         21   -1    0    0  503  502 -0.00000000000E+00 -0.00000000000E+00 -0.63090411140E+03  0.63090411140E+03  0.00000000000E+00 0.  1.
         21    1    1    2  503  504  0.65253543817E+02  0.86926483445E+01 -0.55579457805E+03  0.55967955126E+03  0.00000000000E+00 0.  1.
         21    1    1    2  504  501  0.52752531927E+02  0.32225403642E+02  0.28233537754E+03  0.28902347946E+03  0.00000000000E+00 0.  1.
         21    1    1    2  505  502  0.33031496253E+02 -0.35371534820E+02 -0.37730848295E+02  0.61366457721E+02  0.00000000000E+00 0.  1.
         21    1    1    2  506  505 -0.15103757200E+03 -0.55465171671E+01  0.26140078048E+03  0.30194946604E+03  0.00000000000E+00 0.  1.
<scales pt_clust_3="102.69193" pt_clust_4="61.87339" pt_clust_5="48.39654" pt_clust_6="14000.00000"></scales>
<clustering>
<clus scale="   48.397">  2  5  1 -1</clus>
<clus scale="   61.873">  1  4  2 -1</clus>
<clus scale="  102.692">  2  3  1 -1</clus>
<clus scale="   61.873">  1  3  2 -1</clus>
</clustering>
</event>
<event>
 6    0  0.8610502E+002  0.1685394E+03  0.7546771E-02  0.1179380E+00
         21   -1    0    0  504  501  0.00000000000E+00  0.00000000000E+00  0.39038623101E+03  0.39038623101E+03  0.00000000000E+00 0.  1.
         21   -1    0    0  501  502 -0.00000000000E+00 -0.00000000000E+00 -0.34066756391E+04  0.34066756391E+04  0.00000000000E+00 0.  1.
         21    1    1    2  503  502 -0.74925976223E+02  0.15021264460E+03 -0.32791394497E+04  0.32834331531E+04  0.00000000000E+00 0.  1.
         21    1    1    2  504  505 -0.33448930677E+02 -0.18899913095E+01  0.21665407913E+03  0.21922908802E+03  0.00000000000E+00 0.  1.
         21    1    1    2  505  506  0.56296104383E+02  0.56039723598E+02  0.19767793379E+02  0.81856384263E+02  0.00000000000E+00 0.  1.
         21    1    1    2  506  503  0.52078802517E+02 -0.20436237689E+03  0.26428169057E+02  0.21254324473E+03  0.00000000000E+00 0.  1.
<scales pt_clust_3="168.53938" pt_clust_4="33.50228" pt_clust_5="72.35350" pt_clust_6="14000.00000"></scales>
<clustering>
<clus scale="   33.502">  1  4  2 -1</clus>
<clus scale="   72.354">  1  5  2 -1</clus>
<clus scale="  168.539">  2  3  1 -1</clus>
<clus scale="   33.502">  1  3  2 -1</clus>
</clustering>
</event>
<event>
 6    0  0.8610502E+002  0.1130556E+03  0.7546771E-02  0.1255014E+00
         21   -1    0    0  503  501  0.00000000000E+00  0.00000000000E+00  0.16446201394E+04  0.16446201394E+04  0.00000000000E+00 0.  1.
         21   -1    0    0  506  502 -0.00000000000E+00 -0.00000000000E+00 -0.53998826158E+02  0.53998826158E+02  0.00000000000E+00 0. -1.
         21    1    1    2  503  505 -0.29435941751E+02 -0.16570795796E+02  0.17247867563E+03  0.17575539675E+03  0.00000000000E+00 0.  1.
         21    1    1    2  504  502  0.43473967839E+02 -0.43513788497E+01 -0.31059055263E+02  0.53605832624E+02  0.00000000000E+00 0. -1.
         21    1    1    2  505  504  0.92877933296E+02  0.45823085865E+01  0.27943762147E+03  0.29450414655E+03  0.00000000000E+00 0. -1.
         21    1    1    2  506  501 -0.10691595938E+03  0.16339866059E+02  0.11697640714E+04  0.11747535897E+04  0.00000000000E+00 0.  1.
<scales pt_clust_3="33.77967" pt_clust_4="43.47956" pt_clust_5="14000.00000" pt_clust_6="113.05558"></scales>
<clustering>
<clus scale="   33.780">  1  3  2 -1</clus>
<clus scale="   43.480">  2  4  1 -1</clus>
<clus scale="  113.056">  1  6  2 -1</clus>
<clus scale="   33.780">  1  3  2 -1</clus>
</clustering>
</event>
<event>
 6    0  0.8610502E+002  0.1733402E+03  0.7546771E-02  0.1174409E+00
         21   -1    0    0  506  501  0.00000000000E+00  0.00000000000E+00  0.95156076527E+03  0.95156076527E+03  0.00000000000E+00 0.  1.
         21   -1    0    0  505  502 -0.00000000000E+00 -0.00000000000E+00 -0.26898975008E+04  0.26898975008E+04  0.00000000000E+00 0. -1.
         21    1    1    2  503  502  0.90989264017E+02 -0.44623578002E+02 -0.58389102427E+03  0.59262048404E+03  0.00000000000E+00 0. -1.
         21    1    1    2  504  501 -0.21956652593E+03  0.17221063601E+02 -0.78088875184E+03  0.81135273901E+03  0.00000000000E+00 0. -1.
         21    1    1    2  505  504  0.46767674507E+02  0.17986299485E+03 -0.12907775709E+04  0.13040876696E+04  0.00000000000E+00 0. -1.
         21    1    1    2  506  503  0.81809587410E+02 -0.15246048045E+03  0.91722061148E+03  0.93339737348E+03  0.00000000000E+00 0.  1.
<scales pt_clust_3="101.34254" pt_clust_4="14000.00000" pt_clust_5="163.17795" pt_clust_6="173.34019"></scales>
<clustering>
<clus scale="  101.343">  2  3  1 -1</clus>
<clus scale="  173.340">  1  6  2 -1</clus>
<clus scale="  163.178">  2  5  1 -1</clus>
<clus scale="  173.340">  1  3  2 -1</clus>
</clustering>
</event>
<event>
 6    0  0.8610502E+002  0.8558238E+02  0.7546771E-02  0.1313917E+00
         21   -1    0    0  506  501  0.00000000000E+00  0.00000000000E+00  0.17595304964E+03  0.17595304964E+03  0.00000000000E+00 0.  1.
         21   -1    0    0  504  502 -0.00000000000E+00 -0.00000000000E+00 -0.33532100876E+03  0.33532100876E+03  0.00000000000E+00 0. -1.
         21    1    1    2  503  502 -0.76988647724E+02  0.11454761449E+02 -0.41628962573E+02  0.88269099708E+02  0.00000000000E+00 0. -1.
         21    1    1    2  504  505  0.10263304564E+02  0.55863669744E+02 -0.23226817519E+03  0.23911208715E+03  0.00000000000E+00 0. -1.
         21    1    1    2  505  501  0.83909973506E+02 -0.37442153381E+02  0.11765746039E+03  0.14928521859E+03  0.00000000000E+00 0.  1.
         21    1    1    2  506  503 -0.17184630346E+02 -0.29876277812E+02 -0.31282817461E+01  0.34607652950E+02  0.00000000000E+00 0.  1.
<scales pt_clust_3="14000.00000" pt_clust_4="56.10523" pt_clust_5="85.58238" pt_clust_6="34.46598"></scales>
<clustering>
<clus scale="   34.466">  1  6  2 -1</clus>
<clus scale="   56.105">  2  4  1 -1</clus>
<clus scale="   85.582">  1  5  2 -1</clus>
<clus scale="   34.466">  1  3  2 -1</clus>
</clustering>
</event>
<event>
 6    0  0.8610502E+002  0.1180916E+03  0.7546771E-02  0.1246279E+00
         21   -1    0    0  503  501  0.00000000000E+00  0.00000000000E+00  0.41827410912E+03  0.41827410912E+03  0.00000000000E+00 0. -1.
         21   -1    0    0  504  502 -0.00000000000E+00 -0.00000000000E+00 -0.61754061858E+03  0.61754061858E+03  0.00000000000E+00 0.  1.
         21    1    1    2  503  502 -0.18544916152E+01 -0.44476529332E+02  0.24281157924E+02  0.50706759221E+02  0.00000000000E+00 0. -1.
         21    1    1    2  504  506  0.11130309932E+03  0.46191103059E+02 -0.58549516133E+03  0.59776800003E+03  0.00000000000E+00 0.  1.
         21    1    1    2  505  501 -0.33394503492E+02 -0.20913816289E+02  0.23375777761E+03  0.23705543480E+03  0.00000000000E+00 0. -1.
         21    1    1    2  506  505 -0.76054104218E+02  0.19199242562E+02  0.12818971632E+03  0.15028453365E+03  0.00000000000E+00 0. -1.
<scales pt_clust_3="49.53482" pt_clust_4="14000.00000" pt_clust_5="39.40280" pt_clust_6="118.09157"></scales>
<clustering>
<clus scale="   39.403">  1  5  2 -1</clus>
<clus scale="   49.535">  1  3  2 -1</clus>
<clus scale="  118.092">  1  6  2 -1</clus>
<clus scale="   39.403">  1  3  2 -1</clus>
</clustering>
</event>
<event>
 6    0  0.8610502E+002  0.1804050E+03  0.7546771E-02  0.1167412E+00
         21   -1    0    0  503  501  0.00000000000E+00  0.00000000000E+00  0.50394690512E+03  0.50394690512E+03  0.00000000000E+00 0. -1.
         21   -1    0    0  504  502 -0.00000000000E+00 -0.00000000000E+00 -0.11866616714E+04  0.11866616714E+04  0.00000000000E+00 0. -1.
         21    1    1    2  503  505  0.12445907260E+02  0.31400811023E+02  0.24606052371E+03  0.24836805927E+03  0.00000000000E+00 0. -1.
         21    1    1    2  504  501  0.67101671848E+02 -0.15141846962E+03 -0.11536511494E+04  0.11654789410E+04  0.00000000000E+00 0. -1.
         21    1    1    2  505  506 -0.23787526181E+02  0.43396953139E+02  0.14370349427E+03  0.15198630271E+03  0.00000000000E+00 0. -1.
         21    1    1    2  506  502 -0.55760052927E+02  0.76620705459E+02  0.81172365208E+02  0.12477527352E+03  0.00000000000E+00 0. -1.
<scales pt_clust_3="33.77738" pt_clust_4="165.07640" pt_clust_5="57.32072" pt_clust_6="57.32072"></scales>
<clustering>
<clus scale="   33.777">  1  3  2 -1</clus>
<clus scale="   57.321">  5  6 -1 -1</clus>
<clus scale="  165.076">  2  4  1 -1</clus>
<clus scale="   33.777">  1  3  2 -1</clus>
</clustering>
</event>
<event>
 6    0  0.8610502E+002  0.1093559E+03  0.7546771E-02  0.1261767E+00
         21   -1    0    0  504  501  0.00000000000E+00  0.00000000000E+00  0.16169156081E+03  0.16169156081E+03  0.00000000000E+00 0.  1.
         21   -1    0    0  505  502 -0.00000000000E+00 -0.00000000000E+00 -0.35203657746E+03  0.35203657746E+03  0.00000000000E+00 0.  1.
         21    1    1    2  503  506  0.78177271649E+02 -0.61548725089E+02 -0.53438556735E+02  0.11294073981E+03  0.00000000000E+00 0.  1.
         21    1    1    2  504  503  0.35883110600E+02 -0.97496391591E+01  0.37975494354E+02  0.53148765380E+02  0.00000000000E+00 0.  1.
         21    1    1    2  505  501 -0.85216809033E+02  0.10244850470E+03  0.31504501318E+02  0.13693112962E+03  0.00000000000E+00 0.  1.
         21    1    1    2  506  502 -0.28843573216E+02 -0.31150140449E+02 -0.20638645559E+03  0.21070750346E+03  0.00000000000E+00 0.  1.
<scales pt_clust_3="109.35588" pt_clust_4="37.18404" pt_clust_5="14000.00000" pt_clust_6="42.13729"></scales>
<clustering>
<clus scale="   37.184">  1  4  2 -1</clus>
<clus scale="   42.137">  2  6  1 -1</clus>
<clus scale="  109.356">  2  3  1 -1</clus>
<clus scale="   37.184">  1  3  2 -1</clus>
</clustering>
</event>
<event>
 6    0  0.8610502E+002  0.1322110E+03  0.7546771E-02  0.1224211E+00
         21   -1    0    0  505  501  0.00000000000E+00  0.00000000000E+00  0.70107723341E+03  0.70107723341E+03  0.00000000000E+00 0. -1.
         21   -1    0    0  506  502 -0.00000000000E+00 -0.00000000000E+00 -0.32979902201E+03  0.32979902201E+03  0.00000000000E+00 0.  1.
         21    1    1    2  503  502 -0.62002238132E+01 -0.13327278135E+03 -0.27631138034E+03  0.30683555193E+03  0.00000000000E+00 0.  1.
         21    1    1    2  504  503 -0.69537964864E+02  0.21483398951E+02  0.51370395669E+02  0.89084131803E+02  0.00000000000E+00 0. -1.
         21    1    1    2  505  504 -0.31555623344E+02  0.97839483593E+01  0.31879815695E+03  0.32050545688E+03  0.00000000000E+00 0. -1.
         21    1    1    2  506  501  0.10729381202E+03  0.10200543404E+03  0.27742103911E+03  0.31445111482E+03  0.00000000000E+00 0. -1.
<scales pt_clust_3="132.21103" pt_clust_4="78.86375" pt_clust_5="33.03760" pt_clust_6="14000.00000"></scales>
<clustering>
<clus scale="   33.038">  1  5  2 -1</clus>
<clus scale="   78.864">  1  4  2 -1</clus>
<clus scale="  132.211">  2  3  1 -1</clus>
<clus scale="   33.038">  1  3  2 -1</clus>
</clustering>
</event>
<event>
 6    0  0.8610502E+002  0.6579801E+02  0.7546771E-02  0.1374995E+00
         21   -1    0    0  503  501  0.00000000000E+00  0.00000000000E+00  0.17893376158E+04  0.17893376158E+04  0.00000000000E+00 0. -1.
         21   -1    0    0  506  502 -0.00000000000E+00 -0.00000000000E+00 -0.22161913146E+02  0.22161913146E+02  0.00000000000E+00 0. -1.
         21    1    1    2  503  504  0.39939696594E+02  0.25516290597E+02  0.97341952020E+03  0.97457263596E+03  0.00000000000E+00 0. -1.
         21    1    1    2  504  505 -0.14020096626E+02  0.55746175758E+02  0.14261697280E+03  0.15376540623E+03  0.00000000000E+00 0. -1.
         21    1    1    2  505  502  0.47039741206E+02 -0.21175504225E+01  0.37618067665E+02  0.60268899835E+02  0.00000000000E+00 0. -1.
         21    1    1    2  506  501 -0.72959341174E+02 -0.79144915933E+02  0.61352114198E+03  0.62289258692E+03  0.00000000000E+00 0. -1.
<scales pt_clust_3="49.46419" pt_clust_4="14000.00000" pt_clust_5="47.08738" pt_clust_6="65.79801"></scales>
<clustering>
<clus scale="   47.087">  2  5  1 -1</clus>
<clus scale="   49.464">  1  3  2 -1</clus>
<clus scale="   65.798">  1  6  2 -1</clus>
<clus scale="   49.464">  1  3  2 -1</clus>
</clustering>
</event>
<event>
 6    0  0.8610502E+002  0.1919475E+03  0.7546771E-02  0.1156716E+00
         21   -1    0    0  505  501  0.00000000000E+00  0.00000000000E+00  0.53748955936E+03  0.53748955936E+03  0.00000000000E+00 0.  1.
         21   -1    0    0  504  502 -0.00000000000E+00 -0.00000000000E+00 -0.81123466715E+03  0.81123466715E+03  0.00000000000E+00 0. -1.
         21    1    1    2  503  501 -0.31796655665E+02 -0.64671261389E+02  0.41166863105E+01  0.72182729702E+02  0.00000000000E+00 0.  1.
         21    1    1    2  504  503 -0.11940740206E+03 -0.44644574843E+02 -0.51870928107E+02  0.13762942604E+03  0.00000000000E+00 0. -1.
         21    1    1    2  505  506  0.94707522428E+02  0.14429738573E+03  0.43842739673E+03  0.47117919366E+03  0.00000000000E+00 0.  1.
         21    1    1    2  506  502  0.56496535297E+02 -0.34981549501E+02 -0.66441826273E+03  0.66773287710E+03  0.00000000000E+00 0. -1.
<scales pt_clust_3="62.58161" pt_clust_4="62.58161" pt_clust_5="172.96181" pt_clust_6="66.44974"></scales>
<clustering>
<clus scale="   62.582">  3  4 -1 -1</clus>
<clus scale="   66.450">  2  6  1 -1</clus>
<clus scale="  172.962">  1  5  2 -1</clus>
<clus scale="  172.962">  1  3  2 -1</clus>
</clustering>
</event>
<event>
 6    0  0.8610502E+002  0.1020868E+03  0.7546771E-02  0.1275968E+00
         21   -1    0    0  503  501  0.00000000000E+00  0.00000000000E+00  0.45489922025E+03  0.45489922025E+03  0.00000000000E+00 0.  1.
         21   -1    0    0  506  502 -0.00000000000E+00 -0.00000000000E+00 -0.98128804228E+02  0.98128804228E+02  0.00000000000E+00 0. -1.
         21    1    1    2  503  502  0.37784786745E+02 -0.42316451088E+02 -0.49175993832E+01  0.56943436196E+02  0.00000000000E+00 0. -1.
         21    1    1    2  504  501 -0.12025218502E+02  0.55193899998E+02  0.16553649322E+03  0.17490941388E+03  0.00000000000E+00 0.  1.
         21    1    1    2  505  504  0.65962348697E+02  0.47377780465E+02  0.19520761941E+03  0.21142776592E+03  0.00000000000E+00 0.  1.
         21    1    1    2  506  505 -0.91721916941E+02 -0.60255229375E+02  0.94390277188E+00  0.10974740847E+03  0.00000000000E+00 0. -1.
<scales pt_clust_3="52.29852" pt_clust_4="56.48869" pt_clust_5="14000.00000" pt_clust_6="102.08685"></scales>
<clustering>
<clus scale="   56.489">  1  4  2 -1</clus>
<clus scale="   52.299">  2  3  1 -1</clus>
<clus scale="  102.087">  2  6  1 -1</clus>
<clus scale="   56.489">  1  3  2 -1</clus>
</clustering>
</event>
<event>
 6    0  0.8610502E+002  0.9232963E+02  0.7546771E-02  0.1297306E+00
         21   -1    0    0  503  501  0.00000000000E+00  0.00000000000E+00  0.94314449356E+03  0.94314449356E+03  0.00000000000E+00 0.  1.
         21   -1    0    0  505  502 -0.00000000000E+00 -0.00000000000E+00 -0.42864265528E+03  0.42864265528E+03  0.00000000000E+00 0.  1.
         21    1    1    2  503  504  0.17460559463E+02 -0.51102563077E+02  0.21461716315E+03  0.22130718427E+03  0.00000000000E+00 0.  1.
         21    1    1    2  504  502 -0.31642232412E+02  0.38500063685E+01 -0.40567469019E+03  0.40692506396E+03  0.00000000000E+00 0.  1.
         21    1    1    2  505  506  0.65530205164E+02  0.88905038294E+02  0.16247026316E+03  0.19645584754E+03  0.00000000000E+00 0.  1.
         21    1    1    2  506  501 -0.51348532215E+02 -0.41652481586E+02  0.54308910216E+03  0.54709905307E+03  0.00000000000E+00 0.  1.
<scales pt_clust_3="52.10351" pt_clust_4="31.87559" pt_clust_5="14000.00000" pt_clust_6="92.32963"></scales>
<clustering>
<clus scale="   31.876">  2  4  1 -1</clus>
<clus scale="   52.104">  1  3  2 -1</clus>
<clus scale="   92.330">  1  6  2 -1</clus>
<clus scale="   52.104">  1  3  2 -1</clus>
</clustering>
</event>
<event>
 6    0  0.1355711E+003  0.1280770E+03  0.7546771E-02  0.1230337E+00
         21   -1    0    0  504  501  0.00000000000E+00  0.00000000000E+00  0.32939282945E+03  0.32939282945E+03  0.00000000000E+00 0.  1.
         21   -1    0    0  505  502 -0.00000000000E+00 -0.00000000000E+00 -0.73655470607E+03  0.73655470607E+03  0.00000000000E+00 0.  1.
         21    1    1    2  503  502  0.44781954397E+02  0.18109407802E+01 -0.34129088809E+02  0.56333805562E+02  0.00000000000E+00 0. -1.
         21    1    1    2  504  506 -0.47804203683E+02 -0.55011748264E+02  0.22869787011E+03  0.24002968593E+03  0.00000000000E+00 0.  1.
         21    1    1    2  505  501  0.50073400713E+02  0.67734040233E+02 -0.67558588786E+03  0.68081681644E+03  0.00000000000E+00 0.  1.
         21    1    1    2  506  503 -0.47051151428E+02 -0.14533232749E+02  0.73855229945E+02  0.88767227596E+02  0.00000000000E+00 0.  1.
<scales pt_clust_3="44.81856" pt_clust_4="42.98846" pt_clust_5="116.91335" pt_clust_6="42.98846"></scales>
<clustering>
<clus scale="   42.988">  4  6 -1 -1</clus>
<clus scale="   44.819">  2  3  1 -1</clus>
<clus scale="  116.913">  2  5  1 -1</clus>
<clus scale="  128.077">  1  3  2 -1</clus>
</clustering>
</event>
<event>
 6    0  0.8610502E+002  0.1120815E+03  0.7546771E-02  0.1256763E+00
         21   -1    0    0  503  501  0.00000000000E+00  0.00000000000E+00  0.91819293339E+03  0.91819293339E+03  0.00000000000E+00 0. -1.
         21   -1    0    0  504  502 -0.00000000000E+00 -0.00000000000E+00 -0.10587784298E+03  0.10587784298E+03  0.00000000000E+00 0. -1.
         21    1    1    2  503  506 -0.30270233691E+02  0.84268735084E+02  0.66525734191E+03  0.67125616402E+03  0.00000000000E+00 0. -1.
         21    1    1    2  504  505  0.48692496492E+02 -0.12167641217E+03  0.13244164373E+03  0.18632470981E+03  0.00000000000E+00 0. -1.
         21    1    1    2  505  501  0.18571684421E+02  0.29095122311E+02  0.82112688365E+02  0.89072595084E+02  0.00000000000E+00 0.  1.
         21    1    1    2  506  502 -0.36993947221E+02  0.83125547708E+01 -0.67496583592E+02  0.77417307461E+02  0.00000000000E+00 0. -1.
<scales pt_clust_3="112.08155" pt_clust_4="14000.00000" pt_clust_5="34.51715" pt_clust_6="37.84691"></scales>
<clustering>
<clus scale="   34.517">  1  5  2 -1</clus>
<clus scale="   37.847">  2  6  1 -1</clus>
<clus scale="  112.082">  1  3  2 -1</clus>
<clus scale="   34.517">  1  3  2 -1</clus>
</clustering>
</event>
<event>
 6    0  0.8610502E+002  0.1378172E+03  0.7546771E-02  0.1216297E+00
         21   -1    0    0  503  501  0.00000000000E+00  0.00000000000E+00  0.52451524478E+02  0.52451524478E+02  0.00000000000E+00 0. -1.
         21   -1    0    0  505  502 -0.00000000000E+00 -0.00000000000E+00 -0.35658757100E+03  0.35658757100E+03  0.00000000000E+00 0. -1.
         21    1    1    2  503  506 -0.25418354938E+02  0.46497164046E+02 -0.29704007342E+02  0.60748720845E+02  0.00000000000E+00 0. -1.
         21    1    1    2  504  501 -0.47474138017E+01 -0.68807998932E+02 -0.11025796420E+03  0.13005344027E+03  0.00000000000E+00 0. -1.
         21    1    1    2  505  504  0.36021149537E+02 -0.53023396993E+02 -0.49873097265E+02  0.81217791606E+02  0.00000000000E+00 0. -1.
         21    1    1    2  506  502 -0.58553807967E+01  0.75334231878E+02 -0.11430097771E+03  0.13701914276E+03  0.00000000000E+00 0. -1.
<scales pt_clust_3="42.31964" pt_clust_4="54.30121" pt_clust_5="54.30121" pt_clust_6="135.55328"></scales>
<clustering>
<clus scale="   42.320">  3  6 -1 -1</clus>
<clus scale="   54.301">  4  5 -1 -1</clus>
<clus scale="  135.553">  1  3  2 -1</clus>
<clus scale="  135.553">  1  3  2 -1</clus>
</clustering>
</event>
<event>
 6    0  0.8610502E+002  0.1597013E+03  0.7546771E-02  0.1189034E+00
         21   -1    0    0  506  501  0.00000000000E+00  0.00000000000E+00  0.19149287469E+03  0.19149287469E+03  0.00000000000E+00 0. -1.
         21   -1    0    0  504  502 -0.00000000000E+00 -0.00000000000E+00 -0.24243289997E+03  0.24243289997E+03  0.00000000000E+00 0. -1.
         21    1    1    2  503  502  0.30600885814E+02  0.21460255735E+02 -0.66021231189E+02  0.75866723644E+02  0.00000000000E+00 0. -1.
         21    1    1    2  504  505 -0.48232320913E+02  0.57313421105E+02  0.51975386756E+02  0.91173602802E+02  0.00000000000E+00 0. -1.
         21    1    1    2  505  501 -0.77920925749E+02  0.38387877772E+02  0.41852965186E+02  0.96420799231E+02  0.00000000000E+00 0. -1.
         21    1    1    2  506  503  0.95552360848E+02 -0.11716155461E+03 -0.78747146041E+02  0.17046464898E+03  0.00000000000E+00 0. -1.
<scales pt_clust_3="37.37589" pt_clust_4="33.66883" pt_clust_5="33.66883" pt_clust_6="155.53125"></scales>
<clustering>
<clus scale="   33.669">  4  5 -1 -1</clus>
<clus scale="   37.376">  2  3  1 -1</clus>
<clus scale="  155.531">  2  6  1 -1</clus>
<clus scale="  159.701">  1  3  2 -1</clus>
</clustering>
</event>
<event>
 6    0  0.8610502E+002  0.8754031E+02  0.7546771E-02  0.1308920E+00
         21   -1    0    0  503  501  0.00000000000E+00  0.00000000000E+00  0.39128649056E+04  0.39128649056E+04  0.00000000000E+00 0. -1.
         21   -1    0    0  504  502 -0.00000000000E+00 -0.00000000000E+00 -0.59289257007E+03  0.59289257007E+03  0.00000000000E+00 0. -1.
         21    1    1    2  503  505 -0.78304520903E+02  0.39123945665E+02  0.38880466122E+04  0.38890318513E+04  0.00000000000E+00 0. -1.
         21    1    1    2  504  501 -0.46577106740E+02  0.19728430371E+02 -0.49178742680E+02  0.70549178371E+02  0.00000000000E+00 0.  1.
         21    1    1    2  505  506  0.87892204472E+02 -0.32579891721E+02 -0.47086822442E+03  0.48010766888E+03  0.00000000000E+00 0. -1.
         21    1    1    2  506  502  0.36989423172E+02 -0.26272484316E+02 -0.48027309558E+02  0.66068777211E+02  0.00000000000E+00 0.  1.
<scales pt_clust_3="87.54031" pt_clust_4="45.64610" pt_clust_5="14000.00000" pt_clust_6="45.37026"></scales>
<clustering>
<clus scale="   45.370">  2  6  1 -1</clus>
<clus scale="   45.646">  2  4  1 -1</clus>
<clus scale="   87.540">  1  3  2 -1</clus>
<clus scale="   87.540">  1  3  2 -1</clus>
</clustering>
</event>
<event>
 6    0  0.8610502E+002  0.1214064E+03  0.7546771E-02  0.1240795E+00
         21   -1    0    0  506  501  0.00000000000E+00  0.00000000000E+00  0.52905978985E+03  0.52905978985E+03  0.00000000000E+00 0. -1.
         21   -1    0    0  503  502 -0.00000000000E+00 -0.00000000000E+00 -0.21474562991E+03  0.21474562991E+03  0.00000000000E+00 0. -1.
         21    1    1    2  503  505  0.30482337912E+02 -0.29465859414E+02 -0.44094565389E+02  0.61169767798E+02  0.00000000000E+00 0. -1.
         21    1    1    2  504  501  0.75015351137E+02  0.90099055940E+02  0.38425926784E+03  0.40174659639E+03  0.00000000000E+00 0. -1.
         21    1    1    2  505  504 -0.67010634914E+02 -0.89193298590E+02 -0.12695094961E+03  0.16900418134E+03  0.00000000000E+00 0. -1.
         21    1    1    2  506  502 -0.38487054135E+02  0.28560102064E+02  0.10110040709E+03  0.11188487423E+03  0.00000000000E+00 0. -1.
<scales pt_clust_3="42.39587" pt_clust_4="14000.00000" pt_clust_5="121.40643" pt_clust_6="46.52842"></scales>
<clustering>
<clus scale="   42.396">  2  3  1 -1</clus>
<clus scale="   46.528">  1  6  2 -1</clus>
<clus scale="  121.406">  2  5  1 -1</clus>
<clus scale="   46.528">  1  3  2 -1</clus>
</clustering>
</event>
<event>
 6    0  0.8610502E+002  0.1173605E+03  0.7546771E-02  0.1247516E+00
         21   -1    0    0  505  501  0.00000000000E+00  0.00000000000E+00  0.16533877419E+04  0.16533877419E+04  0.00000000000E+00 0.  1.
         21   -1    0    0  506  502 -0.00000000000E+00 -0.00000000000E+00 -0.76496554578E+02  0.76496554578E+02  0.00000000000E+00 0.  1.
         21    1    1    2  503  504 -0.38514380610E+02 -0.54055490718E+02  0.32950543681E+02  0.74101902266E+02  0.00000000000E+00 0.  1.
         21    1    1    2  504  502 -0.45947222572E+02 -0.59115723989E+02 -0.11020668557E+02  0.75678736910E+02  0.00000000000E+00 0.  1.
         21    1    1    2  505  503  0.46265357885E+02  0.97099244653E+02  0.15254315438E+04  0.15292188010E+04  0.00000000000E+00 0.  1.
         21    1    1    2  506  501  0.38196245297E+02  0.16071970055E+02  0.29529768437E+02  0.50884856295E+02  0.00000000000E+00 0.  1.
<scales pt_clust_3="43.64147" pt_clust_4="43.64147" pt_clust_5="108.45113" pt_clust_6="41.43985"></scales>
<clustering>
<clus scale="   41.440">  2  6  1 -1</clus>
<clus scale="   43.641">  3  4 -1 -1</clus>
<clus scale="  108.451">  1  5  2 -1</clus>
<clus scale="  108.451">  1  3  2 -1</clus>
</clustering>
</event>
<event>
 6    0  0.8610502E+002  0.1140804E+03  0.7546771E-02  0.1253195E+00
         21   -1    0    0  506  501  0.00000000000E+00  0.00000000000E+00  0.12059069453E+04  0.12059069453E+04  0.00000000000E+00 0.  1.
         21   -1    0    0  505  502 -0.00000000000E+00 -0.00000000000E+00 -0.88457493438E+02  0.88457493438E+02  0.00000000000E+00 0.  1.
         21    1    1    2  503  502 -0.42978621359E+02 -0.23769737646E+02 -0.55642313534E+02  0.74217446582E+02  0.00000000000E+00 0.  1.
         21    1    1    2  504  503  0.10221220923E+02  0.54941370175E+02  0.18299233481E+03  0.19133536556E+03  0.00000000000E+00 0.  1.
         21    1    1    2  505  501 -0.25684989724E+02  0.77561918382E+02  0.95266406714E+02  0.12550401638E+03  0.00000000000E+00 0.  1.
         21    1    1    2  506  504  0.58442390161E+02 -0.10873355091E+03  0.89483302390E+03  0.90330761024E+03  0.00000000000E+00 0.  1.
<scales pt_clust_3="49.11377" pt_clust_4="50.79356" pt_clust_5="114.08041" pt_clust_6="14000.00000"></scales>
<clustering>
<clus scale="   49.114">  2  3  1 -1</clus>
<clus scale="   50.794">  2  4  1 -1</clus>
<clus scale="  114.080">  2  5  1 -1</clus>
<clus scale="  114.080">  1  3  2 -1</clus>
</clustering>
</event>
<event>
 6    0  0.8610502E+002  0.1161046E+03  0.7546771E-02  0.1249665E+00
         21   -1    0    0  503  501  0.00000000000E+00  0.00000000000E+00  0.85902467583E+03  0.85902467583E+03  0.00000000000E+00 0.  1.
         21   -1    0    0  501  502 -0.00000000000E+00 -0.00000000000E+00 -0.34358845261E+02  0.34358845261E+02  0.00000000000E+00 0.  1.
         21    1    1    2  503  504 -0.43061151772E+01  0.37927941289E+02  0.30007758002E+03  0.30249566176E+03  0.00000000000E+00 0. -1.
         21    1    1    2  504  506  0.47288861923E+02 -0.58276759086E+02  0.18746429841E+03  0.20192889910E+03  0.00000000000E+00 0.  1.
         21    1    1    2  505  502 -0.65273157873E+02  0.80740679705E+02  0.10339514668E+03  0.14652712669E+03  0.00000000000E+00 0.  1.
         21    1    1    2  506  505  0.22290411127E+02 -0.60391861907E+02  0.23372880546E+03  0.24243183355E+03  0.00000000000E+00 0.  1.
<scales pt_clust_3="38.17160" pt_clust_4="31.12357" pt_clust_5="111.13488" pt_clust_6="31.12357"></scales>
<clustering>
<clus scale="   31.124">  4  6 -1 -1</clus>
<clus scale="   38.172">  1  3  2 -1</clus>
<clus scale="  111.135">  2  5  1 -1</clus>
<clus scale="   38.172">  1  3  2 -1</clus>
</clustering>
</event>
<event>
 6    0  0.8610502E+002  0.8275409E+02  0.7546771E-02  0.1321413E+00
         21   -1    0    0  504  501  0.00000000000E+00  0.00000000000E+00  0.80611680502E+03  0.80611680502E+03  0.00000000000E+00 0.  1.
         21   -1    0    0  505  502 -0.00000000000E+00 -0.00000000000E+00 -0.31843423596E+02  0.31843423596E+02  0.00000000000E+00 0.  1.
         21    1    1    2  503  506 -0.70193115093E+02  0.60357436120E+02  0.28518057033E+03  0.29983003718E+03  0.00000000000E+00 0.  1.
         21    1    1    2  504  503  0.65359963252E+02 -0.40418473823E+02  0.30868667625E+03  0.31810853795E+03  0.00000000000E+00 0.  1.
         21    1    1    2  505  501 -0.58341368252E+02 -0.16057795837E+02  0.10845341824E+03  0.12419223802E+03  0.00000000000E+00 0.  1.
         21    1    1    2  506  502  0.63174520092E+02 -0.38811664598E+01  0.71952716611E+02  0.95829415472E+02  0.00000000000E+00 0.  1.
<scales pt_clust_3="82.75409" pt_clust_4="14000.00000" pt_clust_5="60.51089" pt_clust_6="36.13035"></scales>
<clustering>
<clus scale="   60.511">  2  5  1 -1</clus>
<clus scale="   36.130">  2  6  1 -1</clus>
<clus scale="   82.754">  2  3  1 -1</clus>
<clus scale="   82.754">  1  3  2 -1</clus>
</clustering>
</event>
<event>
 6    0  0.8610502E+002  0.8516855E+02  0.7546771E-02  0.1314992E+00
         21   -1    0    0  504  501  0.00000000000E+00  0.00000000000E+00  0.49109686086E+02  0.49109686086E+02  0.00000000000E+00 0. -1.
         21   -1    0    0  503  502 -0.00000000000E+00 -0.00000000000E+00 -0.28836697645E+04  0.28836697645E+04  0.00000000000E+00 0.  1.
         21    1    1    2  503  501  0.96293834905E+02 -0.44837077351E+02 -0.17259066839E+04  0.17291722724E+04  0.00000000000E+00 0.  1.
         21    1    1    2  504  506 -0.67432476433E+02  0.51283231259E+02  0.14077615900E+01  0.84729513624E+02  0.00000000000E+00 0. -1.
         21    1    1    2  505  502  0.36542092884E+02  0.38157320352E+02 -0.64188170859E+03  0.64405235305E+03  0.00000000000E+00 0. -1.
         21    1    1    2  506  505 -0.65403451356E+02 -0.44603474260E+02 -0.46817944753E+03  0.47482531151E+03  0.00000000000E+00 0. -1.
<scales pt_clust_3="14000.00000" pt_clust_4="85.16855" pt_clust_5="52.83281" pt_clust_6="68.32701"></scales>
<clustering>
<clus scale="   52.833">  2  5  1 -1</clus>
<clus scale="   68.327">  2  6  1 -1</clus>
<clus scale="   85.169">  1  4  2 -1</clus>
<clus scale="   85.169">  1  3  2 -1</clus>
</clustering>
</event>
<event>
 6    0  0.8610502E+002  0.2653154E+03  0.7546771E-02  0.1103991E+00
         21   -1    0    0  505  501  0.00000000000E+00  0.00000000000E+00  0.51852488063E+03  0.51852488063E+03  0.00000000000E+00 0. -1.
         21   -1    0    0  506  502 -0.00000000000E+00 -0.00000000000E+00 -0.43160761905E+03  0.43160761905E+03  0.00000000000E+00 0. -1.
         21    1    1    2  503  502  0.61949694253E+01  0.40804409807E+02 -0.18520383989E+02  0.45236955346E+02  0.00000000000E+00 0.  1.
         21    1    1    2  504  501  0.23917338830E+02 -0.24579879868E+03 -0.27604427271E+03  0.37039104879E+03  0.00000000000E+00 0. -1.
         21    1    1    2  505  503 -0.56958913561E+02  0.26175715689E+03  0.38787386971E+03  0.47138865686E+03  0.00000000000E+00 0. -1.
         21    1    1    2  506  504  0.26846605306E+02 -0.56762768020E+02 -0.63919514308E+01  0.63115838684E+02  0.00000000000E+00 0. -1.
<scales pt_clust_3="41.27199" pt_clust_4="14000.00000" pt_clust_5="265.31540" pt_clust_6="59.84810"></scales>
<clustering>
<clus scale="   41.272">  2  3  1 -1</clus>
<clus scale="   59.848">  2  6  1 -1</clus>
<clus scale="  265.315">  1  5  2 -1</clus>
<clus scale="  265.315">  1  3  2 -1</clus>
</clustering>
</event>
<event>
 6    0  0.8610502E+002  0.2187666E+03  0.7546771E-02  0.1134806E+00
         21   -1    0    0  503  501  0.00000000000E+00  0.00000000000E+00  0.87378674890E+02  0.87378674890E+02  0.00000000000E+00 0. -1.
         21   -1    0    0  505  502 -0.00000000000E+00 -0.00000000000E+00 -0.49828758402E+03  0.49828758402E+03  0.00000000000E+00 0. -1.
         21    1    1    2  503  502 -0.14649889134E+03 -0.12905149487E+03 -0.23078351221E+03  0.30228669008E+03  0.00000000000E+00 0. -1.
         21    1    1    2  504  506  0.51941199470E+02 -0.11774452572E+01 -0.46199174178E+02  0.69524371802E+02  0.00000000000E+00 0. -1.
         21    1    1    2  505  504  0.39587474273E+02  0.86705787455E+02 -0.63847359786E+02  0.11472378589E+03  0.00000000000E+00 0. -1.
         21    1    1    2  506  501  0.54970217593E+02  0.43523152673E+02 -0.70078862955E+02  0.99131411136E+02  0.00000000000E+00 0. -1.
<scales pt_clust_3="195.23374" pt_clust_4="35.50249" pt_clust_5="74.15586" pt_clust_6="74.15586"></scales>
<clustering>
<clus scale="   35.502">  4  6 -1 -1</clus>
<clus scale="   74.156">  4  5 -1 -1</clus>
<clus scale="  195.234">  2  3  1 -1</clus>
<clus scale="  218.767">  1  3  2 -1</clus>
</clustering>
</event>
<event>
 6    0  0.8610502E+002  0.7260696E+02  0.7546771E-02  0.1351446E+00
         21   -1    0    0  503  501  0.00000000000E+00  0.00000000000E+00  0.18631095114E+04  0.18631095114E+04  0.00000000000E+00 0.  1.
         21   -1    0    0  504  502 -0.00000000000E+00 -0.00000000000E+00 -0.31617562329E+03  0.31617562329E+03  0.00000000000E+00 0. -1.
         21    1    1    2  503  502 -0.83334702655E+02 -0.13594837741E+02  0.11344208690E+04  0.11375588777E+04  0.00000000000E+00 0.  1.
         21    1    1    2  504  505  0.66447807879E+02 -0.29281757501E+02 -0.30692880084E+03  0.31540136538E+03  0.00000000000E+00 0. -1.
         21    1    1    2  505  506 -0.21039614401E+02  0.53550649251E+02  0.33894630301E+03  0.34379490068E+03  0.00000000000E+00 0.  1.
         21    1    1    2  506  501  0.37926509177E+02 -0.10674054009E+02  0.38049551694E+03  0.38252999090E+03  0.00000000000E+00 0.  1.
<scales pt_clust_3="72.60696" pt_clust_4="14000.00000" pt_clust_5="52.55125" pt_clust_6="39.39994"></scales>
<clustering>
<clus scale="   39.400">  1  6  2 -1</clus>
<clus scale="   52.551">  1  5  2 -1</clus>
<clus scale="   72.607">  1  3  2 -1</clus>
<clus scale="   39.400">  1  3  2 -1</clus>
</clustering>
</event>
<event>
 6    0  0.8610502E+002  0.8446359E+02  0.7546771E-02  0.1316841E+00
         21   -1    0    0  505  501  0.00000000000E+00  0.00000000000E+00  0.16715818489E+03  0.16715818489E+03  0.00000000000E+00 0. -1.
         21   -1    0    0  504  502 -0.00000000000E+00 -0.00000000000E+00 -0.52489208760E+03  0.52489208760E+03  0.00000000000E+00 0. -1.
         21    1    1    2  503  506  0.60311319681E+02  0.11481793523E+02 -0.85035085796E+02  0.10488208942E+03  0.00000000000E+00 0. -1.
         21    1    1    2  504  501 -0.74048145695E+02  0.47357898144E+02 -0.11427181613E+03  0.14416638429E+03  0.00000000000E+00 0. -1.
         21    1    1    2  505  503 -0.23198893356E+02  0.20063150862E+02  0.13421097953E+03  0.13767100530E+03  0.00000000000E+00 0. -1.
         21    1    1    2  506  502  0.36935719370E+02 -0.78902842530E+02 -0.29263798031E+03  0.30533079348E+03  0.00000000000E+00 0. -1.
<scales pt_clust_3="55.86825" pt_clust_4="84.46359" pt_clust_5="30.67114" pt_clust_6="14000.00000"></scales>
<clustering>
<clus scale="   30.671">  1  5  2 -1</clus>
<clus scale="   55.868">  1  3  2 -1</clus>
<clus scale="   84.464">  1  4  2 -1</clus>
<clus scale="   30.671">  1  3  2 -1</clus>
</clustering>
</event>
<event>
 6    0  0.8610502E+002  0.1938985E+03  0.7546771E-02  0.1154991E+00
         21   -1    0    0  506  501  0.00000000000E+00  0.00000000000E+00  0.20338284835E+04  0.20338284835E+04  0.00000000000E+00 0. -1.
         21   -1    0    0  505  502 -0.00000000000E+00 -0.00000000000E+00 -0.97403296375E+02  0.97403296375E+02  0.00000000000E+00 0. -1.
         21    1    1    2  503  504 -0.11917611626E+03 -0.68747291582E+02  0.69175736923E+03  0.70530659622E+03  0.00000000000E+00 0. -1.
         21    1    1    2  504  502  0.15011095436E+03  0.13819321883E+03  0.32206709954E+02  0.20656218559E+03  0.00000000000E+00 0. -1.
         21    1    1    2  505  501  0.24359302014E+02 -0.44648449548E+02  0.25714212759E+03  0.26212388946E+03  0.00000000000E+00 0. -1.
         21    1    1    2  506  503 -0.55294140117E+02 -0.24797477704E+02  0.95531898031E+03  0.95723910857E+03  0.00000000000E+00 0. -1.
<scales pt_clust_3="193.89851" pt_clust_4="14000.00000" pt_clust_5="50.86118" pt_clust_6="64.54006"></scales>
<clustering>
<clus scale="   50.861">  1  5  2 -1</clus>
<clus scale="   64.540">  1  6  2 -1</clus>
<clus scale="  193.899">  1  3  2 -1</clus>
<clus scale="   50.861">  1  3  2 -1</clus>
</clustering>
</event>
<event>
 6    0  0.8610502E+002  0.1809288E+03  0.7546771E-02  0.1166907E+00
         21   -1    0    0  505  501  0.00000000000E+00  0.00000000000E+00  0.90076391113E+02  0.90076391113E+02  0.00000000000E+00 0. -1.
         21   -1    0    0  504  502 -0.00000000000E+00 -0.00000000000E+00 -0.69982483594E+03  0.69982483594E+03  0.00000000000E+00 0. -1.
         21    1    1    2  503  502 -0.35815253303E+02  0.32223401080E+02 -0.73463828350E+02  0.87852228327E+02  0.00000000000E+00 0. -1.
         21    1    1    2  504  506 -0.54467448719E+01 -0.56687333787E+02 -0.86694325077E+02  0.10372572893E+03  0.00000000000E+00 0. -1.
         21    1    1    2  505  503  0.14437078460E+01  0.16520469688E+03 -0.49702285845E+02  0.17252534128E+03  0.00000000000E+00 0. -1.
         21    1    1    2  506  501  0.39818290329E+02 -0.14074076417E+03 -0.39988800556E+03  0.42579792852E+03  0.00000000000E+00 0. -1.
<scales pt_clust_3="48.17759" pt_clust_4="36.77609" pt_clust_5="171.06002" pt_clust_6="36.77609"></scales>
<clustering>
<clus scale="   36.776">  4  6 -1 -1</clus>
<clus scale="   48.178">  2  3  1 -1</clus>
<clus scale="  171.060">  1  5  2 -1</clus>
<clus scale="  171.060">  1  3  2 -1</clus>
</clustering>
</event>
<event>
 6    0  0.8610502E+002  0.9726507E+02  0.7546771E-02  0.1286155E+00
         21   -1    0    0  503  501  0.00000000000E+00  0.00000000000E+00  0.80198976836E+02  0.80198976836E+02  0.00000000000E+00 0. -1.
         21   -1    0    0  504  502 -0.00000000000E+00 -0.00000000000E+00 -0.92507935635E+03  0.92507935635E+03  0.00000000000E+00 0. -1.
         21    1    1    2  503  505  0.43439787942E+01  0.50195822701E+02  0.52978169808E+02  0.73110719081E+02  0.00000000000E+00 0. -1.
         21    1    1    2  504  506  0.30387490387E+01 -0.51877626106E+02 -0.24051555197E+03  0.24606554579E+03  0.00000000000E+00 0. -1.
         21    1    1    2  505  502 -0.99707718031E+02  0.10125045004E+02 -0.27541880404E+03  0.29308644320E+03  0.00000000000E+00 0. -1.
         21    1    1    2  506  501  0.92324990198E+02 -0.84432415987E+01 -0.38192419332E+03  0.39301562512E+03  0.00000000000E+00 0. -1.
<scales pt_clust_3="50.38344" pt_clust_4="43.91738" pt_clust_5="97.26507" pt_clust_6="14000.00000"></scales>
<clustering>
<clus scale="   50.383">  1  3  2 -1</clus>
<clus scale="   43.917">  2  4  1 -1</clus>
<clus scale="   97.265">  1  5  2 -1</clus>
<clus scale="   50.383">  1  3  2 -1</clus>
</clustering>
</event>
<event>
 6    0  0.8610502E+002  0.1174166E+03  0.7546771E-02  0.1247421E+00
         21   -1    0    0  504  501  0.00000000000E+00  0.00000000000E+00  0.80595208389E+03  0.80595208389E+03  0.00000000000E+00 0. -1.
         21   -1    0    0  506  502 -0.00000000000E+00 -0.00000000000E+00 -0.26805190560E+03  0.26805190560E+03  0.00000000000E+00 0.  1.
         21    1    1    2  503  502 -0.29993229199E+02 -0.17839082237E+02 -0.19141936193E+03  0.19457440421E+03  0.00000000000E+00 0.  1.
         21    1    1    2  504  505  0.36525947467E+02  0.60137954542E+02 -0.35955204735E+01  0.70453148847E+02  0.00000000000E+00 0.  1.
         21    1    1    2  505  503 -0.18142582456E+02  0.60482994517E+02 -0.54698724806E+01  0.63381901430E+02  0.00000000000E+00 0.  1.
         21    1    1    2  506  501  0.11609864188E+02 -0.10278186682E+03  0.73838493317E+03  0.74559453500E+03  0.00000000000E+00 0. -1.
<scales pt_clust_3="34.89737" pt_clust_4="51.74423" pt_clust_5="51.74423" pt_clust_6="104.13638"></scales>
<clustering>
<clus scale="   34.897">  2  3  1 -1</clus>
<clus scale="   51.744">  4  5 -1 -1</clus>
<clus scale="  104.136">  1  6  2 -1</clus>
<clus scale="  104.136">  1  3  2 -1</clus>
</clustering>
</event>
<event>
 6    0  0.8610502E+002  0.6317460E+02  0.7546771E-02  0.1384972E+00
         21   -1    0    0  504  501  0.00000000000E+00  0.00000000000E+00  0.11300874703E+04  0.11300874703E+04  0.00000000000E+00 0.  1.
         21   -1    0    0  503  502 -0.00000000000E+00 -0.00000000000E+00 -0.58581797928E+02  0.58581797928E+02  0.00000000000E+00 0. -1.
         21    1    1    2  503  501  0.66025536140E+01 -0.62167886404E+02  0.84756160299E+02  0.10531878523E+03  0.00000000000E+00 0. -1.
         21    1    1    2  504  505 -0.44379225885E+02 -0.43677105529E+02  0.93808097810E+03  0.94014526894E+03  0.00000000000E+00 0.  1.
         21    1    1    2  505  506  0.59408605206E+02  0.76016867056E+02  0.25907745912E+02  0.99895734382E+02  0.00000000000E+00 0. -1.
         21    1    1    2  506  502 -0.21631932935E+02  0.29828124877E+02  0.22760788055E+02  0.43309479668E+02  0.00000000000E+00 0. -1.
<scales pt_clust_3="55.85531" pt_clust_4="14000.00000" pt_clust_5="63.17460" pt_clust_6="36.84640"></scales>
<clustering>
<clus scale="   36.846">  2  6  1 -1</clus>
<clus scale="   55.855">  2  3  1 -1</clus>
<clus scale="   63.175">  2  5  1 -1</clus>
<clus scale="   63.175">  1  3  2 -1</clus>
</clustering>
</event>
<event>
 6    0  0.8610502E+002  0.1163817E+03  0.7546771E-02  0.1249188E+00
         21   -1    0    0  506  501  0.00000000000E+00  0.00000000000E+00  0.95973681377E+03  0.95973681377E+03  0.00000000000E+00 0. -1.
         21   -1    0    0  505  502 -0.00000000000E+00 -0.00000000000E+00 -0.26115687466E+03  0.26115687466E+03  0.00000000000E+00 0. -1.
         21    1    1    2  503  504  0.88147072941E+02 -0.27984616468E+02  0.92432364991E+02  0.13075468376E+03  0.00000000000E+00 0.  1.
         21    1    1    2  504  502  0.12194773697E+01  0.59373938936E+02 -0.21321405996E+03  0.22133004115E+03  0.00000000000E+00 0. -1.
         21    1    1    2  505  501 -0.66349538785E+01  0.74983344159E+02  0.56460044026E+02  0.94097083301E+02  0.00000000000E+00 0.  1.
         21    1    1    2  506  503 -0.82731596432E+02 -0.10637266663E+03  0.76290159005E+03  0.77471188022E+03  0.00000000000E+00 0. -1.
<scales pt_clust_3="88.70346" pt_clust_4="59.38646" pt_clust_5="116.38166" pt_clust_6="14000.00000"></scales>
<clustering>
<clus scale="   59.386">  2  4  1 -1</clus>
<clus scale="   88.703">  2  3  1 -1</clus>
<clus scale="  116.382">  2  5  1 -1</clus>
<clus scale="  116.382">  1  3  2 -1</clus>
</clustering>
</event>
<event>
 6    0  0.8610502E+002  0.1203848E+03  0.7546771E-02  0.1242464E+00
         21   -1    0    0  504  501  0.00000000000E+00  0.00000000000E+00  0.44067583212E+03  0.44067583212E+03  0.00000000000E+00 0.  1.
         21   -1    0    0  503  502 -0.00000000000E+00 -0.00000000000E+00 -0.28527066930E+03  0.28527066930E+03  0.00000000000E+00 0. -1.
         21    1    1    2  503  505  0.17019734416E+02 -0.29292157295E+02 -0.18069209979E+03  0.18384051992E+03  0.00000000000E+00 0. -1.
         21    1    1    2  504  502 -0.31609169410E+02 -0.11276168125E+03 -0.16658211300E+02  0.11828707601E+03  0.00000000000E+00 0. -1.
         21    1    1    2  505  506  0.27046169201E+02  0.20778202210E+02 -0.14347972493E+02  0.37001260386E+02  0.00000000000E+00 0. -1.
         21    1    1    2  506  501 -0.12456734207E+02  0.12127563633E+03  0.36710344641E+03  0.38681764510E+03  0.00000000000E+00 0.  1.
<scales pt_clust_3="33.87775" pt_clust_4="14000.00000" pt_clust_5="34.06751" pt_clust_6="120.38483"></scales>
<clustering>
<clus scale="   33.878">  2  3  1 -1</clus>
<clus scale="   34.068">  2  5  1 -1</clus>
<clus scale="  120.385">  1  6  2 -1</clus>
<clus scale="  120.385">  1  3  2 -1</clus>
</clustering>
</event>
<event>
 6    0  0.8610502E+002  0.1529297E+03  0.7546771E-02  0.1196919E+00
         21   -1    0    0  505  501  0.00000000000E+00  0.00000000000E+00  0.28828156641E+03  0.28828156641E+03  0.00000000000E+00 0.  1.
         21   -1    0    0  503  502 -0.00000000000E+00 -0.00000000000E+00 -0.21643440682E+04  0.21643440682E+04  0.00000000000E+00 0.  1.
         21    1    1    2  503  506  0.47630037747E+02  0.44559088557E+02 -0.14903457362E+03  0.16268201192E+03  0.00000000000E+00 0.  1.
         21    1    1    2  504  502 -0.16377339721E+03 -0.35017595351E+01 -0.10418314079E+04  0.10546310589E+04  0.00000000000E+00 0.  1.
         21    1    1    2  505  504  0.10185404239E+03 -0.17722256982E+03 -0.93141902217E+03  0.95358454269E+03  0.00000000000E+00 0.  1.
         21    1    1    2  506  501  0.14289317074E+02  0.13616524080E+03  0.24622250194E+03  0.28172802105E+03  0.00000000000E+00 0.  1.
<scales pt_clust_3="65.22371" pt_clust_4="152.92966" pt_clust_5="14000.00000" pt_clust_6="137.34911"></scales>
<clustering>
<clus scale="   65.224">  2  3  1 -1</clus>
<clus scale="  137.349">  1  6  2 -1</clus>
<clus scale="  152.930">  2  4  1 -1</clus>
<clus scale="  137.349">  1  3  2 -1</clus>
</clustering>
</event>
<event>
 6    0  0.8610502E+002  0.2893043E+03  0.7546771E-02  0.1090713E+00
         21   -1    0    0  502  501  0.00000000000E+00  0.00000000000E+00  0.13023745230E+03  0.13023745230E+03  0.00000000000E+00 0.  1.
         21   -1    0    0  503  502 -0.00000000000E+00 -0.00000000000E+00 -0.13710269952E+04  0.13710269952E+04  0.00000000000E+00 0. -1.
         21    1    1    2  503  504 -0.52790187507E+01 -0.34143644586E+02 -0.50106927630E+03  0.50225897320E+03  0.00000000000E+00 0. -1.
         21    1    1    2  504  505  0.70236963890E+02  0.86315353117E+02 -0.28203599074E+03  0.30319609389E+03  0.00000000000E+00 0.  1.
         21    1    1    2  505  506  0.16253284589E+03  0.10479086921E+03 -0.34865423972E+03  0.39869516067E+03  0.00000000000E+00 0.  1.
         21    1    1    2  506  501 -0.22749079103E+03 -0.15696257774E+03 -0.10903003618E+03  0.29711421979E+03  0.00000000000E+00 0.  1.
<scales pt_clust_3="34.54933" pt_clust_4="48.00446" pt_clust_5="48.00446" pt_clust_6="281.99149"></scales>
<clustering>
<clus scale="   34.549">  2  3  1 -1</clus>
<clus scale="   48.004">  4  5 -1 -1</clus>
<clus scale="  281.991">  1  6  2 -1</clus>
<clus scale="  281.991">  1  3  2 -1</clus>
</clustering>
</event>
<event>
 6    0  0.8610502E+002  0.8862989E+02  0.7546771E-02  0.1306204E+00
         21   -1    0    0  506  501  0.00000000000E+00  0.00000000000E+00  0.34019110103E+03  0.34019110103E+03  0.00000000000E+00 0.  1.
         21   -1    0    0  505  502 -0.00000000000E+00 -0.00000000000E+00 -0.27507312062E+03  0.27507312062E+03  0.00000000000E+00 0. -1.
         21    1    1    2  503  502  0.59312732960E+02  0.50395578105E+01 -0.21895088221E+03  0.22689840514E+03  0.00000000000E+00 0. -1.
         21    1    1    2  504  503  0.68943839961E+02 -0.15026620967E+02  0.23668983261E+02  0.74426293572E+02  0.00000000000E+00 0. -1.
         21    1    1    2  505  501 -0.56509837449E+02 -0.14168813041E+02  0.19517923590E+02  0.61441568444E+02  0.00000000000E+00 0.  1.
         21    1    1    2  506  504 -0.71746735472E+02  0.24155876198E+02  0.24088195577E+03  0.25249795449E+03  0.00000000000E+00 0.  1.
<scales pt_clust_3="58.76412" pt_clust_4="14000.00000" pt_clust_5="58.25905" pt_clust_6="88.62989"></scales>
<clustering>
<clus scale="   58.259">  1  5  2 -1</clus>
<clus scale="   58.764">  2  3  1 -1</clus>
<clus scale="   88.630">  1  6  2 -1</clus>
<clus scale="   58.259">  1  3  2 -1</clus>
</clustering>
</event>
<event>
 6    0  0.8610502E+002  0.1305597E+03  0.7546771E-02  0.1226628E+00
         21   -1    0    0  505  501  0.00000000000E+00  0.00000000000E+00  0.86394743827E+03  0.86394743827E+03  0.00000000000E+00 0.  1.
         21   -1    0    0  501  502 -0.00000000000E+00 -0.00000000000E+00 -0.58324753889E+03  0.58324753889E+03  0.00000000000E+00 0.  1.
         21    1    1    2  503  506  0.27033655318E+02 -0.16497431277E+03 -0.38263169991E+01  0.16721836949E+03  0.00000000000E+00 0.  1.
         21    1    1    2  504  502 -0.39861410732E+02  0.13146111870E+02 -0.16783532811E+03  0.17300418979E+03  0.00000000000E+00 0.  1.
         21    1    1    2  505  503  0.15667566672E+02  0.42434335606E+02  0.76983777190E+03  0.77116557271E+03  0.00000000000E+00 0.  1.
         21    1    1    2  506  504 -0.28398112592E+01  0.10939386529E+03 -0.31747622742E+03  0.33580684518E+03  0.00000000000E+00 0.  1.
<scales pt_clust_3="130.55965" pt_clust_4="41.97323" pt_clust_5="45.23202" pt_clust_6="14000.00000"></scales>
<clustering>
<clus scale="   41.973">  2  4  1 -1</clus>
<clus scale="   45.232">  1  5  2 -1</clus>
<clus scale="  130.560">  1  3  2 -1</clus>
<clus scale="   45.232">  1  3  2 -1</clus>
</clustering>
</event>
<event>
 6    0  0.8610502E+002  0.1572040E+03  0.7546771E-02  0.1191890E+00
         21   -1    0    0  503  501  0.00000000000E+00  0.00000000000E+00  0.10474864280E+04  0.10474864280E+04  0.00000000000E+00 0.  1.
         21   -1    0    0  506  502 -0.00000000000E+00 -0.00000000000E+00 -0.98509315920E+02  0.98509315920E+02  0.00000000000E+00 0.  1.
         21    1    1    2  503  505 -0.71287908082E+02 -0.40470648258E+02  0.68307210697E+03  0.68797335888E+03  0.00000000000E+00 0.  1.
         21    1    1    2  504  501  0.48933284018E+02 -0.12620826544E+03  0.15231647819E+03  0.20377267255E+03  0.00000000000E+00 0.  1.
         21    1    1    2  505  502 -0.10249564012E+02  0.18611825968E+03  0.10921456919E+03  0.21603907580E+03  0.00000000000E+00 0.  1.
         21    1    1    2  506  504  0.32604188076E+02 -0.19439345981E+02  0.43739577552E+01  0.38210636722E+02  0.00000000000E+00 0.  1.
<scales pt_clust_3="81.41730" pt_clust_4="14000.00000" pt_clust_5="157.20402" pt_clust_6="37.95947"></scales>
<clustering>
<clus scale="   37.959">  2  6  1 -1</clus>
<clus scale="   81.417">  1  3  2 -1</clus>
<clus scale="  157.204">  2  5  1 -1</clus>
<clus scale="   81.417">  1  3  2 -1</clus>
</clustering>
</event>
<event>
 6    0  0.8610502E+002  0.2476956E+03  0.7546771E-02  0.1114770E+00
         21   -1    0    0  505  501  0.00000000000E+00  0.00000000000E+00  0.15133633966E+03  0.15133633966E+03  0.00000000000E+00 0. -1.
         21   -1    0    0  506  502 -0.00000000000E+00 -0.00000000000E+00 -0.14485891610E+04  0.14485891610E+04  0.00000000000E+00 0.  1.
         21    1    1    2  503  502 -0.33886003484E+02  0.71707116786E+02 -0.55306903963E+03  0.55872670818E+03  0.00000000000E+00 0.  1.
         21    1    1    2  504  503 -0.22867078617E+02  0.22401796536E+03 -0.61645147250E+03  0.65629213772E+03  0.00000000000E+00 0.  1.
         21    1    1    2  505  504  0.38695617471E+02 -0.24931327207E+03 -0.48815360999E+01  0.25234557225E+03  0.00000000000E+00 0. -1.
         21    1    1    2  506  501  0.18057464630E+02 -0.46411810076E+02 -0.12285077311E+03  0.13256108251E+03  0.00000000000E+00 0.  1.
<scales pt_clust_3="58.42228" pt_clust_4="247.69562" pt_clust_5="14000.00000" pt_clust_6="49.80088"></scales>
<clustering>
<clus scale="   49.801">  2  6  1 -1</clus>
<clus scale="   58.422">  2  3  1 -1</clus>
<clus scale="  247.696">  2  4  1 -1</clus>
<clus scale="  247.696">  1  3  2 -1</clus>
</clustering>
</event>
<event>
 6    0  0.8610502E+002  0.1353687E+03  0.7546771E-02  0.1219700E+00
         21   -1    0    0  503  501  0.00000000000E+00  0.00000000000E+00  0.29490079026E+02  0.29490079026E+02  0.00000000000E+00 0.  1.
         21   -1    0    0  504  502 -0.00000000000E+00 -0.00000000000E+00 -0.76558005396E+03  0.76558005396E+03  0.00000000000E+00 0.  1.
         21    1    1    2  503  505 -0.42534683524E+02 -0.67614101920E+02 -0.21316920756E+03  0.22764440940E+03  0.00000000000E+00 0.  1.
         21    1    1    2  504  501  0.31571458043E+02 -0.17840305372E+02 -0.11333253745E+03  0.11899284644E+03  0.00000000000E+00 0.  1.
         21    1    1    2  505  506  0.95954478983E+01 -0.45127915532E+02 -0.63221224689E+02  0.78265730891E+02  0.00000000000E+00 0. -1.
         21    1    1    2  506  502  0.13677775823E+01  0.13058232282E+03 -0.34636700524E+03  0.37016714626E+03  0.00000000000E+00 0.  1.
<scales pt_clust_3="45.44799" pt_clust_4="36.26339" pt_clust_5="45.44799" pt_clust_6="122.19284"></scales>
<clustering>
<clus scale="   36.263">  2  4  1 -1</clus>
<clus scale="   45.448">  3  5 -1 -1</clus>
<clus scale="  122.193">  2  6  1 -1</clus>
<clus scale="  135.369">  1  3  2 -1</clus>
</clustering>
</event>
<event>
 6    0  0.8610502E+002  0.1535810E+03  0.7546771E-02  0.1196140E+00
         21   -1    0    0  503  501  0.00000000000E+00  0.00000000000E+00  0.23698618720E+03  0.23698618720E+03  0.00000000000E+00 0.  1.
         21   -1    0    0  505  502 -0.00000000000E+00 -0.00000000000E+00 -0.38377836022E+03  0.38377836022E+03  0.00000000000E+00 0.  1.
         21    1    1    2  503  506  0.52396733142E+02 -0.56935307749E+02 -0.34280715908E+01  0.77451911450E+02  0.00000000000E+00 0.  1.
         21    1    1    2  504  501  0.61607675369E+02 -0.76823350303E+02  0.14317401448E+03  0.17377034050E+03  0.00000000000E+00 0.  1.
         21    1    1    2  505  504 -0.50915836833E+02  0.13770457777E+03 -0.26465393083E+03  0.30264942802E+03  0.00000000000E+00 0.  1.
         21    1    1    2  506  502 -0.63088571678E+02 -0.39459197197E+01 -0.21884185080E+02  0.66892867448E+02  0.00000000000E+00 0.  1.
<scales pt_clust_3="72.86667" pt_clust_4="153.58102" pt_clust_5="14000.00000" pt_clust_6="63.21185"></scales>
<clustering>
<clus scale="   63.212">  2  6  1 -1</clus>
<clus scale="   72.867">  1  3  2 -1</clus>
<clus scale="  153.581">  1  4  2 -1</clus>
<clus scale="   72.867">  1  3  2 -1</clus>
</clustering>
</event>
<event>
 6    0  0.8610502E+002  0.8659811E+02  0.7546771E-02  0.1311305E+00
         21   -1    0    0  504  501  0.00000000000E+00  0.00000000000E+00  0.20293156754E+03  0.20293156754E+03  0.00000000000E+00 0.  1.
         21   -1    0    0  503  502 -0.00000000000E+00 -0.00000000000E+00 -0.32545060207E+03  0.32545060207E+03  0.00000000000E+00 0.  1.
         21    1    1    2  503  505 -0.54762030187E+02 -0.28582112859E+01 -0.14872550802E+03  0.15851285771E+03  0.00000000000E+00 0.  1.
         21    1    1    2  504  502  0.78289446152E+02 -0.35275525773E+02 -0.29154012730E+02  0.90683827421E+02  0.00000000000E+00 0.  1.
         21    1    1    2  505  506 -0.34506649865E+02 -0.51812353955E+02 -0.89079267627E+02  0.10867541041E+03  0.00000000000E+00 0.  1.
         21    1    1    2  506  501  0.10979233900E+02  0.89946091014E+02  0.14443975386E+03  0.17051007407E+03  0.00000000000E+00 0.  1.
<scales pt_clust_3="54.83657" pt_clust_4="69.42294" pt_clust_5="14000.00000" pt_clust_6="86.59811"></scales>
<clustering>
<clus scale="   54.837">  2  3  1 -1</clus>
<clus scale="   69.423">  2  4  1 -1</clus>
<clus scale="   86.598">  1  6  2 -1</clus>
<clus scale="   86.598">  1  3  2 -1</clus>
</clustering>
</event>
<event>
 6    0  0.8610502E+002  0.1270357E+03  0.7546771E-02  0.1231922E+00
         21   -1    0    0  504  501  0.00000000000E+00  0.00000000000E+00  0.19028576039E+03  0.19028576039E+03  0.00000000000E+00 0.  1.
         21   -1    0    0  506  502 -0.00000000000E+00 -0.00000000000E+00 -0.50525565545E+03  0.50525565545E+03  0.00000000000E+00 0. -1.
         21    1    1    2  503  505 -0.95369333015E+02 -0.47885929925E+02  0.34729504934E+02  0.11222526666E+03  0.00000000000E+00 0.  1.
         21    1    1    2  504  502  0.15026052080E+03  0.96266951493E+02 -0.31399741678E+03  0.36116468239E+03  0.00000000000E+00 0. -1.
         21    1    1    2  505  501  0.25748923785E+02 -0.63171218473E+02  0.63677360727E+02  0.93318895131E+02  0.00000000000E+00 0.  1.
         21    1    1    2  506  503 -0.80640111569E+02  0.14790196905E+02 -0.99379343947E+02  0.12883257166E+03  0.00000000000E+00 0. -1.
<scales pt_clust_3="127.03565" pt_clust_4="14000.00000" pt_clust_5="68.21737" pt_clust_6="77.51834"></scales>
<clustering>
<clus scale="   68.217">  1  5  2 -1</clus>
<clus scale="   77.518">  2  6  1 -1</clus>
<clus scale="  127.036">  1  3  2 -1</clus>
<clus scale="   68.217">  1  3  2 -1</clus>
</clustering>
</event>
<event>
 6    0  0.8610502E+002  0.9479415E+02  0.7546771E-02  0.1291640E+00
         21   -1    0    0  506  501  0.00000000000E+00  0.00000000000E+00  0.12940083384E+03  0.12940083384E+03  0.00000000000E+00 0. -1.
         21   -1    0    0  504  502 -0.00000000000E+00 -0.00000000000E+00 -0.64485299425E+03  0.64485299425E+03  0.00000000000E+00 0. -1.
         21    1    1    2  503  501 -0.23439193138E+02 -0.62306258889E+02 -0.12951571296E+03  0.14562206418E+03  0.00000000000E+00 0. -1.
         21    1    1    2  504  505 -0.16932401313E+02  0.27872759358E+02 -0.20008736911E+03  0.20272777857E+03  0.00000000000E+00 0. -1.
         21    1    1    2  505  503  0.85749385019E+01 -0.59438173365E+02 -0.28169761923E+03  0.28802773252E+03  0.00000000000E+00 0. -1.
         21    1    1    2  506  502  0.31796655949E+02  0.93871672896E+02  0.95848540881E+02  0.13787625282E+03  0.00000000000E+00 0. -1.
<scales pt_clust_3="94.79415" pt_clust_4="32.61283" pt_clust_5="41.59689" pt_clust_6="14000.00000"></scales>
<clustering>
<clus scale="   32.613">  2  4  1 -1</clus>
<clus scale="   41.597">  2  5  1 -1</clus>
<clus scale="   94.794">  2  3  1 -1</clus>
<clus scale="   94.794">  1  3  2 -1</clus>
</clustering>
</event>
<event>
 6    0  0.8610502E+002  0.1087623E+03  0.7546771E-02  0.1262879E+00
         21   -1    0    0  505  501  0.00000000000E+00  0.00000000000E+00  0.81089745009E+02  0.81089745009E+02  0.00000000000E+00 0.  1.
         21   -1    0    0  501  502 -0.00000000000E+00 -0.00000000000E+00 -0.15325488986E+04  0.15325488986E+04  0.00000000000E+00 0. -1.
         21    1    1    2  503  502  0.99928014680E+01 -0.53513024935E+02 -0.46874477122E+03  0.47189528549E+03  0.00000000000E+00 0. -1.
         21    1    1    2  504  506 -0.84267396948E+02 -0.61847139152E+02 -0.47766718170E+03  0.48897034601E+03  0.00000000000E+00 0. -1.
         21    1    1    2  505  504  0.35281900233E+02 -0.81576860981E+01  0.61629804271E+02  0.71481417872E+02  0.00000000000E+00 0.  1.
         21    1    1    2  506  503  0.38992695247E+02  0.12351785019E+03 -0.56667700491E+03  0.58129159420E+03  0.00000000000E+00 0. -1.
<scales pt_clust_3="56.12447" pt_clust_4="108.76232" pt_clust_5="36.21271" pt_clust_6="14000.00000"></scales>
<clustering>
<clus scale="   36.213">  1  5  2 -1</clus>
<clus scale="   56.124">  2  3  1 -1</clus>
<clus scale="  108.762">  1  4  2 -1</clus>
<clus scale="   36.213">  1  3  2 -1</clus>
</clustering>
</event>
<event>
 6    0  0.8610502E+002  0.8946480E+02  0.7546771E-02  0.1304153E+00
         21   -1    0    0  506  501  0.00000000000E+00  0.00000000000E+00  0.20198693465E+04  0.20198693465E+04  0.00000000000E+00 0. -1.
         21   -1    0    0  503  502 -0.00000000000E+00 -0.00000000000E+00 -0.59627059165E+03  0.59627059165E+03  0.00000000000E+00 0. -1.
         21    1    1    2  503  504  0.10026585739E+02 -0.89050809984E+02 -0.58254689352E+03  0.58939923849E+03  0.00000000000E+00 0. -1.
         21    1    1    2  504  501  0.33145581703E+02  0.24015851555E+02  0.57653140614E+02  0.70705553778E+02  0.00000000000E+00 0.  1.
         21    1    1    2  505  502 -0.93801054480E+02  0.41687606666E+02  0.85799742035E+03  0.86411577216E+03  0.00000000000E+00 0. -1.
         21    1    1    2  506  505  0.50628887038E+02  0.23347351763E+02  0.10904950874E+04  0.10919193737E+04  0.00000000000E+00 0. -1.
<scales pt_clust_3="14000.00000" pt_clust_4="40.93154" pt_clust_5="89.46480" pt_clust_6="78.28381"></scales>
<clustering>
<clus scale="   40.932">  1  4  2 -1</clus>
<clus scale="   78.284">  1  6  2 -1</clus>
<clus scale="   89.465">  1  5  2 -1</clus>
<clus scale="   40.932">  1  3  2 -1</clus>
</clustering>
</event>
<event>
 6    0  0.8610502E+002  0.9773316E+02  0.7546771E-02  0.1285136E+00
         21   -1    0    0  506  501  0.00000000000E+00  0.00000000000E+00  0.19272304801E+03  0.19272304801E+03  0.00000000000E+00 0. -1.
         21   -1    0    0  503  502 -0.00000000000E+00 -0.00000000000E+00 -0.78247440975E+03  0.78247440975E+03  0.00000000000E+00 0. -1.
         21    1    1    2  503  505  0.55997579701E+02  0.11114187887E+03 -0.11433430185E+03  0.16899875369E+03  0.00000000000E+00 0. -1.
         21    1    1    2  504  502 -0.28903246353E+02 -0.29264288468E+02 -0.57366759641E+03  0.57514025020E+03  0.00000000000E+00 0. -1.
         21    1    1    2  505  501  0.35777583547E+02 -0.92195332476E+02  0.12716372797E+03  0.16109198778E+03  0.00000000000E+00 0. -1.
         21    1    1    2  506  504 -0.62871916895E+02  0.10317742075E+02 -0.28913191458E+02  0.69966466081E+02  0.00000000000E+00 0. -1.
<scales pt_clust_3="97.73316" pt_clust_4="41.13145" pt_clust_5="14000.00000" pt_clust_6="69.82074"></scales>
<clustering>
<clus scale="   41.131">  2  4  1 -1</clus>
<clus scale="   69.821">  2  6  1 -1</clus>
<clus scale="   97.733">  2  3  1 -1</clus>
<clus scale="   97.733">  1  3  2 -1</clus>
</clustering>
</event>
<event>
 6    0  0.8610502E+002  0.1249317E+03  0.7546771E-02  0.1235176E+00
         21   -1    0    0  504  501  0.00000000000E+00  0.00000000000E+00  0.32647556058E+03  0.32647556058E+03  0.00000000000E+00 0. -1.
         21   -1    0    0  505  502 -0.00000000000E+00 -0.00000000000E+00 -0.24645282917E+03  0.24645282917E+03  0.00000000000E+00 0.  1.
         21    1    1    2  503  506 -0.46315591217E+02  0.77219431308E+02  0.73799643939E+02  0.11642320218E+03  0.00000000000E+00 0. -1.
         21    1    1    2  504  502  0.31727807320E+02 -0.49478495423E+01  0.29605205352E+02  0.43676116544E+02  0.00000000000E+00 0. -1.
         21    1    1    2  505  503 -0.36322966633E+01 -0.13568173403E+03 -0.19007072655E+03  0.23355857428E+03  0.00000000000E+00 0.  1.
         21    1    1    2  506  501  0.18220080561E+02  0.63410152267E+02  0.16668860867E+03  0.17927049675E+03  0.00000000000E+00 0. -1.
<scales pt_clust_3="124.93169" pt_clust_4="32.11129" pt_clust_5="14000.00000" pt_clust_6="70.96218"></scales>
<clustering>
<clus scale="   32.111">  1  4  2 -1</clus>
<clus scale="   70.962">  1  6  2 -1</clus>
<clus scale="  124.932">  1  3  2 -1</clus>
<clus scale="   32.111">  1  3  2 -1</clus>
</clustering>
</event>
<event>
 6    0  0.8610502E+002  0.2243211E+03  0.7546771E-02  0.1130702E+00
         21   -1    0    0  503  501  0.00000000000E+00  0.00000000000E+00  0.22029084662E+04  0.22029084662E+04  0.00000000000E+00 0. -1.
         21   -1    0    0  504  502 -0.00000000000E+00 -0.00000000000E+00 -0.42993666086E+02  0.42993666086E+02  0.00000000000E+00 0. -1.
         21    1    1    2  503  505  0.16191425558E+03 -0.82798045032E+02  0.49697722483E+03  0.52920516288E+03  0.00000000000E+00 0. -1.
         21    1    1    2  504  506 -0.51502172542E+02  0.29694860385E+02  0.31314775863E+03  0.31874092497E+03  0.00000000000E+00 0. -1.
         21    1    1    2  505  502  0.79244655331E+02  0.85994872261E+02  0.19611128751E+03  0.22832974082E+03  0.00000000000E+00 0. -1.
         21    1    1    2  506  501 -0.18965673837E+03 -0.32891687614E+02  0.11536785291E+04  0.11696263036E+04  0.00000000000E+00 0. -1.
<scales pt_clust_3="211.73135" pt_clust_4="41.17671" pt_clust_5="116.93944" pt_clust_6="41.17671"></scales>
<clustering>
<clus scale="   41.177">  4  6 -1 -1</clus>
<clus scale="  116.939">  2  5  1 -1</clus>
<clus scale="  211.731">  2  3  1 -1</clus>
<clus scale="  224.321">  1  3  2 -1</clus>
</clustering>
</event>
<event>
 6    0  0.8610502E+002  0.8211762E+02  0.7546771E-02  0.1323147E+00
         21   -1    0    0  503  501  0.00000000000E+00  0.00000000000E+00  0.22122190808E+03  0.22122190808E+03  0.00000000000E+00 0.  1.
         21   -1    0    0  504  502 -0.00000000000E+00 -0.00000000000E+00 -0.31080701787E+03  0.31080701787E+03  0.00000000000E+00 0. -1.
         21    1    1    2  503  502 -0.29871645347E+02  0.90905090455E+01  0.25952474204E+02  0.40601520511E+02  0.00000000000E+00 0. -1.
         21    1    1    2  504  505 -0.63961513954E+02  0.49935507847E+02 -0.26582645743E+03  0.27793584814E+03  0.00000000000E+00 0. -1.
         21    1    1    2  505  506  0.63819159724E+02 -0.88049355858E+02  0.11978527672E+03  0.16178407441E+03  0.00000000000E+00 0.  1.
         21    1    1    2  506  501  0.30013999577E+02  0.29023338966E+02  0.30503596715E+02  0.51707482900E+02  0.00000000000E+00 0.  1.
<scales pt_clust_3="31.22423" pt_clust_4="82.11762" pt_clust_5="14000.00000" pt_clust_6="38.89808"></scales>
<clustering>
<clus scale="   31.224">  1  3  2 -1</clus>
<clus scale="   38.898">  1  6  2 -1</clus>
<clus scale="   82.118">  2  4  1 -1</clus>
<clus scale="   31.224">  1  3  2 -1</clus>
</clustering>
</event>
<event>
 6    0  0.8610502E+002  0.1654242E+03  0.7546771E-02  0.1182705E+00
         21   -1    0    0  505  501  0.00000000000E+00  0.00000000000E+00  0.36295444024E+02  0.36295444024E+02  0.00000000000E+00 0. -1.
         21   -1    0    0  503  502 -0.00000000000E+00 -0.00000000000E+00 -0.14712251950E+04  0.14712251950E+04  0.00000000000E+00 0.  1.
         21    1    1    2  503  501 -0.21687586885E+02  0.14113754702E+03 -0.10166485623E+04  0.10266277114E+04  0.00000000000E+00 0.  1.
         21    1    1    2  504  506 -0.21875648755E+02 -0.38719670122E+02 -0.66949929837E+02  0.80374436035E+02  0.00000000000E+00 0.  1.
         21    1    1    2  505  504 -0.72567843134E+01  0.39362229519E+02 -0.53997872366E+02  0.67214702643E+02  0.00000000000E+00 0. -1.
         21    1    1    2  506  502  0.50820019954E+02 -0.14178010642E+03 -0.29733338641E+03  0.33330378887E+03  0.00000000000E+00 0. -1.
<scales pt_clust_3="149.51845" pt_clust_4="38.45958" pt_clust_5="40.02557" pt_clust_6="38.45958"></scales>
<clustering>
<clus scale="   38.460">  4  6 -1 -1</clus>
<clus scale="   40.026">  1  5  2 -1</clus>
<clus scale="  149.518">  2  3  1 -1</clus>
<clus scale="   40.026">  1  3  2 -1</clus>
</clustering>
</event>
<event>
 6    0  0.8610502E+002  0.2220766E+03  0.7546771E-02  0.1132344E+00
         21   -1    0    0  505  501  0.00000000000E+00  0.00000000000E+00  0.44923128711E+03  0.44923128711E+03  0.00000000000E+00 0.  1.
         21   -1    0    0  503  502 -0.00000000000E+00 -0.00000000000E+00 -0.23905394447E+03  0.23905394447E+03  0.00000000000E+00 0.  1.
         21    1    1    2  503  504 -0.42344599363E+02  0.21651470147E+02 -0.16903629739E+02  0.50473596593E+02  0.00000000000E+00 0.  1.
         21    1    1    2  504  501 -0.96916815334E+02 -0.17130273902E+03 -0.73544487570E+02  0.21011018334E+03  0.00000000000E+00 0.  1.
         21    1    1    2  505  506  0.10894965425E+03  0.20175482478E+03  0.28431721467E+03  0.36525513691E+03  0.00000000000E+00 0.  1.
         21    1    1    2  506  502  0.30311760450E+02 -0.52103555913E+02  0.16308245277E+02  0.62446314738E+02  0.00000000000E+00 0.  1.
<scales pt_clust_3="47.55892" pt_clust_4="14000.00000" pt_clust_5="222.07655" pt_clust_6="55.85976"></scales>
<clustering>
<clus scale="   47.559">  2  3  1 -1</clus>
<clus scale="   55.860">  2  6  1 -1</clus>
<clus scale="  222.077">  1  5  2 -1</clus>
<clus scale="  222.077">  1  3  2 -1</clus>
</clustering>
</event>
<event>
 6    0  0.8610502E+002  0.1705603E+03  0.7546771E-02  0.1177265E+00
         21   -1    0    0  503  501  0.00000000000E+00  0.00000000000E+00  0.17299144504E+03  0.17299144504E+03  0.00000000000E+00 0.  1.
         21   -1    0    0  504  502 -0.00000000000E+00 -0.00000000000E+00 -0.79000224216E+03  0.79000224216E+03  0.00000000000E+00 0. -1.
         21    1    1    2  503  506 -0.43939430238E+02 -0.80415586274E+02  0.30796789471E+02  0.96673586295E+02  0.00000000000E+00 0.  1.
         21    1    1    2  504  501  0.45454920367E+02  0.13295994455E+03 -0.37083361966E+03  0.39656281988E+03  0.00000000000E+00 0. -1.
         21    1    1    2  505  502  0.30007534306E+02  0.13948483949E+02 -0.35844733949E+03  0.35997153708E+03  0.00000000000E+00 0. -1.
         21    1    1    2  506  505 -0.31523024436E+02 -0.66492842221E+02  0.81473372568E+02  0.10978574395E+03  0.00000000000E+00 0.  1.
<scales pt_clust_3="47.20060" pt_clust_4="162.31643" pt_clust_5="33.09097" pt_clust_6="47.20060"></scales>
<clustering>
<clus scale="   33.091">  2  5  1 -1</clus>
<clus scale="   47.201">  3  6 -1 -1</clus>
<clus scale="  162.316">  2  4  1 -1</clus>
<clus scale="  170.560">  1  3  2 -1</clus>
</clustering>
</event>
<event>
 6    0  0.8610502E+002  0.9684797E+02  0.7546771E-02  0.1287067E+00
         21   -1    0    0  503  501  0.00000000000E+00  0.00000000000E+00  0.16528487667E+03  0.16528487667E+03  0.00000000000E+00 0.  1.
         21   -1    0    0  504  502 -0.00000000000E+00 -0.00000000000E+00 -0.22958409493E+03  0.22958409493E+03  0.00000000000E+00 0.  1.
         21    1    1    2  503  506  0.78869091340E+02  0.25775678174E+02 -0.12889396017E+03  0.15329178753E+03  0.00000000000E+00 0.  1.
         21    1    1    2  504  505 -0.51666893903E+02  0.17627536324E+01 -0.24216969520E+02  0.57087974554E+02  0.00000000000E+00 0.  1.
         21    1    1    2  505  501 -0.67885346149E+02 -0.44199675262E+02  0.10925164940E+03  0.13600718515E+03  0.00000000000E+00 0.  1.
         21    1    1    2  506  502  0.40683148711E+02  0.16661243455E+02 -0.20439937972E+02  0.48482024368E+02  0.00000000000E+00 0.  1.
<scales pt_clust_3="35.04832" pt_clust_4="51.69696" pt_clust_5="84.03036" pt_clust_6="35.04832"></scales>
<clustering>
<clus scale="   35.048">  3  6 -1 -1</clus>
<clus scale="   51.697">  2  4  1 -1</clus>
<clus scale="   84.030">  1  5  2 -1</clus>
<clus scale="   84.030">  1  3  2 -1</clus>
</clustering>
</event>
<event>
 6    0  0.8610502E+002  0.1299073E+03  0.7546771E-02  0.1227593E+00
         21   -1    0    0  504  501  0.00000000000E+00  0.00000000000E+00  0.20611373716E+03  0.20611373716E+03  0.00000000000E+00 0. -1.
         21   -1    0    0  506  502 -0.00000000000E+00 -0.00000000000E+00 -0.26686271309E+03  0.26686271309E+03  0.00000000000E+00 0. -1.
         21    1    1    2  503  505  0.58716271902E+02 -0.12775623253E+02  0.43131207237E+02  0.73967007330E+02  0.00000000000E+00 0.  1.
         21    1    1    2  504  503 -0.21665495586E+02  0.29879007285E+02  0.54752660951E+02  0.66030316194E+02  0.00000000000E+00 0. -1.
         21    1    1    2  505  502  0.11956629425E+03 -0.17726427443E+01 -0.12316720667E+03  0.17166654241E+03  0.00000000000E+00 0. -1.
         21    1    1    2  506  501 -0.15661707057E+03 -0.15330741288E+02 -0.35465637451E+02  0.16131258433E+03  0.00000000000E+00 0. -1.
<scales pt_clust_3="50.01732" pt_clust_4="36.90730" pt_clust_5="14000.00000" pt_clust_6="129.90732"></scales>
<clustering>
<clus scale="   36.907">  1  4  2 -1</clus>
<clus scale="   50.017">  1  3  2 -1</clus>
<clus scale="  129.907">  1  6  2 -1</clus>
<clus scale="   36.907">  1  3  2 -1</clus>
</clustering>
</event>
<event>
 6    0  0.8610502E+002  0.1148754E+03  0.7546771E-02  0.1251799E+00
         21   -1    0    0  504  501  0.00000000000E+00  0.00000000000E+00  0.22197505382E+02  0.22197505382E+02  0.00000000000E+00 0.  1.
         21   -1    0    0  503  502 -0.00000000000E+00 -0.00000000000E+00 -0.12229435345E+04  0.12229435345E+04  0.00000000000E+00 0.  1.
         21    1    1    2  503  506  0.72940740247E+01  0.12478421944E+03 -0.36443859230E+03  0.38527885031E+03  0.00000000000E+00 0.  1.
         21    1    1    2  504  505  0.32099140569E+02 -0.10020578726E+03 -0.46034965601E+03  0.47222172802E+03  0.00000000000E+00 0.  1.
         21    1    1    2  505  502 -0.76454302174E+01 -0.31523401751E+02 -0.32864199518E+03  0.33023891118E+03  0.00000000000E+00 0.  1.
         21    1    1    2  506  501 -0.31747784377E+02  0.69449695780E+01 -0.47315785598E+02  0.57401550345E+02  0.00000000000E+00 0.  1.
<scales pt_clust_3="14000.00000" pt_clust_4="114.87544" pt_clust_5="32.43729" pt_clust_6="32.59688"></scales>
<clustering>
<clus scale="   32.437">  2  5  1 -1</clus>
<clus scale="   32.597">  1  6  2 -1</clus>
<clus scale="  114.875">  2  4  1 -1</clus>
<clus scale="   32.597">  1  3  2 -1</clus>
</clustering>
</event>
<event>
 6    0  0.8610502E+002  0.6846590E+02  0.7546771E-02  0.1365389E+00
         21   -1    0    0  503  501  0.00000000000E+00  0.00000000000E+00  0.67725297604E+03  0.67725297604E+03  0.00000000000E+00 0.  1.
         21   -1    0    0  505  502 -0.00000000000E+00 -0.00000000000E+00 -0.10361943679E+03  0.10361943679E+03  0.00000000000E+00 0.  1.
         21    1    1    2  503  502  0.11616454578E+02  0.37904730102E+02  0.43705334939E+02  0.59007346011E+02  0.00000000000E+00 0.  1.
         21    1    1    2  504  506 -0.41249786432E+02 -0.11285088820E+03  0.87423199127E+01  0.12047114180E+03  0.00000000000E+00 0.  1.
         21    1    1    2  505  504 -0.17454040900E+02  0.27330036495E+02 -0.31178328129E+02  0.44985137361E+02  0.00000000000E+00 0.  1.
         21    1    1    2  506  501  0.47087372754E+02  0.47616121607E+02  0.55236421253E+03  0.55640878766E+03  0.00000000000E+00 0.  1.
<scales pt_clust_3="42.19689" pt_clust_4="68.46590" pt_clust_5="32.42799" pt_clust_6="14000.00000"></scales>
<clustering>
<clus scale="   32.428">  2  5  1 -1</clus>
<clus scale="   42.197">  2  3  1 -1</clus>
<clus scale="   68.466">  2  4  1 -1</clus>
<clus scale="   68.466">  1  3  2 -1</clus>
</clustering>
</event>
<event>
 6    0  0.8610502E+002  0.1598715E+03  0.7546771E-02  0.1188842E+00
         21   -1    0    0  504  501  0.00000000000E+00  0.00000000000E+00  0.50377820785E+03  0.50377820785E+03  0.00000000000E+00 0.  1.
         21   -1    0    0  505  502 -0.00000000000E+00 -0.00000000000E+00 -0.83701285630E+03  0.83701285630E+03  0.00000000000E+00 0. -1.
         21    1    1    2  503  506 -0.42759217045E+02  0.22333072423E+02 -0.19112694744E+03  0.19712084315E+03  0.00000000000E+00 0. -1.
         21    1    1    2  504  503  0.10615524815E+03 -0.10741651330E+03  0.46885235010E+03  0.49257463417E+03  0.00000000000E+00 0.  1.
         21    1    1    2  505  501  0.51167580657E+01  0.11505297650E+03 -0.17995999211E+03  0.21365618964E+03  0.00000000000E+00 0. -1.
         21    1    1    2  506  502 -0.68512789169E+02 -0.29969535615E+02 -0.43100005901E+03  0.43743939718E+03  0.00000000000E+00 0. -1.
<scales pt_clust_3="45.32711" pt_clust_4="149.57936" pt_clust_5="115.16670" pt_clust_6="45.32711"></scales>
<clustering>
<clus scale="   45.327">  3  6 -1 -1</clus>
<clus scale="  115.167">  2  5  1 -1</clus>
<clus scale="  149.579">  1  4  2 -1</clus>
<clus scale="  149.579">  1  3  2 -1</clus>
</clustering>
</event>
<event>
 6    0  0.8610502E+002  0.9178998E+02  0.7546771E-02  0.1298574E+00
         21   -1    0    0  505  501  0.00000000000E+00  0.00000000000E+00  0.91257627224E+03  0.91257627224E+03  0.00000000000E+00 0.  1.
         21   -1    0    0  504  502 -0.00000000000E+00 -0.00000000000E+00 -0.80468440252E+02  0.80468440252E+02  0.00000000000E+00 0. -1.
         21    1    1    2  503  501 -0.21497297914E+02  0.31167013020E+02  0.35087494510E+03  0.35291180714E+03  0.00000000000E+00 0.  1.
         21    1    1    2  504  503  0.74725872096E+02 -0.68487991224E+02 -0.33737753184E+02  0.10683069265E+03  0.00000000000E+00 0. -1.
         21    1    1    2  505  506 -0.37859002120E+02 -0.26270054966E+02  0.38546894885E+03  0.38821351130E+03  0.00000000000E+00 0.  1.
         21    1    1    2  506  502 -0.15369572062E+02  0.63591033170E+02  0.12950169122E+03  0.14508870140E+03  0.00000000000E+00 0. -1.
<scales pt_clust_3="37.86181" pt_clust_4="14000.00000" pt_clust_5="52.90614" pt_clust_6="91.78998"></scales>
<clustering>
<clus scale="   37.862">  1  3  2 -1</clus>
<clus scale="   52.906">  1  5  2 -1</clus>
<clus scale="   91.790">  1  6  2 -1</clus>
<clus scale="   37.862">  1  3  2 -1</clus>
</clustering>
</event>
<event>
 6    0  0.8610502E+002  0.1305493E+03  0.7546771E-02  0.1226643E+00
         21   -1    0    0  503  501  0.00000000000E+00  0.00000000000E+00  0.59469050482E+03  0.59469050482E+03  0.00000000000E+00 0.  1.
         21   -1    0    0  506  502 -0.00000000000E+00 -0.00000000000E+00 -0.10907744910E+03  0.10907744910E+03  0.00000000000E+00 0.  1.
         21    1    1    2  503  504  0.63497777311E+02  0.24898077091E+02  0.22625378860E+03  0.23631051357E+03  0.00000000000E+00 0.  1.
         21    1    1    2  504  502  0.59414375643E+01  0.39651089023E+02 -0.30398356542E+02  0.50314705817E+02  0.00000000000E+00 0.  1.
         21    1    1    2  505  501  0.74540761694E+02 -0.79544991975E+02  0.24080508543E+03  0.26433089126E+03  0.00000000000E+00 0.  1.
         21    1    1    2  506  505 -0.14397997657E+03  0.14995825861E+02  0.48952538222E+02  0.15281184327E+03  0.00000000000E+00 0.  1.
<scales pt_clust_3="69.71493" pt_clust_4="40.09376" pt_clust_5="130.54933" pt_clust_6="14000.00000"></scales>
<clustering>
<clus scale="   40.094">  2  4  1 -1</clus>
<clus scale="   69.715">  1  3  2 -1</clus>
<clus scale="  130.549">  1  5  2 -1</clus>
<clus scale="   69.715">  1  3  2 -1</clus>
</clustering>
</event>
<event>
 6    0  0.8610502E+002  0.1142719E+03  0.7546771E-02  0.1252857E+00
         21   -1    0    0  503  501  0.00000000000E+00  0.00000000000E+00  0.33293571257E+03  0.33293571257E+03  0.00000000000E+00 0.  1.
         21   -1    0    0  505  502 -0.00000000000E+00 -0.00000000000E+00 -0.92044526942E+02  0.92044526942E+02  0.00000000000E+00 0.  1.
         21    1    1    2  503  502  0.96466327639E+02  0.21790177633E+02  0.49012544363E+02  0.11037569349E+03  0.00000000000E+00 0.  1.
         21    1    1    2  504  506 -0.25752942726E+02  0.66976731740E+02  0.55807164155E+02  0.90903994547E+02  0.00000000000E+00 0.  1.
         21    1    1    2  505  504 -0.38060974972E+02 -0.11655822636E+03  0.60304705350E+02  0.13664229007E+03  0.00000000000E+00 0.  1.
         21    1    1    2  506  501 -0.32652409941E+02  0.27791316989E+02  0.75766771765E+02  0.87058261403E+02  0.00000000000E+00 0.  1.
<scales pt_clust_3="98.89674" pt_clust_4="34.28103" pt_clust_5="105.31563" pt_clust_6="34.28103"></scales>
<clustering>
<clus scale="   34.281">  4  6 -1 -1</clus>
<clus scale="   98.897">  2  3  1 -1</clus>
<clus scale="  105.316">  2  5  1 -1</clus>
<clus scale="  114.272">  1  3  2 -1</clus>
</clustering>
</event>
<event>
 6    0  0.8610502E+002  0.1059103E+03  0.7546771E-02  0.1268336E+00
         21   -1    0    0  505  501  0.00000000000E+00  0.00000000000E+00  0.21132190112E+03  0.21132190112E+03  0.00000000000E+00 0.  1.
         21   -1    0    0  504  502 -0.00000000000E+00 -0.00000000000E+00 -0.61514991466E+03  0.61514991466E+03  0.00000000000E+00 0.  1.
         21    1    1    2  503  502 -0.81300549862E+02 -0.53843958447E+02 -0.34662560750E+03  0.36008091180E+03  0.00000000000E+00 0.  1.
         21    1    1    2  504  506 -0.12746595240E+02  0.10552926467E+03 -0.14897862818E+03  0.18301238496E+03  0.00000000000E+00 0.  1.
         21    1    1    2  505  503 -0.42833104417E+02 -0.50565099879E+02  0.12592571170E+03  0.14229823972E+03  0.00000000000E+00 0.  1.
         21    1    1    2  506  501  0.13688024952E+03 -0.11202063420E+01 -0.34149489552E+02  0.14108027930E+03  0.00000000000E+00 0.  1.
<scales pt_clust_3="14000.00000" pt_clust_4="96.95750" pt_clust_5="66.26843" pt_clust_6="105.91031"></scales>
<clustering>
<clus scale="   66.268">  1  5  2 -1</clus>
<clus scale="   96.958">  2  4  1 -1</clus>
<clus scale="  105.910">  1  6  2 -1</clus>
<clus scale="   66.268">  1  3  2 -1</clus>
</clustering>
</event>
<event>
 6    0  0.8610502E+002  0.9429637E+02  0.7546771E-02  0.1292769E+00
         21   -1    0    0  506  501  0.00000000000E+00  0.00000000000E+00  0.13075626913E+04  0.13075626913E+04  0.00000000000E+00 0.  1.
         21   -1    0    0  505  502 -0.00000000000E+00 -0.00000000000E+00 -0.86437714991E+03  0.86437714991E+03  0.00000000000E+00 0. -1.
         21    1    1    2  503  502 -0.89553101349E+01  0.46310895259E+02 -0.80221583136E+03  0.80360135433E+03  0.00000000000E+00 0. -1.
         21    1    1    2  504  501 -0.30856182869E+02 -0.38457821857E+02  0.11475528278E+04  0.11486115969E+04  0.00000000000E+00 0.  1.
         21    1    1    2  505  504  0.87457785584E+02 -0.62791985922E+02  0.10004529435E+03  0.14697196561E+03  0.00000000000E+00 0.  1.
         21    1    1    2  506  503 -0.47646292580E+02  0.54938912520E+02 -0.21967493941E+01  0.72754924324E+02  0.00000000000E+00 0. -1.
<scales pt_clust_3="47.16881" pt_clust_4="49.04442" pt_clust_5="94.29637" pt_clust_6="14000.00000"></scales>
<clustering>
<clus scale="   47.169">  2  3  1 -1</clus>
<clus scale="   49.044">  1  4  2 -1</clus>
<clus scale="   94.296">  1  5  2 -1</clus>
<clus scale="   49.044">  1  3  2 -1</clus>
</clustering>
</event>
<event>
 6    0  0.8610502E+002  0.1291385E+03  0.7546771E-02  0.1228740E+00
         21   -1    0    0  506  501  0.00000000000E+00  0.00000000000E+00  0.10694256052E+04  0.10694256052E+04  0.00000000000E+00 0. -1.
         21   -1    0    0  503  502 -0.00000000000E+00 -0.00000000000E+00 -0.42594670004E+02  0.42594670004E+02  0.00000000000E+00 0. -1.
         21    1    1    2  503  504 -0.23714026764E+02 -0.39447335592E+02  0.79068190472E+02  0.91488939742E+02  0.00000000000E+00 0. -1.
         21    1    1    2  504  501 -0.78967174655E+02 -0.92772116449E+02  0.66664799993E+03  0.67768874572E+03  0.00000000000E+00 0. -1.
         21    1    1    2  505  502 -0.16476556133E+02  0.25411779570E+02  0.19031456538E+02  0.35769145655E+02  0.00000000000E+00 0. -1.
         21    1    1    2  506  505  0.11915775755E+03  0.10680767247E+03  0.26208328828E+03  0.30707344411E+03  0.00000000000E+00 0. -1.
<scales pt_clust_3="43.89371" pt_clust_4="129.13851" pt_clust_5="30.28590" pt_clust_6="14000.00000"></scales>
<clustering>
<clus scale="   30.286">  2  5  1 -1</clus>
<clus scale="   43.894">  2  3  1 -1</clus>
<clus scale="  129.139">  1  4  2 -1</clus>
<clus scale="  129.139">  1  3  2 -1</clus>
</clustering>
</event>
<event>
 6    0  0.8610502E+002  0.9499468E+02  0.7546771E-02  0.1291188E+00
         21   -1    0    0  506  501  0.00000000000E+00  0.00000000000E+00  0.41203236433E+02  0.41203236433E+02  0.00000000000E+00 0. -1.
         21   -1    0    0  503  502 -0.00000000000E+00 -0.00000000000E+00 -0.88818636111E+03  0.88818636111E+03  0.00000000000E+00 0. -1.
         21    1    1    2  503  504  0.48468423867E-01 -0.87162575878E+02 -0.12115190952E+03  0.14924845782E+03  0.00000000000E+00 0. -1.
         21    1    1    2  504  501  0.26691248720E+02 -0.28583076936E+02 -0.21198680599E+01  0.39165148870E+02  0.00000000000E+00 0.  1.
         21    1    1    2  505  502 -0.47711483603E+02  0.87149287417E+02 -0.66503644508E+03  0.67241717501E+03  0.00000000000E+00 0. -1.
         21    1    1    2  506  505  0.20971766458E+02  0.28596365397E+02 -0.58674902017E+02  0.68558815838E+02  0.00000000000E+00 0. -1.
<scales pt_clust_3="14000.00000" pt_clust_4="39.92956" pt_clust_5="94.99468" pt_clust_6="35.46219"></scales>
<clustering>
<clus scale="   35.462">  1  6  2 -1</clus>
<clus scale="   39.930">  1  4  2 -1</clus>
<clus scale="   94.995">  2  5  1 -1</clus>
<clus scale="   35.462">  1  3  2 -1</clus>
</clustering>
</event>
<event>
 6    0  0.8610502E+002  0.1851504E+03  0.7546771E-02  0.1162909E+00
         21   -1    0    0  506  501  0.00000000000E+00  0.00000000000E+00  0.62066217593E+03  0.62066217593E+03  0.00000000000E+00 0. -1.
         21   -1    0    0  505  502 -0.00000000000E+00 -0.00000000000E+00 -0.99433083789E+03  0.99433083789E+03  0.00000000000E+00 0.  1.
         21    1    1    2  503  501  0.16578024709E+03  0.79207629796E+02 -0.86207416616E+03  0.88143565103E+03  0.00000000000E+00 0.  1.
         21    1    1    2  504  502 -0.21465083899E+02 -0.71360192713E+02 -0.45912492364E+02  0.87527046597E+02  0.00000000000E+00 0.  1.
         21    1    1    2  505  503  0.39415857054E+02  0.16409376029E+02 -0.29920750000E+02  0.52135675785E+02  0.00000000000E+00 0. -1.
         21    1    1    2  506  504 -0.18373102025E+03 -0.24256813112E+02  0.56423874657E+03  0.59389464041E+03  0.00000000000E+00 0. -1.
<scales pt_clust_3="185.15043" pt_clust_4="72.66098" pt_clust_5="42.69517" pt_clust_6="14000.00000"></scales>
<clustering>
<clus scale="   42.695">  2  5  1 -1</clus>
<clus scale="   72.661">  2  4  1 -1</clus>
<clus scale="  185.150">  2  3  1 -1</clus>
<clus scale="  185.150">  1  3  2 -1</clus>
</clustering>
</event>
<event>
 6    0  0.8610502E+002  0.1159178E+03  0.7546771E-02  0.1249987E+00
         21   -1    0    0  504  501  0.00000000000E+00  0.00000000000E+00  0.48911207449E+03  0.48911207449E+03  0.00000000000E+00 0. -1.
         21   -1    0    0  506  502 -0.00000000000E+00 -0.00000000000E+00 -0.53575596261E+03  0.53575596261E+03  0.00000000000E+00 0.  1.
         21    1    1    2  503  502 -0.58911808295E+02  0.37376714821E+02 -0.44651467096E+03  0.45193248539E+03  0.00000000000E+00 0.  1.
         21    1    1    2  504  503 -0.10622220904E+02  0.33096572382E+02  0.26448495565E+03  0.26675926684E+03  0.00000000000E+00 0. -1.
         21    1    1    2  505  501  0.12668500444E+03 -0.47308121814E+02  0.18350962340E+03  0.22795379054E+03  0.00000000000E+00 0. -1.
         21    1    1    2  506  505 -0.57150975243E+02 -0.23165165388E+02 -0.48123796209E+02  0.78222494337E+02  0.00000000000E+00 0. -1.
<scales pt_clust_3="115.91785" pt_clust_4="34.75938" pt_clust_5="14000.00000" pt_clust_6="61.53731"></scales>
<clustering>
<clus scale="   34.759">  1  4  2 -1</clus>
<clus scale="   61.537">  2  6  1 -1</clus>
<clus scale="  115.918">  2  3  1 -1</clus>
<clus scale="   34.759">  1  3  2 -1</clus>
</clustering>
</event>
<event>
 6    0  0.8610502E+002  0.9445688E+02  0.7546771E-02  0.1292404E+00
         21   -1    0    0  503  501  0.00000000000E+00  0.00000000000E+00  0.23843019368E+04  0.23843019368E+04  0.00000000000E+00 0. -1.
         21   -1    0    0  504  502 -0.00000000000E+00 -0.00000000000E+00 -0.25131469945E+02  0.25131469945E+02  0.00000000000E+00 0.  1.
         21    1    1    2  503  505  0.36244914141E+02  0.48601394321E+02  0.16899830657E+04  0.16910702385E+04  0.00000000000E+00 0. -1.
         21    1    1    2  504  501  0.43671120856E+02 -0.66982602872E+01  0.16384240420E+03  0.16969492303E+03  0.00000000000E+00 0. -1.
         21    1    1    2  505  506 -0.13153707254E+03  0.37863989848E+01  0.41281828726E+03  0.43328429069E+03  0.00000000000E+00 0.  1.
         21    1    1    2  506  502  0.51621037546E+02 -0.45689533018E+02  0.92526709731E+02  0.11538395451E+03  0.00000000000E+00 0.  1.
<scales pt_clust_3="61.14342" pt_clust_4="44.18182" pt_clust_5="14000.00000" pt_clust_6="94.45688"></scales>
<clustering>
<clus scale="   44.182">  2  4  1 -1</clus>
<clus scale="   61.143">  1  3  2 -1</clus>
<clus scale="   94.457">  2  6  1 -1</clus>
<clus scale="   61.143">  1  3  2 -1</clus>
</clustering>
</event>
<event>
 6    0  0.8610502E+002  0.8097485E+02  0.7546771E-02  0.1326308E+00
         21   -1    0    0  506  501  0.00000000000E+00  0.00000000000E+00  0.50924734109E+02  0.50924734109E+02  0.00000000000E+00 0.  1.
         21   -1    0    0  503  502 -0.00000000000E+00 -0.00000000000E+00 -0.19228451956E+04  0.19228451956E+04  0.00000000000E+00 0. -1.
         21    1    1    2  503  505 -0.52444466766E+02 -0.68093770662E+01 -0.11108892607E+04  0.11121473550E+04  0.00000000000E+00 0. -1.
         21    1    1    2  504  502  0.12680192410E+02 -0.84350741114E+02 -0.63515743859E+03  0.64085942811E+03  0.00000000000E+00 0. -1.
         21    1    1    2  505  501 -0.26479794553E+02  0.52307189679E+02  0.14821982121E+02  0.60472413261E+02  0.00000000000E+00 0.  1.
         21    1    1    2  506  504  0.66244068909E+02  0.38852928501E+02 -0.14069574428E+03  0.16029073329E+03  0.00000000000E+00 0.  1.
<scales pt_clust_3="52.88468" pt_clust_4="80.97485" pt_clust_5="59.13994" pt_clust_6="14000.00000"></scales>
<clustering>
<clus scale="   52.885">  2  3  1 -1</clus>
<clus scale="   59.140">  1  5  2 -1</clus>
<clus scale="   80.975">  2  4  1 -1</clus>
<clus scale="   59.140">  1  3  2 -1</clus>
</clustering>
</event>
<event>
 6    0  0.8610502E+002  0.2622368E+03  0.7546771E-02  0.1105807E+00
         21   -1    0    0  506  501  0.00000000000E+00  0.00000000000E+00  0.95168565521E+03  0.95168565521E+03  0.00000000000E+00 0.  1.
         21   -1    0    0  504  502 -0.00000000000E+00 -0.00000000000E+00 -0.25593685216E+03  0.25593685216E+03  0.00000000000E+00 0.  1.
         21    1    1    2  503  502  0.26966550449E+03  0.89421208285E+02 -0.38246265799E+02  0.28666777574E+03  0.00000000000E+00 0.  1.
         21    1    1    2  504  505 -0.27382040915E+01 -0.93717079859E+02 -0.33145725151E+02  0.99443591622E+02  0.00000000000E+00 0. -1.
         21    1    1    2  505  501 -0.26301590905E+02  0.18657557506E+02  0.23645476771E+03  0.23864353188E+03  0.00000000000E+00 0.  1.
         21    1    1    2  506  503 -0.24062570949E+03 -0.14361685932E+02  0.53068602629E+03  0.58286760812E+03  0.00000000000E+00 0.  1.
<scales pt_clust_3="262.23676" pt_clust_4="92.93540" pt_clust_5="32.24714" pt_clust_6="14000.00000"></scales>
<clustering>
<clus scale="   32.247">  1  5  2 -1</clus>
<clus scale="   92.935">  2  4  1 -1</clus>
<clus scale="  262.237">  2  3  1 -1</clus>
<clus scale="   32.247">  1  3  2 -1</clus>
</clustering>
</event>
<event>
 6    0  0.8610502E+002  0.1865950E+03  0.7546771E-02  0.1161569E+00
         21   -1    0    0  506  501  0.00000000000E+00  0.00000000000E+00  0.47912306498E+03  0.47912306498E+03  0.00000000000E+00 0.  1.
         21   -1    0    0  504  502 -0.00000000000E+00 -0.00000000000E+00 -0.11452092737E+03  0.11452092737E+03  0.00000000000E+00 0.  1.
         21    1    1    2  503  501 -0.18659400442E+03 -0.96546493085E+02  0.13679076626E+03  0.25069954437E+03  0.00000000000E+00 0.  1.
         21    1    1    2  504  503  0.15032674126E+03  0.72461926268E+02  0.12009477095E+03  0.20560061747E+03  0.00000000000E+00 0.  1.
         21    1    1    2  505  502  0.17359512400E+01  0.44810333882E+02  0.53580499473E+02  0.69870233098E+02  0.00000000000E+00 0. -1.
         21    1    1    2  506  505  0.34531311918E+02 -0.20725767065E+02  0.54136100928E+02  0.67473597406E+02  0.00000000000E+00 0.  1.
<scales pt_clust_3="186.59500" pt_clust_4="14000.00000" pt_clust_5="42.30728" pt_clust_6="40.27368"></scales>
<clustering>
<clus scale="   40.274">  1  6  2 -1</clus>
<clus scale="   42.307">  1  5  2 -1</clus>
<clus scale="  186.595">  1  3  2 -1</clus>
<clus scale="   40.274">  1  3  2 -1</clus>
</clustering>
</event>
<event>
 6    0  0.8610502E+002  0.1182252E+03  0.7546771E-02  0.1246054E+00
         21   -1    0    0  504  501  0.00000000000E+00  0.00000000000E+00  0.31515251963E+03  0.31515251963E+03  0.00000000000E+00 0. -1.
         21   -1    0    0  501  502 -0.00000000000E+00 -0.00000000000E+00 -0.81701756577E+03  0.81701756577E+03  0.00000000000E+00 0. -1.
         21    1    1    2  503  505 -0.19330394027E+01  0.44321415631E+02 -0.19851799125E+02  0.48602658912E+02  0.00000000000E+00 0. -1.
         21    1    1    2  504  503 -0.31724702405E+02 -0.31349361072E+02  0.26179791076E+03  0.26556992537E+03  0.00000000000E+00 0. -1.
         21    1    1    2  505  506  0.87729509572E+02  0.66190281691E+02 -0.55639033631E+02  0.12318004020E+03  0.00000000000E+00 0. -1.
         21    1    1    2  506  502 -0.54071767765E+02 -0.79162336250E+02 -0.68817212415E+03  0.69481746092E+03  0.00000000000E+00 0. -1.
<scales pt_clust_3="41.35466" pt_clust_4="44.60089" pt_clust_5="41.35466" pt_clust_6="98.69462"></scales>
<clustering>
<clus scale="   41.355">  3  5 -1 -1</clus>
<clus scale="   44.601">  1  4  2 -1</clus>
<clus scale="   98.695">  2  6  1 -1</clus>
<clus scale="   44.601">  1  3  2 -1</clus>
</clustering>
</event>
<event>
 6    0  0.8610502E+002  0.4583026E+03  0.7546771E-02  0.1025275E+00
         21   -1    0    0  505  501  0.00000000000E+00  0.00000000000E+00  0.27552720953E+03  0.27552720953E+03  0.00000000000E+00 0.  1.
         21   -1    0    0  501  502 -0.00000000000E+00 -0.00000000000E+00 -0.10845973681E+04  0.10845973681E+04  0.00000000000E+00 0.  1.
         21    1    1    2  503  502 -0.80534014189E+02 -0.41575059627E+03 -0.79599779031E+03  0.90163560706E+03  0.00000000000E+00 0.  1.
         21    1    1    2  504  503  0.12189489902E+03  0.25223631888E+03 -0.17040323964E+01  0.28015072853E+03  0.00000000000E+00 0.  1.
         21    1    1    2  505  506 -0.29729976641E+02  0.36511850740E+02  0.12211885669E+02  0.48642747734E+02  0.00000000000E+00 0. -1.
         21    1    1    2  506  504 -0.11630908190E+02  0.12700242665E+03 -0.23580221543E+02  0.12969549432E+03  0.00000000000E+00 0.  1.
<scales pt_clust_3="423.47879" pt_clust_4="115.43248" pt_clust_5="34.52002" pt_clust_6="115.43248"></scales>
<clustering>
<clus scale="   34.520">  5  6 -1 -1</clus>
<clus scale="  115.432">  4  5 -1 -1</clus>
<clus scale="  423.479">  2  3  1 -1</clus>
<clus scale="  458.303">  1  3  2 -1</clus>
</clustering>
</event>
<event>
 6    0  0.8610502E+002  0.1382561E+03  0.7546771E-02  0.1215695E+00
         21   -1    0    0  506  501  0.00000000000E+00  0.00000000000E+00  0.79697384177E+02  0.79697384177E+02  0.00000000000E+00 0. -1.
         21   -1    0    0  505  502 -0.00000000000E+00 -0.00000000000E+00 -0.11272552373E+04  0.11272552373E+04  0.00000000000E+00 0. -1.
         21    1    1    2  503  501 -0.64903270368E+02 -0.24766248034E+01 -0.35201821481E+03  0.35796004209E+03  0.00000000000E+00 0. -1.
         21    1    1    2  504  502  0.93056218482E+02 -0.19648970472E+01 -0.45367234862E+02  0.10354470830E+03  0.00000000000E+00 0.  1.
         21    1    1    2  505  503 -0.74105875252E+02 -0.15716160219E+02 -0.68188966304E+03  0.68608468209E+03  0.00000000000E+00 0. -1.
         21    1    1    2  506  504  0.45952927138E+02  0.20157682070E+02  0.31717259549E+02  0.59363189034E+02  0.00000000000E+00 0. -1.
<scales pt_clust_3="34.76164" pt_clust_4="133.06162" pt_clust_5="34.76164" pt_clust_6="50.17971"></scales>
<clustering>
<clus scale="   34.762">  3  5 -1 -1</clus>
<clus scale="   50.180">  1  6  2 -1</clus>
<clus scale="  133.062">  1  4  2 -1</clus>
<clus scale="   50.180">  1  3  2 -1</clus>
</clustering>
</event>
<event>
 6    0  0.8610502E+002  0.1091193E+03  0.7546771E-02  0.1262210E+00
         21   -1    0    0  506  501  0.00000000000E+00  0.00000000000E+00  0.28348737506E+02  0.28348737506E+02  0.00000000000E+00 0. -1.
         21   -1    0    0  503  502 -0.00000000000E+00 -0.00000000000E+00 -0.18152170976E+04  0.18152170976E+04  0.00000000000E+00 0. -1.
         21    1    1    2  503  505 -0.62826269858E+02  0.20959305198E+02 -0.18748369342E+03  0.19883804455E+03  0.00000000000E+00 0. -1.
         21    1    1    2  504  502  0.57276785413E+02 -0.68343728075E+01 -0.12057036059E+04  0.12070826501E+04  0.00000000000E+00 0. -1.
         21    1    1    2  505  501 -0.83946679006E+02 -0.16511639956E+02 -0.28095271876E+03  0.29369049925E+03  0.00000000000E+00 0. -1.
         21    1    1    2  506  504  0.89496163451E+02  0.23867075651E+01 -0.11272834201E+03  0.14395464125E+03  0.00000000000E+00 0. -1.
<scales pt_clust_3="35.07928" pt_clust_4="57.68309" pt_clust_5="35.07928" pt_clust_6="101.57465"></scales>
<clustering>
<clus scale="   35.079">  3  5 -1 -1</clus>
<clus scale="   57.683">  2  4  1 -1</clus>
<clus scale="  101.575">  1  6  2 -1</clus>
<clus scale="  101.575">  1  3  2 -1</clus>
</clustering>
</event>
<event>
 6    0  0.8610502E+002  0.1582767E+03  0.7546771E-02  0.1190656E+00
         21   -1    0    0  505  501  0.00000000000E+00  0.00000000000E+00  0.38078052917E+03  0.38078052917E+03  0.00000000000E+00 0.  1.
         21   -1    0    0  506  502 -0.00000000000E+00 -0.00000000000E+00 -0.27407529153E+03  0.27407529153E+03  0.00000000000E+00 0.  1.
         21    1    1    2  503  502  0.75849719381E+02 -0.24031524880E+02 -0.53411814302E+02  0.95830663283E+02  0.00000000000E+00 0.  1.
         21    1    1    2  504  501 -0.15292164304E+03 -0.14784002427E+02  0.31215350122E+03  0.34791292584E+03  0.00000000000E+00 0.  1.
         21    1    1    2  505  503  0.57823611277E+02  0.78307631571E+01 -0.38234578159E+01  0.58476573962E+02  0.00000000000E+00 0.  1.
         21    1    1    2  506  504  0.19248312387E+02  0.30984764150E+02 -0.14821299146E+03  0.15263565762E+03  0.00000000000E+00 0.  1.
<scales pt_clust_3="42.09444" pt_clust_4="150.49151" pt_clust_5="42.09444" pt_clust_6="36.47675"></scales>
<clustering>
<clus scale="   36.477">  2  6  1 -1</clus>
<clus scale="   42.094">  3  5 -1 -1</clus>
<clus scale="  150.492">  1  4  2 -1</clus>
<clus scale="  150.492">  1  3  2 -1</clus>
</clustering>
</event>
<event>
 6    0  0.8610502E+002  0.1684921E+03  0.7546771E-02  0.1179430E+00
         21   -1    0    0  503  501  0.00000000000E+00  0.00000000000E+00  0.14526612669E+03  0.14526612669E+03  0.00000000000E+00 0. -1.
         21   -1    0    0  504  502 -0.00000000000E+00 -0.00000000000E+00 -0.96846311611E+03  0.96846311611E+03  0.00000000000E+00 0. -1.
         21    1    1    2  503  506 -0.19557441679E+03  0.95752626847E+02 -0.14380647019E+03  0.26095635444E+03  0.00000000000E+00 0. -1.
         21    1    1    2  504  501  0.14986057791E+03  0.73479432313E+02 -0.88060030432E+02  0.18871139008E+03  0.00000000000E+00 0. -1.
         21    1    1    2  505  502  0.10676466408E+03 -0.22035011821E+02 -0.40237282480E+03  0.41687902967E+03  0.00000000000E+00 0. -1.
         21    1    1    2  506  505 -0.61050825203E+02 -0.14719704734E+03 -0.18895766400E+03  0.24718246861E+03  0.00000000000E+00 0. -1.
<scales pt_clust_3="14000.00000" pt_clust_4="168.49208" pt_clust_5="109.01484" pt_clust_6="156.99743"></scales>
<clustering>
<clus scale="  109.015">  2  5  1 -1</clus>
<clus scale="  156.997">  2  6  1 -1</clus>
<clus scale="  168.492">  1  4  2 -1</clus>
<clus scale="  168.492">  1  3  2 -1</clus>
</clustering>
</event>
