<event>
 4    0  0.2219362E-002  0.5253185E+03  0.7546771E-02  0.1007374E+00
         21   -1    0    0  502  501  0.00000000000E+00  0.00000000000E+00  0.65936071864E+03  0.65936071864E+03  0.00000000000E+00 0.  1.
         21   -1    0    0  501  502 -0.00000000000E+00 -0.00000000000E+00 -0.41852588883E+03  0.41852588883E+03  0.00000000000E+00 0.  1.
         25    1    1    2    0    0 -0.39877599138E+03  0.27837075862E+02  0.44571741959E+03  0.61162587602E+03  0.12500000000E+03 0.  0.
         25    1    1    2    0    0  0.39877599138E+03 -0.27837075862E+02 -0.20488258978E+03  0.46626073144E+03  0.12500000000E+03 0.  0.
</event>
<event>
 4    0  0.2219362E-002  0.2156252E+03  0.7546771E-02  0.1137187E+00
         21   -1    0    0  502  501  0.00000000000E+00  0.00000000000E+00  0.42161879091E+03  0.42161879091E+03  0.00000000000E+00 0. -1.
         21   -1    0    0  501  502 -0.00000000000E+00 -0.00000000000E+00 -0.11027548223E+03  0.11027548223E+03  0.00000000000E+00 0. -1.
         25    1    1    2    0    0  0.16725003133E+03 -0.49772236848E+02  0.18092930519E+03  0.28073165482E+03  0.12500000000E+03 0.  0.
         25    1    1    2    0    0 -0.16725003133E+03  0.49772236848E+02  0.13041400349E+03  0.25116261833E+03  0.12500000000E+03 0.  0.
</event>
<event>
 4    0  0.2219362E-002  0.2688952E+03  0.7546771E-02  0.1101914E+00
         21   -1    0    0  502  501  0.00000000000E+00  0.00000000000E+00  0.38296154549E+03  0.38296154549E+03  0.00000000000E+00 0. -1.
         21   -1    0    0  501  502 -0.00000000000E+00 -0.00000000000E+00 -0.18880387568E+03  0.18880387568E+03  0.00000000000E+00 0. -1.
         25    1    1    2    0    0 -0.23597196545E+03 -0.30876970375E+02  0.90069272467E+02  0.28350243319E+03  0.12500000000E+03 0.  0.
         25    1    1    2    0    0  0.23597196545E+03  0.30876970375E+02  0.10408839734E+03  0.28826298798E+03  0.12500000000E+03 0.  0.
</event>
<event>
 4    0  0.2219362E-002  0.1715063E+03  0.7546771E-02  0.1176286E+00
         21   -1    0    0  502  501  0.00000000000E+00  0.00000000000E+00  0.34277514702E+03  0.34277514702E+03  0.00000000000E+00 0. -1.
         21   -1    0    0  501  502 -0.00000000000E+00 -0.00000000000E+00 -0.85812536288E+02  0.85812536288E+02  0.00000000000E+00 0. -1.
         25    1    1    2    0    0 -0.19288615823E+01  0.32092392877E+02  0.26959945448E+03  0.29890217136E+03  0.12500000000E+03 0.  0.
         25    1    1    2    0    0  0.19288615823E+01 -0.32092392877E+02 -0.12636843755E+02  0.12968551194E+03  0.12500000000E+03 0.  0.
</event>
<event>
 4    0  0.2219362E-002  0.1971032E+03  0.7546771E-02  0.1152206E+00
         21   -1    0    0  502  501  0.00000000000E+00  0.00000000000E+00  0.51681333310E+02  0.51681333310E+02  0.00000000000E+00 0.  1.
         21   -1    0    0  501  502 -0.00000000000E+00 -0.00000000000E+00 -0.75171536856E+03  0.75171536856E+03  0.00000000000E+00 0.  1.
         25    1    1    2    0    0 -0.11229683069E+03  0.34170682208E+02 -0.54809697661E+03  0.57429392255E+03  0.12500000000E+03 0.  0.
         25    1    1    2    0    0  0.11229683069E+03 -0.34170682208E+02 -0.15193705863E+03  0.22910277932E+03  0.12500000000E+03 0.  0.
</event>
<event>
 4    0  0.2219362E-002  0.2400143E+03  0.7546771E-02  0.1119783E+00
         21   -1    0    0  502  501  0.00000000000E+00  0.00000000000E+00  0.24297952227E+03  0.24297952227E+03  0.00000000000E+00 0.  1.
         21   -1    0    0  501  502 -0.00000000000E+00 -0.00000000000E+00 -0.23708532052E+03  0.23708532052E+03  0.00000000000E+00 0.  1.
         25    1    1    2    0    0  0.33063207006E+02  0.17803802992E+03 -0.92930675053E+02  0.23885524093E+03  0.12500000000E+03 0.  0.
         25    1    1    2    0    0 -0.33063207006E+02 -0.17803802992E+03  0.98824876807E+02  0.24120960186E+03  0.12500000000E+03 0.  0.
</event>
<event>
 4    0  0.2219362E-002  0.1924275E+03  0.7546771E-02  0.1156290E+00
         21   -1    0    0  502  501  0.00000000000E+00  0.00000000000E+00  0.21674581619E+03  0.21674581619E+03  0.00000000000E+00 0. -1.
         21   -1    0    0  501  502 -0.00000000000E+00 -0.00000000000E+00 -0.17083763382E+03  0.17083763382E+03  0.00000000000E+00 0. -1.
         25    1    1    2    0    0  0.11271347638E+03  0.66818498112E+02 -0.42578758811E+02  0.18602954107E+03  0.12500000000E+03 0.  0.
         25    1    1    2    0    0 -0.11271347638E+03 -0.66818498112E+02  0.88486941187E+02  0.20155390894E+03  0.12500000000E+03 0.  0.
</event>
<event>
 4    0  0.2219362E-002  0.2011412E+03  0.7546771E-02  0.1148780E+00
         21   -1    0    0  502  501  0.00000000000E+00  0.00000000000E+00  0.12051656615E+03  0.12051656615E+03  0.00000000000E+00 0.  1.
         21   -1    0    0  501  502 -0.00000000000E+00 -0.00000000000E+00 -0.33570302606E+03  0.33570302606E+03  0.00000000000E+00 0.  1.
         25    1    1    2    0    0 -0.78326402732E+02  0.99775828069E+02 -0.15552082963E+01  0.17809452520E+03  0.12500000000E+03 0.  0.
         25    1    1    2    0    0  0.78326402732E+02 -0.99775828069E+02 -0.21363125162E+03  0.27812506701E+03  0.12500000000E+03 0.  0.
</event>
<event>
 4    0  0.2219362E-002  0.2146142E+03  0.7546771E-02  0.1137963E+00
         21   -1    0    0  502  501  0.00000000000E+00  0.00000000000E+00  0.10076441034E+04  0.10076441034E+04  0.00000000000E+00 0. -1.
         21   -1    0    0  501  502 -0.00000000000E+00 -0.00000000000E+00 -0.45709840064E+02  0.45709840064E+02  0.00000000000E+00 0. -1.
         25    1    1    2    0    0  0.25195664325E+02 -0.11183641062E+03  0.15825960613E+03  0.23197695397E+03  0.12500000000E+03 0.  0.
         25    1    1    2    0    0 -0.25195664325E+02  0.11183641062E+03  0.80367465724E+03  0.82137698953E+03  0.12500000000E+03 0.  0.
</event>
<event>
 4    0  0.2219362E-002  0.2292173E+03  0.7546771E-02  0.1127192E+00
         21   -1    0    0  502  501  0.00000000000E+00  0.00000000000E+00  0.59020217416E+03  0.59020217416E+03  0.00000000000E+00 0. -1.
         21   -1    0    0  501  502 -0.00000000000E+00 -0.00000000000E+00 -0.89021321746E+02  0.89021321746E+02  0.00000000000E+00 0. -1.
         25    1    1    2    0    0  0.88454722636E+02  0.43713759774E+02  0.63241116159E+01  0.15937416710E+03  0.12500000000E+03 0.  0.
         25    1    1    2    0    0 -0.88454722636E+02 -0.43713759774E+02  0.49485674079E+03  0.51984932881E+03  0.12500000000E+03 0.  0.
</event>
<event>
 4    0  0.2219362E-002  0.1899205E+03  0.7546771E-02  0.1158533E+00
         21   -1    0    0  502  501  0.00000000000E+00  0.00000000000E+00  0.29927562701E+03  0.29927562701E+03  0.00000000000E+00 0. -1.
         21   -1    0    0  501  502 -0.00000000000E+00 -0.00000000000E+00 -0.12052363467E+03  0.12052363467E+03  0.00000000000E+00 0. -1.
         25    1    1    2    0    0  0.13770420419E+03 -0.21618287431E+02  0.54165643747E+02  0.19490693976E+03  0.12500000000E+03 0.  0.
         25    1    1    2    0    0 -0.13770420419E+03  0.21618287431E+02  0.12458634860E+03  0.22489232192E+03  0.12500000000E+03 0.  0.
</event>
<event>
 4    0  0.2219362E-002  0.2455708E+03  0.7546771E-02  0.1116136E+00
         21   -1    0    0  502  501  0.00000000000E+00  0.00000000000E+00  0.20751696510E+04  0.20751696510E+04  0.00000000000E+00 0.  1.
         21   -1    0    0  501  502 -0.00000000000E+00 -0.00000000000E+00 -0.29060271685E+02  0.29060271685E+02  0.00000000000E+00 0.  1.
         25    1    1    2    0    0  0.92968577667E+02 -0.10080947468E+03  0.17122157891E+04  0.17222408702E+04  0.12500000000E+03 0.  0.
         25    1    1    2    0    0 -0.92968577667E+02  0.10080947468E+03  0.33389359026E+03  0.38198905251E+03  0.12500000000E+03 0.  0.
</event>
<event>
 4    0  0.2219362E-002  0.1710797E+03  0.7546771E-02  0.1176727E+00
         21   -1    0    0  502  501  0.00000000000E+00  0.00000000000E+00  0.13295338227E+03  0.13295338227E+03  0.00000000000E+00 0. -1.
         21   -1    0    0  501  502 -0.00000000000E+00 -0.00000000000E+00 -0.22013924453E+03  0.22013924453E+03  0.00000000000E+00 0. -1.
         25    1    1    2    0    0 -0.89861838048E+02 -0.49486430173E+02  0.14041480341E+02  0.16231518684E+03  0.12500000000E+03 0.  0.
         25    1    1    2    0    0  0.89861838048E+02  0.49486430173E+02 -0.10122734260E+03  0.19077743996E+03  0.12500000000E+03 0.  0.
</event>
<event>
 4    0  0.2219362E-002  0.1971290E+03  0.7546771E-02  0.1152184E+00
         21   -1    0    0  502  501  0.00000000000E+00  0.00000000000E+00  0.39223344151E+03  0.39223344151E+03  0.00000000000E+00 0. -1.
         21   -1    0    0  501  502 -0.00000000000E+00 -0.00000000000E+00 -0.99073219560E+02  0.99073219560E+02  0.00000000000E+00 0. -1.
         25    1    1    2    0    0 -0.16849881481E+02  0.14525175706E+03  0.92939837339E+02  0.21364644813E+03  0.12500000000E+03 0.  0.
         25    1    1    2    0    0  0.16849881481E+02 -0.14525175706E+03  0.20022038461E+03  0.27766021293E+03  0.12500000000E+03 0.  0.
</event>
<event>
 4    0  0.2219362E-002  0.2074075E+03  0.7546771E-02  0.1143636E+00
         21   -1    0    0  502  501  0.00000000000E+00  0.00000000000E+00  0.91005185698E+02  0.91005185698E+02  0.00000000000E+00 0.  1.
         21   -1    0    0  501  502 -0.00000000000E+00 -0.00000000000E+00 -0.47269693485E+03  0.47269693485E+03  0.00000000000E+00 0.  1.
         25    1    1    2    0    0 -0.36239880032E+02  0.16102753286E+03 -0.20747130421E+03  0.29310840540E+03  0.12500000000E+03 0.  0.
         25    1    1    2    0    0  0.36239880032E+02 -0.16102753286E+03 -0.17422044494E+03  0.27059371515E+03  0.12500000000E+03 0.  0.
</event>
<event>
 4    0  0.2219362E-002  0.2090834E+03  0.7546771E-02  0.1142294E+00
         21   -1    0    0  502  501  0.00000000000E+00  0.00000000000E+00  0.28563614190E+03  0.28563614190E+03  0.00000000000E+00 0.  1.
         21   -1    0    0  501  502 -0.00000000000E+00 -0.00000000000E+00 -0.15304738990E+03  0.15304738990E+03  0.00000000000E+00 0.  1.
         25    1    1    2    0    0  0.69413693004E+02 -0.13312789761E+03 -0.11856056251E+02  0.19572139374E+03  0.12500000000E+03 0.  0.
         25    1    1    2    0    0 -0.69413693004E+02  0.13312789761E+03  0.14444480825E+03  0.24296213806E+03  0.12500000000E+03 0.  0.
</event>
<event>
 4    0  0.2219362E-002  0.1845378E+03  0.7546771E-02  0.1163482E+00
         21   -1    0    0  502  501  0.00000000000E+00  0.00000000000E+00  0.56947114822E+02  0.56947114822E+02  0.00000000000E+00 0. -1.
         21   -1    0    0  501  502 -0.00000000000E+00 -0.00000000000E+00 -0.59799699287E+03  0.59799699287E+03  0.00000000000E+00 0. -1.
         25    1    1    2    0    0 -0.11962740494E+03 -0.61264154588E+02 -0.30443657760E+03  0.35548648699E+03  0.12500000000E+03 0.  0.
         25    1    1    2    0    0  0.11962740494E+03  0.61264154588E+02 -0.23661330045E+03  0.29945762070E+03  0.12500000000E+03 0.  0.
</event>
<event>
 4    0  0.2219362E-002  0.2128669E+03  0.7546771E-02  0.1139316E+00
         21   -1    0    0  502  501  0.00000000000E+00  0.00000000000E+00  0.16915731824E+03  0.16915731824E+03  0.00000000000E+00 0. -1.
         21   -1    0    0  501  502 -0.00000000000E+00 -0.00000000000E+00 -0.26787095683E+03  0.26787095683E+03  0.00000000000E+00 0. -1.
         25    1    1    2    0    0 -0.54083702035E+02 -0.15257167515E+03  0.11235975817E+02  0.20482775700E+03  0.12500000000E+03 0.  0.
         25    1    1    2    0    0  0.54083702035E+02  0.15257167515E+03 -0.10994961441E+03  0.23220051807E+03  0.12500000000E+03 0.  0.
</event>
<event>
 4    0  0.2219362E-002  0.1891721E+03  0.7546771E-02  0.1159210E+00
         21   -1    0    0  502  501  0.00000000000E+00  0.00000000000E+00  0.47242733730E+03  0.47242733730E+03  0.00000000000E+00 0. -1.
         21   -1    0    0  501  502 -0.00000000000E+00 -0.00000000000E+00 -0.75749415047E+02  0.75749415047E+02  0.00000000000E+00 0. -1.
         25    1    1    2    0    0  0.81358310045E+02  0.10216120833E+03  0.11760341593E+03  0.21566559888E+03  0.12500000000E+03 0.  0.
         25    1    1    2    0    0 -0.81358310045E+02 -0.10216120833E+03  0.27907450632E+03  0.33251115346E+03  0.12500000000E+03 0.  0.
</event>
<event>
 4    0  0.2219362E-002  0.2154086E+03  0.7546771E-02  0.1137353E+00
         21   -1    0    0  502  501  0.00000000000E+00  0.00000000000E+00  0.12436160945E+03  0.12436160945E+03  0.00000000000E+00 0. -1.
         21   -1    0    0  501  502 -0.00000000000E+00 -0.00000000000E+00 -0.37311236489E+03  0.37311236489E+03  0.00000000000E+00 0. -1.
         25    1    1    2    0    0  0.17229968214E+03  0.19984723192E+02 -0.94059045211E+02  0.23357798187E+03  0.12500000000E+03 0.  0.
         25    1    1    2    0    0 -0.17229968214E+03 -0.19984723192E+02 -0.15469171023E+03  0.26389599247E+03  0.12500000000E+03 0.  0.
</event>
<event>
 4    0  0.2219362E-002  0.3361483E+03  0.7546771E-02  0.1068448E+00
         21   -1    0    0  502  501  0.00000000000E+00  0.00000000000E+00  0.18268916524E+04  0.18268916524E+04  0.00000000000E+00 0. -1.
         21   -1    0    0  501  502 -0.00000000000E+00 -0.00000000000E+00 -0.61851320352E+02  0.61851320352E+02  0.00000000000E+00 0.  1.
         25    1    1    2    0    0 -0.27624686831E+03  0.82228848181E+02  0.54660425906E+03  0.63045628853E+03  0.12500000000E+03 0.  0.
         25    1    1    2    0    0  0.27624686831E+03 -0.82228848181E+02  0.12184360730E+04  0.12582866842E+04  0.12500000000E+03 0.  0.
</event>
<event>
 4    0  0.2219362E-002  0.2342037E+03  0.7546771E-02  0.1123715E+00
         21   -1    0    0  502  501  0.00000000000E+00  0.00000000000E+00  0.44903542543E+02  0.44903542543E+02  0.00000000000E+00 0.  1.
         21   -1    0    0  501  502 -0.00000000000E+00 -0.00000000000E+00 -0.12215381938E+04  0.12215381938E+04  0.00000000000E+00 0.  1.
         25    1    1    2    0    0 -0.68404112793E+01  0.64341374041E+02 -0.82210575259E+02  0.16300362672E+03  0.12500000000E+03 0.  0.
         25    1    1    2    0    0  0.68404112793E+01 -0.64341374041E+02 -0.10944240760E+04  0.11034381096E+04  0.12500000000E+03 0.  0.
</event>
<event>
 4    0  0.2219362E-002  0.1737959E+03  0.7546771E-02  0.1173946E+00
         21   -1    0    0  502  501  0.00000000000E+00  0.00000000000E+00  0.46490936620E+03  0.46490936620E+03  0.00000000000E+00 0. -1.
         21   -1    0    0  501  502 -0.00000000000E+00 -0.00000000000E+00 -0.64969716389E+02  0.64969716389E+02  0.00000000000E+00 0. -1.
         25    1    1    2    0    0  0.75820995140E+02 -0.17191934696E+02  0.59130061444E+02  0.15863716490E+03  0.12500000000E+03 0.  0.
         25    1    1    2    0    0 -0.75820995140E+02  0.17191934696E+02  0.34080958837E+03  0.37124191768E+03  0.12500000000E+03 0.  0.
</event>
<event>
 4    0  0.2219362E-002  0.2127135E+03  0.7546771E-02  0.1139435E+00
         21   -1    0    0  502  501  0.00000000000E+00  0.00000000000E+00  0.27778740802E+03  0.27778740802E+03  0.00000000000E+00 0.  1.
         21   -1    0    0  501  502 -0.00000000000E+00 -0.00000000000E+00 -0.16288370552E+03  0.16288370552E+03  0.00000000000E+00 0.  1.
         25    1    1    2    0    0 -0.24878659639E+02 -0.12201613220E+03  0.18051622990E+03  0.25242423315E+03  0.12500000000E+03 0.  0.
         25    1    1    2    0    0  0.24878659639E+02  0.12201613220E+03 -0.65612527404E+02  0.18824688039E+03  0.12500000000E+03 0.  0.
</event>
<event>
 4    0  0.2219362E-002  0.2124293E+03  0.7546771E-02  0.1139657E+00
         21   -1    0    0  502  501  0.00000000000E+00  0.00000000000E+00  0.28483954411E+03  0.28483954411E+03  0.00000000000E+00 0. -1.
         21   -1    0    0  501  502 -0.00000000000E+00 -0.00000000000E+00 -0.15842669331E+03  0.15842669331E+03  0.00000000000E+00 0. -1.
         25    1    1    2    0    0 -0.17141028441E+03 -0.10913262943E+02  0.62396796216E+02  0.22140222467E+03  0.12500000000E+03 0.  0.
         25    1    1    2    0    0  0.17141028441E+03  0.10913262943E+02  0.64016054593E+02  0.22186401275E+03  0.12500000000E+03 0.  0.
</event>
<event>
 4    0  0.2219362E-002  0.1783547E+03  0.7546771E-02  0.1169405E+00
         21   -1    0    0  502  501  0.00000000000E+00  0.00000000000E+00  0.14979168199E+03  0.14979168199E+03  0.00000000000E+00 0.  1.
         21   -1    0    0  501  502 -0.00000000000E+00 -0.00000000000E+00 -0.21236425570E+03  0.21236425570E+03  0.00000000000E+00 0.  1.
         25    1    1    2    0    0 -0.35041030548E+02  0.12224340742E+03 -0.27477394537E+02  0.18041987610E+03  0.12500000000E+03 0.  0.
         25    1    1    2    0    0  0.35041030548E+02 -0.12224340742E+03 -0.35095179170E+02  0.18173606159E+03  0.12500000000E+03 0.  0.
</event>
<event>
 4    0  0.2219362E-002  0.2044631E+03  0.7546771E-02  0.1146027E+00
         21   -1    0    0  502  501  0.00000000000E+00  0.00000000000E+00  0.36767046481E+03  0.36767046481E+03  0.00000000000E+00 0. -1.
         21   -1    0    0  501  502 -0.00000000000E+00 -0.00000000000E+00 -0.11370280985E+03  0.11370280985E+03  0.00000000000E+00 0. -1.
         25    1    1    2    0    0 -0.77488847991E+02  0.31643884286E+02  0.28998730059E+03  0.32668561566E+03  0.12500000000E+03 0.  0.
         25    1    1    2    0    0  0.77488847991E+02 -0.31643884286E+02 -0.36019645627E+02  0.15468765900E+03  0.12500000000E+03 0.  0.
</event>
<event>
 4    0  0.2219362E-002  0.3854624E+03  0.7546771E-02  0.1048933E+00
         21   -1    0    0  502  501  0.00000000000E+00  0.00000000000E+00  0.60185056867E+03  0.60185056867E+03  0.00000000000E+00 0. -1.
         21   -1    0    0  501  502 -0.00000000000E+00 -0.00000000000E+00 -0.24687406257E+03  0.24687406257E+03  0.00000000000E+00 0. -1.
         25    1    1    2    0    0  0.15223601681E+03  0.14422923876E+03 -0.15090715677E+03  0.28701193022E+03  0.12500000000E+03 0.  0.
         25    1    1    2    0    0 -0.15223601681E+03 -0.14422923876E+03  0.50588366287E+03  0.56171270102E+03  0.12500000000E+03 0.  0.
</event>
<event>
 4    0  0.2219362E-002  0.1651730E+03  0.7546771E-02  0.1182977E+00
         21   -1    0    0  502  501  0.00000000000E+00  0.00000000000E+00  0.32196528750E+02  0.32196528750E+02  0.00000000000E+00 0. -1.
         21   -1    0    0  501  502 -0.00000000000E+00 -0.00000000000E+00 -0.84736219320E+03  0.84736219320E+03  0.00000000000E+00 0. -1.
         25    1    1    2    0    0 -0.82911735777E+02 -0.11890930568E+02 -0.22619050131E+03  0.27166687881E+03  0.12500000000E+03 0.  0.
         25    1    1    2    0    0  0.82911735777E+02  0.11890930568E+02 -0.58897516315E+03  0.60789184314E+03  0.12500000000E+03 0.  0.
</event>
<event>
 4    0  0.2219362E-002  0.1629728E+03  0.7546771E-02  0.1185381E+00
         21   -1    0    0  502  501  0.00000000000E+00  0.00000000000E+00  0.11788455096E+03  0.11788455096E+03  0.00000000000E+00 0.  1.
         21   -1    0    0  501  502 -0.00000000000E+00 -0.00000000000E+00 -0.22530622337E+03  0.22530622337E+03  0.00000000000E+00 0.  1.
         25    1    1    2    0    0 -0.17634580609E+02 -0.60003516657E+02 -0.14195261241E+03  0.19921582421E+03  0.12500000000E+03 0.  0.
         25    1    1    2    0    0  0.17634580609E+02  0.60003516657E+02  0.34530940005E+02  0.14397495012E+03  0.12500000000E+03 0.  0.
</event>
<event>
 4    0  0.2219362E-002  0.2036019E+03  0.7546771E-02  0.1146735E+00
         21   -1    0    0  502  501  0.00000000000E+00  0.00000000000E+00  0.52753891150E+02  0.52753891150E+02  0.00000000000E+00 0. -1.
         21   -1    0    0  501  502 -0.00000000000E+00 -0.00000000000E+00 -0.78579500469E+03  0.78579500469E+03  0.00000000000E+00 0. -1.
         25    1    1    2    0    0 -0.22019568225E+02 -0.14186589104E+03 -0.51527383403E+03  0.54931131106E+03  0.12500000000E+03 0.  0.
         25    1    1    2    0    0  0.22019568225E+02  0.14186589104E+03 -0.21776727951E+03  0.28923758478E+03  0.12500000000E+03 0.  0.
</event>
<event>
 4    0  0.2219362E-002  0.2917413E+03  0.7546771E-02  0.1089443E+00
         21   -1    0    0  502  501  0.00000000000E+00  0.00000000000E+00  0.36316580756E+02  0.36316580756E+02  0.00000000000E+00 0.  1.
         21   -1    0    0  501  502 -0.00000000000E+00 -0.00000000000E+00 -0.23436398196E+04  0.23436398196E+04  0.00000000000E+00 0.  1.
         25    1    1    2    0    0  0.21724675502E+03 -0.27829683059E+02 -0.17519842033E+04  0.17700407601E+04  0.12500000000E+03 0.  0.
         25    1    1    2    0    0 -0.21724675502E+03  0.27829683059E+02 -0.55533903556E+03  0.60991564027E+03  0.12500000000E+03 0.  0.
</event>
<event>
 4    0  0.2219362E-002  0.2559835E+03  0.7546771E-02  0.1109581E+00
         21   -1    0    0  502  501  0.00000000000E+00  0.00000000000E+00  0.42318477961E+03  0.42318477961E+03  0.00000000000E+00 0. -1.
         21   -1    0    0  501  502 -0.00000000000E+00 -0.00000000000E+00 -0.15484387631E+03  0.15484387631E+03  0.00000000000E+00 0. -1.
         25    1    1    2    0    0  0.17018405878E+03  0.14347011049E+03  0.15548156959E+03  0.29890768633E+03  0.12500000000E+03 0.  0.
         25    1    1    2    0    0 -0.17018405878E+03 -0.14347011049E+03  0.11285933371E+03  0.27912096960E+03  0.12500000000E+03 0.  0.
</event>
<event>
 4    0  0.2219362E-002  0.1814226E+03  0.7546771E-02  0.1166433E+00
         21   -1    0    0  502  501  0.00000000000E+00  0.00000000000E+00  0.40034668413E+03  0.40034668413E+03  0.00000000000E+00 0.  1.
         21   -1    0    0  501  502 -0.00000000000E+00 -0.00000000000E+00 -0.82214127157E+02  0.82214127157E+02  0.00000000000E+00 0.  1.
         25    1    1    2    0    0  0.43401612173E+02 -0.12261749768E+03  0.18466201775E+03  0.25815462707E+03  0.12500000000E+03 0.  0.
         25    1    1    2    0    0 -0.43401612173E+02  0.12261749768E+03  0.13347053922E+03  0.22440618422E+03  0.12500000000E+03 0.  0.
</event>
<event>
 4    0  0.2219362E-002  0.1857816E+03  0.7546771E-02  0.1162322E+00
         21   -1    0    0  502  501  0.00000000000E+00  0.00000000000E+00  0.47526075213E+03  0.47526075213E+03  0.00000000000E+00 0.  1.
         21   -1    0    0  501  502 -0.00000000000E+00 -0.00000000000E+00 -0.72622882176E+02  0.72622882176E+02  0.00000000000E+00 0.  1.
         25    1    1    2    0    0  0.13604766213E+03  0.43742244531E+01  0.17327537728E+03  0.25333269939E+03  0.12500000000E+03 0.  0.
         25    1    1    2    0    0 -0.13604766213E+03 -0.43742244531E+01  0.22936249268E+03  0.29455093491E+03  0.12500000000E+03 0.  0.
</event>
<event>
 4    0  0.2219362E-002  0.1788526E+03  0.7546771E-02  0.1168918E+00
         21   -1    0    0  502  501  0.00000000000E+00  0.00000000000E+00  0.11767745239E+04  0.11767745239E+04  0.00000000000E+00 0. -1.
         21   -1    0    0  501  502 -0.00000000000E+00 -0.00000000000E+00 -0.27182997132E+02  0.27182997132E+02  0.00000000000E+00 0. -1.
         25    1    1    2    0    0 -0.53066035623E+02 -0.11161865738E+03  0.46374897298E+03  0.49594640713E+03  0.12500000000E+03 0.  0.
         25    1    1    2    0    0  0.53066035623E+02  0.11161865738E+03  0.68584255378E+03  0.70801111389E+03  0.12500000000E+03 0.  0.
</event>
<event>
 4    0  0.2219362E-002  0.2314443E+03  0.7546771E-02  0.1125627E+00
         21   -1    0    0  502  501  0.00000000000E+00  0.00000000000E+00  0.19326479293E+04  0.19326479293E+04  0.00000000000E+00 0. -1.
         21   -1    0    0  501  502 -0.00000000000E+00 -0.00000000000E+00 -0.27716611584E+02  0.27716611584E+02  0.00000000000E+00 0. -1.
         25    1    1    2    0    0  0.34098958842E+02 -0.15249722299E+03  0.45997057087E+03  0.50161346482E+03  0.12500000000E+03 0.  0.
         25    1    1    2    0    0 -0.34098958842E+02  0.15249722299E+03  0.14449607469E+04  0.14587510761E+04  0.12500000000E+03 0.  0.
</event>
<event>
 4    0  0.2219362E-002  0.1571077E+03  0.7546771E-02  0.1192001E+00
         21   -1    0    0  502  501  0.00000000000E+00  0.00000000000E+00  0.43299773168E+02  0.43299773168E+02  0.00000000000E+00 0.  1.
         21   -1    0    0  501  502 -0.00000000000E+00 -0.00000000000E+00 -0.57004507138E+03  0.57004507138E+03  0.00000000000E+00 0.  1.
         25    1    1    2    0    0  0.42388009481E+02 -0.44979128178E+02 -0.40464535981E+03  0.42799851932E+03  0.12500000000E+03 0.  0.
         25    1    1    2    0    0 -0.42388009481E+02  0.44979128178E+02 -0.12209993840E+03  0.18534632523E+03  0.12500000000E+03 0.  0.
</event>
<event>
 4    0  0.2219362E-002  0.2647722E+03  0.7546771E-02  0.1104309E+00
         21   -1    0    0  502  501  0.00000000000E+00  0.00000000000E+00  0.14540225870E+03  0.14540225870E+03  0.00000000000E+00 0.  1.
         21   -1    0    0  501  502 -0.00000000000E+00 -0.00000000000E+00 -0.48214056386E+03  0.48214056386E+03  0.00000000000E+00 0.  1.
         25    1    1    2    0    0  0.11364009362E+02  0.13899458795E+03 -0.39017107692E+03  0.43278990914E+03  0.12500000000E+03 0.  0.
         25    1    1    2    0    0 -0.11364009362E+02 -0.13899458795E+03  0.53432771759E+02  0.19475291342E+03  0.12500000000E+03 0.  0.
</event>
<event>
 4    0  0.2219362E-002  0.3279229E+03  0.7546771E-02  0.1072060E+00
         21   -1    0    0  502  501  0.00000000000E+00  0.00000000000E+00  0.45644156098E+03  0.45644156098E+03  0.00000000000E+00 0. -1.
         21   -1    0    0  501  502 -0.00000000000E+00 -0.00000000000E+00 -0.23559078190E+03  0.23559078190E+03  0.00000000000E+00 0. -1.
         25    1    1    2    0    0  0.13725014992E+03  0.20662728028E+03  0.29432883353E+03  0.40470594122E+03  0.12500000000E+03 0.  0.
         25    1    1    2    0    0 -0.13725014992E+03 -0.20662728028E+03 -0.73478054454E+02  0.28732640167E+03  0.12500000000E+03 0.  0.
</event>
<event>
 4    0  0.2219362E-002  0.2048374E+03  0.7546771E-02  0.1145721E+00
         21   -1    0    0  502  501  0.00000000000E+00  0.00000000000E+00  0.15091866969E+04  0.15091866969E+04  0.00000000000E+00 0.  1.
         21   -1    0    0  501  502 -0.00000000000E+00 -0.00000000000E+00 -0.27801960452E+02  0.27801960452E+02  0.00000000000E+00 0.  1.
         25    1    1    2    0    0 -0.13679336158E+03 -0.13128588946E+01  0.41321129772E+03  0.45286060099E+03  0.12500000000E+03 0.  0.
         25    1    1    2    0    0  0.13679336158E+03  0.13128588946E+01  0.10681734388E+04  0.10841280564E+04  0.12500000000E+03 0.  0.
</event>
<event>
 4    0  0.2219362E-002  0.1892142E+03  0.7546771E-02  0.1159172E+00
         21   -1    0    0  502  501  0.00000000000E+00  0.00000000000E+00  0.36665877377E+03  0.36665877377E+03  0.00000000000E+00 0.  1.
         21   -1    0    0  501  502 -0.00000000000E+00 -0.00000000000E+00 -0.97643960107E+02  0.97643960107E+02  0.00000000000E+00 0.  1.
         25    1    1    2    0    0  0.23130225943E+02  0.13580798402E+03  0.92037436987E+02  0.20754446676E+03  0.12500000000E+03 0.  0.
         25    1    1    2    0    0 -0.23130225943E+02 -0.13580798402E+03  0.17697737668E+03  0.25675826712E+03  0.12500000000E+03 0.  0.
</event>
<event>
 4    0  0.2219362E-002  0.2726594E+03  0.7546771E-02  0.1099767E+00
         21   -1    0    0  502  501  0.00000000000E+00  0.00000000000E+00  0.42058303940E+03  0.42058303940E+03  0.00000000000E+00 0. -1.
         21   -1    0    0  501  502 -0.00000000000E+00 -0.00000000000E+00 -0.17676208955E+03  0.17676208955E+03  0.00000000000E+00 0. -1.
         25    1    1    2    0    0 -0.23096201264E+03 -0.42383469404E+02  0.18743666382E+03  0.32541867295E+03  0.12500000000E+03 0.  0.
         25    1    1    2    0    0  0.23096201264E+03  0.42383469404E+02  0.56384286035E+02  0.27192645600E+03  0.12500000000E+03 0.  0.
</event>
<event>
 4    0  0.2219362E-002  0.1678831E+03  0.7546771E-02  0.1180074E+00
         21   -1    0    0  502  501  0.00000000000E+00  0.00000000000E+00  0.11313141840E+03  0.11313141840E+03  0.00000000000E+00 0. -1.
         21   -1    0    0  501  502 -0.00000000000E+00 -0.00000000000E+00 -0.24913258695E+03  0.24913258695E+03  0.00000000000E+00 0. -1.
         25    1    1    2    0    0 -0.44512188740E+02  0.53127328036E+02  0.27016938695E+02  0.14546052010E+03  0.12500000000E+03 0.  0.
         25    1    1    2    0    0  0.44512188740E+02 -0.53127328036E+02 -0.16301810724E+03  0.21680348526E+03  0.12500000000E+03 0.  0.
</event>
<event>
 4    0  0.2219362E-002  0.2438462E+03  0.7546771E-02  0.1117257E+00
         21   -1    0    0  502  501  0.00000000000E+00  0.00000000000E+00  0.38327698861E+03  0.38327698861E+03  0.00000000000E+00 0. -1.
         21   -1    0    0  501  502 -0.00000000000E+00 -0.00000000000E+00 -0.15513840032E+03  0.15513840032E+03  0.00000000000E+00 0. -1.
         25    1    1    2    0    0  0.17835275479E+03  0.21622928109E+02  0.23276263782E+03  0.31950070693E+03  0.12500000000E+03 0.  0.
         25    1    1    2    0    0 -0.17835275479E+03 -0.21622928109E+02 -0.46240495404E+01  0.21891468200E+03  0.12500000000E+03 0.  0.
</event>
<event>
 4    0  0.2219362E-002  0.2465565E+03  0.7546771E-02  0.1115501E+00
         21   -1    0    0  502  501  0.00000000000E+00  0.00000000000E+00  0.60751427314E+03  0.60751427314E+03  0.00000000000E+00 0. -1.
         21   -1    0    0  501  502 -0.00000000000E+00 -0.00000000000E+00 -0.10006368638E+03  0.10006368638E+03  0.00000000000E+00 0. -1.
         25    1    1    2    0    0  0.47667801241E+02  0.20476571747E+03  0.29827487784E+03  0.38573841017E+03  0.12500000000E+03 0.  0.
         25    1    1    2    0    0 -0.47667801241E+02 -0.20476571747E+03  0.20917570893E+03  0.32183954936E+03  0.12500000000E+03 0.  0.
</event>
<event>
 4    0  0.2219362E-002  0.2027674E+03  0.7546771E-02  0.1147425E+00
         21   -1    0    0  502  501  0.00000000000E+00  0.00000000000E+00  0.20693889859E+03  0.20693889859E+03  0.00000000000E+00 0. -1.
         21   -1    0    0  501  502 -0.00000000000E+00 -0.00000000000E+00 -0.19868008540E+03  0.19868008540E+03  0.00000000000E+00 0. -1.
         25    1    1    2    0    0  0.77616649987E+02  0.13932046998E+03 -0.32950925276E+01  0.20265832168E+03  0.12500000000E+03 0.  0.
         25    1    1    2    0    0 -0.77616649987E+02 -0.13932046998E+03  0.11553905714E+02  0.20296066232E+03  0.12500000000E+03 0.  0.
</event>
<event>
 4    0  0.2219362E-002  0.3291425E+03  0.7546771E-02  0.1071517E+00
         21   -1    0    0  502  501  0.00000000000E+00  0.00000000000E+00  0.38264386072E+03  0.38264386072E+03  0.00000000000E+00 0. -1.
         21   -1    0    0  501  502 -0.00000000000E+00 -0.00000000000E+00 -0.28312164540E+03  0.28312164540E+03  0.00000000000E+00 0. -1.
         25    1    1    2    0    0  0.23049887811E+03 -0.19298350393E+03  0.86510781443E+00  0.32557351553E+03  0.12500000000E+03 0.  0.
         25    1    1    2    0    0 -0.23049887811E+03  0.19298350393E+03  0.98657107505E+02  0.34019199059E+03  0.12500000000E+03 0.  0.
</event>
<event>
 4    0  0.2219362E-002  0.2810460E+03  0.7546771E-02  0.1095119E+00
         21   -1    0    0  502  501  0.00000000000E+00  0.00000000000E+00  0.33681801022E+03  0.33681801022E+03  0.00000000000E+00 0. -1.
         21   -1    0    0  501  502 -0.00000000000E+00 -0.00000000000E+00 -0.23450895382E+03  0.23450895382E+03  0.00000000000E+00 0. -1.
         25    1    1    2    0    0 -0.17063687093E+03  0.16810875511E+03  0.12978404939E+03  0.29974388191E+03  0.12500000000E+03 0.  0.
         25    1    1    2    0    0  0.17063687093E+03 -0.16810875511E+03 -0.27474992992E+02  0.27158308214E+03  0.12500000000E+03 0.  0.
</event>
<event>
 4    0  0.2219362E-002  0.1725478E+03  0.7546771E-02  0.1175217E+00
         21   -1    0    0  502  501  0.00000000000E+00  0.00000000000E+00  0.28187343611E+02  0.28187343611E+02  0.00000000000E+00 0.  1.
         21   -1    0    0  501  502 -0.00000000000E+00 -0.00000000000E+00 -0.10562448408E+04  0.10562448408E+04  0.00000000000E+00 0.  1.
         25    1    1    2    0    0  0.91489638065E+02  0.74963009869E+02 -0.55351943828E+03  0.57965384090E+03  0.12500000000E+03 0.  0.
         25    1    1    2    0    0 -0.91489638065E+02 -0.74963009869E+02 -0.47453805895E+03  0.50477834355E+03  0.12500000000E+03 0.  0.
</event>
<event>
 4    0  0.2219362E-002  0.2319811E+03  0.7546771E-02  0.1125253E+00
         21   -1    0    0  502  501  0.00000000000E+00  0.00000000000E+00  0.50578210321E+02  0.50578210321E+02  0.00000000000E+00 0. -1.
         21   -1    0    0  501  502 -0.00000000000E+00 -0.00000000000E+00 -0.10640004084E+04  0.10640004084E+04  0.00000000000E+00 0. -1.
         25    1    1    2    0    0  0.39487482078E+02  0.56183169280E+02 -0.67185009266E+02  0.15765352905E+03  0.12500000000E+03 0.  0.
         25    1    1    2    0    0 -0.39487482078E+02 -0.56183169280E+02 -0.94623718877E+03  0.95692508963E+03  0.12500000000E+03 0.  0.
</event>
<event>
 4    0  0.2219362E-002  0.2158571E+03  0.7546771E-02  0.1137010E+00
         21   -1    0    0  502  501  0.00000000000E+00  0.00000000000E+00  0.44793390537E+03  0.44793390537E+03  0.00000000000E+00 0.  1.
         21   -1    0    0  501  502 -0.00000000000E+00 -0.00000000000E+00 -0.10402044659E+03  0.10402044659E+03  0.00000000000E+00 0.  1.
         25    1    1    2    0    0  0.91008841514E+02  0.10230870176E+03  0.30626381479E+02  0.18791661697E+03  0.12500000000E+03 0.  0.
         25    1    1    2    0    0 -0.91008841514E+02 -0.10230870176E+03  0.31328707731E+03  0.36403773499E+03  0.12500000000E+03 0.  0.
</event>
<event>
 4    0  0.2219362E-002  0.3200085E+03  0.7546771E-02  0.1075645E+00
         21   -1    0    0  502  501  0.00000000000E+00  0.00000000000E+00  0.24616618771E+04  0.24616618771E+04  0.00000000000E+00 0.  1.
         21   -1    0    0  501  502 -0.00000000000E+00 -0.00000000000E+00 -0.41600123090E+02  0.41600123090E+02  0.00000000000E+00 0.  1.
         25    1    1    2    0    0  0.77746446103E+02 -0.22853600663E+03  0.18704083403E+04  0.18900596752E+04  0.12500000000E+03 0.  0.
         25    1    1    2    0    0 -0.77746446103E+02  0.22853600663E+03  0.54965341366E+03  0.61320232497E+03  0.12500000000E+03 0.  0.
</event>
<event>
 4    0  0.2219362E-002  0.2981315E+03  0.7546771E-02  0.1086178E+00
         21   -1    0    0  502  501  0.00000000000E+00  0.00000000000E+00  0.26997719960E+03  0.26997719960E+03  0.00000000000E+00 0.  1.
         21   -1    0    0  501  502 -0.00000000000E+00 -0.00000000000E+00 -0.32922175049E+03  0.32922175049E+03  0.00000000000E+00 0. -1.
         25    1    1    2    0    0 -0.62800711849E+02 -0.26185895224E+03 -0.57020530020E+02  0.30230842052E+03  0.12500000000E+03 0.  0.
         25    1    1    2    0    0  0.62800711849E+02  0.26185895224E+03 -0.22240208685E+01  0.29689052956E+03  0.12500000000E+03 0.  0.
</event>
<event>
 4    0  0.2219362E-002  0.2030032E+03  0.7546771E-02  0.1147230E+00
         21   -1    0    0  502  501  0.00000000000E+00  0.00000000000E+00  0.96636481005E+03  0.96636481005E+03  0.00000000000E+00 0. -1.
         21   -1    0    0  501  502 -0.00000000000E+00 -0.00000000000E+00 -0.42644654555E+02  0.42644654555E+02  0.00000000000E+00 0. -1.
         25    1    1    2    0    0  0.88115424409E+02 -0.33137648987E+02  0.14048093381E+03  0.21029104727E+03  0.12500000000E+03 0.  0.
         25    1    1    2    0    0 -0.88115424409E+02  0.33137648987E+02  0.78323922168E+03  0.79871841733E+03  0.12500000000E+03 0.  0.
</event>
<event>
 4    0  0.2219362E-002  0.2742282E+03  0.7546771E-02  0.1098884E+00
         21   -1    0    0  502  501  0.00000000000E+00  0.00000000000E+00  0.21127133690E+03  0.21127133690E+03  0.00000000000E+00 0. -1.
         21   -1    0    0  501  502 -0.00000000000E+00 -0.00000000000E+00 -0.35594569437E+03  0.35594569437E+03  0.00000000000E+00 0. -1.
         25    1    1    2    0    0  0.12081245871E+03 -0.18095282272E+02 -0.29087800846E+03  0.33934953252E+03  0.12500000000E+03 0.  0.
         25    1    1    2    0    0 -0.12081245871E+03  0.18095282272E+02  0.14620365099E+03  0.22786749874E+03  0.12500000000E+03 0.  0.
</event>
<event>
 4    0  0.2219362E-002  0.2727658E+03  0.7546771E-02  0.1099707E+00
         21   -1    0    0  502  501  0.00000000000E+00  0.00000000000E+00  0.33997585078E+03  0.33997585078E+03  0.00000000000E+00 0. -1.
         21   -1    0    0  501  502 -0.00000000000E+00 -0.00000000000E+00 -0.21884257385E+03  0.21884257385E+03  0.00000000000E+00 0. -1.
         25    1    1    2    0    0 -0.19124641310E+03 -0.82507224005E+02 -0.66525966473E+02  0.25185975612E+03  0.12500000000E+03 0.  0.
         25    1    1    2    0    0  0.19124641310E+03  0.82507224005E+02  0.18765924340E+03  0.30695866851E+03  0.12500000000E+03 0.  0.
</event>
<event>
 4    0  0.2219362E-002  0.2503409E+03  0.7546771E-02  0.1113090E+00
         21   -1    0    0  502  501  0.00000000000E+00  0.00000000000E+00  0.26847873950E+03  0.26847873950E+03  0.00000000000E+00 0.  1.
         21   -1    0    0  501  502 -0.00000000000E+00 -0.00000000000E+00 -0.23342845926E+03  0.23342845926E+03  0.00000000000E+00 0.  1.
         25    1    1    2    0    0  0.15263906018E+03  0.15023293902E+03 -0.16865669550E+02  0.24855194521E+03  0.12500000000E+03 0.  0.
         25    1    1    2    0    0 -0.15263906018E+03 -0.15023293902E+03  0.51915949786E+02  0.25335525355E+03  0.12500000000E+03 0.  0.
</event>
<event>
 4    0  0.2219362E-002  0.2465434E+03  0.7546771E-02  0.1115509E+00
         21   -1    0    0  502  501  0.00000000000E+00  0.00000000000E+00  0.72970463511E+03  0.72970463511E+03  0.00000000000E+00 0. -1.
         21   -1    0    0  501  502 -0.00000000000E+00 -0.00000000000E+00 -0.83298948778E+02  0.83298948778E+02  0.00000000000E+00 0. -1.
         25    1    1    2    0    0  0.16655496844E+03 -0.56113059600E+02  0.12624560411E+03  0.24990435275E+03  0.12500000000E+03 0.  0.
         25    1    1    2    0    0 -0.16655496844E+03  0.56113059600E+02  0.52016008222E+03  0.56309923113E+03  0.12500000000E+03 0.  0.
</event>
<event>
 4    0  0.2219362E-002  0.2135124E+03  0.7546771E-02  0.1138814E+00
         21   -1    0    0  502  501  0.00000000000E+00  0.00000000000E+00  0.11812741989E+03  0.11812741989E+03  0.00000000000E+00 0.  1.
         21   -1    0    0  501  502 -0.00000000000E+00 -0.00000000000E+00 -0.38591838254E+03  0.38591838254E+03  0.00000000000E+00 0.  1.
         25    1    1    2    0    0 -0.34235287055E+02 -0.78576461221E+02  0.43616224905E+02  0.15771395060E+03  0.12500000000E+03 0.  0.
         25    1    1    2    0    0  0.34235287055E+02  0.78576461221E+02 -0.31140718756E+03  0.34633185184E+03  0.12500000000E+03 0.  0.
</event>
<event>
 4    0  0.2219362E-002  0.1969064E+03  0.7546771E-02  0.1152376E+00
         21   -1    0    0  502  501  0.00000000000E+00  0.00000000000E+00  0.18403058702E+03  0.18403058702E+03  0.00000000000E+00 0. -1.
         21   -1    0    0  501  502 -0.00000000000E+00 -0.00000000000E+00 -0.21068304825E+03  0.21068304825E+03  0.00000000000E+00 0. -1.
         25    1    1    2    0    0 -0.80056757821E+02  0.76917336928E+02  0.90939444001E+02  0.19031643037E+03  0.12500000000E+03 0.  0.
         25    1    1    2    0    0  0.80056757821E+02 -0.76917336928E+02 -0.11759190523E+03  0.20439720489E+03  0.12500000000E+03 0.  0.
</event>
<event>
 4    0  0.2219362E-002  0.2282620E+03  0.7546771E-02  0.1127869E+00
         21   -1    0    0  502  501  0.00000000000E+00  0.00000000000E+00  0.59406939984E+03  0.59406939984E+03  0.00000000000E+00 0. -1.
         21   -1    0    0  501  502 -0.00000000000E+00 -0.00000000000E+00 -0.87706168655E+02  0.87706168655E+02  0.00000000000E+00 0. -1.
         25    1    1    2    0    0  0.70266901576E+02 -0.17758088553E+03  0.25688291617E+03  0.34363678642E+03  0.12500000000E+03 0.  0.
         25    1    1    2    0    0 -0.70266901576E+02  0.17758088553E+03  0.24948031501E+03  0.33813878207E+03  0.12500000000E+03 0.  0.
</event>
<event>
 4    0  0.2219362E-002  0.1695876E+03  0.7546771E-02  0.1178279E+00
         21   -1    0    0  502  501  0.00000000000E+00  0.00000000000E+00  0.22283394185E+03  0.22283394185E+03  0.00000000000E+00 0. -1.
         21   -1    0    0  501  502 -0.00000000000E+00 -0.00000000000E+00 -0.12906447315E+03  0.12906447315E+03  0.00000000000E+00 0. -1.
         25    1    1    2    0    0  0.10912263171E+03 -0.34777822955E+02  0.51249639403E+02  0.17711231256E+03  0.12500000000E+03 0.  0.
         25    1    1    2    0    0 -0.10912263171E+03  0.34777822955E+02  0.42519829295E+02  0.17478610243E+03  0.12500000000E+03 0.  0.
</event>
<event>
 4    0  0.2219362E-002  0.2042413E+03  0.7546771E-02  0.1146209E+00
         21   -1    0    0  502  501  0.00000000000E+00  0.00000000000E+00  0.17913603343E+03  0.17913603343E+03  0.00000000000E+00 0.  1.
         21   -1    0    0  501  502 -0.00000000000E+00 -0.00000000000E+00 -0.23286498978E+03  0.23286498978E+03  0.00000000000E+00 0.  1.
         25    1    1    2    0    0  0.12376952663E+03 -0.10240465529E+03 -0.98699729571E+01  0.20378426218E+03  0.12500000000E+03 0.  0.
         25    1    1    2    0    0 -0.12376952663E+03  0.10240465529E+03 -0.43858983393E+02  0.20821676102E+03  0.12500000000E+03 0.  0.
</event>
<event>
 4    0  0.2219362E-002  0.2015216E+03  0.7546771E-02  0.1148462E+00
         21   -1    0    0  502  501  0.00000000000E+00  0.00000000000E+00  0.34942583781E+03  0.34942583781E+03  0.00000000000E+00 0.  1.
         21   -1    0    0  501  502 -0.00000000000E+00 -0.00000000000E+00 -0.11622192961E+03  0.11622192961E+03  0.00000000000E+00 0.  1.
         25    1    1    2    0    0 -0.10992857890E+03 -0.10482605478E+03  0.66068312614E+02  0.20751582145E+03  0.12500000000E+03 0.  0.
         25    1    1    2    0    0  0.10992857890E+03  0.10482605478E+03  0.16713559558E+03  0.25813194597E+03  0.12500000000E+03 0.  0.
</event>
<event>
 4    0  0.2219362E-002  0.1667148E+03  0.7546771E-02  0.1181318E+00
         21   -1    0    0  502  501  0.00000000000E+00  0.00000000000E+00  0.91104548715E+02  0.91104548715E+02  0.00000000000E+00 0. -1.
         21   -1    0    0  501  502 -0.00000000000E+00 -0.00000000000E+00 -0.30507604747E+03  0.30507604747E+03  0.00000000000E+00 0. -1.
         25    1    1    2    0    0  0.78316380379E+02  0.51988068785E+02 -0.17557890339E+03  0.23513648387E+03  0.12500000000E+03 0.  0.
         25    1    1    2    0    0 -0.78316380379E+02 -0.51988068785E+02 -0.38392595362E+02  0.16104411231E+03  0.12500000000E+03 0.  0.
</event>
<event>
 4    0  0.2219362E-002  0.2346430E+03  0.7546771E-02  0.1123414E+00
         21   -1    0    0  502  501  0.00000000000E+00  0.00000000000E+00  0.95170502711E+03  0.95170502711E+03  0.00000000000E+00 0. -1.
         21   -1    0    0  501  502 -0.00000000000E+00 -0.00000000000E+00 -0.57851278418E+02  0.57851278418E+02  0.00000000000E+00 0. -1.
         25    1    1    2    0    0 -0.13321438958E+03 -0.19246375832E+02  0.76100976267E+03  0.78286483856E+03  0.12500000000E+03 0.  0.
         25    1    1    2    0    0  0.13321438958E+03  0.19246375832E+02  0.13284398603E+03  0.22669146697E+03  0.12500000000E+03 0.  0.
</event>
<event>
 4    0  0.2219362E-002  0.2488666E+03  0.7546771E-02  0.1114023E+00
         21   -1    0    0  502  501  0.00000000000E+00  0.00000000000E+00  0.11021115529E+03  0.11021115529E+03  0.00000000000E+00 0.  1.
         21   -1    0    0  501  502 -0.00000000000E+00 -0.00000000000E+00 -0.56196298933E+03  0.56196298933E+03  0.00000000000E+00 0.  1.
         25    1    1    2    0    0  0.98700947926E+02  0.71713112035E+02 -0.46527496580E+03  0.49698132898E+03  0.12500000000E+03 0.  0.
         25    1    1    2    0    0 -0.98700947926E+02 -0.71713112035E+02  0.13523131764E+02  0.17519281564E+03  0.12500000000E+03 0.  0.
</event>
<event>
 4    0  0.2219362E-002  0.2039899E+03  0.7546771E-02  0.1146416E+00
         21   -1    0    0  502  501  0.00000000000E+00  0.00000000000E+00  0.46982470398E+03  0.46982470398E+03  0.00000000000E+00 0. -1.
         21   -1    0    0  501  502 -0.00000000000E+00 -0.00000000000E+00 -0.88568964883E+02  0.88568964883E+02  0.00000000000E+00 0. -1.
         25    1    1    2    0    0 -0.12361675550E+03 -0.42475112139E+02  0.31976081165E+03  0.36736523251E+03  0.12500000000E+03 0.  0.
         25    1    1    2    0    0  0.12361675550E+03  0.42475112139E+02  0.61494927446E+02  0.19102843635E+03  0.12500000000E+03 0.  0.
</event>
<event>
 4    0  0.2219362E-002  0.2539212E+03  0.7546771E-02  0.1110852E+00
         21   -1    0    0  502  501  0.00000000000E+00  0.00000000000E+00  0.11054527490E+03  0.11054527490E+03  0.00000000000E+00 0. -1.
         21   -1    0    0  501  502 -0.00000000000E+00 -0.00000000000E+00 -0.58325395853E+03  0.58325395853E+03  0.00000000000E+00 0. -1.
         25    1    1    2    0    0  0.21121273047E+03  0.60554109554E+02 -0.20364172011E+03  0.32461141056E+03  0.12500000000E+03 0.  0.
         25    1    1    2    0    0 -0.21121273047E+03 -0.60554109554E+02 -0.26906696353E+03  0.36918782287E+03  0.12500000000E+03 0.  0.
</event>
<event>
 4    0  0.2219362E-002  0.2570522E+03  0.7546771E-02  0.1108927E+00
         21   -1    0    0  502  501  0.00000000000E+00  0.00000000000E+00  0.95733368926E+02  0.95733368926E+02  0.00000000000E+00 0.  1.
         21   -1    0    0  501  502 -0.00000000000E+00 -0.00000000000E+00 -0.69020706093E+03  0.69020706093E+03  0.00000000000E+00 0.  1.
         25    1    1    2    0    0  0.83764507264E+02  0.41605527404E+02  0.14956509514E+02  0.15683178812E+03  0.12500000000E+03 0.  0.
         25    1    1    2    0    0 -0.83764507264E+02 -0.41605527404E+02 -0.60943020152E+03  0.62910864174E+03  0.12500000000E+03 0.  0.
</event>
<event>
 4    0  0.2219362E-002  0.3271040E+03  0.7546771E-02  0.1072426E+00
         21   -1    0    0  502  501  0.00000000000E+00  0.00000000000E+00  0.71355987022E+03  0.71355987022E+03  0.00000000000E+00 0. -1.
         21   -1    0    0  501  502 -0.00000000000E+00 -0.00000000000E+00 -0.14994819368E+03  0.14994819368E+03  0.00000000000E+00 0.  1.
         25    1    1    2    0    0 -0.73108216519E+02  0.29309658369E+03  0.29636070741E+03  0.44125399442E+03  0.12500000000E+03 0.  0.
         25    1    1    2    0    0  0.73108216519E+02 -0.29309658369E+03  0.26725096913E+03  0.42225406948E+03  0.12500000000E+03 0.  0.
</event>
<event>
 4    0  0.2219362E-002  0.2228125E+03  0.7546771E-02  0.1131803E+00
         21   -1    0    0  502  501  0.00000000000E+00  0.00000000000E+00  0.18674354465E+03  0.18674354465E+03  0.00000000000E+00 0.  1.
         21   -1    0    0  501  502 -0.00000000000E+00 -0.00000000000E+00 -0.26584815504E+03  0.26584815504E+03  0.00000000000E+00 0.  1.
         25    1    1    2    0    0  0.77557497396E+01 -0.18276982064E+03 -0.15615487228E+02  0.22211213932E+03  0.12500000000E+03 0.  0.
         25    1    1    2    0    0 -0.77557497396E+01  0.18276982064E+03 -0.63489123158E+02  0.23047956037E+03  0.12500000000E+03 0.  0.
</event>
<event>
 4    0  0.2219362E-002  0.1800564E+03  0.7546771E-02  0.1167748E+00
         21   -1    0    0  502  501  0.00000000000E+00  0.00000000000E+00  0.14339219461E+03  0.14339219461E+03  0.00000000000E+00 0. -1.
         21   -1    0    0  501  502 -0.00000000000E+00 -0.00000000000E+00 -0.22609537362E+03  0.22609537362E+03  0.00000000000E+00 0. -1.
         25    1    1    2    0    0  0.61068955712E+02 -0.80624130368E+02 -0.12448965386E+03  0.20335275181E+03  0.12500000000E+03 0.  0.
         25    1    1    2    0    0 -0.61068955712E+02  0.80624130368E+02  0.41786474852E+02  0.16613481643E+03  0.12500000000E+03 0.  0.
</event>
<event>
 4    0  0.2219362E-002  0.1736149E+03  0.7546771E-02  0.1174130E+00
         21   -1    0    0  502  501  0.00000000000E+00  0.00000000000E+00  0.44260482992E+03  0.44260482992E+03  0.00000000000E+00 0. -1.
         21   -1    0    0  501  502 -0.00000000000E+00 -0.00000000000E+00 -0.68101714717E+02  0.68101714717E+02  0.00000000000E+00 0. -1.
         25    1    1    2    0    0  0.62982242462E+02 -0.72352434686E+02  0.80018964758E+02  0.17671919078E+03  0.12500000000E+03 0.  0.
         25    1    1    2    0    0 -0.62982242462E+02  0.72352434686E+02  0.29448415044E+03  0.33398735385E+03  0.12500000000E+03 0.  0.
</event>
<event>
 4    0  0.2219362E-002  0.2091796E+03  0.7546771E-02  0.1142217E+00
         21   -1    0    0  502  501  0.00000000000E+00  0.00000000000E+00  0.81302875038E+03  0.81302875038E+03  0.00000000000E+00 0.  1.
         21   -1    0    0  501  502 -0.00000000000E+00 -0.00000000000E+00 -0.53818628209E+02  0.53818628209E+02  0.00000000000E+00 0.  1.
         25    1    1    2    0    0  0.11730352847E+03 -0.21155870914E+02  0.13511225584E+03  0.21928978623E+03  0.12500000000E+03 0.  0.
         25    1    1    2    0    0 -0.11730352847E+03  0.21155870914E+02  0.62409786633E+03  0.64755759236E+03  0.12500000000E+03 0.  0.
</event>
<event>
 4    0  0.2219362E-002  0.2202211E+03  0.7546771E-02  0.1133718E+00
         21   -1    0    0  502  501  0.00000000000E+00  0.00000000000E+00  0.77718827054E+02  0.77718827054E+02  0.00000000000E+00 0. -1.
         21   -1    0    0  501  502 -0.00000000000E+00 -0.00000000000E+00 -0.62401023772E+03  0.62401023772E+03  0.00000000000E+00 0. -1.
         25    1    1    2    0    0 -0.12527663597E+03  0.75336311046E+02 -0.10227109829E+03  0.21783978706E+03  0.12500000000E+03 0.  0.
         25    1    1    2    0    0  0.12527663597E+03 -0.75336311046E+02 -0.44402031238E+03  0.48388927771E+03  0.12500000000E+03 0.  0.
</event>
<event>
 4    0  0.2219362E-002  0.1772034E+03  0.7546771E-02  0.1170537E+00
         21   -1    0    0  502  501  0.00000000000E+00  0.00000000000E+00  0.25824834505E+02  0.25824834505E+02  0.00000000000E+00 0. -1.
         21   -1    0    0  501  502 -0.00000000000E+00 -0.00000000000E+00 -0.12159249224E+04  0.12159249224E+04  0.00000000000E+00 0. -1.
         25    1    1    2    0    0 -0.89516453278E+02 -0.86751561052E+02 -0.54110710096E+03  0.56917565256E+03  0.12500000000E+03 0.  0.
         25    1    1    2    0    0  0.89516453278E+02  0.86751561052E+02 -0.64899298696E+03  0.67257410437E+03  0.12500000000E+03 0.  0.
</event>
<event>
 4    0  0.2219362E-002  0.6688149E+03  0.7546771E-02  0.9772101E-01
         21   -1    0    0  502  501  0.00000000000E+00  0.00000000000E+00  0.30401003366E+03  0.30401003366E+03  0.00000000000E+00 0. -1.
         21   -1    0    0  501  502 -0.00000000000E+00 -0.00000000000E+00 -0.14713768940E+04  0.14713768940E+04  0.00000000000E+00 0. -1.
         25    1    1    2    0    0 -0.56903688323E+03 -0.22346062487E+03 -0.26417193160E+03  0.67760566319E+03  0.12500000000E+03 0.  0.
         25    1    1    2    0    0  0.56903688323E+03  0.22346062487E+03 -0.90319492878E+03  0.10977812645E+04  0.12500000000E+03 0.  0.
</event>
<event>
 4    0  0.2219362E-002  0.1972665E+03  0.7546771E-02  0.1152066E+00
         21   -1    0    0  502  501  0.00000000000E+00  0.00000000000E+00  0.89147217093E+02  0.89147217093E+02  0.00000000000E+00 0.  1.
         21   -1    0    0  501  502 -0.00000000000E+00 -0.00000000000E+00 -0.43651481507E+03  0.43651481507E+03  0.00000000000E+00 0.  1.
         25    1    1    2    0    0  0.12346204112E+03  0.21873355027E+02 -0.57777523729E+02  0.18623791640E+03  0.12500000000E+03 0.  0.
         25    1    1    2    0    0 -0.12346204112E+03 -0.21873355027E+02 -0.28959007425E+03  0.33942411576E+03  0.12500000000E+03 0.  0.
</event>
<event>
 4    0  0.2219362E-002  0.2132952E+03  0.7546771E-02  0.1138983E+00
         21   -1    0    0  502  501  0.00000000000E+00  0.00000000000E+00  0.15351793982E+03  0.15351793982E+03  0.00000000000E+00 0. -1.
         21   -1    0    0  501  502 -0.00000000000E+00 -0.00000000000E+00 -0.29634863557E+03  0.29634863557E+03  0.00000000000E+00 0. -1.
         25    1    1    2    0    0 -0.12663745038E+03  0.11418124144E+03 -0.41673064948E+02  0.21549024126E+03  0.12500000000E+03 0.  0.
         25    1    1    2    0    0  0.12663745038E+03 -0.11418124144E+03 -0.10115763081E+03  0.23437633414E+03  0.12500000000E+03 0.  0.
</event>
<event>
 4    0  0.2219362E-002  0.3460049E+03  0.7546771E-02  0.1064267E+00
         21   -1    0    0  502  501  0.00000000000E+00  0.00000000000E+00  0.10766200444E+03  0.10766200444E+03  0.00000000000E+00 0. -1.
         21   -1    0    0  501  502 -0.00000000000E+00 -0.00000000000E+00 -0.11119932785E+04  0.11119932785E+04  0.00000000000E+00 0. -1.
         25    1    1    2    0    0  0.12041509160E+03  0.27558858482E+03 -0.70804865328E+03  0.77936304620E+03  0.12500000000E+03 0.  0.
         25    1    1    2    0    0 -0.12041509160E+03 -0.27558858482E+03 -0.29628262082E+03  0.44029223678E+03  0.12500000000E+03 0.  0.
</event>
<event>
 4    0  0.2219362E-002  0.2765532E+03  0.7546771E-02  0.1097587E+00
         21   -1    0    0  502  501  0.00000000000E+00  0.00000000000E+00  0.13310583855E+03  0.13310583855E+03  0.00000000000E+00 0. -1.
         21   -1    0    0  501  502 -0.00000000000E+00 -0.00000000000E+00 -0.57459302727E+03  0.57459302727E+03  0.00000000000E+00 0. -1.
         25    1    1    2    0    0 -0.13195221763E+03  0.25227048129E+02 -0.48547580385E+03  0.51899860098E+03  0.12500000000E+03 0.  0.
         25    1    1    2    0    0  0.13195221763E+03 -0.25227048129E+02  0.43988615125E+02  0.18870026485E+03  0.12500000000E+03 0.  0.
</event>
<event>
 4    0  0.2219362E-002  0.3054043E+03  0.7546771E-02  0.1082570E+00
         21   -1    0    0  502  501  0.00000000000E+00  0.00000000000E+00  0.55188416024E+03  0.55188416024E+03  0.00000000000E+00 0.  1.
         21   -1    0    0  501  502 -0.00000000000E+00 -0.00000000000E+00 -0.16900613897E+03  0.16900613897E+03  0.00000000000E+00 0.  1.
         25    1    1    2    0    0  0.13046407726E+03 -0.24443290451E+03  0.22642004073E+03  0.37902421441E+03  0.12500000000E+03 0.  0.
         25    1    1    2    0    0 -0.13046407726E+03  0.24443290451E+03  0.15645798055E+03  0.34186608481E+03  0.12500000000E+03 0.  0.
</event>
<event>
 4    0  0.2219362E-002  0.2323983E+03  0.7546771E-02  0.1124963E+00
         21   -1    0    0  502  501  0.00000000000E+00  0.00000000000E+00  0.26862947246E+03  0.26862947246E+03  0.00000000000E+00 0. -1.
         21   -1    0    0  501  502 -0.00000000000E+00 -0.00000000000E+00 -0.20105369783E+03  0.20105369783E+03  0.00000000000E+00 0. -1.
         25    1    1    2    0    0  0.14503948473E+02 -0.34594874981E+02 -0.16052727026E+03  0.20688444696E+03  0.12500000000E+03 0.  0.
         25    1    1    2    0    0 -0.14503948473E+02  0.34594874981E+02  0.22810304489E+03  0.26279872333E+03  0.12500000000E+03 0.  0.
</event>
<event>
 4    0  0.2219362E-002  0.2097434E+03  0.7546771E-02  0.1141769E+00
         21   -1    0    0  502  501  0.00000000000E+00  0.00000000000E+00  0.49407311365E+03  0.49407311365E+03  0.00000000000E+00 0. -1.
         21   -1    0    0  501  502 -0.00000000000E+00 -0.00000000000E+00 -0.89040030493E+02  0.89040030493E+02  0.00000000000E+00 0. -1.
         25    1    1    2    0    0  0.28258656788E+02 -0.71920389293E+02  0.41054447577E+03  0.43605373598E+03  0.12500000000E+03 0.  0.
         25    1    1    2    0    0 -0.28258656788E+02  0.71920389293E+02 -0.55113926141E+01  0.14705940816E+03  0.12500000000E+03 0.  0.
</event>
<event>
 4    0  0.2219362E-002  0.1874314E+03  0.7546771E-02  0.1160799E+00
         21   -1    0    0  502  501  0.00000000000E+00  0.00000000000E+00  0.12728598785E+03  0.12728598785E+03  0.00000000000E+00 0.  1.
         21   -1    0    0  501  502 -0.00000000000E+00 -0.00000000000E+00 -0.27599668901E+03  0.27599668901E+03  0.00000000000E+00 0.  1.
         25    1    1    2    0    0 -0.18365294462E+02 -0.63398755428E+02 -0.20676718755E+03  0.25046827360E+03  0.12500000000E+03 0.  0.
         25    1    1    2    0    0  0.18365294462E+02  0.63398755428E+02  0.58056486391E+02  0.15281440326E+03  0.12500000000E+03 0.  0.
</event>
<event>
 4    0  0.2219362E-002  0.2903301E+03  0.7546771E-02  0.1090177E+00
         21   -1    0    0  502  501  0.00000000000E+00  0.00000000000E+00  0.21770936741E+04  0.21770936741E+04  0.00000000000E+00 0. -1.
         21   -1    0    0  501  502 -0.00000000000E+00 -0.00000000000E+00 -0.38717473419E+02  0.38717473419E+02  0.00000000000E+00 0. -1.
         25    1    1    2    0    0 -0.91797843102E+02  0.28197530665E+02  0.13879395519E+03  0.21002549067E+03  0.12500000000E+03 0.  0.
         25    1    1    2    0    0  0.91797843102E+02 -0.28197530665E+02  0.19995822455E+04  0.20057856569E+04  0.12500000000E+03 0.  0.
</event>
<event>
 4    0  0.2219362E-002  0.2604072E+03  0.7546771E-02  0.1106899E+00
         21   -1    0    0  502  501  0.00000000000E+00  0.00000000000E+00  0.14480215402E+03  0.14480215402E+03  0.00000000000E+00 0. -1.
         21   -1    0    0  501  502 -0.00000000000E+00 -0.00000000000E+00 -0.46830743397E+03  0.46830743397E+03  0.00000000000E+00 0. -1.
         25    1    1    2    0    0 -0.21537047919E+03 -0.74606866169E+02 -0.14365655849E+03  0.29700645546E+03  0.12500000000E+03 0.  0.
         25    1    1    2    0    0  0.21537047919E+03  0.74606866169E+02 -0.17984872145E+03  0.31610313253E+03  0.12500000000E+03 0.  0.
</event>
<event>
 4    0  0.2219362E-002  0.1599944E+03  0.7546771E-02  0.1188703E+00
         21   -1    0    0  502  501  0.00000000000E+00  0.00000000000E+00  0.20363663101E+03  0.20363663101E+03  0.00000000000E+00 0.  1.
         21   -1    0    0  501  502 -0.00000000000E+00 -0.00000000000E+00 -0.12570535110E+03  0.12570535110E+03  0.00000000000E+00 0.  1.
         25    1    1    2    0    0  0.44674515050E+02 -0.47746447772E+02 -0.38723665656E+02  0.14628758612E+03  0.12500000000E+03 0.  0.
         25    1    1    2    0    0 -0.44674515050E+02  0.47746447772E+02  0.11665494556E+03  0.18305439600E+03  0.12500000000E+03 0.  0.
</event>
<event>
 4    0  0.2219362E-002  0.2226643E+03  0.7546771E-02  0.1131912E+00
         21   -1    0    0  502  501  0.00000000000E+00  0.00000000000E+00  0.14814187827E+03  0.14814187827E+03  0.00000000000E+00 0. -1.
         21   -1    0    0  501  502 -0.00000000000E+00 -0.00000000000E+00 -0.33467512055E+03  0.33467512055E+03  0.00000000000E+00 0. -1.
         25    1    1    2    0    0  0.85669037375E+02  0.11528919744E+02 -0.26969960447E+03  0.30957224780E+03  0.12500000000E+03 0.  0.
         25    1    1    2    0    0 -0.85669037375E+02 -0.11528919744E+02  0.83166362199E+02  0.17324475102E+03  0.12500000000E+03 0.  0.
</event>
<event>
 4    0  0.2219362E-002  0.2017773E+03  0.7546771E-02  0.1148248E+00
         21   -1    0    0  502  501  0.00000000000E+00  0.00000000000E+00  0.21077806342E+02  0.21077806342E+02  0.00000000000E+00 0.  1.
         21   -1    0    0  501  502 -0.00000000000E+00 -0.00000000000E+00 -0.19316083215E+04  0.19316083215E+04  0.00000000000E+00 0.  1.
         25    1    1    2    0    0 -0.67343753657E+02 -0.10243509180E+03 -0.46992153154E+03  0.50147719290E+03  0.12500000000E+03 0.  0.
         25    1    1    2    0    0  0.67343753657E+02  0.10243509180E+03 -0.14406089836E+04  0.14512089349E+04  0.12500000000E+03 0.  0.
</event>
<event>
 4    0  0.2219362E-002  0.3086226E+03  0.7546771E-02  0.1081008E+00
         21   -1    0    0  502  501  0.00000000000E+00  0.00000000000E+00  0.34800460963E+03  0.34800460963E+03  0.00000000000E+00 0.  1.
         21   -1    0    0  501  502 -0.00000000000E+00 -0.00000000000E+00 -0.27369734917E+03  0.27369734917E+03  0.00000000000E+00 0.  1.
         25    1    1    2    0    0  0.30105358045E+02 -0.31690825850E+02 -0.24362840798E+03  0.27729125879E+03  0.12500000000E+03 0.  0.
         25    1    1    2    0    0 -0.30105358045E+02  0.31690825850E+02  0.31793566844E+03  0.34441070002E+03  0.12500000000E+03 0.  0.
</event>
<event>
 4    0  0.2219362E-002  0.3797380E+03  0.7546771E-02  0.1051031E+00
         21   -1    0    0  502  501  0.00000000000E+00  0.00000000000E+00  0.18862745795E+03  0.18862745795E+03  0.00000000000E+00 0.  1.
         21   -1    0    0  501  502 -0.00000000000E+00 -0.00000000000E+00 -0.76447505538E+03  0.76447505538E+03  0.00000000000E+00 0.  1.
         25    1    1    2    0    0  0.10191144872E+03 -0.25168298577E+03 -0.58182195756E+03  0.65411930028E+03  0.12500000000E+03 0.  0.
         25    1    1    2    0    0 -0.10191144872E+03  0.25168298577E+03  0.59743601233E+01  0.29898321305E+03  0.12500000000E+03 0.  0.
</event>
<event>
 4    0  0.2219362E-002  0.1758337E+03  0.7546771E-02  0.1171897E+00
         21   -1    0    0  502  501  0.00000000000E+00  0.00000000000E+00  0.97562279588E+02  0.97562279588E+02  0.00000000000E+00 0. -1.
         21   -1    0    0  501  502 -0.00000000000E+00 -0.00000000000E+00 -0.31690018074E+03  0.31690018074E+03  0.00000000000E+00 0. -1.
         25    1    1    2    0    0  0.10033363577E+02 -0.73980361297E+02 -0.22585607786E+03  0.26871868218E+03  0.12500000000E+03 0.  0.
         25    1    1    2    0    0 -0.10033363577E+02  0.73980361297E+02  0.65181767118E+01  0.14574377815E+03  0.12500000000E+03 0.  0.
</event>
<event>
 4    0  0.2219362E-002  0.2062227E+03  0.7546771E-02  0.1144593E+00
         21   -1    0    0  502  501  0.00000000000E+00  0.00000000000E+00  0.21250644945E+03  0.21250644945E+03  0.00000000000E+00 0. -1.
         21   -1    0    0  501  502 -0.00000000000E+00 -0.00000000000E+00 -0.20012477086E+03  0.20012477086E+03  0.00000000000E+00 0. -1.
         25    1    1    2    0    0 -0.11313444528E+03  0.10551808573E+03 -0.48325317689E+02  0.20467976318E+03  0.12500000000E+03 0.  0.
         25    1    1    2    0    0  0.11313444528E+03 -0.10551808573E+03  0.60706996282E+02  0.20795145713E+03  0.12500000000E+03 0.  0.
</event>
<event>
 4    0  0.2219362E-002  0.1999676E+03  0.7546771E-02  0.1149766E+00
         21   -1    0    0  502  501  0.00000000000E+00  0.00000000000E+00  0.21377696840E+03  0.21377696840E+03  0.00000000000E+00 0. -1.
         21   -1    0    0  501  502 -0.00000000000E+00 -0.00000000000E+00 -0.18705018601E+03  0.18705018601E+03  0.00000000000E+00 0. -1.
         25    1    1    2    0    0 -0.21730044575E+02  0.11016737653E+03  0.12201634454E+03  0.20765845522E+03  0.12500000000E+03 0.  0.
         25    1    1    2    0    0  0.21730044575E+02 -0.11016737653E+03 -0.95289562152E+02  0.19316869918E+03  0.12500000000E+03 0.  0.
</event>
<event>
 4    0  0.2219362E-002  0.1335125E+03  0.7546771E-02  0.1222335E+00
         21   -1    0    0  502  501  0.00000000000E+00  0.00000000000E+00  0.45293220916E+03  0.45293220916E+03  0.00000000000E+00 0.  1.
         21   -1    0    0  501  502 -0.00000000000E+00 -0.00000000000E+00 -0.39355979694E+02  0.39355979694E+02  0.00000000000E+00 0.  1.
         25    1    1    2    0    0 -0.29654576916E+02 -0.79223482549E+01  0.27218883834E+03  0.30108789622E+03  0.12500000000E+03 0.  0.
         25    1    1    2    0    0  0.29654576916E+02  0.79223482549E+01  0.14138739113E+03  0.19120029264E+03  0.12500000000E+03 0.  0.
</event>
<event>
 4    0  0.2219362E-002  0.2185572E+03  0.7546771E-02  0.1134963E+00
         21   -1    0    0  502  501  0.00000000000E+00  0.00000000000E+00  0.17094209951E+03  0.17094209951E+03  0.00000000000E+00 0. -1.
         21   -1    0    0  501  502 -0.00000000000E+00 -0.00000000000E+00 -0.27943515538E+03  0.27943515538E+03  0.00000000000E+00 0. -1.
         25    1    1    2    0    0 -0.68293778083E+02 -0.16293140274E+03 -0.85693910509E+02  0.23276410467E+03  0.12500000000E+03 0.  0.
         25    1    1    2    0    0  0.68293778083E+02  0.16293140274E+03 -0.22799145360E+02  0.21761315023E+03  0.12500000000E+03 0.  0.
</event>
<event>
 4    0  0.2219362E-002  0.2279120E+03  0.7546771E-02  0.1128118E+00
         21   -1    0    0  502  501  0.00000000000E+00  0.00000000000E+00  0.14740923691E+03  0.14740923691E+03  0.00000000000E+00 0. -1.
         21   -1    0    0  501  502 -0.00000000000E+00 -0.00000000000E+00 -0.35237884662E+03  0.35237884662E+03  0.00000000000E+00 0. -1.
         25    1    1    2    0    0 -0.59990028961E+02 -0.71485716247E+02  0.79703687382E+02  0.17517616557E+03  0.12500000000E+03 0.  0.
         25    1    1    2    0    0  0.59990028961E+02  0.71485716247E+02 -0.28467329710E+03  0.32461191796E+03  0.12500000000E+03 0.  0.
</event>
<event>
 4    0  0.2219362E-002  0.2361046E+03  0.7546771E-02  0.1122415E+00
         21   -1    0    0  502  501  0.00000000000E+00  0.00000000000E+00  0.17657804649E+04  0.17657804649E+04  0.00000000000E+00 0.  1.
         21   -1    0    0  501  502 -0.00000000000E+00 -0.00000000000E+00 -0.31569833749E+02  0.31569833749E+02  0.00000000000E+00 0.  1.
         25    1    1    2    0    0  0.12153068237E+03  0.49877506967E+02  0.29158042569E+03  0.34336804905E+03  0.12500000000E+03 0.  0.
         25    1    1    2    0    0 -0.12153068237E+03 -0.49877506967E+02  0.14426302055E+04  0.14539822496E+04  0.12500000000E+03 0.  0.
</event>
<event>
 4    0  0.2219362E-002  0.2082984E+03  0.7546771E-02  0.1142921E+00
         21   -1    0    0  502  501  0.00000000000E+00  0.00000000000E+00  0.28982769774E+03  0.28982769774E+03  0.00000000000E+00 0.  1.
         21   -1    0    0  501  502 -0.00000000000E+00 -0.00000000000E+00 -0.14970345936E+03  0.14970345936E+03  0.00000000000E+00 0.  1.
         25    1    1    2    0    0 -0.28697346080E+02 -0.16275659344E+03  0.47682019681E+02  0.21263071599E+03  0.12500000000E+03 0.  0.
         25    1    1    2    0    0  0.28697346080E+02  0.16275659344E+03  0.92442218700E+02  0.22690044111E+03  0.12500000000E+03 0.  0.
</event>
<event>
 4    0  0.2219362E-002  0.2262830E+03  0.7546771E-02  0.1129284E+00
         21   -1    0    0  502  501  0.00000000000E+00  0.00000000000E+00  0.20694499261E+04  0.20694499261E+04  0.00000000000E+00 0. -1.
         21   -1    0    0  501  502 -0.00000000000E+00 -0.00000000000E+00 -0.24742809998E+02  0.24742809998E+02  0.00000000000E+00 0. -1.
         25    1    1    2    0    0  0.11216211556E+03 -0.12234259667E+03  0.60766859907E+03  0.64221038409E+03  0.12500000000E+03 0.  0.
         25    1    1    2    0    0 -0.11216211556E+03  0.12234259667E+03  0.14370385170E+04  0.14519823520E+04  0.12500000000E+03 0.  0.
</event>
<event>
 4    0  0.2219362E-002  0.1794041E+03  0.7546771E-02  0.1168381E+00
         21   -1    0    0  502  501  0.00000000000E+00  0.00000000000E+00  0.17247898189E+03  0.17247898189E+03  0.00000000000E+00 0. -1.
         21   -1    0    0  501  502 -0.00000000000E+00 -0.00000000000E+00 -0.18660721747E+03  0.18660721747E+03  0.00000000000E+00 0. -1.
         25    1    1    2    0    0 -0.79386588191E+02  0.11856534077E+02  0.93602174178E+02  0.17558238749E+03  0.12500000000E+03 0.  0.
         25    1    1    2    0    0  0.79386588191E+02 -0.11856534077E+02 -0.10773040976E+03  0.18350381188E+03  0.12500000000E+03 0.  0.
</event>
<event>
 4    0  0.2219362E-002  0.2742471E+03  0.7546771E-02  0.1098873E+00
         21   -1    0    0  502  501  0.00000000000E+00  0.00000000000E+00  0.67910575917E+03  0.67910575917E+03  0.00000000000E+00 0. -1.
         21   -1    0    0  501  502 -0.00000000000E+00 -0.00000000000E+00 -0.11075076658E+03  0.11075076658E+03  0.00000000000E+00 0. -1.
         25    1    1    2    0    0 -0.14059651053E+03  0.16350737273E+02 -0.22132847150E+01  0.18885079828E+03  0.12500000000E+03 0.  0.
         25    1    1    2    0    0  0.14059651053E+03 -0.16350737273E+02  0.57056827730E+03  0.60100572746E+03  0.12500000000E+03 0.  0.
</event>
<event>
 4    0  0.2219362E-002  0.2855698E+03  0.7546771E-02  0.1092685E+00
         21   -1    0    0  502  501  0.00000000000E+00  0.00000000000E+00  0.13190715132E+03  0.13190715132E+03  0.00000000000E+00 0.  1.
         21   -1    0    0  501  502 -0.00000000000E+00 -0.00000000000E+00 -0.61823861890E+03  0.61823861890E+03  0.00000000000E+00 0.  1.
         25    1    1    2    0    0 -0.23691235344E+03  0.94591725820E+02 -0.28145900006E+03  0.39989902041E+03  0.12500000000E+03 0.  0.
         25    1    1    2    0    0  0.23691235344E+03 -0.94591725820E+02 -0.20487246751E+03  0.35024674981E+03  0.12500000000E+03 0.  0.
</event>
<event>
 4    0  0.2219362E-002  0.2640754E+03  0.7546771E-02  0.1104719E+00
         21   -1    0    0  502  501  0.00000000000E+00  0.00000000000E+00  0.26232773654E+03  0.26232773654E+03  0.00000000000E+00 0. -1.
         21   -1    0    0  501  502 -0.00000000000E+00 -0.00000000000E+00 -0.26583473406E+03  0.26583473406E+03  0.00000000000E+00 0. -1.
         25    1    1    2    0    0  0.10898442667E+03  0.16785318871E+03  0.11681776979E+03  0.26329392237E+03  0.12500000000E+03 0.  0.
         25    1    1    2    0    0 -0.10898442667E+03 -0.16785318871E+03 -0.12032476732E+03  0.26486854824E+03  0.12500000000E+03 0.  0.
</event>
<event>
 4    0  0.2219362E-002  0.2545174E+03  0.7546771E-02  0.1110483E+00
         21   -1    0    0  502  501  0.00000000000E+00  0.00000000000E+00  0.59871644870E+03  0.59871644870E+03  0.00000000000E+00 0.  1.
         21   -1    0    0  501  502 -0.00000000000E+00 -0.00000000000E+00 -0.10819664767E+03  0.10819664767E+03  0.00000000000E+00 0.  1.
         25    1    1    2    0    0 -0.79104997993E+02  0.27554292878E+02  0.53033005225E+03  0.55126382439E+03  0.12500000000E+03 0.  0.
         25    1    1    2    0    0  0.79104997993E+02 -0.27554292878E+02 -0.39810251217E+02  0.15564927197E+03  0.12500000000E+03 0.  0.
</event>
<event>
 4    0  0.2219362E-002  0.2905542E+03  0.7546771E-02  0.1090060E+00
         21   -1    0    0  502  501  0.00000000000E+00  0.00000000000E+00  0.39908062602E+03  0.39908062602E+03  0.00000000000E+00 0. -1.
         21   -1    0    0  501  502 -0.00000000000E+00 -0.00000000000E+00 -0.21154060255E+03  0.21154060255E+03  0.00000000000E+00 0. -1.
         25    1    1    2    0    0 -0.25642592235E+03 -0.52653726502E+02  0.76501020286E+02  0.30000679105E+03  0.12500000000E+03 0.  0.
         25    1    1    2    0    0  0.25642592235E+03  0.52653726502E+02  0.11103900319E+03  0.31061443752E+03  0.12500000000E+03 0.  0.
</event>
<event>
 4    0  0.2219362E-002  0.1760340E+03  0.7546771E-02  0.1171697E+00
         21   -1    0    0  502  501  0.00000000000E+00  0.00000000000E+00  0.27051038819E+03  0.27051038819E+03  0.00000000000E+00 0. -1.
         21   -1    0    0  501  502 -0.00000000000E+00 -0.00000000000E+00 -0.11455373234E+03  0.11455373234E+03  0.00000000000E+00 0. -1.
         25    1    1    2    0    0 -0.19901667094E+02  0.11340739283E+03  0.12816642635E+03  0.21285898136E+03  0.12500000000E+03 0.  0.
         25    1    1    2    0    0  0.19901667094E+02 -0.11340739283E+03  0.27790229503E+02  0.17220513917E+03  0.12500000000E+03 0.  0.
</event>
<event>
 4    0  0.2219362E-002  0.1581983E+03  0.7546771E-02  0.1190746E+00
         21   -1    0    0  502  501  0.00000000000E+00  0.00000000000E+00  0.19979942929E+02  0.19979942929E+02  0.00000000000E+00 0.  1.
         21   -1    0    0  501  502 -0.00000000000E+00 -0.00000000000E+00 -0.12525919614E+04  0.12525919614E+04  0.00000000000E+00 0.  1.
         25    1    1    2    0    0 -0.57337591442E+02  0.21988733305E+02 -0.91811224490E+03  0.92861520449E+03  0.12500000000E+03 0.  0.
         25    1    1    2    0    0  0.57337591442E+02 -0.21988733305E+02 -0.31449977358E+03  0.34395669984E+03  0.12500000000E+03 0.  0.
</event>
<event>
 4    0  0.2219362E-002  0.2663267E+03  0.7546771E-02  0.1103401E+00
         21   -1    0    0  502  501  0.00000000000E+00  0.00000000000E+00  0.42465897751E+03  0.42465897751E+03  0.00000000000E+00 0. -1.
         21   -1    0    0  501  502 -0.00000000000E+00 -0.00000000000E+00 -0.16702794799E+03  0.16702794799E+03  0.00000000000E+00 0. -1.
         25    1    1    2    0    0  0.16845409585E+03 -0.43248327010E+02  0.30465564753E+03  0.37240738952E+03  0.12500000000E+03 0.  0.
         25    1    1    2    0    0 -0.16845409585E+03  0.43248327010E+02 -0.47024618011E+02  0.21927953597E+03  0.12500000000E+03 0.  0.
</event>
<event>
 4    0  0.2219362E-002  0.2987205E+03  0.7546771E-02  0.1085882E+00
         21   -1    0    0  502  501  0.00000000000E+00  0.00000000000E+00  0.27265052680E+03  0.27265052680E+03  0.00000000000E+00 0.  1.
         21   -1    0    0  501  502 -0.00000000000E+00 -0.00000000000E+00 -0.32728330707E+03  0.32728330707E+03  0.00000000000E+00 0.  1.
         25    1    1    2    0    0  0.23330668697E+03 -0.13212393479E+03 -0.68964997016E+02  0.30375963383E+03  0.12500000000E+03 0.  0.
         25    1    1    2    0    0 -0.23330668697E+03  0.13212393479E+03  0.14332216751E+02  0.29617420004E+03  0.12500000000E+03 0.  0.
</event>
<event>
 4    0  0.2219362E-002  0.1953728E+03  0.7546771E-02  0.1153703E+00
         21   -1    0    0  502  501  0.00000000000E+00  0.00000000000E+00  0.21362928055E+04  0.21362928055E+04  0.00000000000E+00 0.  1.
         21   -1    0    0  501  502 -0.00000000000E+00 -0.00000000000E+00 -0.17867647717E+02  0.17867647717E+02  0.00000000000E+00 0.  1.
         25    1    1    2    0    0  0.11456946471E+03 -0.52843669215E+02  0.61042630686E+03  0.63573885497E+03  0.12500000000E+03 0.  0.
         25    1    1    2    0    0 -0.11456946471E+03  0.52843669215E+02  0.15079988510E+04  0.15184215983E+04  0.12500000000E+03 0.  0.
</event>
<event>
 4    0  0.2219362E-002  0.3560494E+03  0.7546771E-02  0.1060159E+00
         21   -1    0    0  502  501  0.00000000000E+00  0.00000000000E+00  0.19586544254E+03  0.19586544254E+03  0.00000000000E+00 0. -1.
         21   -1    0    0  501  502 -0.00000000000E+00 -0.00000000000E+00 -0.64723618177E+03  0.64723618177E+03  0.00000000000E+00 0. -1.
         25    1    1    2    0    0  0.28738477131E+02  0.32645125154E+03 -0.29818710434E+03  0.46036601623E+03  0.12500000000E+03 0.  0.
         25    1    1    2    0    0 -0.28738477131E+02 -0.32645125154E+03 -0.15318363489E+03  0.38273560809E+03  0.12500000000E+03 0.  0.
</event>
<event>
 4    0  0.2219362E-002  0.3071251E+03  0.7546771E-02  0.1081732E+00
         21   -1    0    0  502  501  0.00000000000E+00  0.00000000000E+00  0.22629235851E+03  0.22629235851E+03  0.00000000000E+00 0.  1.
         21   -1    0    0  501  502 -0.00000000000E+00 -0.00000000000E+00 -0.41683182891E+03  0.41683182891E+03  0.00000000000E+00 0.  1.
         25    1    1    2    0    0  0.99231642504E+02  0.26177087810E+03 -0.11428800534E+03  0.32719666817E+03  0.12500000000E+03 0.  0.
         25    1    1    2    0    0 -0.99231642504E+02 -0.26177087810E+03 -0.76251465060E+02  0.31592751925E+03  0.12500000000E+03 0.  0.
</event>
<event>
 4    0  0.2219362E-002  0.2397870E+03  0.7546771E-02  0.1119935E+00
         21   -1    0    0  502  501  0.00000000000E+00  0.00000000000E+00  0.22139665650E+03  0.22139665650E+03  0.00000000000E+00 0. -1.
         21   -1    0    0  501  502 -0.00000000000E+00 -0.00000000000E+00 -0.25970489788E+03  0.25970489788E+03  0.00000000000E+00 0. -1.
         25    1    1    2    0    0 -0.13345552317E+03 -0.15178445700E+03  0.12946210715E+02  0.23799475293E+03  0.12500000000E+03 0.  0.
         25    1    1    2    0    0  0.13345552317E+03  0.15178445700E+03 -0.51254452103E+02  0.24310680145E+03  0.12500000000E+03 0.  0.
</event>
<event>
 4    0  0.2219362E-002  0.2765190E+03  0.7546771E-02  0.1097606E+00
         21   -1    0    0  502  501  0.00000000000E+00  0.00000000000E+00  0.50633591075E+03  0.50633591075E+03  0.00000000000E+00 0.  1.
         21   -1    0    0  501  502 -0.00000000000E+00 -0.00000000000E+00 -0.15101188587E+03  0.15101188587E+03  0.00000000000E+00 0. -1.
         25    1    1    2    0    0 -0.21345281919E+03  0.12926735934E+02  0.31561596623E+02  0.24970050241E+03  0.12500000000E+03 0.  0.
         25    1    1    2    0    0  0.21345281919E+03 -0.12926735934E+02  0.32376242826E+03  0.40764729421E+03  0.12500000000E+03 0.  0.
</event>
<event>
 4    0  0.2219362E-002  0.2163398E+03  0.7546771E-02  0.1136642E+00
         21   -1    0    0  502  501  0.00000000000E+00  0.00000000000E+00  0.66590135017E+03  0.66590135017E+03  0.00000000000E+00 0.  1.
         21   -1    0    0  501  502 -0.00000000000E+00 -0.00000000000E+00 -0.70285056711E+02  0.70285056711E+02  0.00000000000E+00 0.  1.
         25    1    1    2    0    0  0.17587405850E+03 -0.11712837000E+02  0.28004120847E+03  0.35371874908E+03  0.12500000000E+03 0.  0.
         25    1    1    2    0    0 -0.17587405850E+03  0.11712837000E+02  0.31557508499E+03  0.38246765781E+03  0.12500000000E+03 0.  0.
</event>
<event>
 4    0  0.2219362E-002  0.2297380E+03  0.7546771E-02  0.1126824E+00
         21   -1    0    0  502  501  0.00000000000E+00  0.00000000000E+00  0.26852079931E+03  0.26852079931E+03  0.00000000000E+00 0. -1.
         21   -1    0    0  501  502 -0.00000000000E+00 -0.00000000000E+00 -0.19655672005E+03  0.19655672005E+03  0.00000000000E+00 0. -1.
         25    1    1    2    0    0 -0.13281420546E+03 -0.11105224949E+03  0.12176396493E+03  0.24581228294E+03  0.12500000000E+03 0.  0.
         25    1    1    2    0    0  0.13281420546E+03  0.11105224949E+03 -0.49799885674E+02  0.21926523642E+03  0.12500000000E+03 0.  0.
</event>
<event>
 4    0  0.2219362E-002  0.2032670E+03  0.7546771E-02  0.1147012E+00
         21   -1    0    0  502  501  0.00000000000E+00  0.00000000000E+00  0.51032863520E+03  0.51032863520E+03  0.00000000000E+00 0.  1.
         21   -1    0    0  501  502 -0.00000000000E+00 -0.00000000000E+00 -0.80962476320E+02  0.80962476320E+02  0.00000000000E+00 0.  1.
         25    1    1    2    0    0  0.15572365673E+03  0.11767952917E+02  0.26720790445E+03  0.33378646795E+03  0.12500000000E+03 0.  0.
         25    1    1    2    0    0 -0.15572365673E+03 -0.11767952917E+02  0.16215825443E+03  0.25750464357E+03  0.12500000000E+03 0.  0.
</event>
<event>
 4    0  0.2219362E-002  0.2003627E+03  0.7546771E-02  0.1149433E+00
         21   -1    0    0  502  501  0.00000000000E+00  0.00000000000E+00  0.15186826620E+03  0.15186826620E+03  0.00000000000E+00 0. -1.
         21   -1    0    0  501  502 -0.00000000000E+00 -0.00000000000E+00 -0.26434220512E+03  0.26434220512E+03  0.00000000000E+00 0. -1.
         25    1    1    2    0    0 -0.15558275143E+03 -0.90428637744E+01 -0.72071639074E+02  0.21238429106E+03  0.12500000000E+03 0.  0.
         25    1    1    2    0    0  0.15558275143E+03  0.90428637744E+01 -0.40402299847E+02  0.20382618026E+03  0.12500000000E+03 0.  0.
</event>
<event>
 4    0  0.2219362E-002  0.2438747E+03  0.7546771E-02  0.1117238E+00
         21   -1    0    0  502  501  0.00000000000E+00  0.00000000000E+00  0.10711253463E+03  0.10711253463E+03  0.00000000000E+00 0. -1.
         21   -1    0    0  501  502 -0.00000000000E+00 -0.00000000000E+00 -0.55525605050E+03  0.55525605050E+03  0.00000000000E+00 0. -1.
         25    1    1    2    0    0 -0.31097287938E+02  0.47264933679E+02  0.49724279854E+02  0.14594012224E+03  0.12500000000E+03 0.  0.
         25    1    1    2    0    0  0.31097287938E+02 -0.47264933679E+02 -0.49786779572E+03  0.51642846289E+03  0.12500000000E+03 0.  0.
</event>
<event>
 4    0  0.2219362E-002  0.1760736E+03  0.7546771E-02  0.1171658E+00
         21   -1    0    0  502  501  0.00000000000E+00  0.00000000000E+00  0.15769048912E+03  0.15769048912E+03  0.00000000000E+00 0. -1.
         21   -1    0    0  501  502 -0.00000000000E+00 -0.00000000000E+00 -0.19659973355E+03  0.19659973355E+03  0.00000000000E+00 0. -1.
         25    1    1    2    0    0  0.62643783714E+02 -0.76241788114E+02  0.56101367607E+02  0.16884731961E+03  0.12500000000E+03 0.  0.
         25    1    1    2    0    0 -0.62643783714E+02  0.76241788114E+02 -0.95010612044E+02  0.18544290306E+03  0.12500000000E+03 0.  0.
</event>
<event>
 4    0  0.2219362E-002  0.1953010E+03  0.7546771E-02  0.1153765E+00
         21   -1    0    0  502  501  0.00000000000E+00  0.00000000000E+00  0.58100820009E+03  0.58100820009E+03  0.00000000000E+00 0. -1.
         21   -1    0    0  501  502 -0.00000000000E+00 -0.00000000000E+00 -0.65648760980E+02  0.65648760980E+02  0.00000000000E+00 0. -1.
         25    1    1    2    0    0 -0.96952721958E+01 -0.42148470615E+02  0.49556512371E+03  0.51291352459E+03  0.12500000000E+03 0.  0.
         25    1    1    2    0    0  0.96952721958E+01  0.42148470615E+02  0.19794315406E+02  0.13374343648E+03  0.12500000000E+03 0.  0.
</event>
<event>
 4    0  0.2219362E-002  0.2161909E+03  0.7546771E-02  0.1136755E+00
         21   -1    0    0  502  501  0.00000000000E+00  0.00000000000E+00  0.35922534107E+02  0.35922534107E+02  0.00000000000E+00 0. -1.
         21   -1    0    0  501  502 -0.00000000000E+00 -0.00000000000E+00 -0.13010915254E+04  0.13010915254E+04  0.00000000000E+00 0. -1.
         25    1    1    2    0    0  0.12952027008E+03 -0.48111370328E+02 -0.29352148010E+03  0.34766372200E+03  0.12500000000E+03 0.  0.
         25    1    1    2    0    0 -0.12952027008E+03  0.48111370328E+02 -0.97164751121E+03  0.98935033753E+03  0.12500000000E+03 0.  0.
</event>
<event>
 4    0  0.2219362E-002  0.3389457E+03  0.7546771E-02  0.1067246E+00
         21   -1    0    0  502  501  0.00000000000E+00  0.00000000000E+00  0.15597155713E+03  0.15597155713E+03  0.00000000000E+00 0. -1.
         21   -1    0    0  501  502 -0.00000000000E+00 -0.00000000000E+00 -0.73657122604E+03  0.73657122604E+03  0.00000000000E+00 0. -1.
         25    1    1    2    0    0  0.27935739413E+03 -0.13146919612E+03 -0.20771288617E+03  0.39254852727E+03  0.12500000000E+03 0.  0.
         25    1    1    2    0    0 -0.27935739413E+03  0.13146919612E+03 -0.37288678274E+03  0.49999425590E+03  0.12500000000E+03 0.  0.
</event>
<event>
 4    0  0.2219362E-002  0.2252166E+03  0.7546771E-02  0.1130053E+00
         21   -1    0    0  502  501  0.00000000000E+00  0.00000000000E+00  0.10114910140E+03  0.10114910140E+03  0.00000000000E+00 0.  1.
         21   -1    0    0  501  502 -0.00000000000E+00 -0.00000000000E+00 -0.50146293289E+03  0.50146293289E+03  0.00000000000E+00 0.  1.
         25    1    1    2    0    0 -0.76637942290E+02 -0.96707078752E+02 -0.38875052787E+03  0.42658833341E+03  0.12500000000E+03 0.  0.
         25    1    1    2    0    0  0.76637942290E+02  0.96707078752E+02 -0.11563303620E+02  0.17602370088E+03  0.12500000000E+03 0.  0.
</event>
<event>
 4    0  0.2219362E-002  0.3766323E+03  0.7546771E-02  0.1052186E+00
         21   -1    0    0  502  501  0.00000000000E+00  0.00000000000E+00  0.21438379841E+03  0.21438379841E+03  0.00000000000E+00 0.  1.
         21   -1    0    0  501  502 -0.00000000000E+00 -0.00000000000E+00 -0.66167251514E+03  0.66167251514E+03  0.00000000000E+00 0. -1.
         25    1    1    2    0    0  0.18617500578E+03  0.26338310927E+03 -0.50378585659E+02  0.34956372369E+03  0.12500000000E+03 0.  0.
         25    1    1    2    0    0 -0.18617500578E+03 -0.26338310927E+03 -0.39691013107E+03  0.52649258986E+03  0.12500000000E+03 0.  0.
</event>
<event>
 4    0  0.2219362E-002  0.1913763E+03  0.7546771E-02  0.1157226E+00
         21   -1    0    0  502  501  0.00000000000E+00  0.00000000000E+00  0.17207651583E+02  0.17207651583E+02  0.00000000000E+00 0.  1.
         21   -1    0    0  501  502 -0.00000000000E+00 -0.00000000000E+00 -0.21284068670E+04  0.21284068670E+04  0.00000000000E+00 0.  1.
         25    1    1    2    0    0  0.38491176472E+02  0.57113298169E+02 -0.34086377676E+03  0.36953567325E+03  0.12500000000E+03 0.  0.
         25    1    1    2    0    0 -0.38491176472E+02 -0.57113298169E+02 -0.17703354386E+04  0.17760788453E+04  0.12500000000E+03 0.  0.
</event>
<event>
 4    0  0.2219362E-002  0.2313899E+03  0.7546771E-02  0.1125665E+00
         21   -1    0    0  502  501  0.00000000000E+00  0.00000000000E+00  0.28931254891E+03  0.28931254891E+03  0.00000000000E+00 0. -1.
         21   -1    0    0  501  502 -0.00000000000E+00 -0.00000000000E+00 -0.18506378212E+03  0.18506378212E+03  0.00000000000E+00 0. -1.
         25    1    1    2    0    0 -0.17374036293E+03 -0.47776128847E+02  0.12778455210E+03  0.25381521616E+03  0.12500000000E+03 0.  0.
         25    1    1    2    0    0  0.17374036293E+03  0.47776128847E+02 -0.23535785305E+02  0.22056111486E+03  0.12500000000E+03 0.  0.
</event>
<event>
 4    0  0.2219362E-002  0.1947761E+03  0.7546771E-02  0.1154223E+00
         21   -1    0    0  502  501  0.00000000000E+00  0.00000000000E+00  0.20317883402E+03  0.20317883402E+03  0.00000000000E+00 0. -1.
         21   -1    0    0  501  502 -0.00000000000E+00 -0.00000000000E+00 -0.18672091635E+03  0.18672091635E+03  0.00000000000E+00 0. -1.
         25    1    1    2    0    0 -0.12065705692E+03 -0.79604678848E+02 -0.29457090114E+02  0.19335912297E+03  0.12500000000E+03 0.  0.
         25    1    1    2    0    0  0.12065705692E+03  0.79604678848E+02  0.45915007780E+02  0.19654062740E+03  0.12500000000E+03 0.  0.
</event>
<event>
 4    0  0.2219362E-002  0.1844671E+03  0.7546771E-02  0.1163548E+00
         21   -1    0    0  502  501  0.00000000000E+00  0.00000000000E+00  0.29580546593E+02  0.29580546593E+02  0.00000000000E+00 0. -1.
         21   -1    0    0  501  502 -0.00000000000E+00 -0.00000000000E+00 -0.11503539010E+04  0.11503539010E+04  0.00000000000E+00 0. -1.
         25    1    1    2    0    0  0.10273784489E+02  0.13523491395E+03 -0.57001570915E+03  0.59911346277E+03  0.12500000000E+03 0.  0.
         25    1    1    2    0    0 -0.10273784489E+02 -0.13523491395E+03 -0.55075764530E+03  0.58082098486E+03  0.12500000000E+03 0.  0.
</event>
<event>
 4    0  0.2219362E-002  0.2582717E+03  0.7546771E-02  0.1108186E+00
         21   -1    0    0  502  501  0.00000000000E+00  0.00000000000E+00  0.20826477773E+04  0.20826477773E+04  0.00000000000E+00 0. -1.
         21   -1    0    0  501  502 -0.00000000000E+00 -0.00000000000E+00 -0.32028595591E+02  0.32028595591E+02  0.00000000000E+00 0. -1.
         25    1    1    2    0    0  0.17315828186E+03  0.14499630628E+03  0.10599421335E+04  0.10909216497E+04  0.12500000000E+03 0.  0.
         25    1    1    2    0    0 -0.17315828186E+03 -0.14499630628E+03  0.99067704821E+03  0.10237547232E+04  0.12500000000E+03 0.  0.
</event>
<event>
 4    0  0.2219362E-002  0.1772541E+03  0.7546771E-02  0.1170487E+00
         21   -1    0    0  502  501  0.00000000000E+00  0.00000000000E+00  0.10158434034E+03  0.10158434034E+03  0.00000000000E+00 0.  1.
         21   -1    0    0  501  502 -0.00000000000E+00 -0.00000000000E+00 -0.30928985322E+03  0.30928985322E+03  0.00000000000E+00 0.  1.
         25    1    1    2    0    0  0.31019357545E+02  0.12175590429E+03 -0.10698525606E+03  0.20702064096E+03  0.12500000000E+03 0.  0.
         25    1    1    2    0    0 -0.31019357545E+02 -0.12175590429E+03 -0.10072025682E+03  0.20385355259E+03  0.12500000000E+03 0.  0.
</event>
<event>
 4    0  0.2219362E-002  0.2266099E+03  0.7546771E-02  0.1129049E+00
         21   -1    0    0  502  501  0.00000000000E+00  0.00000000000E+00  0.31576099458E+03  0.31576099458E+03  0.00000000000E+00 0.  1.
         21   -1    0    0  501  502 -0.00000000000E+00 -0.00000000000E+00 -0.16262952998E+03  0.16262952998E+03  0.00000000000E+00 0.  1.
         25    1    1    2    0    0 -0.12246178686E+03  0.14475942023E+02 -0.74640213251E+02  0.19079466337E+03  0.12500000000E+03 0.  0.
         25    1    1    2    0    0  0.12246178686E+03 -0.14475942023E+02  0.22777167785E+03  0.28759586118E+03  0.12500000000E+03 0.  0.
</event>
<event>
 4    0  0.2219362E-002  0.3520082E+03  0.7546771E-02  0.1061794E+00
         21   -1    0    0  502  501  0.00000000000E+00  0.00000000000E+00  0.16020576431E+04  0.16020576431E+04  0.00000000000E+00 0.  1.
         21   -1    0    0  501  502 -0.00000000000E+00 -0.00000000000E+00 -0.77344137392E+02  0.77344137392E+02  0.00000000000E+00 0.  1.
         25    1    1    2    0    0 -0.22135078154E+03 -0.14709422065E+03  0.29948015445E+03  0.41945946305E+03  0.12500000000E+03 0.  0.
         25    1    1    2    0    0  0.22135078154E+03  0.14709422065E+03  0.12252333513E+04  0.12599423175E+04  0.12500000000E+03 0.  0.
</event>
<event>
 4    0  0.2219362E-002  0.3401193E+03  0.7546771E-02  0.1066745E+00
         21   -1    0    0  502  501  0.00000000000E+00  0.00000000000E+00  0.17466468465E+03  0.17466468465E+03  0.00000000000E+00 0. -1.
         21   -1    0    0  501  502 -0.00000000000E+00 -0.00000000000E+00 -0.66230405402E+03  0.66230405402E+03  0.00000000000E+00 0. -1.
         25    1    1    2    0    0  0.25878973655E+03 -0.49012604512E+02 -0.28299397803E+02  0.29291674425E+03  0.12500000000E+03 0.  0.
         25    1    1    2    0    0 -0.25878973655E+03  0.49012604512E+02 -0.45933997157E+03  0.54405199442E+03  0.12500000000E+03 0.  0.
</event>
<event>
 4    0  0.2219362E-002  0.1999108E+03  0.7546771E-02  0.1149814E+00
         21   -1    0    0  502  501  0.00000000000E+00  0.00000000000E+00  0.78497416184E+02  0.78497416184E+02  0.00000000000E+00 0.  1.
         21   -1    0    0  501  502 -0.00000000000E+00 -0.00000000000E+00 -0.50911628945E+03  0.50911628945E+03  0.00000000000E+00 0.  1.
         25    1    1    2    0    0  0.48159876879E+02  0.46627267175E+01 -0.43329076868E+03  0.45354934129E+03  0.12500000000E+03 0.  0.
         25    1    1    2    0    0 -0.48159876879E+02 -0.46627267175E+01  0.26718954153E+01  0.13406436434E+03  0.12500000000E+03 0.  0.
</event>
<event>
 4    0  0.2219362E-002  0.2452179E+03  0.7546771E-02  0.1116365E+00
         21   -1    0    0  502  501  0.00000000000E+00  0.00000000000E+00  0.69521071579E+02  0.69521071579E+02  0.00000000000E+00 0. -1.
         21   -1    0    0  501  502 -0.00000000000E+00 -0.00000000000E+00 -0.86494370993E+03  0.86494370993E+03  0.00000000000E+00 0. -1.
         25    1    1    2    0    0 -0.62477178462E+01 -0.14481088577E+03 -0.68978500013E+03  0.71584745094E+03  0.12500000000E+03 0.  0.
         25    1    1    2    0    0  0.62477178462E+01  0.14481088577E+03 -0.10563763822E+03  0.21861733057E+03  0.12500000000E+03 0.  0.
</event>
<event>
 4    0  0.2219362E-002  0.2128677E+03  0.7546771E-02  0.1139315E+00
         21   -1    0    0  502  501  0.00000000000E+00  0.00000000000E+00  0.29288778596E+02  0.29288778596E+02  0.00000000000E+00 0. -1.
         21   -1    0    0  501  502 -0.00000000000E+00 -0.00000000000E+00 -0.15470998240E+04  0.15470998240E+04  0.00000000000E+00 0. -1.
         25    1    1    2    0    0 -0.72254379669E+02  0.19026719091E+02 -0.18402627134E+03  0.23467718245E+03  0.12500000000E+03 0.  0.
         25    1    1    2    0    0  0.72254379669E+02 -0.19026719091E+02 -0.13337847740E+04  0.13417114201E+04  0.12500000000E+03 0.  0.
</event>
<event>
 4    0  0.2219362E-002  0.2582097E+03  0.7546771E-02  0.1108224E+00
         21   -1    0    0  502  501  0.00000000000E+00  0.00000000000E+00  0.13026553422E+03  0.13026553422E+03  0.00000000000E+00 0. -1.
         21   -1    0    0  501  502 -0.00000000000E+00 -0.00000000000E+00 -0.51181799329E+03  0.51181799329E+03  0.00000000000E+00 0. -1.
         25    1    1    2    0    0 -0.68432080366E+02 -0.21280962656E+03 -0.23156750403E+03  0.34528161796E+03  0.12500000000E+03 0.  0.
         25    1    1    2    0    0  0.68432080366E+02  0.21280962656E+03 -0.14998495504E+03  0.29680190956E+03  0.12500000000E+03 0.  0.
</event>
<event>
 4    0  0.2219362E-002  0.1750969E+03  0.7546771E-02  0.1172634E+00
         21   -1    0    0  502  501  0.00000000000E+00  0.00000000000E+00  0.74449538400E+02  0.74449538400E+02  0.00000000000E+00 0.  1.
         21   -1    0    0  501  502 -0.00000000000E+00 -0.00000000000E+00 -0.41180813921E+03  0.41180813921E+03  0.00000000000E+00 0.  1.
         25    1    1    2    0    0  0.60562578822E+02 -0.21035422577E+02 -0.23554672383E+02  0.14244345386E+03  0.12500000000E+03 0.  0.
         25    1    1    2    0    0 -0.60562578822E+02  0.21035422577E+02 -0.31380392842E+03  0.34381422375E+03  0.12500000000E+03 0.  0.
</event>
<event>
 4    0  0.2219362E-002  0.2394135E+03  0.7546771E-02  0.1120184E+00
         21   -1    0    0  502  501  0.00000000000E+00  0.00000000000E+00  0.27406659761E+03  0.27406659761E+03  0.00000000000E+00 0.  1.
         21   -1    0    0  501  502 -0.00000000000E+00 -0.00000000000E+00 -0.20914202778E+03  0.20914202778E+03  0.00000000000E+00 0.  1.
         25    1    1    2    0    0  0.17576958347E+03 -0.99415623607E+02  0.19293294191E+01  0.23750186316E+03  0.12500000000E+03 0.  0.
         25    1    1    2    0    0 -0.17576958347E+03  0.99415623607E+02  0.62995240410E+02  0.24570676223E+03  0.12500000000E+03 0.  0.
</event>
<event>
 4    0  0.2219362E-002  0.4051058E+03  0.7546771E-02  0.1042026E+00
         21   -1    0    0  502  501  0.00000000000E+00  0.00000000000E+00  0.27858396669E+03  0.27858396669E+03  0.00000000000E+00 0.  1.
         21   -1    0    0  501  502 -0.00000000000E+00 -0.00000000000E+00 -0.58908881480E+03  0.58908881480E+03  0.00000000000E+00 0. -1.
         25    1    1    2    0    0  0.94153938332E+02 -0.35622939997E+03 -0.34464332607E+02  0.39061123861E+03  0.12500000000E+03 0.  0.
         25    1    1    2    0    0 -0.94153938332E+02  0.35622939997E+03 -0.27604051550E+03  0.47706154288E+03  0.12500000000E+03 0.  0.
</event>
<event>
 4    0  0.2219362E-002  0.2259346E+03  0.7546771E-02  0.1129534E+00
         21   -1    0    0  502  501  0.00000000000E+00  0.00000000000E+00  0.15568694527E+04  0.15568694527E+04  0.00000000000E+00 0.  1.
         21   -1    0    0  501  502 -0.00000000000E+00 -0.00000000000E+00 -0.32787869009E+02  0.32787869009E+02  0.00000000000E+00 0.  1.
         25    1    1    2    0    0  0.60064470915E+02 -0.13840530468E+03  0.11578333124E+04  0.11742941490E+04  0.12500000000E+03 0.  0.
         25    1    1    2    0    0 -0.60064470915E+02  0.13840530468E+03  0.36624827125E+03  0.41536317268E+03  0.12500000000E+03 0.  0.
</event>
<event>
 4    0  0.2219362E-002  0.2284193E+03  0.7546771E-02  0.1127757E+00
         21   -1    0    0  502  501  0.00000000000E+00  0.00000000000E+00  0.14807602068E+03  0.14807602068E+03  0.00000000000E+00 0.  1.
         21   -1    0    0  501  502 -0.00000000000E+00 -0.00000000000E+00 -0.35235542636E+03  0.35235542636E+03  0.00000000000E+00 0.  1.
         25    1    1    2    0    0 -0.69289118417E+02  0.16518961937E+03 -0.28969095955E+02  0.22034700089E+03  0.12500000000E+03 0.  0.
         25    1    1    2    0    0  0.69289118417E+02 -0.16518961937E+03 -0.17531030973E+03  0.28008444615E+03  0.12500000000E+03 0.  0.
</event>
<event>
 4    0  0.2219362E-002  0.3001161E+03  0.7546771E-02  0.1085183E+00
         21   -1    0    0  502  501  0.00000000000E+00  0.00000000000E+00  0.44540218475E+03  0.44540218475E+03  0.00000000000E+00 0. -1.
         21   -1    0    0  501  502 -0.00000000000E+00 -0.00000000000E+00 -0.20222101150E+03  0.20222101150E+03  0.00000000000E+00 0. -1.
         25    1    1    2    0    0 -0.93790030156E+02  0.22816770749E+03  0.24735987139E+03  0.37103770491E+03  0.12500000000E+03 0.  0.
         25    1    1    2    0    0  0.93790030156E+02 -0.22816770749E+03 -0.41786981382E+01  0.27658549133E+03  0.12500000000E+03 0.  0.
</event>
<event>
 4    0  0.2219362E-002  0.2351722E+03  0.7546771E-02  0.1123051E+00
         21   -1    0    0  502  501  0.00000000000E+00  0.00000000000E+00  0.11292505381E+03  0.11292505381E+03  0.00000000000E+00 0. -1.
         21   -1    0    0  501  502 -0.00000000000E+00 -0.00000000000E+00 -0.48975825731E+03  0.48975825731E+03  0.00000000000E+00 0.  1.
         25    1    1    2    0    0 -0.18148786618E+03  0.77413372420E+02 -0.15331789493E+03  0.27939587096E+03  0.12500000000E+03 0.  0.
         25    1    1    2    0    0  0.18148786618E+03 -0.77413372420E+02 -0.22351530857E+03  0.32328744016E+03  0.12500000000E+03 0.  0.
</event>
<event>
 4    0  0.2219362E-002  0.2613512E+03  0.7546771E-02  0.1106334E+00
         21   -1    0    0  502  501  0.00000000000E+00  0.00000000000E+00  0.64476650836E+03  0.64476650836E+03  0.00000000000E+00 0. -1.
         21   -1    0    0  501  502 -0.00000000000E+00 -0.00000000000E+00 -0.10593670134E+03  0.10593670134E+03  0.00000000000E+00 0. -1.
         25    1    1    2    0    0  0.17028107179E+03 -0.10334824207E+03  0.10564484429E+03  0.25780290082E+03  0.12500000000E+03 0.  0.
         25    1    1    2    0    0 -0.17028107179E+03  0.10334824207E+03  0.43318496274E+03  0.49290030888E+03  0.12500000000E+03 0.  0.
</event>
<event>
 4    0  0.2219362E-002  0.1694213E+03  0.7546771E-02  0.1178453E+00
         21   -1    0    0  502  501  0.00000000000E+00  0.00000000000E+00  0.14289597010E+03  0.14289597010E+03  0.00000000000E+00 0.  1.
         21   -1    0    0  501  502 -0.00000000000E+00 -0.00000000000E+00 -0.20087042906E+03  0.20087042906E+03  0.00000000000E+00 0.  1.
         25    1    1    2    0    0  0.11089445121E+03  0.24686311688E+02 -0.15697972320E+02  0.16964203379E+03  0.12500000000E+03 0.  0.
         25    1    1    2    0    0 -0.11089445121E+03 -0.24686311688E+02 -0.42276486638E+02  0.17412436537E+03  0.12500000000E+03 0.  0.
</event>
<event>
 4    0  0.2219362E-002  0.2131548E+03  0.7546771E-02  0.1139092E+00
         21   -1    0    0  502  501  0.00000000000E+00  0.00000000000E+00  0.33821662084E+04  0.33821662084E+04  0.00000000000E+00 0. -1.
         21   -1    0    0  501  502 -0.00000000000E+00 -0.00000000000E+00 -0.13433688938E+02  0.13433688938E+02  0.00000000000E+00 0. -1.
         25    1    1    2    0    0 -0.10356476198E+03 -0.13538530517E+03  0.19032440453E+04  0.19149458835E+04  0.12500000000E+03 0.  0.
         25    1    1    2    0    0  0.10356476198E+03  0.13538530517E+03  0.14654884742E+04  0.14806540139E+04  0.12500000000E+03 0.  0.
</event>
<event>
 4    0  0.2219362E-002  0.2075200E+03  0.7546771E-02  0.1143545E+00
         21   -1    0    0  502  501  0.00000000000E+00  0.00000000000E+00  0.12948260155E+03  0.12948260155E+03  0.00000000000E+00 0. -1.
         21   -1    0    0  501  502 -0.00000000000E+00 -0.00000000000E+00 -0.33258945030E+03  0.33258945030E+03  0.00000000000E+00 0. -1.
         25    1    1    2    0    0 -0.70876623081E+02  0.13397702607E+03 -0.27150631484E+02  0.19833178264E+03  0.12500000000E+03 0.  0.
         25    1    1    2    0    0  0.70876623081E+02 -0.13397702607E+03 -0.17595621726E+03  0.26374026922E+03  0.12500000000E+03 0.  0.
</event>
<event>
 4    0  0.2219362E-002  0.2144425E+03  0.7546771E-02  0.1138096E+00
         21   -1    0    0  502  501  0.00000000000E+00  0.00000000000E+00  0.24763675647E+03  0.24763675647E+03  0.00000000000E+00 0.  1.
         21   -1    0    0  501  502 -0.00000000000E+00 -0.00000000000E+00 -0.18569776684E+03  0.18569776684E+03  0.00000000000E+00 0.  1.
         25    1    1    2    0    0 -0.20273169540E+02  0.16767820481E+03 -0.12295433723E+02  0.21048315719E+03  0.12500000000E+03 0.  0.
         25    1    1    2    0    0  0.20273169540E+02 -0.16767820481E+03  0.74234423356E+02  0.22285136612E+03  0.12500000000E+03 0.  0.
</event>
<event>
 4    0  0.2219362E-002  0.2245209E+03  0.7546771E-02  0.1130557E+00
         21   -1    0    0  502  501  0.00000000000E+00  0.00000000000E+00  0.71051216245E+02  0.71051216245E+02  0.00000000000E+00 0.  1.
         21   -1    0    0  501  502 -0.00000000000E+00 -0.00000000000E+00 -0.70948305675E+03  0.70948305675E+03  0.00000000000E+00 0.  1.
         25    1    1    2    0    0 -0.64132103664E+00 -0.18604255308E+03 -0.34203839847E+03  0.40893460220E+03  0.12500000000E+03 0.  0.
         25    1    1    2    0    0  0.64132103664E+00  0.18604255308E+03 -0.29639344203E+03  0.37159967079E+03  0.12500000000E+03 0.  0.
</event>
<event>
 4    0  0.2219362E-002  0.1812752E+03  0.7546771E-02  0.1166575E+00
         21   -1    0    0  502  501  0.00000000000E+00  0.00000000000E+00  0.11763915077E+04  0.11763915077E+04  0.00000000000E+00 0.  1.
         21   -1    0    0  501  502 -0.00000000000E+00 -0.00000000000E+00 -0.27933481681E+02  0.27933481681E+02  0.00000000000E+00 0.  1.
         25    1    1    2    0    0  0.12709426093E+03  0.22065257250E+02  0.49314111371E+03  0.52483615040E+03  0.12500000000E+03 0.  0.
         25    1    1    2    0    0 -0.12709426093E+03 -0.22065257250E+02  0.65531691232E+03  0.67948883899E+03  0.12500000000E+03 0.  0.
</event>
<event>
 4    0  0.2219362E-002  0.1974905E+03  0.7546771E-02  0.1151874E+00
         21   -1    0    0  502  501  0.00000000000E+00  0.00000000000E+00  0.58893230667E+03  0.58893230667E+03  0.00000000000E+00 0.  1.
         21   -1    0    0  501  502 -0.00000000000E+00 -0.00000000000E+00 -0.66225806792E+02  0.66225806792E+02  0.00000000000E+00 0.  1.
         25    1    1    2    0    0 -0.43372953038E+02  0.14642781364E+03  0.24902965693E+03  0.31774689250E+03  0.12500000000E+03 0.  0.
         25    1    1    2    0    0  0.43372953038E+02 -0.14642781364E+03  0.27367684295E+03  0.33741122096E+03  0.12500000000E+03 0.  0.
</event>
<event>
 4    0  0.2219362E-002  0.1979075E+03  0.7546771E-02  0.1151517E+00
         21   -1    0    0  502  501  0.00000000000E+00  0.00000000000E+00  0.13073712635E+03  0.13073712635E+03  0.00000000000E+00 0. -1.
         21   -1    0    0  501  502 -0.00000000000E+00 -0.00000000000E+00 -0.29958894528E+03  0.29958894528E+03  0.00000000000E+00 0. -1.
         25    1    1    2    0    0  0.50402376257E+02  0.11243524746E+03 -0.18383282136E+03  0.25416842962E+03  0.12500000000E+03 0.  0.
         25    1    1    2    0    0 -0.50402376257E+02 -0.11243524746E+03  0.14981002433E+02  0.17615764201E+03  0.12500000000E+03 0.  0.
</event>
<event>
 4    0  0.2219362E-002  0.2486109E+03  0.7546771E-02  0.1114186E+00
         21   -1    0    0  502  501  0.00000000000E+00  0.00000000000E+00  0.80924155438E+02  0.80924155438E+02  0.00000000000E+00 0.  1.
         21   -1    0    0  501  502 -0.00000000000E+00 -0.00000000000E+00 -0.76376900517E+03  0.76376900517E+03  0.00000000000E+00 0.  1.
         25    1    1    2    0    0  0.16628116235E+03  0.75058229799E+02 -0.14847888211E+03  0.26637218558E+03  0.12500000000E+03 0.  0.
         25    1    1    2    0    0 -0.16628116235E+03 -0.75058229799E+02 -0.53436596762E+03  0.57832097503E+03  0.12500000000E+03 0.  0.
</event>
<event>
 4    0  0.2219362E-002  0.3880057E+03  0.7546771E-02  0.1048014E+00
         21   -1    0    0  502  501  0.00000000000E+00  0.00000000000E+00  0.54754057148E+03  0.54754057148E+03  0.00000000000E+00 0. -1.
         21   -1    0    0  501  502 -0.00000000000E+00 -0.00000000000E+00 -0.27495394791E+03  0.27495394791E+03  0.00000000000E+00 0. -1.
         25    1    1    2    0    0  0.17160283528E+03 -0.90711220788E+02 -0.19423133245E+03  0.30170659449E+03  0.12500000000E+03 0.  0.
         25    1    1    2    0    0 -0.17160283528E+03  0.90711220788E+02  0.46681795602E+03  0.52078792489E+03  0.12500000000E+03 0.  0.
</event>
<event>
 4    0  0.2219362E-002  0.2268760E+03  0.7546771E-02  0.1128858E+00
         21   -1    0    0  502  501  0.00000000000E+00  0.00000000000E+00  0.57739870794E+02  0.57739870794E+02  0.00000000000E+00 0.  1.
         21   -1    0    0  501  502 -0.00000000000E+00 -0.00000000000E+00 -0.89145891052E+03  0.89145891052E+03  0.00000000000E+00 0.  1.
         25    1    1    2    0    0 -0.12486571351E+03 -0.50870080999E+01 -0.11932262701E+03  0.21326090448E+03  0.12500000000E+03 0.  0.
         25    1    1    2    0    0  0.12486571351E+03  0.50870080999E+01 -0.71439641272E+03  0.73593787684E+03  0.12500000000E+03 0.  0.
</event>
<event>
 4    0  0.2219362E-002  0.2149124E+03  0.7546771E-02  0.1137734E+00
         21   -1    0    0  502  501  0.00000000000E+00  0.00000000000E+00  0.63515583126E+03  0.63515583126E+03  0.00000000000E+00 0. -1.
         21   -1    0    0  501  502 -0.00000000000E+00 -0.00000000000E+00 -0.72718100320E+02  0.72718100320E+02  0.00000000000E+00 0. -1.
         25    1    1    2    0    0  0.80636601388E+02 -0.80340050423E+01  0.53633010194E+03  0.55663433685E+03  0.12500000000E+03 0.  0.
         25    1    1    2    0    0 -0.80636601388E+02  0.80340050423E+01  0.26107629002E+02  0.15123959472E+03  0.12500000000E+03 0.  0.
</event>
<event>
 4    0  0.2219362E-002  0.2436684E+03  0.7546771E-02  0.1117373E+00
         21   -1    0    0  502  501  0.00000000000E+00  0.00000000000E+00  0.28364784744E+03  0.28364784744E+03  0.00000000000E+00 0.  1.
         21   -1    0    0  501  502 -0.00000000000E+00 -0.00000000000E+00 -0.20932395850E+03  0.20932395850E+03  0.00000000000E+00 0.  1.
         25    1    1    2    0    0 -0.16289341353E+03 -0.11634235218E+03  0.98522075819E+02  0.25573698697E+03  0.12500000000E+03 0.  0.
         25    1    1    2    0    0  0.16289341353E+03  0.11634235218E+03 -0.24198186884E+02  0.23723481897E+03  0.12500000000E+03 0.  0.
</event>
<event>
 4    0  0.2219362E-002  0.2150939E+03  0.7546771E-02  0.1137594E+00
         21   -1    0    0  502  501  0.00000000000E+00  0.00000000000E+00  0.10547206572E+04  0.10547206572E+04  0.00000000000E+00 0.  1.
         21   -1    0    0  501  502 -0.00000000000E+00 -0.00000000000E+00 -0.43865066801E+02  0.43865066801E+02  0.00000000000E+00 0.  1.
         25    1    1    2    0    0  0.91401463148E+02 -0.12571139433E+03  0.71104406544E+03  0.73848916385E+03  0.12500000000E+03 0.  0.
         25    1    1    2    0    0 -0.91401463148E+02  0.12571139433E+03  0.29981152494E+03  0.36009656013E+03  0.12500000000E+03 0.  0.
</event>
<event>
 4    0  0.2219362E-002  0.3792787E+03  0.7546771E-02  0.1051201E+00
         21   -1    0    0  502  501  0.00000000000E+00  0.00000000000E+00  0.20267396487E+03  0.20267396487E+03  0.00000000000E+00 0.  1.
         21   -1    0    0  501  502 -0.00000000000E+00 -0.00000000000E+00 -0.70977230750E+03  0.70977230750E+03  0.00000000000E+00 0.  1.
         25    1    1    2    0    0  0.18650421064E+03 -0.87975872829E+02 -0.60569197663E+03  0.65192894194E+03  0.12500000000E+03 0.  0.
         25    1    1    2    0    0 -0.18650421064E+03  0.87975872829E+02  0.98593634000E+02  0.26051733042E+03  0.12500000000E+03 0.  0.
</event>
<event>
 4    0  0.2219362E-002  0.2851467E+03  0.7546771E-02  0.1092911E+00
         21   -1    0    0  502  501  0.00000000000E+00  0.00000000000E+00  0.82250248422E+02  0.82250248422E+02  0.00000000000E+00 0.  1.
         21   -1    0    0  501  502 -0.00000000000E+00 -0.00000000000E+00 -0.98855164548E+03  0.98855164548E+03  0.00000000000E+00 0.  1.
         25    1    1    2    0    0  0.68379030883E+02 -0.10017493146E+02  0.10239137122E+02  0.14319874986E+03  0.12500000000E+03 0.  0.
         25    1    1    2    0    0 -0.68379030883E+02  0.10017493146E+02 -0.91654053418E+03  0.92760314404E+03  0.12500000000E+03 0.  0.
</event>
<event>
 4    0  0.2219362E-002  0.2297953E+03  0.7546771E-02  0.1126784E+00
         21   -1    0    0  502  501  0.00000000000E+00  0.00000000000E+00  0.31754557293E+02  0.31754557293E+02  0.00000000000E+00 0. -1.
         21   -1    0    0  501  502 -0.00000000000E+00 -0.00000000000E+00 -0.16629382930E+04  0.16629382930E+04  0.00000000000E+00 0. -1.
         25    1    1    2    0    0  0.68854973565E+02 -0.85124754349E+02 -0.14008741089E+04  0.14106950415E+04  0.12500000000E+03 0.  0.
         25    1    1    2    0    0 -0.68854973565E+02  0.85124754349E+02 -0.23030962681E+03  0.28399780878E+03  0.12500000000E+03 0.  0.
</event>
<event>
 4    0  0.2219362E-002  0.2147810E+03  0.7546771E-02  0.1137835E+00
         21   -1    0    0  502  501  0.00000000000E+00  0.00000000000E+00  0.90616284294E+02  0.90616284294E+02  0.00000000000E+00 0. -1.
         21   -1    0    0  501  502 -0.00000000000E+00 -0.00000000000E+00 -0.50907924488E+03  0.50907924488E+03  0.00000000000E+00 0. -1.
         25    1    1    2    0    0  0.13383668431E+01  0.15426389897E+03 -0.32356151518E+03  0.37962638983E+03  0.12500000000E+03 0.  0.
         25    1    1    2    0    0 -0.13383668431E+01 -0.15426389897E+03 -0.94901445399E+02  0.22006913934E+03  0.12500000000E+03 0.  0.
</event>
<event>
 4    0  0.2219362E-002  0.2223664E+03  0.7546771E-02  0.1132131E+00
         21   -1    0    0  502  501  0.00000000000E+00  0.00000000000E+00  0.97486972617E+03  0.97486972617E+03  0.00000000000E+00 0.  1.
         21   -1    0    0  501  502 -0.00000000000E+00 -0.00000000000E+00 -0.50721447797E+02  0.50721447797E+02  0.00000000000E+00 0.  1.
         25    1    1    2    0    0  0.96391347315E+02 -0.15582754501E+03  0.49841149301E+03  0.54553875388E+03  0.12500000000E+03 0.  0.
         25    1    1    2    0    0 -0.96391347315E+02  0.15582754501E+03  0.42573678536E+03  0.48005242009E+03  0.12500000000E+03 0.  0.
</event>
<event>
 4    0  0.2219362E-002  0.2201318E+03  0.7546771E-02  0.1133785E+00
         21   -1    0    0  502  501  0.00000000000E+00  0.00000000000E+00  0.88786733111E+03  0.88786733111E+03  0.00000000000E+00 0. -1.
         21   -1    0    0  501  502 -0.00000000000E+00 -0.00000000000E+00 -0.54577981420E+02  0.54577981420E+02  0.00000000000E+00 0. -1.
         25    1    1    2    0    0 -0.32194616549E+02  0.17696601097E+03  0.46352145460E+03  0.51267007056E+03  0.12500000000E+03 0.  0.
         25    1    1    2    0    0  0.32194616549E+02 -0.17696601097E+03  0.36976789509E+03  0.42977524197E+03  0.12500000000E+03 0.  0.
</event>
<event>
 4    0  0.2219362E-002  0.7629263E+03  0.7546771E-02  0.9615286E-01
         21   -1    0    0  502  501  0.00000000000E+00  0.00000000000E+00  0.59390604035E+03  0.59390604035E+03  0.00000000000E+00 0.  1.
         21   -1    0    0  501  502 -0.00000000000E+00 -0.00000000000E+00 -0.98004826275E+03  0.98004826275E+03  0.00000000000E+00 0. -1.
         25    1    1    2    0    0  0.41115219124E+03 -0.62626093781E+03 -0.11881068988E+03  0.76875865304E+03  0.12500000000E+03 0.  0.
         25    1    1    2    0    0 -0.41115219124E+03  0.62626093781E+03 -0.26733153253E+03  0.80519565006E+03  0.12500000000E+03 0.  0.
</event>
<event>
 4    0  0.2219362E-002  0.2497376E+03  0.7546771E-02  0.1113471E+00
         21   -1    0    0  502  501  0.00000000000E+00  0.00000000000E+00  0.23689224465E+03  0.23689224465E+03  0.00000000000E+00 0. -1.
         21   -1    0    0  501  502 -0.00000000000E+00 -0.00000000000E+00 -0.26327950008E+03  0.26327950008E+03  0.00000000000E+00 0. -1.
         25    1    1    2    0    0 -0.33520232369E+01 -0.16967007685E+03 -0.14733826775E+03  0.25716285926E+03  0.12500000000E+03 0.  0.
         25    1    1    2    0    0  0.33520232369E+01  0.16967007685E+03  0.12095101232E+03  0.24300888547E+03  0.12500000000E+03 0.  0.
</event>
<event>
 4    0  0.2219362E-002  0.2363274E+03  0.7546771E-02  0.1122264E+00
         21   -1    0    0  502  501  0.00000000000E+00  0.00000000000E+00  0.16541461237E+03  0.16541461237E+03  0.00000000000E+00 0.  1.
         21   -1    0    0  501  502 -0.00000000000E+00 -0.00000000000E+00 -0.33764037143E+03  0.33764037143E+03  0.00000000000E+00 0.  1.
         25    1    1    2    0    0 -0.12928324907E+03  0.12299997679E+02 -0.24878369489E+03  0.30721942529E+03  0.12500000000E+03 0.  0.
         25    1    1    2    0    0  0.12928324907E+03 -0.12299997679E+02  0.76557935830E+02  0.19583555850E+03  0.12500000000E+03 0.  0.
</event>
<event>
 4    0  0.2219362E-002  0.2143928E+03  0.7546771E-02  0.1138134E+00
         21   -1    0    0  502  501  0.00000000000E+00  0.00000000000E+00  0.13420853922E+04  0.13420853922E+04  0.00000000000E+00 0.  1.
         21   -1    0    0  501  502 -0.00000000000E+00 -0.00000000000E+00 -0.34248401383E+02  0.34248401383E+02  0.00000000000E+00 0.  1.
         25    1    1    2    0    0  0.57878075828E+02 -0.16420236584E+03  0.63724257633E+03  0.67232089785E+03  0.12500000000E+03 0.  0.
         25    1    1    2    0    0 -0.57878075828E+02  0.16420236584E+03  0.67059441450E+03  0.70401289574E+03  0.12500000000E+03 0.  0.
</event>
<event>
 4    0  0.2219362E-002  0.2332406E+03  0.7546771E-02  0.1124379E+00
         21   -1    0    0  502  501  0.00000000000E+00  0.00000000000E+00  0.20770571735E+03  0.20770571735E+03  0.00000000000E+00 0.  1.
         21   -1    0    0  501  502 -0.00000000000E+00 -0.00000000000E+00 -0.26191473726E+03  0.26191473726E+03  0.00000000000E+00 0.  1.
         25    1    1    2    0    0 -0.27871131193E+02 -0.16294795606E+03 -0.13481681876E+03  0.24724362674E+03  0.12500000000E+03 0.  0.
         25    1    1    2    0    0  0.27871131193E+02  0.16294795606E+03  0.80607798860E+02  0.22237682788E+03  0.12500000000E+03 0.  0.
</event>
<event>
 4    0  0.2219362E-002  0.2665891E+03  0.7546771E-02  0.1103248E+00
         21   -1    0    0  502  501  0.00000000000E+00  0.00000000000E+00  0.64792852445E+03  0.64792852445E+03  0.00000000000E+00 0. -1.
         21   -1    0    0  501  502 -0.00000000000E+00 -0.00000000000E+00 -0.10968760704E+03  0.10968760704E+03  0.00000000000E+00 0. -1.
         25    1    1    2    0    0 -0.13723881645E+03  0.13290032125E+02  0.54034438548E+03  0.57149643272E+03  0.12500000000E+03 0.  0.
         25    1    1    2    0    0  0.13723881645E+03 -0.13290032125E+02 -0.21034680714E+01  0.18611969877E+03  0.12500000000E+03 0.  0.
</event>
<event>
 4    0  0.2219362E-002  0.1880895E+03  0.7546771E-02  0.1160196E+00
         21   -1    0    0  502  501  0.00000000000E+00  0.00000000000E+00  0.84514314611E+02  0.84514314611E+02  0.00000000000E+00 0.  1.
         21   -1    0    0  501  502 -0.00000000000E+00 -0.00000000000E+00 -0.41859961155E+03  0.41859961155E+03  0.00000000000E+00 0.  1.
         25    1    1    2    0    0 -0.11486608980E+03  0.74884592159E+02 -0.12580419738E+03  0.22417318485E+03  0.12500000000E+03 0.  0.
         25    1    1    2    0    0  0.11486608980E+03 -0.74884592159E+02 -0.20828109956E+03  0.27894074131E+03  0.12500000000E+03 0.  0.
</event>
<event>
 4    0  0.2219362E-002  0.1580632E+03  0.7546771E-02  0.1190901E+00
         21   -1    0    0  502  501  0.00000000000E+00  0.00000000000E+00  0.83336835174E+02  0.83336835174E+02  0.00000000000E+00 0. -1.
         21   -1    0    0  501  502 -0.00000000000E+00 -0.00000000000E+00 -0.29979500456E+03  0.29979500456E+03  0.00000000000E+00 0. -1.
         25    1    1    2    0    0  0.38283322257E+02  0.86625001894E+02 -0.13214685802E+03  0.20507875512E+03  0.12500000000E+03 0.  0.
         25    1    1    2    0    0 -0.38283322257E+02 -0.86625001894E+02 -0.84311311362E+02  0.17805308461E+03  0.12500000000E+03 0.  0.
</event>
<event>
 4    0  0.2219362E-002  0.3481819E+03  0.7546771E-02  0.1063364E+00
         21   -1    0    0  502  501  0.00000000000E+00  0.00000000000E+00  0.11868759238E+03  0.11868759238E+03  0.00000000000E+00 0.  1.
         21   -1    0    0  501  502 -0.00000000000E+00 -0.00000000000E+00 -0.10214265549E+04  0.10214265549E+04  0.00000000000E+00 0.  1.
         25    1    1    2    0    0 -0.32329099946E+03 -0.28648589701E+02 -0.42457439538E+03  0.54884080500E+03  0.12500000000E+03 0.  0.
         25    1    1    2    0    0  0.32329099946E+03  0.28648589701E+02 -0.47816456709E+03  0.59127334224E+03  0.12500000000E+03 0.  0.
</event>
<event>
 4    0  0.2219362E-002  0.1939748E+03  0.7546771E-02  0.1154924E+00
         21   -1    0    0  502  501  0.00000000000E+00  0.00000000000E+00  0.17038429756E+03  0.17038429756E+03  0.00000000000E+00 0.  1.
         21   -1    0    0  501  502 -0.00000000000E+00 -0.00000000000E+00 -0.22083158309E+03  0.22083158309E+03  0.00000000000E+00 0.  1.
         25    1    1    2    0    0  0.82803881065E+01  0.13823945195E+03 -0.78798357602E+02  0.20251639949E+03  0.12500000000E+03 0.  0.
         25    1    1    2    0    0 -0.82803881065E+01 -0.13823945195E+03  0.28351072073E+02  0.18869948116E+03  0.12500000000E+03 0.  0.
</event>
<event>
 4    0  0.2219362E-002  0.2360601E+03  0.7546771E-02  0.1122446E+00
         21   -1    0    0  502  501  0.00000000000E+00  0.00000000000E+00  0.32339837373E+03  0.32339837373E+03  0.00000000000E+00 0. -1.
         21   -1    0    0  501  502 -0.00000000000E+00 -0.00000000000E+00 -0.17230872671E+03  0.17230872671E+03  0.00000000000E+00 0. -1.
         25    1    1    2    0    0  0.53814456123E+02  0.11797413696E+03  0.23576421923E+03  0.29668781530E+03  0.12500000000E+03 0.  0.
         25    1    1    2    0    0 -0.53814456123E+02 -0.11797413696E+03 -0.84674572209E+02  0.19901928514E+03  0.12500000000E+03 0.  0.
</event>
<event>
 4    0  0.2219362E-002  0.2027763E+03  0.7546771E-02  0.1147418E+00
         21   -1    0    0  502  501  0.00000000000E+00  0.00000000000E+00  0.10049617466E+03  0.10049617466E+03  0.00000000000E+00 0.  1.
         21   -1    0    0  501  502 -0.00000000000E+00 -0.00000000000E+00 -0.40915202734E+03  0.40915202734E+03  0.00000000000E+00 0.  1.
         25    1    1    2    0    0 -0.76104177032E+02  0.75496204438E+02 -0.56270166311E+01  0.16476706577E+03  0.12500000000E+03 0.  0.
         25    1    1    2    0    0  0.76104177032E+02 -0.75496204438E+02 -0.30302883605E+03  0.34488113623E+03  0.12500000000E+03 0.  0.
</event>
<event>
 4    0  0.2219362E-002  0.1941854E+03  0.7546771E-02  0.1154740E+00
         21   -1    0    0  502  501  0.00000000000E+00  0.00000000000E+00  0.11852142302E+03  0.11852142302E+03  0.00000000000E+00 0.  1.
         21   -1    0    0  501  502 -0.00000000000E+00 -0.00000000000E+00 -0.31815304421E+03  0.31815304421E+03  0.00000000000E+00 0.  1.
         25    1    1    2    0    0  0.18403515012E+02  0.14017024276E+03 -0.15129900922E+03  0.24187347211E+03  0.12500000000E+03 0.  0.
         25    1    1    2    0    0 -0.18403515012E+02 -0.14017024276E+03 -0.48332611975E+02  0.19480099512E+03  0.12500000000E+03 0.  0.
</event>
<event>
 4    0  0.2219362E-002  0.1975354E+03  0.7546771E-02  0.1151835E+00
         21   -1    0    0  502  501  0.00000000000E+00  0.00000000000E+00  0.74472660834E+02  0.74472660834E+02  0.00000000000E+00 0. -1.
         21   -1    0    0  501  502 -0.00000000000E+00 -0.00000000000E+00 -0.52395382232E+03  0.52395382232E+03  0.00000000000E+00 0. -1.
         25    1    1    2    0    0  0.13691723835E+03 -0.55405639012E+02 -0.16454792889E+03  0.25400223600E+03  0.12500000000E+03 0.  0.
         25    1    1    2    0    0 -0.13691723835E+03  0.55405639012E+02 -0.28493323260E+03  0.34442424716E+03  0.12500000000E+03 0.  0.
</event>
<event>
 4    0  0.2219362E-002  0.3489208E+03  0.7546771E-02  0.1063059E+00
         21   -1    0    0  502  501  0.00000000000E+00  0.00000000000E+00  0.44083817313E+03  0.44083817313E+03  0.00000000000E+00 0.  1.
         21   -1    0    0  501  502 -0.00000000000E+00 -0.00000000000E+00 -0.27616867915E+03  0.27616867915E+03  0.00000000000E+00 0.  1.
         25    1    1    2    0    0 -0.97553489223E+02 -0.10665770003E+03 -0.21762158013E+03  0.28961474475E+03  0.12500000000E+03 0.  0.
         25    1    1    2    0    0  0.97553489223E+02  0.10665770003E+03  0.38229107411E+03  0.42739210753E+03  0.12500000000E+03 0.  0.
</event>
<event>
 4    0  0.2219362E-002  0.2607133E+03  0.7546771E-02  0.1106715E+00
         21   -1    0    0  502  501  0.00000000000E+00  0.00000000000E+00  0.31077815704E+03  0.31077815704E+03  0.00000000000E+00 0.  1.
         21   -1    0    0  501  502 -0.00000000000E+00 -0.00000000000E+00 -0.21871363656E+03  0.21871363656E+03  0.00000000000E+00 0.  1.
         25    1    1    2    0    0 -0.99972121499E+02  0.14035132744E+03 -0.10680657720E+03  0.23817129366E+03  0.12500000000E+03 0.  0.
         25    1    1    2    0    0  0.99972121499E+02 -0.14035132744E+03  0.19887109768E+03  0.29132049994E+03  0.12500000000E+03 0.  0.
</event>
<event>
 4    0  0.2219362E-002  0.2082813E+03  0.7546771E-02  0.1142934E+00
         21   -1    0    0  502  501  0.00000000000E+00  0.00000000000E+00  0.37348060246E+02  0.37348060246E+02  0.00000000000E+00 0.  1.
         21   -1    0    0  501  502 -0.00000000000E+00 -0.00000000000E+00 -0.11615358840E+04  0.11615358840E+04  0.00000000000E+00 0.  1.
         25    1    1    2    0    0  0.58645824411E+02 -0.15348036388E+03 -0.64146508392E+03  0.67386794604E+03  0.12500000000E+03 0.  0.
         25    1    1    2    0    0 -0.58645824411E+02  0.15348036388E+03 -0.48272273983E+03  0.52501599820E+03  0.12500000000E+03 0.  0.
</event>
<event>
 4    0  0.2219362E-002  0.2338975E+03  0.7546771E-02  0.1123926E+00
         21   -1    0    0  502  501  0.00000000000E+00  0.00000000000E+00  0.63527393471E+03  0.63527393471E+03  0.00000000000E+00 0.  1.
         21   -1    0    0  501  502 -0.00000000000E+00 -0.00000000000E+00 -0.86117247443E+02  0.86117247443E+02  0.00000000000E+00 0.  1.
         25    1    1    2    0    0 -0.94334938922E+02 -0.13242943723E+03  0.44799819395E+03  0.49271088717E+03  0.12500000000E+03 0.  0.
         25    1    1    2    0    0  0.94334938922E+02  0.13242943723E+03  0.10115849332E+03  0.22868029499E+03  0.12500000000E+03 0.  0.
</event>
<event>
 4    0  0.2219362E-002  0.2323308E+03  0.7546771E-02  0.1125010E+00
         21   -1    0    0  502  501  0.00000000000E+00  0.00000000000E+00  0.29293010892E+03  0.29293010892E+03  0.00000000000E+00 0.  1.
         21   -1    0    0  501  502 -0.00000000000E+00 -0.00000000000E+00 -0.18426785286E+03  0.18426785286E+03  0.00000000000E+00 0.  1.
         25    1    1    2    0    0 -0.10425004453E+03  0.69899825332E+02  0.20871503512E+03  0.27375358126E+03  0.12500000000E+03 0.  0.
         25    1    1    2    0    0  0.10425004453E+03 -0.69899825332E+02 -0.10005277906E+03  0.20344438052E+03  0.12500000000E+03 0.  0.
</event>
<event>
 4    0  0.2219362E-002  0.2537439E+03  0.7546771E-02  0.1110961E+00
         21   -1    0    0  502  501  0.00000000000E+00  0.00000000000E+00  0.25155372489E+03  0.25155372489E+03  0.00000000000E+00 0.  1.
         21   -1    0    0  501  502 -0.00000000000E+00 -0.00000000000E+00 -0.25595313239E+03  0.25595313239E+03  0.00000000000E+00 0.  1.
         25    1    1    2    0    0 -0.55523204640E+02 -0.21299505884E+03 -0.19842433072E+02  0.25390636757E+03  0.12500000000E+03 0.  0.
         25    1    1    2    0    0  0.55523204640E+02  0.21299505884E+03  0.15443025577E+02  0.25360048971E+03  0.12500000000E+03 0.  0.
</event>
<event>
 4    0  0.2219362E-002  0.2363076E+03  0.7546771E-02  0.1122277E+00
         21   -1    0    0  502  501  0.00000000000E+00  0.00000000000E+00  0.54574691372E+02  0.54574691372E+02  0.00000000000E+00 0. -1.
         21   -1    0    0  501  502 -0.00000000000E+00 -0.00000000000E+00 -0.10232081613E+04  0.10232081613E+04  0.00000000000E+00 0. -1.
         25    1    1    2    0    0  0.12676602571E+03  0.79796626495E+02 -0.18024290768E+03  0.26561180818E+03  0.12500000000E+03 0.  0.
         25    1    1    2    0    0 -0.12676602571E+03 -0.79796626495E+02 -0.78839056220E+03  0.81217104445E+03  0.12500000000E+03 0.  0.
</event>
<event>
 4    0  0.2219362E-002  0.3187777E+03  0.7546771E-02  0.1076213E+00
         21   -1    0    0  502  501  0.00000000000E+00  0.00000000000E+00  0.80722099271E+02  0.80722099271E+02  0.00000000000E+00 0.  1.
         21   -1    0    0  501  502 -0.00000000000E+00 -0.00000000000E+00 -0.12588773996E+04  0.12588773996E+04  0.00000000000E+00 0.  1.
         25    1    1    2    0    0  0.38131171051E+02 -0.17181657457E+03 -0.96227846114E+02  0.23634660960E+03  0.12500000000E+03 0.  0.
         25    1    1    2    0    0 -0.38131171051E+02  0.17181657457E+03 -0.10819274542E+04  0.11032528893E+04  0.12500000000E+03 0.  0.
</event>
<event>
 4    0  0.2219362E-002  0.2948006E+03  0.7546771E-02  0.1087869E+00
         21   -1    0    0  502  501  0.00000000000E+00  0.00000000000E+00  0.45283875548E+03  0.45283875548E+03  0.00000000000E+00 0. -1.
         21   -1    0    0  501  502 -0.00000000000E+00 -0.00000000000E+00 -0.19191683583E+03  0.19191683583E+03  0.00000000000E+00 0. -1.
         25    1    1    2    0    0  0.88226004252E+01 -0.15260532275E+03 -0.10891348570E+03  0.22550691825E+03  0.12500000000E+03 0.  0.
         25    1    1    2    0    0 -0.88226004252E+01  0.15260532275E+03  0.36983540535E+03  0.41924867306E+03  0.12500000000E+03 0.  0.
</event>
<event>
 4    0  0.2219362E-002  0.3392739E+03  0.7546771E-02  0.1067106E+00
         21   -1    0    0  502  501  0.00000000000E+00  0.00000000000E+00  0.49348121283E+03  0.49348121283E+03  0.00000000000E+00 0.  1.
         21   -1    0    0  501  502 -0.00000000000E+00 -0.00000000000E+00 -0.23325461826E+03  0.23325461826E+03  0.00000000000E+00 0.  1.
         25    1    1    2    0    0  0.12832332242E+03 -0.44604224066E+02  0.43497763526E+03  0.47253249101E+03  0.12500000000E+03 0.  0.
         25    1    1    2    0    0 -0.12832332242E+03  0.44604224066E+02 -0.17475104069E+03  0.25420334007E+03  0.12500000000E+03 0.  0.
</event>
<event>
 4    0  0.2219362E-002  0.2418090E+03  0.7546771E-02  0.1118594E+00
         21   -1    0    0  502  501  0.00000000000E+00  0.00000000000E+00  0.26830074664E+04  0.26830074664E+04  0.00000000000E+00 0.  1.
         21   -1    0    0  501  502 -0.00000000000E+00 -0.00000000000E+00 -0.21793294169E+02  0.21793294169E+02  0.00000000000E+00 0.  1.
         25    1    1    2    0    0  0.20727405110E+02  0.18071288500E+03  0.77808030098E+03  0.80877730365E+03  0.12500000000E+03 0.  0.
         25    1    1    2    0    0 -0.20727405110E+02 -0.18071288500E+03  0.18831338712E+04  0.18960234569E+04  0.12500000000E+03 0.  0.
</event>
<event>
 4    0  0.2219362E-002  0.2558137E+03  0.7546771E-02  0.1109685E+00
         21   -1    0    0  502  501  0.00000000000E+00  0.00000000000E+00  0.44847226893E+03  0.44847226893E+03  0.00000000000E+00 0. -1.
         21   -1    0    0  501  502 -0.00000000000E+00 -0.00000000000E+00 -0.14591899979E+03  0.14591899979E+03  0.00000000000E+00 0. -1.
         25    1    1    2    0    0 -0.14513438278E+03  0.20785217772E+02 -0.44230380510E+02  0.19767989504E+03  0.12500000000E+03 0.  0.
         25    1    1    2    0    0  0.14513438278E+03 -0.20785217772E+02  0.34678364965E+03  0.39671137368E+03  0.12500000000E+03 0.  0.
</event>
<event>
 4    0  0.2219362E-002  0.1731758E+03  0.7546771E-02  0.1174576E+00
         21   -1    0    0  502  501  0.00000000000E+00  0.00000000000E+00  0.49833317793E+03  0.49833317793E+03  0.00000000000E+00 0. -1.
         21   -1    0    0  501  502 -0.00000000000E+00 -0.00000000000E+00 -0.60180369290E+02  0.60180369290E+02  0.00000000000E+00 0. -1.
         25    1    1    2    0    0 -0.84137156039E+02 -0.68124992874E+02  0.30200660693E+03  0.34431535881E+03  0.12500000000E+03 0.  0.
         25    1    1    2    0    0  0.84137156039E+02  0.68124992874E+02  0.13614620171E+03  0.21419818842E+03  0.12500000000E+03 0.  0.
</event>
<event>
 4    0  0.2219362E-002  0.4648290E+03  0.7546771E-02  0.1023390E+00
         21   -1    0    0  502  501  0.00000000000E+00  0.00000000000E+00  0.10085396931E+04  0.10085396931E+04  0.00000000000E+00 0. -1.
         21   -1    0    0  501  502 -0.00000000000E+00 -0.00000000000E+00 -0.21423649363E+03  0.21423649363E+03  0.00000000000E+00 0. -1.
         25    1    1    2    0    0 -0.39660810723E+03 -0.17733696142E+03  0.53938997755E+03  0.70378472312E+03  0.12500000000E+03 0.  0.
         25    1    1    2    0    0  0.39660810723E+03  0.17733696142E+03  0.25491322193E+03  0.51899146363E+03  0.12500000000E+03 0.  0.
</event>
<event>
 4    0  0.2219362E-002  0.2408062E+03  0.7546771E-02  0.1119257E+00
         21   -1    0    0  502  501  0.00000000000E+00  0.00000000000E+00  0.50098315814E+03  0.50098315814E+03  0.00000000000E+00 0.  1.
         21   -1    0    0  501  502 -0.00000000000E+00 -0.00000000000E+00 -0.11574770181E+03  0.11574770181E+03  0.00000000000E+00 0.  1.
         25    1    1    2    0    0  0.11115215258E+03 -0.16512834342E+03  0.12558126040E+03  0.26649169553E+03  0.12500000000E+03 0.  0.
         25    1    1    2    0    0 -0.11115215258E+03  0.16512834342E+03  0.25965419594E+03  0.35023916442E+03  0.12500000000E+03 0.  0.
</event>
<event>
 4    0  0.2219362E-002  0.2023959E+03  0.7546771E-02  0.1147733E+00
         21   -1    0    0  502  501  0.00000000000E+00  0.00000000000E+00  0.10050373804E+03  0.10050373804E+03  0.00000000000E+00 0.  1.
         21   -1    0    0  501  502 -0.00000000000E+00 -0.00000000000E+00 -0.40758797837E+03  0.40758797837E+03  0.00000000000E+00 0.  1.
         25    1    1    2    0    0  0.13110648493E+03 -0.22136396128E+02 -0.43684558095E+02  0.18764932997E+03  0.12500000000E+03 0.  0.
         25    1    1    2    0    0 -0.13110648493E+03  0.22136396128E+02 -0.26339968223E+03  0.32044238644E+03  0.12500000000E+03 0.  0.
</event>
<event>
 4    0  0.2219362E-002  0.1573980E+03  0.7546771E-02  0.1191666E+00
         21   -1    0    0  502  501  0.00000000000E+00  0.00000000000E+00  0.20572152520E+04  0.20572152520E+04  0.00000000000E+00 0.  1.
         21   -1    0    0  501  502 -0.00000000000E+00 -0.00000000000E+00 -0.12042549955E+02  0.12042549955E+02  0.00000000000E+00 0.  1.
         25    1    1    2    0    0 -0.47349710692E+02  0.53010689529E+02  0.60184236632E+03  0.61878216054E+03  0.12500000000E+03 0.  0.
         25    1    1    2    0    0  0.47349710692E+02 -0.53010689529E+02  0.14433303357E+04  0.14504756414E+04  0.12500000000E+03 0.  0.
</event>
<event>
 4    0  0.2219362E-002  0.2022317E+03  0.7546771E-02  0.1147870E+00
         21   -1    0    0  502  501  0.00000000000E+00  0.00000000000E+00  0.12012310636E+03  0.12012310636E+03  0.00000000000E+00 0. -1.
         21   -1    0    0  501  502 -0.00000000000E+00 -0.00000000000E+00 -0.34046448383E+03  0.34046448383E+03  0.00000000000E+00 0. -1.
         25    1    1    2    0    0  0.93800274041E+02  0.98276761873E+02 -0.16156655536E+02  0.18531824209E+03  0.12500000000E+03 0.  0.
         25    1    1    2    0    0 -0.93800274041E+02 -0.98276761873E+02 -0.20418472193E+03  0.27526934810E+03  0.12500000000E+03 0.  0.
</event>
<event>
 4    0  0.2219362E-002  0.1595989E+03  0.7546771E-02  0.1189150E+00
         21   -1    0    0  502  501  0.00000000000E+00  0.00000000000E+00  0.74139767483E+03  0.74139767483E+03  0.00000000000E+00 0. -1.
         21   -1    0    0  501  502 -0.00000000000E+00 -0.00000000000E+00 -0.34356478267E+02  0.34356478267E+02  0.00000000000E+00 0. -1.
         25    1    1    2    0    0 -0.33523478822E+02  0.31626940264E+01  0.58037526246E+03  0.59463793315E+03  0.12500000000E+03 0.  0.
         25    1    1    2    0    0  0.33523478822E+02 -0.31626940264E+01  0.12666593410E+03  0.18111621995E+03  0.12500000000E+03 0.  0.
</event>
<event>
 4    0  0.2219362E-002  0.3385798E+03  0.7546771E-02  0.1067402E+00
         21   -1    0    0  502  501  0.00000000000E+00  0.00000000000E+00  0.31560091157E+03  0.31560091157E+03  0.00000000000E+00 0. -1.
         21   -1    0    0  501  502 -0.00000000000E+00 -0.00000000000E+00 -0.36323182635E+03  0.36323182635E+03  0.00000000000E+00 0. -1.
         25    1    1    2    0    0 -0.14241517246E+02 -0.19289125565E+03 -0.27262505981E+03  0.35687432040E+03  0.12500000000E+03 0.  0.
         25    1    1    2    0    0  0.14241517246E+02  0.19289125565E+03  0.22499414503E+03  0.32195841753E+03  0.12500000000E+03 0.  0.
</event>
<event>
 4    0  0.2219362E-002  0.2986788E+03  0.7546771E-02  0.1085903E+00
         21   -1    0    0  502  501  0.00000000000E+00  0.00000000000E+00  0.10965630939E+03  0.10965630939E+03  0.00000000000E+00 0.  1.
         21   -1    0    0  501  502 -0.00000000000E+00 -0.00000000000E+00 -0.81353324873E+03  0.81353324873E+03  0.00000000000E+00 0.  1.
         25    1    1    2    0    0  0.19017956306E+02  0.10053905577E+03 -0.74019628005E+03  0.75761818709E+03  0.12500000000E+03 0.  0.
         25    1    1    2    0    0 -0.19017956306E+02 -0.10053905577E+03  0.36319340705E+02  0.16557137103E+03  0.12500000000E+03 0.  0.
</event>
<event>
 4    0  0.2219362E-002  0.2672918E+03  0.7546771E-02  0.1102840E+00
         21   -1    0    0  502  501  0.00000000000E+00  0.00000000000E+00  0.71668524486E+02  0.71668524486E+02  0.00000000000E+00 0. -1.
         21   -1    0    0  501  502 -0.00000000000E+00 -0.00000000000E+00 -0.99687951487E+03  0.99687951487E+03  0.00000000000E+00 0. -1.
         25    1    1    2    0    0  0.45814180956E+02 -0.23158463049E+03 -0.44369517407E+03  0.51790036469E+03  0.12500000000E+03 0.  0.
         25    1    1    2    0    0 -0.45814180956E+02  0.23158463049E+03 -0.48151581631E+03  0.55064767467E+03  0.12500000000E+03 0.  0.
</event>
<event>
 4    0  0.2219362E-002  0.4149215E+03  0.7546771E-02  0.1038732E+00
         21   -1    0    0  502  501  0.00000000000E+00  0.00000000000E+00  0.26811660685E+03  0.26811660685E+03  0.00000000000E+00 0.  1.
         21   -1    0    0  501  502 -0.00000000000E+00 -0.00000000000E+00 -0.64210819801E+03  0.64210819801E+03  0.00000000000E+00 0.  1.
         25    1    1    2    0    0  0.36747805923E+03 -0.14261043760E+03 -0.22430545876E+03  0.47044213221E+03  0.12500000000E+03 0.  0.
         25    1    1    2    0    0 -0.36747805923E+03  0.14261043760E+03 -0.14968613240E+03  0.43978267265E+03  0.12500000000E+03 0.  0.
</event>
<event>
 4    0  0.2219362E-002  0.2210141E+03  0.7546771E-02  0.1133129E+00
         21   -1    0    0  502  501  0.00000000000E+00  0.00000000000E+00  0.48551083811E+03  0.48551083811E+03  0.00000000000E+00 0. -1.
         21   -1    0    0  501  502 -0.00000000000E+00 -0.00000000000E+00 -0.10060997048E+03  0.10060997048E+03  0.00000000000E+00 0. -1.
         25    1    1    2    0    0 -0.27584026042E+01 -0.14460587677E+03  0.33953128766E+03  0.38964722978E+03  0.12500000000E+03 0.  0.
         25    1    1    2    0    0  0.27584026042E+01  0.14460587677E+03  0.45369579979E+02  0.19647357881E+03  0.12500000000E+03 0.  0.
</event>
<event>
 4    0  0.2219362E-002  0.2745721E+03  0.7546771E-02  0.1098691E+00
         21   -1    0    0  502  501  0.00000000000E+00  0.00000000000E+00  0.86317804375E+03  0.86317804375E+03  0.00000000000E+00 0.  1.
         21   -1    0    0  501  502 -0.00000000000E+00 -0.00000000000E+00 -0.87339872271E+02  0.87339872271E+02  0.00000000000E+00 0.  1.
         25    1    1    2    0    0 -0.17036584229E+03 -0.10900015321E+03  0.15021496977E+03  0.28123849445E+03  0.12500000000E+03 0.  0.
         25    1    1    2    0    0  0.17036584229E+03  0.10900015321E+03  0.62562320171E+03  0.66927942156E+03  0.12500000000E+03 0.  0.
</event>
<event>
 4    0  0.2219362E-002  0.1840832E+03  0.7546771E-02  0.1163909E+00
         21   -1    0    0  502  501  0.00000000000E+00  0.00000000000E+00  0.21204011224E+03  0.21204011224E+03  0.00000000000E+00 0. -1.
         21   -1    0    0  501  502 -0.00000000000E+00 -0.00000000000E+00 -0.15981236528E+03  0.15981236528E+03  0.00000000000E+00 0. -1.
         25    1    1    2    0    0 -0.43424428874E+02 -0.12736145814E+03  0.13538928407E+02  0.18416005166E+03  0.12500000000E+03 0.  0.
         25    1    1    2    0    0  0.43424428874E+02  0.12736145814E+03  0.38688818557E+02  0.18769242586E+03  0.12500000000E+03 0.  0.
</event>
<event>
 4    0  0.2219362E-002  0.2621486E+03  0.7546771E-02  0.1105859E+00
         21   -1    0    0  502  501  0.00000000000E+00  0.00000000000E+00  0.49507030130E+03  0.49507030130E+03  0.00000000000E+00 0.  1.
         21   -1    0    0  501  502 -0.00000000000E+00 -0.00000000000E+00 -0.13881241538E+03  0.13881241538E+03  0.00000000000E+00 0.  1.
         25    1    1    2    0    0  0.18394709729E+03  0.13287940463E+03  0.12971652182E+03  0.28973237101E+03  0.12500000000E+03 0.  0.
         25    1    1    2    0    0 -0.18394709729E+03 -0.13287940463E+03  0.22654136410E+03  0.34415034567E+03  0.12500000000E+03 0.  0.
</event>
<event>
 4    0  0.2219362E-002  0.2056133E+03  0.7546771E-02  0.1145088E+00
         21   -1    0    0  502  501  0.00000000000E+00  0.00000000000E+00  0.70966069154E+02  0.70966069154E+02  0.00000000000E+00 0. -1.
         21   -1    0    0  501  502 -0.00000000000E+00 -0.00000000000E+00 -0.59573297168E+03  0.59573297168E+03  0.00000000000E+00 0. -1.
         25    1    1    2    0    0  0.11855729882E+02 -0.15722495165E+03 -0.19376085114E+03  0.27933583942E+03  0.12500000000E+03 0.  0.
         25    1    1    2    0    0 -0.11855729882E+02  0.15722495165E+03 -0.33100605139E+03  0.38736320141E+03  0.12500000000E+03 0.  0.
</event>
<event>
 4    0  0.2219362E-002  0.2122282E+03  0.7546771E-02  0.1139814E+00
         21   -1    0    0  502  501  0.00000000000E+00  0.00000000000E+00  0.11814224981E+03  0.11814224981E+03  0.00000000000E+00 0.  1.
         21   -1    0    0  501  502 -0.00000000000E+00 -0.00000000000E+00 -0.38124212671E+03  0.38124212671E+03  0.00000000000E+00 0.  1.
         25    1    1    2    0    0 -0.13826347692E+03 -0.99140864878E+02 -0.15705921520E+03  0.26313171078E+03  0.12500000000E+03 0.  0.
         25    1    1    2    0    0  0.13826347692E+03  0.99140864878E+02 -0.10604066170E+03  0.23625266575E+03  0.12500000000E+03 0.  0.
</event>
<event>
 4    0  0.2219362E-002  0.4442611E+03  0.7546771E-02  0.1029447E+00
         21   -1    0    0  502  501  0.00000000000E+00  0.00000000000E+00  0.17536244386E+03  0.17536244386E+03  0.00000000000E+00 0. -1.
         21   -1    0    0  501  502 -0.00000000000E+00 -0.00000000000E+00 -0.11254855849E+04  0.11254855849E+04  0.00000000000E+00 0.  1.
         25    1    1    2    0    0 -0.25943364200E+03  0.12000956731E+03 -0.93811791696E+03  0.98863458213E+03  0.12500000000E+03 0.  0.
         25    1    1    2    0    0  0.25943364200E+03 -0.12000956731E+03 -0.12005224074E+02  0.31221344662E+03  0.12500000000E+03 0.  0.
</event>
<event>
 4    0  0.2219362E-002  0.2062771E+03  0.7546771E-02  0.1144548E+00
         21   -1    0    0  502  501  0.00000000000E+00  0.00000000000E+00  0.15044682593E+03  0.15044682593E+03  0.00000000000E+00 0. -1.
         21   -1    0    0  501  502 -0.00000000000E+00 -0.00000000000E+00 -0.28282592221E+03  0.28282592221E+03  0.00000000000E+00 0. -1.
         25    1    1    2    0    0  0.11017117730E+03  0.55019339130E+02 -0.18008127003E+03  0.25143404663E+03  0.12500000000E+03 0.  0.
         25    1    1    2    0    0 -0.11017117730E+03 -0.55019339130E+02  0.47702173757E+02  0.18183870151E+03  0.12500000000E+03 0.  0.
</event>
<event>
 4    0  0.2219362E-002  0.2882622E+03  0.7546771E-02  0.1091260E+00
         21   -1    0    0  502  501  0.00000000000E+00  0.00000000000E+00  0.57816603301E+03  0.57816603301E+03  0.00000000000E+00 0. -1.
         21   -1    0    0  501  502 -0.00000000000E+00 -0.00000000000E+00 -0.14372188051E+03  0.14372188051E+03  0.00000000000E+00 0. -1.
         25    1    1    2    0    0 -0.54722510304E+02  0.49206981468E+02  0.52913813588E+03  0.54866022911E+03  0.12500000000E+03 0.  0.
         25    1    1    2    0    0  0.54722510304E+02 -0.49206981468E+02 -0.94693983381E+02  0.17322768441E+03  0.12500000000E+03 0.  0.
</event>
<event>
 4    0  0.2219362E-002  0.2839651E+03  0.7546771E-02  0.1093543E+00
         21   -1    0    0  502  501  0.00000000000E+00  0.00000000000E+00  0.26371446385E+03  0.26371446385E+03  0.00000000000E+00 0.  1.
         21   -1    0    0  501  502 -0.00000000000E+00 -0.00000000000E+00 -0.30577083060E+03  0.30577083060E+03  0.00000000000E+00 0.  1.
         25    1    1    2    0    0 -0.17988684335E+03 -0.17887703421E+03 -0.46689677117E+02  0.28663774303E+03  0.12500000000E+03 0.  0.
         25    1    1    2    0    0  0.17988684335E+03  0.17887703421E+03  0.46333103590E+01  0.28284755142E+03  0.12500000000E+03 0.  0.
</event>
<event>
 4    0  0.2219362E-002  0.2896146E+03  0.7546771E-02  0.1090551E+00
         21   -1    0    0  502  501  0.00000000000E+00  0.00000000000E+00  0.54430880819E+02  0.54430880819E+02  0.00000000000E+00 0.  1.
         21   -1    0    0  501  502 -0.00000000000E+00 -0.00000000000E+00 -0.15409745373E+04  0.15409745373E+04  0.00000000000E+00 0.  1.
         25    1    1    2    0    0  0.77099115567E+02 -0.45266654057E+02 -0.14193998572E+04  0.14276954501E+04  0.12500000000E+03 0.  0.
         25    1    1    2    0    0 -0.77099115567E+02  0.45266654057E+02 -0.67143799263E+02  0.16770996801E+03  0.12500000000E+03 0.  0.
</event>
<event>
 4    0  0.2219362E-002  0.5521262E+03  0.7546771E-02  0.1001003E+00
         21   -1    0    0  502  501  0.00000000000E+00  0.00000000000E+00  0.51168800652E+03  0.51168800652E+03  0.00000000000E+00 0.  1.
         21   -1    0    0  501  502 -0.00000000000E+00 -0.00000000000E+00 -0.59576020194E+03  0.59576020194E+03  0.00000000000E+00 0. -1.
         25    1    1    2    0    0 -0.34042803421E+03 -0.33072398262E+03  0.21157666178E+03  0.53447103099E+03  0.12500000000E+03 0.  0.
         25    1    1    2    0    0  0.34042803421E+03  0.33072398262E+03 -0.29564885719E+03  0.57297717748E+03  0.12500000000E+03 0.  0.
</event>
<event>
 4    0  0.2219362E-002  0.2389595E+03  0.7546771E-02  0.1120488E+00
         21   -1    0    0  502  501  0.00000000000E+00  0.00000000000E+00  0.85341890899E+02  0.85341890899E+02  0.00000000000E+00 0. -1.
         21   -1    0    0  501  502 -0.00000000000E+00 -0.00000000000E+00 -0.66909273643E+03  0.66909273643E+03  0.00000000000E+00 0. -1.
         25    1    1    2    0    0 -0.74440520765E+01 -0.10666420308E+03 -0.56549427231E+03  0.58893245636E+03  0.12500000000E+03 0.  0.
         25    1    1    2    0    0  0.74440520765E+01  0.10666420308E+03 -0.18256573214E+02  0.16550217097E+03  0.12500000000E+03 0.  0.
</event>
<event>
 4    0  0.2219362E-002  0.5803919E+03  0.7546771E-02  0.9946943E-01
         21   -1    0    0  502  501  0.00000000000E+00  0.00000000000E+00  0.69249431173E+03  0.69249431173E+03  0.00000000000E+00 0.  1.
         21   -1    0    0  501  502 -0.00000000000E+00 -0.00000000000E+00 -0.48643679652E+03  0.48643679652E+03  0.00000000000E+00 0.  1.
         25    1    1    2    0    0  0.37620549791E+03 -0.41544820414E+03  0.18861919344E+03  0.60442533626E+03  0.12500000000E+03 0.  0.
         25    1    1    2    0    0 -0.37620549791E+03  0.41544820414E+03  0.17438321766E+02  0.57450577199E+03  0.12500000000E+03 0.  0.
</event>
<event>
 4    0  0.2219362E-002  0.2775868E+03  0.7546771E-02  0.1097014E+00
         21   -1    0    0  502  501  0.00000000000E+00  0.00000000000E+00  0.38547220296E+03  0.38547220296E+03  0.00000000000E+00 0. -1.
         21   -1    0    0  501  502 -0.00000000000E+00 -0.00000000000E+00 -0.19989623334E+03  0.19989623334E+03  0.00000000000E+00 0. -1.
         25    1    1    2    0    0  0.13613651439E+02  0.19456795624E+03  0.25403497899E+03  0.34380342007E+03  0.12500000000E+03 0.  0.
         25    1    1    2    0    0 -0.13613651439E+02 -0.19456795624E+03 -0.68459009373E+02  0.24156501623E+03  0.12500000000E+03 0.  0.
</event>
<event>
 4    0  0.2219362E-002  0.1636413E+03  0.7546771E-02  0.1184646E+00
         21   -1    0    0  502  501  0.00000000000E+00  0.00000000000E+00  0.23185355775E+02  0.23185355775E+02  0.00000000000E+00 0.  1.
         21   -1    0    0  501  502 -0.00000000000E+00 -0.00000000000E+00 -0.11549742980E+04  0.11549742980E+04  0.00000000000E+00 0.  1.
         25    1    1    2    0    0  0.56017929549E+01 -0.10326720584E+03 -0.48885539584E+03  0.51507290157E+03  0.12500000000E+03 0.  0.
         25    1    1    2    0    0 -0.56017929549E+01  0.10326720584E+03 -0.64293354636E+03  0.66308675218E+03  0.12500000000E+03 0.  0.
</event>
<event>
 4    0  0.2219362E-002  0.2181679E+03  0.7546771E-02  0.1135256E+00
         21   -1    0    0  502  501  0.00000000000E+00  0.00000000000E+00  0.29012812479E+03  0.29012812479E+03  0.00000000000E+00 0. -1.
         21   -1    0    0  501  502 -0.00000000000E+00 -0.00000000000E+00 -0.16405594489E+03  0.16405594489E+03  0.00000000000E+00 0. -1.
         25    1    1    2    0    0 -0.11876198606E+03 -0.45275137284E+02 -0.67878103474E+02  0.19075294053E+03  0.12500000000E+03 0.  0.
         25    1    1    2    0    0  0.11876198606E+03  0.45275137284E+02  0.19395028337E+03  0.26343112916E+03  0.12500000000E+03 0.  0.
</event>
<event>
 4    0  0.2219362E-002  0.1807557E+03  0.7546771E-02  0.1167074E+00
         21   -1    0    0  502  501  0.00000000000E+00  0.00000000000E+00  0.77030879895E+02  0.77030879895E+02  0.00000000000E+00 0. -1.
         21   -1    0    0  501  502 -0.00000000000E+00 -0.00000000000E+00 -0.42414971261E+03  0.42414971261E+03  0.00000000000E+00 0. -1.
         25    1    1    2    0    0  0.10721145382E+03 -0.47983067711E+02 -0.25260501767E+03  0.30533746178E+03  0.12500000000E+03 0.  0.
         25    1    1    2    0    0 -0.10721145382E+03  0.47983067711E+02 -0.94513815042E+02  0.19584313072E+03  0.12500000000E+03 0.  0.
</event>
<event>
 4    0  0.2219362E-002  0.3689317E+03  0.7546771E-02  0.1055102E+00
         21   -1    0    0  502  501  0.00000000000E+00  0.00000000000E+00  0.20795483798E+03  0.20795483798E+03  0.00000000000E+00 0.  1.
         21   -1    0    0  501  502 -0.00000000000E+00 -0.00000000000E+00 -0.65452013608E+03  0.65452013608E+03  0.00000000000E+00 0. -1.
         25    1    1    2    0    0  0.20356946425E+03  0.27310376110E+03 -0.30133941243E+03  0.47165308499E+03  0.12500000000E+03 0.  0.
         25    1    1    2    0    0 -0.20356946425E+03 -0.27310376110E+03 -0.14522588568E+03  0.39082188907E+03  0.12500000000E+03 0.  0.
</event>
<event>
 4    0  0.2219362E-002  0.2623192E+03  0.7546771E-02  0.1105758E+00
         21   -1    0    0  502  501  0.00000000000E+00  0.00000000000E+00  0.78011835149E+03  0.78011835149E+03  0.00000000000E+00 0. -1.
         21   -1    0    0  501  502 -0.00000000000E+00 -0.00000000000E+00 -0.88206325660E+02  0.88206325660E+02  0.00000000000E+00 0. -1.
         25    1    1    2    0    0 -0.18632486765E+03  0.63807337171E+02  0.14735853234E+03  0.27591279353E+03  0.12500000000E+03 0.  0.
         25    1    1    2    0    0  0.18632486765E+03 -0.63807337171E+02  0.54455349349E+03  0.59241188362E+03  0.12500000000E+03 0.  0.
</event>
<event>
 4    0  0.2219362E-002  0.3600835E+03  0.7546771E-02  0.1058551E+00
         21   -1    0    0  502  501  0.00000000000E+00  0.00000000000E+00  0.10074571808E+03  0.10074571808E+03  0.00000000000E+00 0.  1.
         21   -1    0    0  501  502 -0.00000000000E+00 -0.00000000000E+00 -0.12870041434E+04  0.12870041434E+04  0.00000000000E+00 0.  1.
         25    1    1    2    0    0 -0.50979839972E+01 -0.20144680028E+03 -0.11152966940E+04  0.11402273977E+04  0.12500000000E+03 0.  0.
         25    1    1    2    0    0  0.50979839972E+01  0.20144680028E+03 -0.70961731365E+02  0.24752246383E+03  0.12500000000E+03 0.  0.
</event>
<event>
 4    0  0.2219362E-002  0.2070721E+03  0.7546771E-02  0.1143906E+00
         21   -1    0    0  502  501  0.00000000000E+00  0.00000000000E+00  0.34324557630E+03  0.34324557630E+03  0.00000000000E+00 0.  1.
         21   -1    0    0  501  502 -0.00000000000E+00 -0.00000000000E+00 -0.12492176874E+03  0.12492176874E+03  0.00000000000E+00 0.  1.
         25    1    1    2    0    0  0.86494607579E+01  0.11492142969E+03 -0.24460835718E+02  0.17177043010E+03  0.12500000000E+03 0.  0.
         25    1    1    2    0    0 -0.86494607579E+01 -0.11492142969E+03  0.24278464327E+03  0.29639691493E+03  0.12500000000E+03 0.  0.
</event>
<event>
 4    0  0.2219362E-002  0.2789556E+03  0.7546771E-02  0.1096261E+00
         21   -1    0    0  502  501  0.00000000000E+00  0.00000000000E+00  0.98280472605E+02  0.98280472605E+02  0.00000000000E+00 0. -1.
         21   -1    0    0  501  502 -0.00000000000E+00 -0.00000000000E+00 -0.79177682579E+03  0.79177682579E+03  0.00000000000E+00 0. -1.
         25    1    1    2    0    0  0.17414687681E+03  0.17846830484E+03 -0.35252896403E+03  0.44953280305E+03  0.12500000000E+03 0.  0.
         25    1    1    2    0    0 -0.17414687681E+03 -0.17846830484E+03 -0.34096738916E+03  0.44052449535E+03  0.12500000000E+03 0.  0.
</event>
<event>
 4    0  0.2219362E-002  0.5066109E+03  0.7546771E-02  0.1012068E+00
         21   -1    0    0  502  501  0.00000000000E+00  0.00000000000E+00  0.30503924251E+03  0.30503924251E+03  0.00000000000E+00 0. -1.
         21   -1    0    0  501  502 -0.00000000000E+00 -0.00000000000E+00 -0.84138230865E+03  0.84138230865E+03  0.00000000000E+00 0.  1.
         25    1    1    2    0    0  0.39963426976E+03 -0.27477990328E+03 -0.35447525859E+03  0.61358720144E+03  0.12500000000E+03 0.  0.
         25    1    1    2    0    0 -0.39963426976E+03  0.27477990328E+03 -0.18186780755E+03  0.53283434972E+03  0.12500000000E+03 0.  0.
</event>
<event>
 4    0  0.2219362E-002  0.2164192E+03  0.7546771E-02  0.1136581E+00
         21   -1    0    0  502  501  0.00000000000E+00  0.00000000000E+00  0.11529694137E+03  0.11529694137E+03  0.00000000000E+00 0.  1.
         21   -1    0    0  501  502 -0.00000000000E+00 -0.00000000000E+00 -0.40623169102E+03  0.40623169102E+03  0.00000000000E+00 0.  1.
         25    1    1    2    0    0  0.82073396327E+02  0.15531501652E+03 -0.16812067858E+03  0.27340146179E+03  0.12500000000E+03 0.  0.
         25    1    1    2    0    0 -0.82073396327E+02 -0.15531501652E+03 -0.12281407107E+03  0.24812717061E+03  0.12500000000E+03 0.  0.
</event>
<event>
 4    0  0.2219362E-002  0.3371986E+03  0.7546771E-02  0.1067995E+00
         21   -1    0    0  502  501  0.00000000000E+00  0.00000000000E+00  0.84486022026E+03  0.84486022026E+03  0.00000000000E+00 0.  1.
         21   -1    0    0  501  502 -0.00000000000E+00 -0.00000000000E+00 -0.13458189180E+03  0.13458189180E+03  0.00000000000E+00 0.  1.
         25    1    1    2    0    0  0.12590721753E+03  0.17428398690E+03  0.24435594245E+02  0.24989924726E+03  0.12500000000E+03 0.  0.
         25    1    1    2    0    0 -0.12590721753E+03 -0.17428398690E+03  0.68584273422E+03  0.72954286481E+03  0.12500000000E+03 0.  0.
</event>
<event>
 4    0  0.2219362E-002  0.2343945E+03  0.7546771E-02  0.1123584E+00
         21   -1    0    0  502  501  0.00000000000E+00  0.00000000000E+00  0.16432129276E+03  0.16432129276E+03  0.00000000000E+00 0. -1.
         21   -1    0    0  501  502 -0.00000000000E+00 -0.00000000000E+00 -0.33434977102E+03  0.33434977102E+03  0.00000000000E+00 0. -1.
         25    1    1    2    0    0  0.86384651059E+02  0.16550501134E+03 -0.13961539003E+02  0.22510917637E+03  0.12500000000E+03 0.  0.
         25    1    1    2    0    0 -0.86384651059E+02 -0.16550501134E+03 -0.15606693926E+03  0.27356188741E+03  0.12500000000E+03 0.  0.
</event>
<event>
 4    0  0.2219362E-002  0.1630267E+03  0.7546771E-02  0.1185321E+00
         21   -1    0    0  502  501  0.00000000000E+00  0.00000000000E+00  0.62514094855E+02  0.62514094855E+02  0.00000000000E+00 0. -1.
         21   -1    0    0  501  502 -0.00000000000E+00 -0.00000000000E+00 -0.42514739866E+03  0.42514739866E+03  0.00000000000E+00 0. -1.
         25    1    1    2    0    0 -0.16333803139E+02  0.10080486037E+03 -0.21556315777E+03  0.26929702558E+03  0.12500000000E+03 0.  0.
         25    1    1    2    0    0  0.16333803139E+02 -0.10080486037E+03 -0.14707014603E+03  0.21836446793E+03  0.12500000000E+03 0.  0.
</event>
<event>
 4    0  0.2219362E-002  0.1716304E+03  0.7546771E-02  0.1176158E+00
         21   -1    0    0  502  501  0.00000000000E+00  0.00000000000E+00  0.15685418050E+02  0.15685418050E+02  0.00000000000E+00 0. -1.
         21   -1    0    0  501  502 -0.00000000000E+00 -0.00000000000E+00 -0.18779858839E+04  0.18779858839E+04  0.00000000000E+00 0.  1.
         25    1    1    2    0    0 -0.48868234967E+02  0.10334282046E+03 -0.77865020830E+03  0.79686196409E+03  0.12500000000E+03 0.  0.
         25    1    1    2    0    0  0.48868234967E+02 -0.10334282046E+03 -0.10836502576E+04  0.10968093379E+04  0.12500000000E+03 0.  0.
</event>
<event>
 4    0  0.2219362E-002  0.2205909E+03  0.7546771E-02  0.1133443E+00
         21   -1    0    0  502  501  0.00000000000E+00  0.00000000000E+00  0.14344610541E+04  0.14344610541E+04  0.00000000000E+00 0.  1.
         21   -1    0    0  501  502 -0.00000000000E+00 -0.00000000000E+00 -0.33922396526E+02  0.33922396526E+02  0.00000000000E+00 0.  1.
         25    1    1    2    0    0  0.35876355373E+02 -0.14215486827E+03  0.34272556310E+03  0.39316781538E+03  0.12500000000E+03 0.  0.
         25    1    1    2    0    0 -0.35876355373E+02  0.14215486827E+03  0.10578130945E+04  0.10752156353E+04  0.12500000000E+03 0.  0.
</event>
<event>
 4    0  0.2219362E-002  0.2744571E+03  0.7546771E-02  0.1098755E+00
         21   -1    0    0  502  501  0.00000000000E+00  0.00000000000E+00  0.37949096253E+02  0.37949096253E+02  0.00000000000E+00 0. -1.
         21   -1    0    0  501  502 -0.00000000000E+00 -0.00000000000E+00 -0.19849409088E+04  0.19849409088E+04  0.00000000000E+00 0. -1.
         25    1    1    2    0    0  0.42388081067E+02  0.23697097425E+03 -0.11276489957E+04  0.11598143168E+04  0.12500000000E+03 0.  0.
         25    1    1    2    0    0 -0.42388081067E+02 -0.23697097425E+03 -0.81934281683E+03  0.86307568819E+03  0.12500000000E+03 0.  0.
</event>
<event>
 4    0  0.2219362E-002  0.1828025E+03  0.7546771E-02  0.1165118E+00
         21   -1    0    0  502  501  0.00000000000E+00  0.00000000000E+00  0.13890357164E+03  0.13890357164E+03  0.00000000000E+00 0.  1.
         21   -1    0    0  501  502 -0.00000000000E+00 -0.00000000000E+00 -0.24057514327E+03  0.24057514327E+03  0.00000000000E+00 0.  1.
         25    1    1    2    0    0 -0.11691415465E+03  0.63767891976E+02 -0.58636500312E+02  0.19182935848E+03  0.12500000000E+03 0.  0.
         25    1    1    2    0    0  0.11691415465E+03 -0.63767891976E+02 -0.43035071322E+02  0.18764935643E+03  0.12500000000E+03 0.  0.
</event>
<event>
 4    0  0.2219362E-002  0.2375891E+03  0.7546771E-02  0.1121409E+00
         21   -1    0    0  502  501  0.00000000000E+00  0.00000000000E+00  0.77470197946E+02  0.77470197946E+02  0.00000000000E+00 0.  1.
         21   -1    0    0  501  502 -0.00000000000E+00 -0.00000000000E+00 -0.72864886017E+03  0.72864886017E+03  0.00000000000E+00 0. -1.
         25    1    1    2    0    0 -0.47804603223E+02 -0.16332476127E+03 -0.51036539972E+03  0.55232064868E+03  0.12500000000E+03 0.  0.
         25    1    1    2    0    0  0.47804603223E+02  0.16332476127E+03 -0.14081326251E+03  0.25379840944E+03  0.12500000000E+03 0.  0.
</event>
<event>
 4    0  0.2219362E-002  0.3274855E+03  0.7546771E-02  0.1072255E+00
         21   -1    0    0  502  501  0.00000000000E+00  0.00000000000E+00  0.17186275418E+04  0.17186275418E+04  0.00000000000E+00 0.  1.
         21   -1    0    0  501  502 -0.00000000000E+00 -0.00000000000E+00 -0.62402552964E+02  0.62402552964E+02  0.00000000000E+00 0.  1.
         25    1    1    2    0    0  0.16521822495E+03 -0.24613368925E+03  0.99447398809E+03  0.10452188134E+04  0.12500000000E+03 0.  0.
         25    1    1    2    0    0 -0.16521822495E+03  0.24613368925E+03  0.66175100075E+03  0.73581128139E+03  0.12500000000E+03 0.  0.
</event>
<event>
 4    0  0.2219362E-002  0.2056897E+03  0.7546771E-02  0.1145025E+00
         21   -1    0    0  502  501  0.00000000000E+00  0.00000000000E+00  0.15895547401E+04  0.15895547401E+04  0.00000000000E+00 0. -1.
         21   -1    0    0  501  502 -0.00000000000E+00 -0.00000000000E+00 -0.26616429969E+02  0.26616429969E+02  0.00000000000E+00 0. -1.
         25    1    1    2    0    0  0.10834210984E+03  0.47999569334E+01  0.12613809612E+04  0.12721902301E+04  0.12500000000E+03 0.  0.
         25    1    1    2    0    0 -0.10834210984E+03 -0.47999569334E+01  0.30155734895E+03  0.34398093996E+03  0.12500000000E+03 0.  0.
</event>
<event>
 4    0  0.2219362E-002  0.1850594E+03  0.7546771E-02  0.1162994E+00
         21   -1    0    0  502  501  0.00000000000E+00  0.00000000000E+00  0.48734143541E+02  0.48734143541E+02  0.00000000000E+00 0. -1.
         21   -1    0    0  501  502 -0.00000000000E+00 -0.00000000000E+00 -0.70273060168E+03  0.70273060168E+03  0.00000000000E+00 0. -1.
         25    1    1    2    0    0  0.76206177775E+02  0.11095652831E+03 -0.28145166151E+03  0.33609339546E+03  0.12500000000E+03 0.  0.
         25    1    1    2    0    0 -0.76206177775E+02 -0.11095652831E+03 -0.37254479663E+03  0.41537134976E+03  0.12500000000E+03 0.  0.
</event>
<event>
 4    0  0.2219362E-002  0.3640162E+03  0.7546771E-02  0.1057005E+00
         21   -1    0    0  502  501  0.00000000000E+00  0.00000000000E+00  0.39168168911E+03  0.39168168911E+03  0.00000000000E+00 0.  1.
         21   -1    0    0  501  502 -0.00000000000E+00 -0.00000000000E+00 -0.33830481997E+03  0.33830481997E+03  0.00000000000E+00 0.  1.
         25    1    1    2    0    0 -0.24707964302E+01 -0.67575857948E+02 -0.30933820986E+03  0.34042286864E+03  0.12500000000E+03 0.  0.
         25    1    1    2    0    0  0.24707964302E+01  0.67575857948E+02  0.36271507901E+03  0.38956364044E+03  0.12500000000E+03 0.  0.
</event>
<event>
 4    0  0.2219362E-002  0.4599259E+03  0.7546771E-02  0.1024803E+00
         21   -1    0    0  502  501  0.00000000000E+00  0.00000000000E+00  0.13580163671E+03  0.13580163671E+03  0.00000000000E+00 0.  1.
         21   -1    0    0  501  502 -0.00000000000E+00 -0.00000000000E+00 -0.15576527559E+04  0.15576527559E+04  0.00000000000E+00 0. -1.
         25    1    1    2    0    0 -0.34724999096E+03  0.27435240125E+03 -0.69727260288E+03  0.83526395769E+03  0.12500000000E+03 0.  0.
         25    1    1    2    0    0  0.34724999096E+03 -0.27435240125E+03 -0.72457851634E+03  0.85819043495E+03  0.12500000000E+03 0.  0.
</event>
<event>
 4    0  0.2219362E-002  0.2547297E+03  0.7546771E-02  0.1110352E+00
         21   -1    0    0  502  501  0.00000000000E+00  0.00000000000E+00  0.28580249051E+03  0.28580249051E+03  0.00000000000E+00 0. -1.
         21   -1    0    0  501  502 -0.00000000000E+00 -0.00000000000E+00 -0.22703516033E+03  0.22703516033E+03  0.00000000000E+00 0. -1.
         25    1    1    2    0    0 -0.20277160139E+03  0.84206968913E+02  0.62081025111E+02  0.26016569648E+03  0.12500000000E+03 0.  0.
         25    1    1    2    0    0  0.20277160139E+03 -0.84206968913E+02 -0.33136949371E+01  0.25267195436E+03  0.12500000000E+03 0.  0.
</event>
<event>
 4    0  0.2219362E-002  0.2089856E+03  0.7546771E-02  0.1142372E+00
         21   -1    0    0  502  501  0.00000000000E+00  0.00000000000E+00  0.11528920908E+04  0.11528920908E+04  0.00000000000E+00 0.  1.
         21   -1    0    0  501  502 -0.00000000000E+00 -0.00000000000E+00 -0.37882963885E+02  0.37882963885E+02  0.00000000000E+00 0.  1.
         25    1    1    2    0    0  0.82493246285E+01  0.16726895547E+03  0.55255804488E+03  0.59075574291E+03  0.12500000000E+03 0.  0.
         25    1    1    2    0    0 -0.82493246285E+01 -0.16726895547E+03  0.56245108204E+03  0.60001931178E+03  0.12500000000E+03 0.  0.
</event>
<event>
 4    0  0.2219362E-002  0.1904098E+03  0.7546771E-02  0.1158092E+00
         21   -1    0    0  502  501  0.00000000000E+00  0.00000000000E+00  0.25229606669E+03  0.25229606669E+03  0.00000000000E+00 0.  1.
         21   -1    0    0  501  502 -0.00000000000E+00 -0.00000000000E+00 -0.14370381656E+03  0.14370381656E+03  0.00000000000E+00 0.  1.
         25    1    1    2    0    0 -0.97257559748E+02  0.75668417272E+02 -0.22443749303E+02  0.17695610807E+03  0.12500000000E+03 0.  0.
         25    1    1    2    0    0  0.97257559748E+02 -0.75668417272E+02  0.13103599943E+03  0.21904377519E+03  0.12500000000E+03 0.  0.
</event>
<event>
 4    0  0.2219362E-002  0.3256631E+03  0.7546771E-02  0.1073072E+00
         21   -1    0    0  502  501  0.00000000000E+00  0.00000000000E+00  0.16585817414E+04  0.16585817414E+04  0.00000000000E+00 0.  1.
         21   -1    0    0  501  502 -0.00000000000E+00 -0.00000000000E+00 -0.63944052251E+02  0.63944052251E+02  0.00000000000E+00 0.  1.
         25    1    1    2    0    0 -0.18466342328E+03  0.21599318200E+03  0.53714980801E+03  0.62040998607E+03  0.12500000000E+03 0.  0.
         25    1    1    2    0    0  0.18466342328E+03 -0.21599318200E+03  0.10574878812E+04  0.11021158076E+04  0.12500000000E+03 0.  0.
</event>
<event>
 4    0  0.2219362E-002  0.1932527E+03  0.7546771E-02  0.1155560E+00
         21   -1    0    0  502  501  0.00000000000E+00  0.00000000000E+00  0.10202261155E+03  0.10202261155E+03  0.00000000000E+00 0. -1.
         21   -1    0    0  501  502 -0.00000000000E+00 -0.00000000000E+00 -0.36606213742E+03  0.36606213742E+03  0.00000000000E+00 0. -1.
         25    1    1    2    0    0  0.54683804807E+02 -0.79118065692E+02 -0.26726763891E+03  0.31033365534E+03  0.12500000000E+03 0.  0.
         25    1    1    2    0    0 -0.54683804807E+02  0.79118065692E+02  0.32281130504E+01  0.15775109363E+03  0.12500000000E+03 0.  0.
</event>
<event>
 4    0  0.2219362E-002  0.1860732E+03  0.7546771E-02  0.1162051E+00
         21   -1    0    0  502  501  0.00000000000E+00  0.00000000000E+00  0.11206765344E+04  0.11206765344E+04  0.00000000000E+00 0. -1.
         21   -1    0    0  501  502 -0.00000000000E+00 -0.00000000000E+00 -0.30894949015E+02  0.30894949015E+02  0.00000000000E+00 0. -1.
         25    1    1    2    0    0 -0.10855896978E+03 -0.74649576201E+02  0.67022887459E+03  0.69439855521E+03  0.12500000000E+03 0.  0.
         25    1    1    2    0    0  0.10855896978E+03  0.74649576201E+02  0.41955271083E+03  0.45717292823E+03  0.12500000000E+03 0.  0.
</event>
<event>
 4    0  0.2219362E-002  0.2677559E+03  0.7546771E-02  0.1102571E+00
         21   -1    0    0  502  501  0.00000000000E+00  0.00000000000E+00  0.78529340599E+03  0.78529340599E+03  0.00000000000E+00 0.  1.
         21   -1    0    0  501  502 -0.00000000000E+00 -0.00000000000E+00 -0.91294826088E+02  0.91294826088E+02  0.00000000000E+00 0.  1.
         25    1    1    2    0    0  0.52481917834E+02  0.23063657747E+03  0.36497874390E+03  0.45252852514E+03  0.12500000000E+03 0.  0.
         25    1    1    2    0    0 -0.52481917834E+02 -0.23063657747E+03  0.32901983601E+03  0.42405970694E+03  0.12500000000E+03 0.  0.
</event>
<event>
 4    0  0.2219362E-002  0.4552537E+03  0.7546771E-02  0.1026167E+00
         21   -1    0    0  502  501  0.00000000000E+00  0.00000000000E+00  0.63729642112E+03  0.63729642112E+03  0.00000000000E+00 0. -1.
         21   -1    0    0  501  502 -0.00000000000E+00 -0.00000000000E+00 -0.32521125839E+03  0.32521125839E+03  0.00000000000E+00 0.  1.
         25    1    1    2    0    0  0.24914130763E+03  0.33493977475E+03  0.29538462595E+03  0.52643434645E+03  0.12500000000E+03 0.  0.
         25    1    1    2    0    0 -0.24914130763E+03 -0.33493977475E+03  0.16700536780E+02  0.43607333306E+03  0.12500000000E+03 0.  0.
</event>
<event>
 4    0  0.2219362E-002  0.1973302E+03  0.7546771E-02  0.1152011E+00
         21   -1    0    0  502  501  0.00000000000E+00  0.00000000000E+00  0.72497074822E+02  0.72497074822E+02  0.00000000000E+00 0.  1.
         21   -1    0    0  501  502 -0.00000000000E+00 -0.00000000000E+00 -0.53711416610E+03  0.53711416610E+03  0.00000000000E+00 0.  1.
         25    1    1    2    0    0  0.94934497753E+02  0.58185901098E+02 -0.70923926076E+02  0.18180583390E+03  0.12500000000E+03 0.  0.
         25    1    1    2    0    0 -0.94934497753E+02 -0.58185901098E+02 -0.39369316521E+03  0.42780540702E+03  0.12500000000E+03 0.  0.
</event>
<event>
 4    0  0.2219362E-002  0.2080545E+03  0.7546771E-02  0.1143116E+00
         21   -1    0    0  502  501  0.00000000000E+00  0.00000000000E+00  0.36820602404E+03  0.36820602404E+03  0.00000000000E+00 0. -1.
         21   -1    0    0  501  502 -0.00000000000E+00 -0.00000000000E+00 -0.11756098227E+03  0.11756098227E+03  0.00000000000E+00 0. -1.
         25    1    1    2    0    0 -0.17248282634E+02  0.10373195298E+02  0.31805568694E+03  0.34232955821E+03  0.12500000000E+03 0.  0.
         25    1    1    2    0    0  0.17248282634E+02 -0.10373195298E+02 -0.67410645166E+02  0.14343744810E+03  0.12500000000E+03 0.  0.
</event>
<event>
 4    0  0.2219362E-002  0.2278021E+03  0.7546771E-02  0.1128196E+00
         21   -1    0    0  502  501  0.00000000000E+00  0.00000000000E+00  0.56996592252E+03  0.56996592252E+03  0.00000000000E+00 0. -1.
         21   -1    0    0  501  502 -0.00000000000E+00 -0.00000000000E+00 -0.91047207547E+02  0.91047207547E+02  0.00000000000E+00 0. -1.
         25    1    1    2    0    0  0.10877196799E+03  0.14272454193E+03  0.14693235783E+03  0.26346869580E+03  0.12500000000E+03 0.  0.
         25    1    1    2    0    0 -0.10877196799E+03 -0.14272454193E+03  0.33198635714E+03  0.39754443427E+03  0.12500000000E+03 0.  0.
</event>
<event>
 4    0  0.2219362E-002  0.3719389E+03  0.7546771E-02  0.1053954E+00
         21   -1    0    0  502  501  0.00000000000E+00  0.00000000000E+00  0.14362901694E+03  0.14362901694E+03  0.00000000000E+00 0.  1.
         21   -1    0    0  501  502 -0.00000000000E+00 -0.00000000000E+00 -0.96316571005E+03  0.96316571005E+03  0.00000000000E+00 0.  1.
         25    1    1    2    0    0 -0.27388135843E+03 -0.18574759976E+03 -0.58071421785E+03  0.67997586142E+03  0.12500000000E+03 0.  0.
         25    1    1    2    0    0  0.27388135843E+03  0.18574759976E+03 -0.23882247527E+03  0.42681886557E+03  0.12500000000E+03 0.  0.
</event>
<event>
 4    0  0.2219362E-002  0.2027647E+03  0.7546771E-02  0.1147427E+00
         21   -1    0    0  502  501  0.00000000000E+00  0.00000000000E+00  0.11772778326E+03  0.11772778326E+03  0.00000000000E+00 0. -1.
         21   -1    0    0  501  502 -0.00000000000E+00 -0.00000000000E+00 -0.34922525578E+03  0.34922525578E+03  0.00000000000E+00 0. -1.
         25    1    1    2    0    0  0.55390837377E+02 -0.37432825009E+02 -0.28268801044E+03  0.31623863221E+03  0.12500000000E+03 0.  0.
         25    1    1    2    0    0 -0.55390837377E+02  0.37432825009E+02  0.51190537923E+02  0.15071440683E+03  0.12500000000E+03 0.  0.
</event>
<event>
 4    0  0.2219362E-002  0.2167868E+03  0.7546771E-02  0.1136302E+00
         21   -1    0    0  502  501  0.00000000000E+00  0.00000000000E+00  0.62282039672E+03  0.62282039672E+03  0.00000000000E+00 0. -1.
         21   -1    0    0  501  502 -0.00000000000E+00 -0.00000000000E+00 -0.75457559292E+02  0.75457559292E+02  0.00000000000E+00 0. -1.
         25    1    1    2    0    0 -0.37189559591E+02  0.11931387126E+03  0.71546067947E+02  0.19069007068E+03  0.12500000000E+03 0.  0.
         25    1    1    2    0    0  0.37189559591E+02 -0.11931387126E+03  0.47581676949E+03  0.50758788534E+03  0.12500000000E+03 0.  0.
</event>
<event>
 4    0  0.2219362E-002  0.2416822E+03  0.7546771E-02  0.1118677E+00
         21   -1    0    0  502  501  0.00000000000E+00  0.00000000000E+00  0.46553078991E+03  0.46553078991E+03  0.00000000000E+00 0.  1.
         21   -1    0    0  501  502 -0.00000000000E+00 -0.00000000000E+00 -0.12547033558E+03  0.12547033558E+03  0.00000000000E+00 0.  1.
         25    1    1    2    0    0 -0.24173140044E+02  0.25079107397E+02  0.41932550245E+03  0.43894439207E+03  0.12500000000E+03 0.  0.
         25    1    1    2    0    0  0.24173140044E+02 -0.25079107397E+02 -0.79265048108E+02  0.15205673342E+03  0.12500000000E+03 0.  0.
</event>
<event>
 4    0  0.2219362E-002  0.3109811E+03  0.7546771E-02  0.1079877E+00
         21   -1    0    0  502  501  0.00000000000E+00  0.00000000000E+00  0.39168720419E+03  0.39168720419E+03  0.00000000000E+00 0.  1.
         21   -1    0    0  501  502 -0.00000000000E+00 -0.00000000000E+00 -0.24690429906E+03  0.24690429906E+03  0.00000000000E+00 0.  1.
         25    1    1    2    0    0  0.34879692446E+02  0.18566459160E+03  0.29115222675E+03  0.36889368748E+03  0.12500000000E+03 0.  0.
         25    1    1    2    0    0 -0.34879692446E+02 -0.18566459160E+03 -0.14636932161E+03  0.26969781577E+03  0.12500000000E+03 0.  0.
</event>
<event>
 4    0  0.2219362E-002  0.1898935E+03  0.7546771E-02  0.1158557E+00
         21   -1    0    0  502  501  0.00000000000E+00  0.00000000000E+00  0.56114796694E+02  0.56114796694E+02  0.00000000000E+00 0.  1.
         21   -1    0    0  501  502 -0.00000000000E+00 -0.00000000000E+00 -0.64260328617E+03  0.64260328617E+03  0.00000000000E+00 0.  1.
         25    1    1    2    0    0 -0.54793002938E+02 -0.90327639269E+02 -0.11607980042E+03  0.20065112921E+03  0.12500000000E+03 0.  0.
         25    1    1    2    0    0  0.54793002938E+02  0.90327639269E+02 -0.47040868905E+03  0.49806695365E+03  0.12500000000E+03 0.  0.
</event>
<event>
 4    0  0.2219362E-002  0.2580682E+03  0.7546771E-02  0.1108309E+00
         21   -1    0    0  502  501  0.00000000000E+00  0.00000000000E+00  0.48186019597E+02  0.48186019597E+02  0.00000000000E+00 0. -1.
         21   -1    0    0  501  502 -0.00000000000E+00 -0.00000000000E+00 -0.13821267550E+04  0.13821267550E+04  0.00000000000E+00 0. -1.
         25    1    1    2    0    0  0.14877724323E+03 -0.57352052668E+02 -0.11099300790E+04  0.11282702276E+04  0.12500000000E+03 0.  0.
         25    1    1    2    0    0 -0.14877724323E+03  0.57352052668E+02 -0.22401065633E+03  0.30204254700E+03  0.12500000000E+03 0.  0.
</event>
<event>
 4    0  0.2219362E-002  0.2032858E+03  0.7546771E-02  0.1146996E+00
         21   -1    0    0  502  501  0.00000000000E+00  0.00000000000E+00  0.85842377663E+02  0.85842377663E+02  0.00000000000E+00 0.  1.
         21   -1    0    0  501  502 -0.00000000000E+00 -0.00000000000E+00 -0.48140675844E+03  0.48140675844E+03  0.00000000000E+00 0.  1.
         25    1    1    2    0    0  0.11448448400E+02 -0.11231011186E+03 -0.35658695063E+03  0.39436516270E+03  0.12500000000E+03 0.  0.
         25    1    1    2    0    0 -0.11448448400E+02  0.11231011186E+03 -0.38977430146E+02  0.17288397340E+03  0.12500000000E+03 0.  0.
</event>
<event>
 4    0  0.2219362E-002  0.2215761E+03  0.7546771E-02  0.1132713E+00
         21   -1    0    0  502  501  0.00000000000E+00  0.00000000000E+00  0.32349920571E+02  0.32349920571E+02  0.00000000000E+00 0. -1.
         21   -1    0    0  501  502 -0.00000000000E+00 -0.00000000000E+00 -0.15176541198E+04  0.15176541198E+04  0.00000000000E+00 0. -1.
         25    1    1    2    0    0  0.16307907843E+03 -0.81402721949E+02 -0.79793325871E+03  0.82797564839E+03  0.12500000000E+03 0.  0.
         25    1    1    2    0    0 -0.16307907843E+03  0.81402721949E+02 -0.68737094050E+03  0.72202839197E+03  0.12500000000E+03 0.  0.
</event>
<event>
 4    0  0.2219362E-002  0.2541351E+03  0.7546771E-02  0.1110719E+00
         21   -1    0    0  502  501  0.00000000000E+00  0.00000000000E+00  0.12597189245E+04  0.12597189245E+04  0.00000000000E+00 0. -1.
         21   -1    0    0  501  502 -0.00000000000E+00 -0.00000000000E+00 -0.51269080503E+02  0.51269080503E+02  0.00000000000E+00 0. -1.
         25    1    1    2    0    0  0.18996166981E+03  0.10555158856E+03  0.71160174949E+03  0.75447241415E+03  0.12500000000E+03 0.  0.
         25    1    1    2    0    0 -0.18996166981E+03 -0.10555158856E+03  0.49684809452E+03  0.55651559086E+03  0.12500000000E+03 0.  0.
</event>
<event>
 4    0  0.2219362E-002  0.2300852E+03  0.7546771E-02  0.1126580E+00
         21   -1    0    0  502  501  0.00000000000E+00  0.00000000000E+00  0.10179352951E+03  0.10179352951E+03  0.00000000000E+00 0. -1.
         21   -1    0    0  501  502 -0.00000000000E+00 -0.00000000000E+00 -0.52006464903E+03  0.52006464903E+03  0.00000000000E+00 0. -1.
         25    1    1    2    0    0  0.12889974400E+03  0.64066767885E+02 -0.38321800071E+03  0.42801954490E+03  0.12500000000E+03 0.  0.
         25    1    1    2    0    0 -0.12889974400E+03 -0.64066767885E+02 -0.35053118814E+02  0.19383863363E+03  0.12500000000E+03 0.  0.
</event>
<event>
 4    0  0.2219362E-002  0.3347164E+03  0.7546771E-02  0.1069069E+00
         21   -1    0    0  502  501  0.00000000000E+00  0.00000000000E+00  0.11722315394E+04  0.11722315394E+04  0.00000000000E+00 0. -1.
         21   -1    0    0  501  502 -0.00000000000E+00 -0.00000000000E+00 -0.95574197904E+02  0.95574197904E+02  0.00000000000E+00 0. -1.
         25    1    1    2    0    0 -0.16353904648E+03  0.22938197125E+03  0.78561203148E+03  0.84390305869E+03  0.12500000000E+03 0.  0.
         25    1    1    2    0    0  0.16353904648E+03 -0.22938197125E+03  0.29104531004E+03  0.42390267863E+03  0.12500000000E+03 0.  0.
</event>
<event>
 4    0  0.2219362E-002  0.2285375E+03  0.7546771E-02  0.1127673E+00
         21   -1    0    0  502  501  0.00000000000E+00  0.00000000000E+00  0.60959457338E+03  0.60959457338E+03  0.00000000000E+00 0. -1.
         21   -1    0    0  501  502 -0.00000000000E+00 -0.00000000000E+00 -0.85678889388E+02  0.85678889388E+02  0.00000000000E+00 0. -1.
         25    1    1    2    0    0  0.36514126912E+02  0.19162289322E+02 -0.22229837131E+02  0.13349022607E+03  0.12500000000E+03 0.  0.
         25    1    1    2    0    0 -0.36514126912E+02 -0.19162289322E+02  0.54614552112E+03  0.56178323670E+03  0.12500000000E+03 0.  0.
</event>
<event>
 4    0  0.2219362E-002  0.1798224E+03  0.7546771E-02  0.1167975E+00
         21   -1    0    0  502  501  0.00000000000E+00  0.00000000000E+00  0.16998870910E+02  0.16998870910E+02  0.00000000000E+00 0. -1.
         21   -1    0    0  501  502 -0.00000000000E+00 -0.00000000000E+00 -0.19022488299E+04  0.19022488299E+04  0.00000000000E+00 0. -1.
         25    1    1    2    0    0  0.10246000552E+03  0.76984139854E+02 -0.10329479588E+04  0.10483468396E+04  0.12500000000E+03 0.  0.
         25    1    1    2    0    0 -0.10246000552E+03 -0.76984139854E+02 -0.85230200024E+03  0.87090086125E+03  0.12500000000E+03 0.  0.
</event>
<event>
 4    0  0.2219362E-002  0.1883399E+03  0.7546771E-02  0.1159967E+00
         21   -1    0    0  502  501  0.00000000000E+00  0.00000000000E+00  0.30190636952E+02  0.30190636952E+02  0.00000000000E+00 0. -1.
         21   -1    0    0  501  502 -0.00000000000E+00 -0.00000000000E+00 -0.11749311417E+04  0.11749311417E+04  0.00000000000E+00 0. -1.
         25    1    1    2    0    0 -0.13835083934E+03  0.24250555044E+02 -0.53763502539E+03  0.56956603189E+03  0.12500000000E+03 0.  0.
         25    1    1    2    0    0  0.13835083934E+03 -0.24250555044E+02 -0.60710547935E+03  0.63555574675E+03  0.12500000000E+03 0.  0.
</event>
<event>
 4    0  0.2219362E-002  0.1924461E+03  0.7546771E-02  0.1156273E+00
         21   -1    0    0  502  501  0.00000000000E+00  0.00000000000E+00  0.53166709665E+03  0.53166709665E+03  0.00000000000E+00 0. -1.
         21   -1    0    0  501  502 -0.00000000000E+00 -0.00000000000E+00 -0.69659204300E+02  0.69659204300E+02  0.00000000000E+00 0. -1.
         25    1    1    2    0    0  0.80362507698E+02  0.11691610071E+03  0.28696479936E+03  0.34365870180E+03  0.12500000000E+03 0.  0.
         25    1    1    2    0    0 -0.80362507698E+02 -0.11691610071E+03  0.17504309299E+03  0.25766759915E+03  0.12500000000E+03 0.  0.
</event>
<event>
 4    0  0.2219362E-002  0.1674830E+03  0.7546771E-02  0.1180498E+00
         21   -1    0    0  502  501  0.00000000000E+00  0.00000000000E+00  0.32161498513E+03  0.32161498513E+03  0.00000000000E+00 0.  1.
         21   -1    0    0  501  502 -0.00000000000E+00 -0.00000000000E+00 -0.87217784526E+02  0.87217784526E+02  0.00000000000E+00 0.  1.
         25    1    1    2    0    0  0.54093605920E+02  0.86343849863E+02  0.17238134760E+03  0.23605445899E+03  0.12500000000E+03 0.  0.
         25    1    1    2    0    0 -0.54093605920E+02 -0.86343849863E+02  0.62015853003E+02  0.17277831066E+03  0.12500000000E+03 0.  0.
</event>
<event>
 4    0  0.2219362E-002  0.1909891E+03  0.7546771E-02  0.1157572E+00
         21   -1    0    0  502  501  0.00000000000E+00  0.00000000000E+00  0.63625387958E+02  0.63625387958E+02  0.00000000000E+00 0. -1.
         21   -1    0    0  501  502 -0.00000000000E+00 -0.00000000000E+00 -0.57330627347E+03  0.57330627347E+03  0.00000000000E+00 0. -1.
         25    1    1    2    0    0 -0.21999533298E+02  0.13988819358E+03 -0.20770280061E+03  0.28074568483E+03  0.12500000000E+03 0.  0.
         25    1    1    2    0    0  0.21999533298E+02 -0.13988819358E+03 -0.30197808490E+03  0.35618597660E+03  0.12500000000E+03 0.  0.
</event>
<event>
 4    0  0.2219362E-002  0.2928166E+03  0.7546771E-02  0.1088888E+00
         21   -1    0    0  502  501  0.00000000000E+00  0.00000000000E+00  0.72432944581E+03  0.72432944581E+03  0.00000000000E+00 0.  1.
         21   -1    0    0  501  502 -0.00000000000E+00 -0.00000000000E+00 -0.11837372233E+03  0.11837372233E+03  0.00000000000E+00 0.  1.
         25    1    1    2    0    0 -0.22956407124E+02 -0.13979884078E+03  0.62488676432E+03  0.65282400441E+03  0.12500000000E+03 0.  0.
         25    1    1    2    0    0  0.22956407124E+02  0.13979884078E+03 -0.18931040847E+02  0.18987916373E+03  0.12500000000E+03 0.  0.
</event>
<event>
 4    0  0.2219362E-002  0.2063834E+03  0.7546771E-02  0.1144462E+00
         21   -1    0    0  502  501  0.00000000000E+00  0.00000000000E+00  0.22780696353E+03  0.22780696353E+03  0.00000000000E+00 0.  1.
         21   -1    0    0  501  502 -0.00000000000E+00 -0.00000000000E+00 -0.18697463880E+03  0.18697463880E+03  0.00000000000E+00 0.  1.
         25    1    1    2    0    0 -0.13008883275E+03 -0.88766196292E+02  0.67189921690E+02  0.21199534803E+03  0.12500000000E+03 0.  0.
         25    1    1    2    0    0  0.13008883275E+03  0.88766196292E+02 -0.26357596964E+02  0.20278625429E+03  0.12500000000E+03 0.  0.
</event>
<event>
 4    0  0.2219362E-002  0.2954785E+03  0.7546771E-02  0.1087523E+00
         21   -1    0    0  502  501  0.00000000000E+00  0.00000000000E+00  0.19736958115E+03  0.19736958115E+03  0.00000000000E+00 0.  1.
         21   -1    0    0  501  502 -0.00000000000E+00 -0.00000000000E+00 -0.44235562655E+03  0.44235562655E+03  0.00000000000E+00 0.  1.
         25    1    1    2    0    0 -0.61897055145E+02  0.18361947884E+03 -0.32249704017E+03  0.39645516690E+03  0.12500000000E+03 0.  0.
         25    1    1    2    0    0  0.61897055145E+02 -0.18361947884E+03  0.77510994767E+02  0.24327004081E+03  0.12500000000E+03 0.  0.
</event>
<event>
 4    0  0.2219362E-002  0.2934066E+03  0.7546771E-02  0.1088584E+00
         21   -1    0    0  502  501  0.00000000000E+00  0.00000000000E+00  0.83475628509E+02  0.83475628509E+02  0.00000000000E+00 0.  1.
         21   -1    0    0  501  502 -0.00000000000E+00 -0.00000000000E+00 -0.10312882487E+04  0.10312882487E+04  0.00000000000E+00 0.  1.
         25    1    1    2    0    0  0.12394585180E+03 -0.39093541914E+02 -0.91359990259E+03  0.93122535468E+03  0.12500000000E+03 0.  0.
         25    1    1    2    0    0 -0.12394585180E+03  0.39093541914E+02 -0.34212717583E+02  0.18353852251E+03  0.12500000000E+03 0.  0.
</event>
<event>
 4    0  0.2219362E-002  0.2718199E+03  0.7546771E-02  0.1100243E+00
         21   -1    0    0  502  501  0.00000000000E+00  0.00000000000E+00  0.32783882630E+03  0.32783882630E+03  0.00000000000E+00 0.  1.
         21   -1    0    0  501  502 -0.00000000000E+00 -0.00000000000E+00 -0.22537314140E+03  0.22537314140E+03  0.00000000000E+00 0.  1.
         25    1    1    2    0    0 -0.16271745987E+03 -0.14230629087E+03 -0.58049930982E+02  0.25636467513E+03  0.12500000000E+03 0.  0.
         25    1    1    2    0    0  0.16271745987E+03  0.14230629087E+03  0.16051561588E+03  0.29684729257E+03  0.12500000000E+03 0.  0.
</event>
<event>
 4    0  0.2219362E-002  0.2283377E+03  0.7546771E-02  0.1127815E+00
         21   -1    0    0  502  501  0.00000000000E+00  0.00000000000E+00  0.69886151164E+02  0.69886151164E+02  0.00000000000E+00 0. -1.
         21   -1    0    0  501  502 -0.00000000000E+00 -0.00000000000E+00 -0.74604336923E+03  0.74604336923E+03  0.00000000000E+00 0. -1.
         25    1    1    2    0    0 -0.97366825457E+02 -0.15271719380E+03 -0.22924896569E+03  0.31777811166E+03  0.12500000000E+03 0.  0.
         25    1    1    2    0    0  0.97366825457E+02  0.15271719380E+03 -0.44690825238E+03  0.49815140873E+03  0.12500000000E+03 0.  0.
</event>
<event>
 4    0  0.2219362E-002  0.2254676E+03  0.7546771E-02  0.1129871E+00
         21   -1    0    0  502  501  0.00000000000E+00  0.00000000000E+00  0.47120456664E+03  0.47120456664E+03  0.00000000000E+00 0.  1.
         21   -1    0    0  501  502 -0.00000000000E+00 -0.00000000000E+00 -0.10788448320E+03  0.10788448320E+03  0.00000000000E+00 0.  1.
         25    1    1    2    0    0 -0.10763024545E+03  0.76521040565E+00  0.37904971791E+03  0.41338667604E+03  0.12500000000E+03 0.  0.
         25    1    1    2    0    0  0.10763024545E+03 -0.76521040565E+00 -0.15729634468E+02  0.16570237380E+03  0.12500000000E+03 0.  0.
</event>
<event>
 4    0  0.2219362E-002  0.1665622E+03  0.7546771E-02  0.1181481E+00
         21   -1    0    0  502  501  0.00000000000E+00  0.00000000000E+00  0.31252394268E+02  0.31252394268E+02  0.00000000000E+00 0. -1.
         21   -1    0    0  501  502 -0.00000000000E+00 -0.00000000000E+00 -0.88770703249E+03  0.88770703249E+03  0.00000000000E+00 0. -1.
         25    1    1    2    0    0  0.73443008216E+02  0.46922932126E+02 -0.61373894884E+03  0.63237341368E+03  0.12500000000E+03 0.  0.
         25    1    1    2    0    0 -0.73443008216E+02 -0.46922932126E+02 -0.24271568938E+03  0.28658601307E+03  0.12500000000E+03 0.  0.
</event>
<event>
 4    0  0.2219362E-002  0.2876860E+03  0.7546771E-02  0.1091564E+00
         21   -1    0    0  502  501  0.00000000000E+00  0.00000000000E+00  0.51298225084E+03  0.51298225084E+03  0.00000000000E+00 0. -1.
         21   -1    0    0  501  502 -0.00000000000E+00 -0.00000000000E+00 -0.16133739101E+03  0.16133739101E+03  0.00000000000E+00 0. -1.
         25    1    1    2    0    0 -0.10427470000E+03 -0.23474543827E+03  0.13591366730E+03  0.31634816074E+03  0.12500000000E+03 0.  0.
         25    1    1    2    0    0  0.10427470000E+03  0.23474543827E+03  0.21573119253E+03  0.35797148110E+03  0.12500000000E+03 0.  0.
</event>
<event>
 4    0  0.2219362E-002  0.1640203E+03  0.7546771E-02  0.1184231E+00
         21   -1    0    0  502  501  0.00000000000E+00  0.00000000000E+00  0.13266171701E+04  0.13266171701E+04  0.00000000000E+00 0.  1.
         21   -1    0    0  501  502 -0.00000000000E+00 -0.00000000000E+00 -0.20279131798E+02  0.20279131798E+02  0.00000000000E+00 0.  1.
         25    1    1    2    0    0  0.31351170133E+02  0.62830050625E+01  0.23737304546E+03  0.27017278681E+03  0.12500000000E+03 0.  0.
         25    1    1    2    0    0 -0.31351170133E+02 -0.62830050625E+01  0.10689649929E+04  0.10767235151E+04  0.12500000000E+03 0.  0.
</event>
<event>
 4    0  0.2219362E-002  0.1649751E+03  0.7546771E-02  0.1183192E+00
         21   -1    0    0  502  501  0.00000000000E+00  0.00000000000E+00  0.11280882882E+03  0.11280882882E+03  0.00000000000E+00 0. -1.
         21   -1    0    0  501  502 -0.00000000000E+00 -0.00000000000E+00 -0.24126455456E+03  0.24126455456E+03  0.00000000000E+00 0. -1.
         25    1    1    2    0    0  0.10106286370E+03  0.25973851588E+02 -0.92689176691E+02  0.18736228773E+03  0.12500000000E+03 0.  0.
         25    1    1    2    0    0 -0.10106286370E+03 -0.25973851588E+02 -0.35766549049E+02  0.16671109566E+03  0.12500000000E+03 0.  0.
</event>
<event>
 4    0  0.2219362E-002  0.2194149E+03  0.7546771E-02  0.1134320E+00
         21   -1    0    0  502  501  0.00000000000E+00  0.00000000000E+00  0.23601422587E+02  0.23601422587E+02  0.00000000000E+00 0. -1.
         21   -1    0    0  501  502 -0.00000000000E+00 -0.00000000000E+00 -0.20398299587E+04  0.20398299587E+04  0.00000000000E+00 0. -1.
         25    1    1    2    0    0 -0.14399796611E+02  0.17824160468E+03 -0.11174287705E+04  0.11385295257E+04  0.12500000000E+03 0.  0.
         25    1    1    2    0    0  0.14399796611E+02 -0.17824160468E+03 -0.89879976561E+03  0.92490185557E+03  0.12500000000E+03 0.  0.
</event>
<event>
 4    0  0.2219362E-002  0.2844182E+03  0.7546771E-02  0.1093300E+00
         21   -1    0    0  502  501  0.00000000000E+00  0.00000000000E+00  0.62956317285E+02  0.62956317285E+02  0.00000000000E+00 0.  1.
         21   -1    0    0  501  502 -0.00000000000E+00 -0.00000000000E+00 -0.12849182626E+04  0.12849182626E+04  0.00000000000E+00 0.  1.
         25    1    1    2    0    0  0.11052465650E+03 -0.20382769748E+03 -0.35679671913E+03  0.44349783397E+03  0.12500000000E+03 0.  0.
         25    1    1    2    0    0 -0.11052465650E+03  0.20382769748E+03 -0.86516522620E+03  0.90437674593E+03  0.12500000000E+03 0.  0.
</event>
<event>
 4    0  0.2219362E-002  0.2001461E+03  0.7546771E-02  0.1149616E+00
         21   -1    0    0  502  501  0.00000000000E+00  0.00000000000E+00  0.24305281346E+02  0.24305281346E+02  0.00000000000E+00 0. -1.
         21   -1    0    0  501  502 -0.00000000000E+00 -0.00000000000E+00 -0.16481385055E+04  0.16481385055E+04  0.00000000000E+00 0. -1.
         25    1    1    2    0    0 -0.11489820893E+03  0.78284208659E+02 -0.51344263600E+03  0.54642323908E+03  0.12500000000E+03 0.  0.
         25    1    1    2    0    0  0.11489820893E+03 -0.78284208659E+02 -0.11103905882E+04  0.11260205478E+04  0.12500000000E+03 0.  0.
</event>
<event>
 4    0  0.2219362E-002  0.2179867E+03  0.7546771E-02  0.1135393E+00
         21   -1    0    0  502  501  0.00000000000E+00  0.00000000000E+00  0.12323499231E+03  0.12323499231E+03  0.00000000000E+00 0. -1.
         21   -1    0    0  501  502 -0.00000000000E+00 -0.00000000000E+00 -0.38559024029E+03  0.38559024029E+03  0.00000000000E+00 0. -1.
         25    1    1    2    0    0 -0.14062074602E+03  0.90132773739E+02 -0.20494636805E+03  0.29244849955E+03  0.12500000000E+03 0.  0.
         25    1    1    2    0    0  0.14062074602E+03 -0.90132773739E+02 -0.57408879927E+02  0.21637673305E+03  0.12500000000E+03 0.  0.
</event>
<event>
 4    0  0.2219362E-002  0.2099931E+03  0.7546771E-02  0.1141571E+00
         21   -1    0    0  502  501  0.00000000000E+00  0.00000000000E+00  0.10456246856E+04  0.10456246856E+04  0.00000000000E+00 0.  1.
         21   -1    0    0  501  502 -0.00000000000E+00 -0.00000000000E+00 -0.42172972613E+02  0.42172972613E+02  0.00000000000E+00 0.  1.
         25    1    1    2    0    0 -0.24936371254E+02  0.10671058680E+03  0.83405566508E+03  0.85046036028E+03  0.12500000000E+03 0.  0.
         25    1    1    2    0    0  0.24936371254E+02 -0.10671058680E+03  0.16939604792E+03  0.23733729795E+03  0.12500000000E+03 0.  0.
</event>
<event>
 4    0  0.2219362E-002  0.3187128E+03  0.7546771E-02  0.1076243E+00
         21   -1    0    0  502  501  0.00000000000E+00  0.00000000000E+00  0.26058790607E+03  0.26058790607E+03  0.00000000000E+00 0. -1.
         21   -1    0    0  501  502 -0.00000000000E+00 -0.00000000000E+00 -0.38980268259E+03  0.38980268259E+03  0.00000000000E+00 0. -1.
         25    1    1    2    0    0  0.26150121539E+02  0.22498921176E+03  0.12532077986E+03  0.28746177508E+03  0.12500000000E+03 0.  0.
         25    1    1    2    0    0 -0.26150121539E+02 -0.22498921176E+03 -0.25453555638E+03  0.36292881358E+03  0.12500000000E+03 0.  0.
</event>
<event>
 4    0  0.2219362E-002  0.2592479E+03  0.7546771E-02  0.1107596E+00
         21   -1    0    0  502  501  0.00000000000E+00  0.00000000000E+00  0.33471470737E+03  0.33471470737E+03  0.00000000000E+00 0.  1.
         21   -1    0    0  501  502 -0.00000000000E+00 -0.00000000000E+00 -0.20079622642E+03  0.20079622642E+03  0.00000000000E+00 0.  1.
         25    1    1    2    0    0 -0.21020325998E+03  0.75566951758E+02  0.10940128261E+03  0.27836920688E+03  0.12500000000E+03 0.  0.
         25    1    1    2    0    0  0.21020325998E+03 -0.75566951758E+02  0.24517198339E+02  0.25714172691E+03  0.12500000000E+03 0.  0.
</event>
<event>
 4    0  0.2219362E-002  0.2246724E+03  0.7546771E-02  0.1130447E+00
         21   -1    0    0  502  501  0.00000000000E+00  0.00000000000E+00  0.24283064069E+02  0.24283064069E+02  0.00000000000E+00 0.  1.
         21   -1    0    0  501  502 -0.00000000000E+00 -0.00000000000E+00 -0.20787189945E+04  0.20787189945E+04  0.00000000000E+00 0.  1.
         25    1    1    2    0    0  0.17918044749E+03 -0.48103008946E+02 -0.92981518557E+03  0.95634764158E+03  0.12500000000E+03 0.  0.
         25    1    1    2    0    0 -0.17918044749E+03  0.48103008946E+02 -0.11246207448E+04  0.11466544169E+04  0.12500000000E+03 0.  0.
</event>
<event>
 4    0  0.2219362E-002  0.2465771E+03  0.7546771E-02  0.1115487E+00
         21   -1    0    0  502  501  0.00000000000E+00  0.00000000000E+00  0.41915757696E+03  0.41915757696E+03  0.00000000000E+00 0. -1.
         21   -1    0    0  501  502 -0.00000000000E+00 -0.00000000000E+00 -0.14505349598E+03  0.14505349598E+03  0.00000000000E+00 0. -1.
         25    1    1    2    0    0  0.12434822593E+03  0.61112854631E+02  0.32145240930E+03  0.37169061562E+03  0.12500000000E+03 0.  0.
         25    1    1    2    0    0 -0.12434822593E+03 -0.61112854631E+02 -0.47348328318E+02  0.19252045732E+03  0.12500000000E+03 0.  0.
</event>
<event>
 4    0  0.2219362E-002  0.2093520E+03  0.7546771E-02  0.1142080E+00
         21   -1    0    0  502  501  0.00000000000E+00  0.00000000000E+00  0.25325514999E+02  0.25325514999E+02  0.00000000000E+00 0.  1.
         21   -1    0    0  501  502 -0.00000000000E+00 -0.00000000000E+00 -0.17305968272E+04  0.17305968272E+04  0.00000000000E+00 0.  1.
         25    1    1    2    0    0  0.91369488740E+02 -0.64674549063E+02 -0.32763304025E+03  0.36810268925E+03  0.12500000000E+03 0.  0.
         25    1    1    2    0    0 -0.91369488740E+02  0.64674549063E+02 -0.13776382719E+04  0.13878196529E+04  0.12500000000E+03 0.  0.
</event>
<event>
 4    0  0.2219362E-002  0.1617817E+03  0.7546771E-02  0.1186700E+00
         21   -1    0    0  502  501  0.00000000000E+00  0.00000000000E+00  0.22899741405E+02  0.22899741405E+02  0.00000000000E+00 0.  1.
         21   -1    0    0  501  502 -0.00000000000E+00 -0.00000000000E+00 -0.11429530903E+04  0.11429530903E+04  0.00000000000E+00 0.  1.
         25    1    1    2    0    0  0.46191332103E+02  0.88739733791E+02 -0.47630049100E+03  0.50248934043E+03  0.12500000000E+03 0.  0.
         25    1    1    2    0    0 -0.46191332103E+02 -0.88739733791E+02 -0.64375285791E+03  0.66336349130E+03  0.12500000000E+03 0.  0.
</event>
<event>
 4    0  0.2219362E-002  0.1879160E+03  0.7546771E-02  0.1160355E+00
         21   -1    0    0  502  501  0.00000000000E+00  0.00000000000E+00  0.21450064117E+03  0.21450064117E+03  0.00000000000E+00 0.  1.
         21   -1    0    0  501  502 -0.00000000000E+00 -0.00000000000E+00 -0.16462613263E+03  0.16462613263E+03  0.00000000000E+00 0.  1.
         25    1    1    2    0    0 -0.96366535568E+02  0.54896148485E+02  0.11164024428E+03  0.20096925247E+03  0.12500000000E+03 0.  0.
         25    1    1    2    0    0  0.96366535568E+02 -0.54896148485E+02 -0.61765735739E+02  0.17815752133E+03  0.12500000000E+03 0.  0.
</event>
<event>
 4    0  0.2219362E-002  0.2965543E+03  0.7546771E-02  0.1086976E+00
         21   -1    0    0  502  501  0.00000000000E+00  0.00000000000E+00  0.48672943219E+02  0.48672943219E+02  0.00000000000E+00 0.  1.
         21   -1    0    0  501  502 -0.00000000000E+00 -0.00000000000E+00 -0.18068450393E+04  0.18068450393E+04  0.00000000000E+00 0.  1.
         25    1    1    2    0    0  0.37566785301E+02  0.11021412161E+03 -0.12072557676E+03  0.20918432265E+03  0.12500000000E+03 0.  0.
         25    1    1    2    0    0 -0.37566785301E+02 -0.11021412161E+03 -0.16374465193E+04  0.16463336598E+04  0.12500000000E+03 0.  0.
</event>
<event>
 4    0  0.2219362E-002  0.2415924E+03  0.7546771E-02  0.1118737E+00
         21   -1    0    0  502  501  0.00000000000E+00  0.00000000000E+00  0.48147873173E+03  0.48147873173E+03  0.00000000000E+00 0.  1.
         21   -1    0    0  501  502 -0.00000000000E+00 -0.00000000000E+00 -0.12122418425E+03  0.12122418425E+03  0.00000000000E+00 0.  1.
         25    1    1    2    0    0  0.13573495272E+03 -0.12279006636E+03  0.60222195146E+02  0.22968040965E+03  0.12500000000E+03 0.  0.
         25    1    1    2    0    0 -0.13573495272E+03  0.12279006636E+03  0.30003235233E+03  0.37302250634E+03  0.12500000000E+03 0.  0.
</event>
<event>
 4    0  0.2219362E-002  0.3548402E+03  0.7546771E-02  0.1060646E+00
         21   -1    0    0  502  501  0.00000000000E+00  0.00000000000E+00  0.26576440590E+03  0.26576440590E+03  0.00000000000E+00 0. -1.
         21   -1    0    0  501  502 -0.00000000000E+00 -0.00000000000E+00 -0.47377127950E+03  0.47377127950E+03  0.00000000000E+00 0. -1.
         25    1    1    2    0    0  0.18071157043E+03 -0.26823565356E+03 -0.25470540577E+02  0.34767914226E+03  0.12500000000E+03 0.  0.
         25    1    1    2    0    0 -0.18071157043E+03  0.26823565356E+03 -0.18253633302E+03  0.39185654314E+03  0.12500000000E+03 0.  0.
</event>
<event>
 4    0  0.2219362E-002  0.2017779E+03  0.7546771E-02  0.1148248E+00
         21   -1    0    0  502  501  0.00000000000E+00  0.00000000000E+00  0.24444409896E+02  0.24444409896E+02  0.00000000000E+00 0.  1.
         21   -1    0    0  501  502 -0.00000000000E+00 -0.00000000000E+00 -0.16655879466E+04  0.16655879466E+04  0.00000000000E+00 0.  1.
         25    1    1    2    0    0  0.27203790650E+02 -0.32486690904E+02 -0.14597359168E+04  0.14656907512E+04  0.12500000000E+03 0.  0.
         25    1    1    2    0    0 -0.27203790650E+02  0.32486690904E+02 -0.18140761987E+03  0.22434160528E+03  0.12500000000E+03 0.  0.
</event>
<event>
 4    0  0.2219362E-002  0.1620138E+03  0.7546771E-02  0.1186442E+00
         21   -1    0    0  502  501  0.00000000000E+00  0.00000000000E+00  0.91456894009E+03  0.91456894009E+03  0.00000000000E+00 0.  1.
         21   -1    0    0  501  502 -0.00000000000E+00 -0.00000000000E+00 -0.28700377771E+02  0.28700377771E+02  0.00000000000E+00 0.  1.
         25    1    1    2    0    0 -0.78540652269E+02 -0.66710684653E+02  0.44912644544E+03  0.47745001152E+03  0.12500000000E+03 0.  0.
         25    1    1    2    0    0  0.78540652269E+02  0.66710684653E+02  0.43674211688E+03  0.46581930634E+03  0.12500000000E+03 0.  0.
</event>
<event>
 4    0  0.2219362E-002  0.4457862E+03  0.7546771E-02  0.1028986E+00
         21   -1    0    0  502  501  0.00000000000E+00  0.00000000000E+00  0.17431353975E+03  0.17431353975E+03  0.00000000000E+00 0.  1.
         21   -1    0    0  501  502 -0.00000000000E+00 -0.00000000000E+00 -0.11400451924E+04  0.11400451924E+04  0.00000000000E+00 0. -1.
         25    1    1    2    0    0  0.10946324624E+03  0.32133781164E+03 -0.98836278644E+02  0.37501173507E+03  0.12500000000E+03 0.  0.
         25    1    1    2    0    0 -0.10946324624E+03 -0.32133781164E+03 -0.86689537400E+03  0.93934699708E+03  0.12500000000E+03 0.  0.
</event>
<event>
 4    0  0.2219362E-002  0.3321206E+03  0.7546771E-02  0.1070202E+00
         21   -1    0    0  502  501  0.00000000000E+00  0.00000000000E+00  0.31259152488E+03  0.31259152488E+03  0.00000000000E+00 0.  1.
         21   -1    0    0  501  502 -0.00000000000E+00 -0.00000000000E+00 -0.35286975732E+03  0.35286975732E+03  0.00000000000E+00 0.  1.
         25    1    1    2    0    0 -0.30223578099E+03  0.53214593769E+02  0.22813382015E+01  0.33137360306E+03  0.12500000000E+03 0.  0.
         25    1    1    2    0    0  0.30223578099E+03 -0.53214593769E+02 -0.42559570640E+02  0.33408767915E+03  0.12500000000E+03 0.  0.
</event>
<event>
 4    0  0.2219362E-002  0.3817081E+03  0.7546771E-02  0.1050304E+00
         21   -1    0    0  502  501  0.00000000000E+00  0.00000000000E+00  0.15563144387E+03  0.15563144387E+03  0.00000000000E+00 0. -1.
         21   -1    0    0  501  502 -0.00000000000E+00 -0.00000000000E+00 -0.93619322679E+03  0.93619322679E+03  0.00000000000E+00 0.  1.
         25    1    1    2    0    0  0.31277300928E+03 -0.16038123219E+03 -0.27473657672E+03  0.46330797701E+03  0.12500000000E+03 0.  0.
         25    1    1    2    0    0 -0.31277300928E+03  0.16038123219E+03 -0.50582520620E+03  0.62851669365E+03  0.12500000000E+03 0.  0.
</event>
<event>
 4    0  0.2219362E-002  0.2247948E+03  0.7546771E-02  0.1130358E+00
         21   -1    0    0  502  501  0.00000000000E+00  0.00000000000E+00  0.50580191064E+02  0.50580191064E+02  0.00000000000E+00 0. -1.
         21   -1    0    0  501  502 -0.00000000000E+00 -0.00000000000E+00 -0.99906072725E+03  0.99906072725E+03  0.00000000000E+00 0. -1.
         25    1    1    2    0    0 -0.11424352962E+03  0.93647027297E+02 -0.74131546600E+03  0.76615596971E+03  0.12500000000E+03 0.  0.
         25    1    1    2    0    0  0.11424352962E+03 -0.93647027297E+02 -0.20716507018E+03  0.28348494860E+03  0.12500000000E+03 0.  0.
</event>
<event>
 4    0  0.2219362E-002  0.1888140E+03  0.7546771E-02  0.1159535E+00
         21   -1    0    0  502  501  0.00000000000E+00  0.00000000000E+00  0.18617710028E+03  0.18617710028E+03  0.00000000000E+00 0.  1.
         21   -1    0    0  501  502 -0.00000000000E+00 -0.00000000000E+00 -0.19148828454E+03  0.19148828454E+03  0.00000000000E+00 0.  1.
         25    1    1    2    0    0 -0.63331836129E+02 -0.58266458796E+02 -0.11500472754E+03  0.19041268089E+03  0.12500000000E+03 0.  0.
         25    1    1    2    0    0  0.63331836129E+02  0.58266458796E+02  0.10969354329E+03  0.18725270393E+03  0.12500000000E+03 0.  0.
</event>
<event>
 4    0  0.2219362E-002  0.1731028E+03  0.7546771E-02  0.1174650E+00
         21   -1    0    0  502  501  0.00000000000E+00  0.00000000000E+00  0.18062245745E+02  0.18062245745E+02  0.00000000000E+00 0. -1.
         21   -1    0    0  501  502 -0.00000000000E+00 -0.00000000000E+00 -0.16589626999E+04  0.16589626999E+04  0.00000000000E+00 0. -1.
         25    1    1    2    0    0 -0.89604244640E+02 -0.30914506482E+02 -0.46597683189E+03  0.49167472502E+03  0.12500000000E+03 0.  0.
         25    1    1    2    0    0  0.89604244640E+02  0.30914506482E+02 -0.11749236223E+04  0.11853502206E+04  0.12500000000E+03 0.  0.
</event>
<event>
 4    0  0.2219362E-002  0.2762050E+03  0.7546771E-02  0.1097780E+00
         21   -1    0    0  502  501  0.00000000000E+00  0.00000000000E+00  0.12744512708E+03  0.12744512708E+03  0.00000000000E+00 0.  1.
         21   -1    0    0  501  502 -0.00000000000E+00 -0.00000000000E+00 -0.59860421446E+03  0.59860421446E+03  0.00000000000E+00 0.  1.
         25    1    1    2    0    0  0.49740073996E+02  0.12479364338E+03  0.35748292748E+02  0.18695044484E+03  0.12500000000E+03 0.  0.
         25    1    1    2    0    0 -0.49740073996E+02 -0.12479364338E+03 -0.50690738013E+03  0.53909889670E+03  0.12500000000E+03 0.  0.
</event>
<event>
 4    0  0.2219362E-002  0.1958651E+03  0.7546771E-02  0.1153275E+00
         21   -1    0    0  502  501  0.00000000000E+00  0.00000000000E+00  0.17964746494E+03  0.17964746494E+03  0.00000000000E+00 0.  1.
         21   -1    0    0  501  502 -0.00000000000E+00 -0.00000000000E+00 -0.21354680726E+03  0.21354680726E+03  0.00000000000E+00 0.  1.
         25    1    1    2    0    0  0.92768785820E+02  0.89061135714E+02 -0.95985364155E+02  0.20341121810E+03  0.12500000000E+03 0.  0.
         25    1    1    2    0    0 -0.92768785820E+02 -0.89061135714E+02  0.62086021836E+02  0.18978305410E+03  0.12500000000E+03 0.  0.
</event>
<event>
 4    0  0.2219362E-002  0.1870661E+03  0.7546771E-02  0.1161134E+00
         21   -1    0    0  502  501  0.00000000000E+00  0.00000000000E+00  0.24369036937E+03  0.24369036937E+03  0.00000000000E+00 0. -1.
         21   -1    0    0  501  502 -0.00000000000E+00 -0.00000000000E+00 -0.14359920835E+03  0.14359920835E+03  0.00000000000E+00 0. -1.
         25    1    1    2    0    0  0.63669708478E+02  0.35834118079E+02 -0.72571864865E+02  0.16195552280E+03  0.12500000000E+03 0.  0.
         25    1    1    2    0    0 -0.63669708478E+02 -0.35834118079E+02  0.17266302588E+03  0.22533405491E+03  0.12500000000E+03 0.  0.
</event>
<event>
 4    0  0.2219362E-002  0.3213773E+03  0.7546771E-02  0.1075017E+00
         21   -1    0    0  502  501  0.00000000000E+00  0.00000000000E+00  0.99830357588E+03  0.99830357588E+03  0.00000000000E+00 0. -1.
         21   -1    0    0  501  502 -0.00000000000E+00 -0.00000000000E+00 -0.10345889259E+03  0.10345889259E+03  0.00000000000E+00 0. -1.
         25    1    1    2    0    0  0.27220648550E+03 -0.11641808862E+03  0.45251889620E+03  0.55502062441E+03  0.12500000000E+03 0.  0.
         25    1    1    2    0    0 -0.27220648550E+03  0.11641808862E+03  0.44232578709E+03  0.54674184405E+03  0.12500000000E+03 0.  0.
</event>
<event>
 4    0  0.2219362E-002  0.2213144E+03  0.7546771E-02  0.1132907E+00
         21   -1    0    0  502  501  0.00000000000E+00  0.00000000000E+00  0.61511086724E+03  0.61511086724E+03  0.00000000000E+00 0. -1.
         21   -1    0    0  501  502 -0.00000000000E+00 -0.00000000000E+00 -0.79628042990E+02  0.79628042990E+02  0.00000000000E+00 0. -1.
         25    1    1    2    0    0  0.11335889254E+03 -0.33633594614E+01  0.43048057923E+02  0.17418290960E+03  0.12500000000E+03 0.  0.
         25    1    1    2    0    0 -0.11335889254E+03  0.33633594614E+01  0.49243476632E+03  0.52055600063E+03  0.12500000000E+03 0.  0.
</event>
<event>
 4    0  0.2219362E-002  0.3684578E+03  0.7546771E-02  0.1055284E+00
         21   -1    0    0  502  501  0.00000000000E+00  0.00000000000E+00  0.94506875608E+02  0.94506875608E+02  0.00000000000E+00 0. -1.
         21   -1    0    0  501  502 -0.00000000000E+00 -0.00000000000E+00 -0.14365216625E+04  0.14365216625E+04  0.00000000000E+00 0. -1.
         25    1    1    2    0    0 -0.53931101034E+02 -0.23667693911E+03 -0.11850303253E+04  0.12160782907E+04  0.12500000000E+03 0.  0.
         25    1    1    2    0    0  0.53931101034E+02  0.23667693911E+03 -0.15698446155E+03  0.31495024739E+03  0.12500000000E+03 0.  0.
</event>
<event>
 4    0  0.2219362E-002  0.1825804E+03  0.7546771E-02  0.1165329E+00
         21   -1    0    0  502  501  0.00000000000E+00  0.00000000000E+00  0.79623256194E+03  0.79623256194E+03  0.00000000000E+00 0.  1.
         21   -1    0    0  501  502 -0.00000000000E+00 -0.00000000000E+00 -0.41866680513E+02  0.41866680513E+02  0.00000000000E+00 0.  1.
         25    1    1    2    0    0 -0.90817053250E+00 -0.20144934628E+02  0.75268342886E+02  0.14729890226E+03  0.12500000000E+03 0.  0.
         25    1    1    2    0    0  0.90817053250E+00  0.20144934628E+02  0.67909753854E+03  0.69080034020E+03  0.12500000000E+03 0.  0.
</event>
<event>
 4    0  0.2219362E-002  0.1463530E+03  0.7546771E-02  0.1205027E+00
         21   -1    0    0  502  501  0.00000000000E+00  0.00000000000E+00  0.77632692665E+03  0.77632692665E+03  0.00000000000E+00 0. -1.
         21   -1    0    0  501  502 -0.00000000000E+00 -0.00000000000E+00 -0.27590433808E+02  0.27590433808E+02  0.00000000000E+00 0. -1.
         25    1    1    2    0    0 -0.44351626157E+02  0.10117001679E+02  0.54198982066E+03  0.55807471378E+03  0.12500000000E+03 0.  0.
         25    1    1    2    0    0  0.44351626157E+02 -0.10117001679E+02  0.20674667219E+03  0.24584264668E+03  0.12500000000E+03 0.  0.
</event>
<event>
 4    0  0.2219362E-002  0.1648089E+03  0.7546771E-02  0.1183372E+00
         21   -1    0    0  502  501  0.00000000000E+00  0.00000000000E+00  0.23026729073E+03  0.23026729073E+03  0.00000000000E+00 0. -1.
         21   -1    0    0  501  502 -0.00000000000E+00 -0.00000000000E+00 -0.11795850053E+03  0.11795850053E+03  0.00000000000E+00 0. -1.
         25    1    1    2    0    0 -0.24555033675E+02  0.89874529350E+02 -0.31006540615E+00  0.15590213868E+03  0.12500000000E+03 0.  0.
         25    1    1    2    0    0  0.24555033675E+02 -0.89874529350E+02  0.11261885560E+03  0.19232365258E+03  0.12500000000E+03 0.  0.
</event>
<event>
 4    0  0.2219362E-002  0.2234626E+03  0.7546771E-02  0.1131328E+00
         21   -1    0    0  502  501  0.00000000000E+00  0.00000000000E+00  0.29011983051E+02  0.29011983051E+02  0.00000000000E+00 0. -1.
         21   -1    0    0  501  502 -0.00000000000E+00 -0.00000000000E+00 -0.17212041803E+04  0.17212041803E+04  0.00000000000E+00 0. -1.
         25    1    1    2    0    0  0.54280866788E+02  0.10668659798E+03 -0.13996722812E+04  0.14103318537E+04  0.12500000000E+03 0.  0.
         25    1    1    2    0    0 -0.54280866788E+02 -0.10668659798E+03 -0.29251991602E+03  0.33988430967E+03  0.12500000000E+03 0.  0.
</event>
<event>
 4    0  0.2219362E-002  0.2778078E+03  0.7546771E-02  0.1096892E+00
         21   -1    0    0  502  501  0.00000000000E+00  0.00000000000E+00  0.76829510103E+03  0.76829510103E+03  0.00000000000E+00 0.  1.
         21   -1    0    0  501  502 -0.00000000000E+00 -0.00000000000E+00 -0.10045250716E+03  0.10045250716E+03  0.00000000000E+00 0. -1.
         25    1    1    2    0    0  0.24310525348E+03  0.12888971222E+02  0.25916533218E+03  0.37690576972E+03  0.12500000000E+03 0.  0.
         25    1    1    2    0    0 -0.24310525348E+03 -0.12888971222E+02  0.40867726168E+03  0.49184183846E+03  0.12500000000E+03 0.  0.
</event>
<event>
 4    0  0.2219362E-002  0.2284507E+03  0.7546771E-02  0.1127735E+00
         21   -1    0    0  502  501  0.00000000000E+00  0.00000000000E+00  0.22293525744E+03  0.22293525744E+03  0.00000000000E+00 0. -1.
         21   -1    0    0  501  502 -0.00000000000E+00 -0.00000000000E+00 -0.23410266917E+03  0.23410266917E+03  0.00000000000E+00 0. -1.
         25    1    1    2    0    0 -0.17013849920E+03  0.85582534092E+02  0.11546237489E+02  0.22810040476E+03  0.12500000000E+03 0.  0.
         25    1    1    2    0    0  0.17013849920E+03 -0.85582534092E+02 -0.22713649220E+02  0.22893752185E+03  0.12500000000E+03 0.  0.
</event>
<event>
 4    0  0.2219362E-002  0.1412572E+03  0.7546771E-02  0.1211647E+00
         21   -1    0    0  502  501  0.00000000000E+00  0.00000000000E+00  0.14945243476E+03  0.14945243476E+03  0.00000000000E+00 0.  1.
         21   -1    0    0  501  502 -0.00000000000E+00 -0.00000000000E+00 -0.13351134632E+03  0.13351134632E+03  0.00000000000E+00 0.  1.
         25    1    1    2    0    0  0.22719481554E+02 -0.61354716000E+02  0.14911195981E+02  0.14187290010E+03  0.12500000000E+03 0.  0.
         25    1    1    2    0    0 -0.22719481554E+02  0.61354716000E+02  0.10298924661E+01  0.14109088098E+03  0.12500000000E+03 0.  0.
</event>
<event>
 4    0  0.2219362E-002  0.2318294E+03  0.7546771E-02  0.1125359E+00
         21   -1    0    0  502  501  0.00000000000E+00  0.00000000000E+00  0.32102773124E+03  0.32102773124E+03  0.00000000000E+00 0. -1.
         21   -1    0    0  501  502 -0.00000000000E+00 -0.00000000000E+00 -0.16741507217E+03  0.16741507217E+03  0.00000000000E+00 0. -1.
         25    1    1    2    0    0  0.16916885716E+03  0.23515294134E+02  0.17646103253E+03  0.27556227480E+03  0.12500000000E+03 0.  0.
         25    1    1    2    0    0 -0.16916885716E+03 -0.23515294134E+02 -0.22848373461E+02  0.21288052861E+03  0.12500000000E+03 0.  0.
</event>
<event>
 4    0  0.2219362E-002  0.3499724E+03  0.7546771E-02  0.1062626E+00
         21   -1    0    0  502  501  0.00000000000E+00  0.00000000000E+00  0.21188585757E+04  0.21188585757E+04  0.00000000000E+00 0.  1.
         21   -1    0    0  501  502 -0.00000000000E+00 -0.00000000000E+00 -0.57805017729E+02  0.57805017729E+02  0.00000000000E+00 0.  1.
         25    1    1    2    0    0  0.15587251792E+03  0.27025247928E+03  0.13339960732E+04  0.13756828006E+04  0.12500000000E+03 0.  0.
         25    1    1    2    0    0 -0.15587251792E+03 -0.27025247928E+03  0.72705748468E+03  0.80098079280E+03  0.12500000000E+03 0.  0.
</event>
<event>
 4    0  0.2219362E-002  0.4258942E+03  0.7546771E-02  0.1035165E+00
         21   -1    0    0  502  501  0.00000000000E+00  0.00000000000E+00  0.11385076643E+03  0.11385076643E+03  0.00000000000E+00 0.  1.
         21   -1    0    0  501  502 -0.00000000000E+00 -0.00000000000E+00 -0.15931897759E+04  0.15931897759E+04  0.00000000000E+00 0.  1.
         25    1    1    2    0    0  0.25740720293E+03  0.21247159824E+03 -0.12069146033E+04  0.12584397117E+04  0.12500000000E+03 0.  0.
         25    1    1    2    0    0 -0.25740720293E+03 -0.21247159824E+03 -0.27242440608E+03  0.44860083060E+03  0.12500000000E+03 0.  0.
</event>
<event>
 4    0  0.2219362E-002  0.1752126E+03  0.7546771E-02  0.1172518E+00
         21   -1    0    0  502  501  0.00000000000E+00  0.00000000000E+00  0.14931671886E+02  0.14931671886E+02  0.00000000000E+00 0.  1.
         21   -1    0    0  501  502 -0.00000000000E+00 -0.00000000000E+00 -0.20559963227E+04  0.20559963227E+04  0.00000000000E+00 0.  1.
         25    1    1    2    0    0  0.17251341957E+02  0.11913834046E+03 -0.87784999547E+03  0.89483918528E+03  0.12500000000E+03 0.  0.
         25    1    1    2    0    0 -0.17251341957E+02 -0.11913834046E+03 -0.11632146553E+04  0.11760888093E+04  0.12500000000E+03 0.  0.
</event>
<event>
 4    0  0.2219362E-002  0.1895536E+03  0.7546771E-02  0.1158865E+00
         21   -1    0    0  502  501  0.00000000000E+00  0.00000000000E+00  0.36092048390E+03  0.36092048390E+03  0.00000000000E+00 0.  1.
         21   -1    0    0  501  502 -0.00000000000E+00 -0.00000000000E+00 -0.99552555547E+02  0.99552555547E+02  0.00000000000E+00 0.  1.
         25    1    1    2    0    0  0.13999061183E+03 -0.22509129756E+02  0.11344124164E+03  0.22044942193E+03  0.12500000000E+03 0.  0.
         25    1    1    2    0    0 -0.13999061183E+03  0.22509129756E+02  0.14792668670E+03  0.24002361751E+03  0.12500000000E+03 0.  0.
</event>
<event>
 4    0  0.2219362E-002  0.2627296E+03  0.7546771E-02  0.1105514E+00
         21   -1    0    0  502  501  0.00000000000E+00  0.00000000000E+00  0.10783920720E+04  0.10783920720E+04  0.00000000000E+00 0. -1.
         21   -1    0    0  501  502 -0.00000000000E+00 -0.00000000000E+00 -0.64009039864E+02  0.64009039864E+02  0.00000000000E+00 0. -1.
         25    1    1    2    0    0 -0.68564346972E+02 -0.16160794758E+03  0.18047083992E+03  0.28109237353E+03  0.12500000000E+03 0.  0.
         25    1    1    2    0    0  0.68564346972E+02  0.16160794758E+03  0.83391219225E+03  0.86130873837E+03  0.12500000000E+03 0.  0.
</event>
<event>
 4    0  0.2219362E-002  0.2758042E+03  0.7546771E-02  0.1098003E+00
         21   -1    0    0  502  501  0.00000000000E+00  0.00000000000E+00  0.71676405362E+03  0.71676405362E+03  0.00000000000E+00 0. -1.
         21   -1    0    0  501  502 -0.00000000000E+00 -0.00000000000E+00 -0.10612692296E+03  0.10612692296E+03  0.00000000000E+00 0. -1.
         25    1    1    2    0    0  0.46317616266E+02  0.62916546584E+02 -0.42431988572E+02  0.15339259130E+03  0.12500000000E+03 0.  0.
         25    1    1    2    0    0 -0.46317616266E+02 -0.62916546584E+02  0.65306911923E+03  0.66949838529E+03  0.12500000000E+03 0.  0.
</event>
<event>
 4    0  0.2219362E-002  0.1748115E+03  0.7546771E-02  0.1172921E+00
         21   -1    0    0  502  501  0.00000000000E+00  0.00000000000E+00  0.12383558396E+03  0.12383558396E+03  0.00000000000E+00 0. -1.
         21   -1    0    0  501  502 -0.00000000000E+00 -0.00000000000E+00 -0.24677136055E+03  0.24677136055E+03  0.00000000000E+00 0. -1.
         25    1    1    2    0    0  0.82539920972E+02  0.39191612123E+02 -0.14748794687E+03  0.21383759138E+03  0.12500000000E+03 0.  0.
         25    1    1    2    0    0 -0.82539920972E+02 -0.39191612123E+02  0.24552170275E+02  0.15676935313E+03  0.12500000000E+03 0.  0.
</event>
<event>
 4    0  0.2219362E-002  0.3022549E+03  0.7546771E-02  0.1084119E+00
         21   -1    0    0  502  501  0.00000000000E+00  0.00000000000E+00  0.43403366885E+03  0.43403366885E+03  0.00000000000E+00 0.  1.
         21   -1    0    0  501  502 -0.00000000000E+00 -0.00000000000E+00 -0.21048609484E+03  0.21048609484E+03  0.00000000000E+00 0. -1.
         25    1    1    2    0    0  0.21653395319E+03 -0.13391361819E+03  0.22315442992E+03  0.36089154827E+03  0.12500000000E+03 0.  0.
         25    1    1    2    0    0 -0.21653395319E+03  0.13391361819E+03  0.39314408515E+00  0.28362821542E+03  0.12500000000E+03 0.  0.
</event>
<event>
 4    0  0.2219362E-002  0.2294772E+03  0.7546771E-02  0.1127008E+00
         21   -1    0    0  502  501  0.00000000000E+00  0.00000000000E+00  0.12500386596E+03  0.12500386596E+03  0.00000000000E+00 0. -1.
         21   -1    0    0  501  502 -0.00000000000E+00 -0.00000000000E+00 -0.42126508691E+03  0.42126508691E+03  0.00000000000E+00 0. -1.
         25    1    1    2    0    0 -0.18294222395E+03  0.17698297654E+02 -0.80237717795E+02  0.23631372876E+03  0.12500000000E+03 0.  0.
         25    1    1    2    0    0  0.18294222395E+03 -0.17698297654E+02 -0.21602350316E+03  0.30995522412E+03  0.12500000000E+03 0.  0.
</event>
<event>
 4    0  0.2219362E-002  0.1613272E+03  0.7546771E-02  0.1187206E+00
         21   -1    0    0  502  501  0.00000000000E+00  0.00000000000E+00  0.30349006627E+02  0.30349006627E+02  0.00000000000E+00 0.  1.
         21   -1    0    0  501  502 -0.00000000000E+00 -0.00000000000E+00 -0.85757195507E+03  0.85757195507E+03  0.00000000000E+00 0.  1.
         25    1    1    2    0    0  0.45636208708E+02  0.74871127347E+02 -0.55695243272E+03  0.57750269399E+03  0.12500000000E+03 0.  0.
         25    1    1    2    0    0 -0.45636208708E+02 -0.74871127347E+02 -0.27027051572E+03  0.31041826770E+03  0.12500000000E+03 0.  0.
</event>
<event>
 4    0  0.2219362E-002  0.2466412E+03  0.7546771E-02  0.1115446E+00
         21   -1    0    0  502  501  0.00000000000E+00  0.00000000000E+00  0.40138452168E+03  0.40138452168E+03  0.00000000000E+00 0. -1.
         21   -1    0    0  501  502 -0.00000000000E+00 -0.00000000000E+00 -0.15155508101E+03  0.15155508101E+03  0.00000000000E+00 0. -1.
         25    1    1    2    0    0 -0.10813976578E+03  0.15765167019E+03  0.20609482086E+02  0.22934255778E+03  0.12500000000E+03 0.  0.
         25    1    1    2    0    0  0.10813976578E+03 -0.15765167019E+03  0.22921995859E+03  0.32359704491E+03  0.12500000000E+03 0.  0.
</event>
<event>
 4    0  0.2219362E-002  0.2056103E+03  0.7546771E-02  0.1145090E+00
         21   -1    0    0  502  501  0.00000000000E+00  0.00000000000E+00  0.42736525900E+03  0.42736525900E+03  0.00000000000E+00 0.  1.
         21   -1    0    0  501  502 -0.00000000000E+00 -0.00000000000E+00 -0.98921450317E+02  0.98921450317E+02  0.00000000000E+00 0.  1.
         25    1    1    2    0    0  0.14530831875E+03 -0.30714470326E+02  0.25095439931E+03  0.31727117221E+03  0.12500000000E+03 0.  0.
         25    1    1    2    0    0 -0.14530831875E+03  0.30714470326E+02  0.77489409374E+02  0.20901553710E+03  0.12500000000E+03 0.  0.
</event>
<event>
 4    0  0.2219362E-002  0.2017455E+03  0.7546771E-02  0.1148275E+00
         21   -1    0    0  502  501  0.00000000000E+00  0.00000000000E+00  0.60834793597E+02  0.60834793597E+02  0.00000000000E+00 0. -1.
         21   -1    0    0  501  502 -0.00000000000E+00 -0.00000000000E+00 -0.66904579826E+03  0.66904579826E+03  0.00000000000E+00 0. -1.
         25    1    1    2    0    0 -0.22018776739E+02 -0.87215918238E+02 -0.68357320206E+02  0.16849084886E+03  0.12500000000E+03 0.  0.
         25    1    1    2    0    0  0.22018776739E+02  0.87215918238E+02 -0.53985368446E+03  0.56138974300E+03  0.12500000000E+03 0.  0.
</event>
<event>
 4    0  0.2219362E-002  0.1801803E+03  0.7546771E-02  0.1167629E+00
         21   -1    0    0  502  501  0.00000000000E+00  0.00000000000E+00  0.26651372632E+03  0.26651372632E+03  0.00000000000E+00 0.  1.
         21   -1    0    0  501  502 -0.00000000000E+00 -0.00000000000E+00 -0.12181340225E+03  0.12181340225E+03  0.00000000000E+00 0.  1.
         25    1    1    2    0    0  0.28026684586E+02 -0.10494241889E+03 -0.41640140166E+01  0.16565248367E+03  0.12500000000E+03 0.  0.
         25    1    1    2    0    0 -0.28026684586E+02  0.10494241889E+03  0.14886433809E+03  0.22267464491E+03  0.12500000000E+03 0.  0.
</event>
<event>
 4    0  0.2219362E-002  0.1459406E+03  0.7546771E-02  0.1205552E+00
         21   -1    0    0  502  501  0.00000000000E+00  0.00000000000E+00  0.44218615725E+03  0.44218615725E+03  0.00000000000E+00 0. -1.
         21   -1    0    0  501  502 -0.00000000000E+00 -0.00000000000E+00 -0.48166749808E+02  0.48166749808E+02  0.00000000000E+00 0. -1.
         25    1    1    2    0    0  0.20083276780E+02  0.32109612181E+02  0.87626701820E+02  0.15728256125E+03  0.12500000000E+03 0.  0.
         25    1    1    2    0    0 -0.20083276780E+02 -0.32109612181E+02  0.30639270562E+03  0.33307034581E+03  0.12500000000E+03 0.  0.
</event>
<event>
 4    0  0.2219362E-002  0.2240286E+03  0.7546771E-02  0.1130915E+00
         21   -1    0    0  502  501  0.00000000000E+00  0.00000000000E+00  0.50730047071E+02  0.50730047071E+02  0.00000000000E+00 0.  1.
         21   -1    0    0  501  502 -0.00000000000E+00 -0.00000000000E+00 -0.98933137566E+03  0.98933137566E+03  0.00000000000E+00 0.  1.
         25    1    1    2    0    0  0.30536884238E+02 -0.12392048788E+03 -0.15549944951E+03  0.23684143939E+03  0.12500000000E+03 0.  0.
         25    1    1    2    0    0 -0.30536884238E+02  0.12392048788E+03 -0.78310187908E+03  0.80321998334E+03  0.12500000000E+03 0.  0.
</event>
<event>
 4    0  0.2219362E-002  0.1819961E+03  0.7546771E-02  0.1165885E+00
         21   -1    0    0  502  501  0.00000000000E+00  0.00000000000E+00  0.82491041357E+03  0.82491041357E+03  0.00000000000E+00 0.  1.
         21   -1    0    0  501  502 -0.00000000000E+00 -0.00000000000E+00 -0.40152938499E+02  0.40152938499E+02  0.00000000000E+00 0.  1.
         25    1    1    2    0    0 -0.92603649423E+02 -0.93415903043E+02  0.35913945119E+03  0.40237807126E+03  0.12500000000E+03 0.  0.
         25    1    1    2    0    0  0.92603649423E+02  0.93415903043E+02  0.42561802388E+03  0.46268528081E+03  0.12500000000E+03 0.  0.
</event>
<event>
 4    0  0.2219362E-002  0.2143101E+03  0.7546771E-02  0.1138198E+00
         21   -1    0    0  502  501  0.00000000000E+00  0.00000000000E+00  0.32789678997E+02  0.32789678997E+02  0.00000000000E+00 0.  1.
         21   -1    0    0  501  502 -0.00000000000E+00 -0.00000000000E+00 -0.14007097542E+04  0.14007097542E+04  0.00000000000E+00 0.  1.
         25    1    1    2    0    0 -0.56355466575E+02  0.16326816250E+03 -0.61134679344E+03  0.64745836418E+03  0.12500000000E+03 0.  0.
         25    1    1    2    0    0  0.56355466575E+02 -0.16326816250E+03 -0.75657328176E+03  0.78604106901E+03  0.12500000000E+03 0.  0.
</event>
<event>
 4    0  0.2219362E-002  0.1361814E+03  0.7546771E-02  0.1218561E+00
         21   -1    0    0  502  501  0.00000000000E+00  0.00000000000E+00  0.90314004633E+02  0.90314004633E+02  0.00000000000E+00 0.  1.
         21   -1    0    0  501  502 -0.00000000000E+00 -0.00000000000E+00 -0.20534334917E+03  0.20534334917E+03  0.00000000000E+00 0.  1.
         25    1    1    2    0    0  0.27225344254E+01 -0.27051639996E+02 -0.10821213808E+03  0.16755318633E+03  0.12500000000E+03 0.  0.
         25    1    1    2    0    0 -0.27225344254E+01  0.27051639996E+02 -0.68172064532E+01  0.12810416747E+03  0.12500000000E+03 0.  0.
</event>
<event>
 4    0  0.2219362E-002  0.1837495E+03  0.7546771E-02  0.1164223E+00
         21   -1    0    0  502  501  0.00000000000E+00  0.00000000000E+00  0.11230411365E+03  0.11230411365E+03  0.00000000000E+00 0. -1.
         21   -1    0    0  501  502 -0.00000000000E+00 -0.00000000000E+00 -0.30064672706E+03  0.30064672706E+03  0.00000000000E+00 0. -1.
         25    1    1    2    0    0  0.10530745895E+03 -0.82965838692E+02 -0.79699258087E+02  0.19987486845E+03  0.12500000000E+03 0.  0.
         25    1    1    2    0    0 -0.10530745895E+03  0.82965838692E+02 -0.10864335532E+03  0.21307597226E+03  0.12500000000E+03 0.  0.
</event>
<event>
 4    0  0.2219362E-002  0.1780079E+03  0.7546771E-02  0.1169745E+00
         21   -1    0    0  502  501  0.00000000000E+00  0.00000000000E+00  0.23271892230E+04  0.23271892230E+04  0.00000000000E+00 0. -1.
         21   -1    0    0  501  502 -0.00000000000E+00 -0.00000000000E+00 -0.13615918076E+02  0.13615918076E+02  0.00000000000E+00 0. -1.
         25    1    1    2    0    0 -0.11445858688E+03  0.30562758602E+02  0.86076781777E+03  0.87782748102E+03  0.12500000000E+03 0.  0.
         25    1    1    2    0    0  0.11445858688E+03 -0.30562758602E+02  0.14528054872E+04  0.14629776601E+04  0.12500000000E+03 0.  0.
</event>
<event>
 4    0  0.2219362E-002  0.1815857E+03  0.7546771E-02  0.1166277E+00
         21   -1    0    0  502  501  0.00000000000E+00  0.00000000000E+00  0.77583168051E+03  0.77583168051E+03  0.00000000000E+00 0.  1.
         21   -1    0    0  501  502 -0.00000000000E+00 -0.00000000000E+00 -0.42500667892E+02  0.42500667892E+02  0.00000000000E+00 0.  1.
         25    1    1    2    0    0 -0.14558253402E+02  0.11245957958E+03  0.51764073743E+03  0.54445939502E+03  0.12500000000E+03 0.  0.
         25    1    1    2    0    0  0.14558253402E+02 -0.11245957958E+03  0.21569027519E+03  0.27387295338E+03  0.12500000000E+03 0.  0.
</event>
<event>
 4    0  0.2219362E-002  0.2768685E+03  0.7546771E-02  0.1097412E+00
         21   -1    0    0  502  501  0.00000000000E+00  0.00000000000E+00  0.10845291524E+03  0.10845291524E+03  0.00000000000E+00 0.  1.
         21   -1    0    0  501  502 -0.00000000000E+00 -0.00000000000E+00 -0.70681521715E+03  0.70681521715E+03  0.00000000000E+00 0.  1.
         25    1    1    2    0    0  0.23705559496E+03 -0.66123709524E+02 -0.26748488618E+03  0.38437073822E+03  0.12500000000E+03 0.  0.
         25    1    1    2    0    0 -0.23705559496E+03  0.66123709524E+02 -0.33087741573E+03  0.43089739417E+03  0.12500000000E+03 0.  0.
</event>
<event>
 4    0  0.2219362E-002  0.1926746E+03  0.7546771E-02  0.1156071E+00
         21   -1    0    0  502  501  0.00000000000E+00  0.00000000000E+00  0.91715046805E+03  0.91715046805E+03  0.00000000000E+00 0. -1.
         21   -1    0    0  501  502 -0.00000000000E+00 -0.00000000000E+00 -0.40477010863E+02  0.40477010863E+02  0.00000000000E+00 0. -1.
         25    1    1    2    0    0  0.12831249255E+03 -0.14560536695E+02  0.26576330757E+03  0.32082898968E+03  0.12500000000E+03 0.  0.
         25    1    1    2    0    0 -0.12831249255E+03  0.14560536695E+02  0.61091014962E+03  0.63679848923E+03  0.12500000000E+03 0.  0.
</event>
<event>
 4    0  0.2219362E-002  0.2365532E+03  0.7546771E-02  0.1122110E+00
         21   -1    0    0  502  501  0.00000000000E+00  0.00000000000E+00  0.12284399164E+03  0.12284399164E+03  0.00000000000E+00 0. -1.
         21   -1    0    0  501  502 -0.00000000000E+00 -0.00000000000E+00 -0.45551616320E+03  0.45551616320E+03  0.00000000000E+00 0. -1.
         25    1    1    2    0    0 -0.70447114536E+02  0.15893429047E+03 -0.43421120531E+02  0.21847951470E+03  0.12500000000E+03 0.  0.
         25    1    1    2    0    0  0.70447114536E+02 -0.15893429047E+03 -0.28925105103E+03  0.35988064015E+03  0.12500000000E+03 0.  0.
</event>
<event>
 4    0  0.2219362E-002  0.1841688E+03  0.7546771E-02  0.1163828E+00
         21   -1    0    0  502  501  0.00000000000E+00  0.00000000000E+00  0.78900376816E+03  0.78900376816E+03  0.00000000000E+00 0. -1.
         21   -1    0    0  501  502 -0.00000000000E+00 -0.00000000000E+00 -0.42988561618E+02  0.42988561618E+02  0.00000000000E+00 0. -1.
         25    1    1    2    0    0 -0.87448972038E+01  0.69293494546E+02  0.11138823561E+03  0.18141223952E+03  0.12500000000E+03 0.  0.
         25    1    1    2    0    0  0.87448972038E+01 -0.69293494546E+02  0.63462697093E+03  0.65058009026E+03  0.12500000000E+03 0.  0.
</event>
<event>
 4    0  0.2219362E-002  0.2600563E+03  0.7546771E-02  0.1107109E+00
         21   -1    0    0  502  501  0.00000000000E+00  0.00000000000E+00  0.79758403251E+03  0.79758403251E+03  0.00000000000E+00 0. -1.
         21   -1    0    0  501  502 -0.00000000000E+00 -0.00000000000E+00 -0.84792677520E+02  0.84792677520E+02  0.00000000000E+00 0. -1.
         25    1    1    2    0    0  0.14749535553E+03  0.16858514421E+03  0.42893922153E+03  0.49978964226E+03  0.12500000000E+03 0.  0.
         25    1    1    2    0    0 -0.14749535553E+03 -0.16858514421E+03  0.28385213347E+03  0.38258706777E+03  0.12500000000E+03 0.  0.
</event>
<event>
 4    0  0.2219362E-002  0.2215081E+03  0.7546771E-02  0.1132764E+00
         21   -1    0    0  502  501  0.00000000000E+00  0.00000000000E+00  0.25967620603E+04  0.25967620603E+04  0.00000000000E+00 0. -1.
         21   -1    0    0  501  502 -0.00000000000E+00 -0.00000000000E+00 -0.18895015590E+02  0.18895015590E+02  0.00000000000E+00 0. -1.
         25    1    1    2    0    0  0.14390910477E+03 -0.11203805043E+03  0.13678169203E+04  0.13855722581E+04  0.12500000000E+03 0.  0.
         25    1    1    2    0    0 -0.14390910477E+03  0.11203805043E+03  0.12100501244E+04  0.12300848177E+04  0.12500000000E+03 0.  0.
</event>
<event>
 4    0  0.2219362E-002  0.2167524E+03  0.7546771E-02  0.1136328E+00
         21   -1    0    0  502  501  0.00000000000E+00  0.00000000000E+00  0.72036394942E+02  0.72036394942E+02  0.00000000000E+00 0. -1.
         21   -1    0    0  501  502 -0.00000000000E+00 -0.00000000000E+00 -0.65219275565E+03  0.65219275565E+03  0.00000000000E+00 0. -1.
         25    1    1    2    0    0 -0.16727458908E+03 -0.54246400137E+01 -0.19343505536E+03  0.28469691869E+03  0.12500000000E+03 0.  0.
         25    1    1    2    0    0  0.16727458908E+03  0.54246400137E+01 -0.38672130536E+03  0.43953223191E+03  0.12500000000E+03 0.  0.
</event>
<event>
 4    0  0.2219362E-002  0.2135752E+03  0.7546771E-02  0.1138766E+00
         21   -1    0    0  502  501  0.00000000000E+00  0.00000000000E+00  0.11811318789E+04  0.11811318789E+04  0.00000000000E+00 0. -1.
         21   -1    0    0  501  502 -0.00000000000E+00 -0.00000000000E+00 -0.38619214616E+02  0.38619214616E+02  0.00000000000E+00 0. -1.
         25    1    1    2    0    0 -0.13795460538E+02 -0.15743653099E+03  0.77343294040E+03  0.79924970399E+03  0.12500000000E+03 0.  0.
         25    1    1    2    0    0  0.13795460538E+02  0.15743653099E+03  0.36907972391E+03  0.42050138956E+03  0.12500000000E+03 0.  0.
</event>
<event>
 4    0  0.2219362E-002  0.2222646E+03  0.7546771E-02  0.1132206E+00
         21   -1    0    0  502  501  0.00000000000E+00  0.00000000000E+00  0.77781353811E+02  0.77781353811E+02  0.00000000000E+00 0.  1.
         21   -1    0    0  501  502 -0.00000000000E+00 -0.00000000000E+00 -0.63513344562E+03  0.63513344562E+03  0.00000000000E+00 0.  1.
         25    1    1    2    0    0  0.10433870440E+02  0.18002953734E+03 -0.22181539597E+03  0.31200411833E+03  0.12500000000E+03 0.  0.
         25    1    1    2    0    0 -0.10433870440E+02 -0.18002953734E+03 -0.33553669585E+03  0.40091068111E+03  0.12500000000E+03 0.  0.
</event>
<event>
 4    0  0.2219362E-002  0.2083579E+03  0.7546771E-02  0.1142873E+00
         21   -1    0    0  502  501  0.00000000000E+00  0.00000000000E+00  0.10170468388E+04  0.10170468388E+04  0.00000000000E+00 0. -1.
         21   -1    0    0  501  502 -0.00000000000E+00 -0.00000000000E+00 -0.42685355235E+02  0.42685355235E+02  0.00000000000E+00 0. -1.
         25    1    1    2    0    0  0.39858576788E+02  0.47441793352E+02  0.88072723799E+03  0.89170897587E+03  0.12500000000E+03 0.  0.
         25    1    1    2    0    0 -0.39858576788E+02 -0.47441793352E+02  0.93634245576E+02  0.16802321817E+03  0.12500000000E+03 0.  0.
</event>
<event>
 4    0  0.2219362E-002  0.1676008E+03  0.7546771E-02  0.1180373E+00
         21   -1    0    0  502  501  0.00000000000E+00  0.00000000000E+00  0.25593332370E+03  0.25593332370E+03  0.00000000000E+00 0.  1.
         21   -1    0    0  501  502 -0.00000000000E+00 -0.00000000000E+00 -0.10975526076E+03  0.10975526076E+03  0.00000000000E+00 0.  1.
         25    1    1    2    0    0 -0.15072106666E+02  0.90186792194E+02  0.14297978490E+03  0.21078198399E+03  0.12500000000E+03 0.  0.
         25    1    1    2    0    0  0.15072106666E+02 -0.90186792194E+02  0.31982780301E+01  0.15490660047E+03  0.12500000000E+03 0.  0.
</event>
<event>
 4    0  0.2219362E-002  0.2726668E+03  0.7546771E-02  0.1099763E+00
         21   -1    0    0  502  501  0.00000000000E+00  0.00000000000E+00  0.17835632119E+03  0.17835632119E+03  0.00000000000E+00 0. -1.
         21   -1    0    0  501  502 -0.00000000000E+00 -0.00000000000E+00 -0.41684633948E+03  0.41684633948E+03  0.00000000000E+00 0. -1.
         25    1    1    2    0    0 -0.19364753955E+03  0.67362210499E+02  0.21738261356E+02  0.24111115483E+03  0.12500000000E+03 0.  0.
         25    1    1    2    0    0  0.19364753955E+03 -0.67362210499E+02 -0.26022827964E+03  0.35409150583E+03  0.12500000000E+03 0.  0.
</event>
<event>
 4    0  0.2219362E-002  0.2870355E+03  0.7546771E-02  0.1091907E+00
         21   -1    0    0  502  501  0.00000000000E+00  0.00000000000E+00  0.36327613090E+03  0.36327613090E+03  0.00000000000E+00 0.  1.
         21   -1    0    0  501  502 -0.00000000000E+00 -0.00000000000E+00 -0.22679543456E+03  0.22679543456E+03  0.00000000000E+00 0. -1.
         25    1    1    2    0    0 -0.89416878384E+02 -0.24041886294E+03  0.10021626303E+03  0.30243165703E+03  0.12500000000E+03 0.  0.
         25    1    1    2    0    0  0.89416878384E+02  0.24041886294E+03  0.36264433312E+02  0.28763990843E+03  0.12500000000E+03 0.  0.
</event>
<event>
 4    0  0.2219362E-002  0.2321961E+03  0.7546771E-02  0.1125104E+00
         21   -1    0    0  502  501  0.00000000000E+00  0.00000000000E+00  0.20799831634E+03  0.20799831634E+03  0.00000000000E+00 0.  1.
         21   -1    0    0  501  502 -0.00000000000E+00 -0.00000000000E+00 -0.25920903126E+03  0.25920903126E+03  0.00000000000E+00 0.  1.
         25    1    1    2    0    0 -0.83793580399E+02 -0.15481638894E+03  0.60355925971E+02  0.22418143589E+03  0.12500000000E+03 0.  0.
         25    1    1    2    0    0  0.83793580399E+02  0.15481638894E+03 -0.11156664089E+03  0.24302591170E+03  0.12500000000E+03 0.  0.
</event>
<event>
 4    0  0.2219362E-002  0.1803769E+03  0.7546771E-02  0.1167439E+00
         21   -1    0    0  502  501  0.00000000000E+00  0.00000000000E+00  0.31408658446E+02  0.31408658446E+02  0.00000000000E+00 0.  1.
         21   -1    0    0  501  502 -0.00000000000E+00 -0.00000000000E+00 -0.10358867754E+04  0.10358867754E+04  0.00000000000E+00 0.  1.
         25    1    1    2    0    0 -0.30604707872E+02 -0.12538239974E+03 -0.45514198439E+03  0.48932261369E+03  0.12500000000E+03 0.  0.
         25    1    1    2    0    0  0.30604707872E+02  0.12538239974E+03 -0.54933613259E+03  0.57797282019E+03  0.12500000000E+03 0.  0.
</event>
<event>
 4    0  0.2219362E-002  0.1889618E+03  0.7546771E-02  0.1159401E+00
         21   -1    0    0  502  501  0.00000000000E+00  0.00000000000E+00  0.27863843511E+03  0.27863843511E+03  0.00000000000E+00 0.  1.
         21   -1    0    0  501  502 -0.00000000000E+00 -0.00000000000E+00 -0.12814662381E+03  0.12814662381E+03  0.00000000000E+00 0.  1.
         25    1    1    2    0    0 -0.81996571142E+02  0.81773408836E+02  0.16316119319E+03  0.23591715290E+03  0.12500000000E+03 0.  0.
         25    1    1    2    0    0  0.81996571142E+02 -0.81773408836E+02 -0.12669381889E+02  0.17086790602E+03  0.12500000000E+03 0.  0.
</event>
<event>
 4    0  0.2219362E-002  0.1994706E+03  0.7546771E-02  0.1150186E+00
         21   -1    0    0  502  501  0.00000000000E+00  0.00000000000E+00  0.45762546613E+02  0.45762546613E+02  0.00000000000E+00 0. -1.
         21   -1    0    0  501  502 -0.00000000000E+00 -0.00000000000E+00 -0.86945583271E+03  0.86945583271E+03  0.00000000000E+00 0. -1.
         25    1    1    2    0    0 -0.56357635071E+01  0.60036652866E+02 -0.83159782952E+02  0.16179218466E+03  0.12500000000E+03 0.  0.
         25    1    1    2    0    0  0.56357635071E+01 -0.60036652866E+02 -0.74053350314E+03  0.75342619466E+03  0.12500000000E+03 0.  0.
</event>
<event>
 4    0  0.2219362E-002  0.3858846E+03  0.7546771E-02  0.1048780E+00
         21   -1    0    0  502  501  0.00000000000E+00  0.00000000000E+00  0.39494267442E+03  0.39494267442E+03  0.00000000000E+00 0. -1.
         21   -1    0    0  501  502 -0.00000000000E+00 -0.00000000000E+00 -0.37703420842E+03  0.37703420842E+03  0.00000000000E+00 0. -1.
         25    1    1    2    0    0 -0.14860434388E+03  0.29923617275E+03 -0.13824638279E+03  0.38257365364E+03  0.12500000000E+03 0.  0.
         25    1    1    2    0    0  0.14860434388E+03 -0.29923617275E+03  0.15615484880E+03  0.38940322920E+03  0.12500000000E+03 0.  0.
</event>
<event>
 4    0  0.2219362E-002  0.1653829E+03  0.7546771E-02  0.1182750E+00
         21   -1    0    0  502  501  0.00000000000E+00  0.00000000000E+00  0.86423202982E+03  0.86423202982E+03  0.00000000000E+00 0.  1.
         21   -1    0    0  501  502 -0.00000000000E+00 -0.00000000000E+00 -0.31648349376E+02  0.31648349376E+02  0.00000000000E+00 0.  1.
         25    1    1    2    0    0 -0.87147033759E+02 -0.63036034179E+02  0.45037704807E+03  0.47961717289E+03  0.12500000000E+03 0.  0.
         25    1    1    2    0    0  0.87147033759E+02  0.63036034179E+02  0.38220663238E+03  0.41626320631E+03  0.12500000000E+03 0.  0.
</event>
<event>
 4    0  0.2219362E-002  0.2770928E+03  0.7546771E-02  0.1097287E+00
         21   -1    0    0  502  501  0.00000000000E+00  0.00000000000E+00  0.45622142260E+03  0.45622142260E+03  0.00000000000E+00 0. -1.
         21   -1    0    0  501  502 -0.00000000000E+00 -0.00000000000E+00 -0.16829645362E+03  0.16829645362E+03  0.00000000000E+00 0. -1.
         25    1    1    2    0    0 -0.20237629910E+03  0.10994924359E+03  0.24544983103E+03  0.35904821704E+03  0.12500000000E+03 0.  0.
         25    1    1    2    0    0  0.20237629910E+03 -0.10994924359E+03  0.42475137941E+02  0.26546965918E+03  0.12500000000E+03 0.  0.
</event>
<event>
 4    0  0.2219362E-002  0.3966474E+03  0.7546771E-02  0.1044947E+00
         21   -1    0    0  502  501  0.00000000000E+00  0.00000000000E+00  0.26000899324E+03  0.26000899324E+03  0.00000000000E+00 0.  1.
         21   -1    0    0  501  502 -0.00000000000E+00 -0.00000000000E+00 -0.60509121763E+03  0.60509121763E+03  0.00000000000E+00 0.  1.
         25    1    1    2    0    0  0.31289281489E+03  0.17583686800E+03 -0.29632129292E+03  0.48192512530E+03  0.12500000000E+03 0.  0.
         25    1    1    2    0    0 -0.31289281489E+03 -0.17583686800E+03 -0.48760931464E+02  0.38317508556E+03  0.12500000000E+03 0.  0.
</event>
<event>
 4    0  0.2219362E-002  0.2223073E+03  0.7546771E-02  0.1132174E+00
         21   -1    0    0  502  501  0.00000000000E+00  0.00000000000E+00  0.42933620703E+03  0.42933620703E+03  0.00000000000E+00 0. -1.
         21   -1    0    0  501  502 -0.00000000000E+00 -0.00000000000E+00 -0.11510921175E+03  0.11510921175E+03  0.00000000000E+00 0. -1.
         25    1    1    2    0    0  0.11930011220E+03 -0.13779931351E+03  0.18646105906E+03  0.28916067181E+03  0.12500000000E+03 0.  0.
         25    1    1    2    0    0 -0.11930011220E+03  0.13779931351E+03  0.12776593622E+03  0.25528474697E+03  0.12500000000E+03 0.  0.
</event>
<event>
 4    0  0.2219362E-002  0.2351404E+03  0.7546771E-02  0.1123073E+00
         21   -1    0    0  502  501  0.00000000000E+00  0.00000000000E+00  0.86422827712E+03  0.86422827712E+03  0.00000000000E+00 0.  1.
         21   -1    0    0  501  502 -0.00000000000E+00 -0.00000000000E+00 -0.63977296781E+02  0.63977296781E+02  0.00000000000E+00 0.  1.
         25    1    1    2    0    0 -0.57517284290E+02  0.98201506029E+02  0.77530062670E+02  0.18597764488E+03  0.12500000000E+03 0.  0.
         25    1    1    2    0    0  0.57517284290E+02 -0.98201506029E+02  0.72272091766E+03  0.74222792901E+03  0.12500000000E+03 0.  0.
</event>
<event>
 4    0  0.2219362E-002  0.1850821E+03  0.7546771E-02  0.1162973E+00
         21   -1    0    0  502  501  0.00000000000E+00  0.00000000000E+00  0.15754826039E+04  0.15754826039E+04  0.00000000000E+00 0. -1.
         21   -1    0    0  501  502 -0.00000000000E+00 -0.00000000000E+00 -0.21742784059E+02  0.21742784059E+02  0.00000000000E+00 0. -1.
         25    1    1    2    0    0 -0.33798454828E+02 -0.34690520746E+02  0.22623909610E+03  0.26297318567E+03  0.12500000000E+03 0.  0.
         25    1    1    2    0    0  0.33798454828E+02  0.34690520746E+02  0.13275007238E+04  0.13342522023E+04  0.12500000000E+03 0.  0.
</event>
<event>
 4    0  0.2219362E-002  0.3749563E+03  0.7546771E-02  0.1052814E+00
         21   -1    0    0  502  501  0.00000000000E+00  0.00000000000E+00  0.61914413901E+02  0.61914413901E+02  0.00000000000E+00 0.  1.
         21   -1    0    0  501  502 -0.00000000000E+00 -0.00000000000E+00 -0.22707505830E+04  0.22707505830E+04  0.00000000000E+00 0.  1.
         25    1    1    2    0    0 -0.35890888736E+02 -0.33807955470E+03 -0.14056993574E+04  0.14516203445E+04  0.12500000000E+03 0.  0.
         25    1    1    2    0    0  0.35890888736E+02  0.33807955470E+03 -0.80313681170E+03  0.88104465240E+03  0.12500000000E+03 0.  0.
</event>
<event>
 4    0  0.2219362E-002  0.2552644E+03  0.7546771E-02  0.1110022E+00
         21   -1    0    0  502  501  0.00000000000E+00  0.00000000000E+00  0.80978357828E+03  0.80978357828E+03  0.00000000000E+00 0.  1.
         21   -1    0    0  501  502 -0.00000000000E+00 -0.00000000000E+00 -0.80465860607E+02  0.80465860607E+02  0.00000000000E+00 0.  1.
         25    1    1    2    0    0 -0.56269514647E+02  0.20709924023E+03  0.26181169210E+03  0.36086938870E+03  0.12500000000E+03 0.  0.
         25    1    1    2    0    0  0.56269514647E+02 -0.20709924023E+03  0.46750602557E+03  0.52938005018E+03  0.12500000000E+03 0.  0.
</event>
<event>
 4    0  0.2219362E-002  0.2128974E+03  0.7546771E-02  0.1139292E+00
         21   -1    0    0  502  501  0.00000000000E+00  0.00000000000E+00  0.82641673231E+03  0.82641673231E+03  0.00000000000E+00 0. -1.
         21   -1    0    0  501  502 -0.00000000000E+00 -0.00000000000E+00 -0.54845582357E+02  0.54845582357E+02  0.00000000000E+00 0. -1.
         25    1    1    2    0    0 -0.96691860993E+02 -0.42918840101E+02  0.10420941419E+03  0.19410292327E+03  0.12500000000E+03 0.  0.
         25    1    1    2    0    0  0.96691860993E+02  0.42918840101E+02  0.66736173576E+03  0.68715939139E+03  0.12500000000E+03 0.  0.
</event>
<event>
 4    0  0.2219362E-002  0.1845813E+03  0.7546771E-02  0.1163441E+00
         21   -1    0    0  502  501  0.00000000000E+00  0.00000000000E+00  0.10235658670E+04  0.10235658670E+04  0.00000000000E+00 0. -1.
         21   -1    0    0  501  502 -0.00000000000E+00 -0.00000000000E+00 -0.33285851461E+02  0.33285851461E+02  0.00000000000E+00 0. -1.
         25    1    1    2    0    0  0.33843858064E+02  0.27077741078E+02  0.12666020682E+03  0.18315681473E+03  0.12500000000E+03 0.  0.
         25    1    1    2    0    0 -0.33843858064E+02 -0.27077741078E+02  0.86361980871E+03  0.87369490372E+03  0.12500000000E+03 0.  0.
</event>
<event>
 4    0  0.2219362E-002  0.1848725E+03  0.7546771E-02  0.1163169E+00
         21   -1    0    0  502  501  0.00000000000E+00  0.00000000000E+00  0.48627255936E+03  0.48627255936E+03  0.00000000000E+00 0. -1.
         21   -1    0    0  501  502 -0.00000000000E+00 -0.00000000000E+00 -0.70285326387E+02  0.70285326387E+02  0.00000000000E+00 0. -1.
         25    1    1    2    0    0  0.61448547177E+02 -0.12037722886E+03  0.23345965747E+03  0.29731298802E+03  0.12500000000E+03 0.  0.
         25    1    1    2    0    0 -0.61448547177E+02  0.12037722886E+03  0.18252757550E+03  0.25924489773E+03  0.12500000000E+03 0.  0.
</event>
<event>
 4    0  0.2219362E-002  0.3039381E+03  0.7546771E-02  0.1083288E+00
         21   -1    0    0  502  501  0.00000000000E+00  0.00000000000E+00  0.64448556770E+03  0.64448556770E+03  0.00000000000E+00 0. -1.
         21   -1    0    0  501  502 -0.00000000000E+00 -0.00000000000E+00 -0.14333660784E+03  0.14333660784E+03  0.00000000000E+00 0. -1.
         25    1    1    2    0    0 -0.65649012860E+02 -0.19712663081E+03  0.13063543419E+02  0.24282577629E+03  0.12500000000E+03 0.  0.
         25    1    1    2    0    0  0.65649012860E+02  0.19712663081E+03  0.48808541644E+03  0.54499639926E+03  0.12500000000E+03 0.  0.
</event>
<event>
 4    0  0.2219362E-002  0.2641256E+03  0.7546771E-02  0.1104690E+00
         21   -1    0    0  502  501  0.00000000000E+00  0.00000000000E+00  0.10476333891E+03  0.10476333891E+03  0.00000000000E+00 0.  1.
         21   -1    0    0  501  502 -0.00000000000E+00 -0.00000000000E+00 -0.66590400996E+03  0.66590400996E+03  0.00000000000E+00 0.  1.
         25    1    1    2    0    0  0.15311093543E+03  0.10089354411E+03 -0.71611480628E+02  0.23318591284E+03  0.12500000000E+03 0.  0.
         25    1    1    2    0    0 -0.15311093543E+03 -0.10089354411E+03 -0.48952919043E+03  0.53748143603E+03  0.12500000000E+03 0.  0.
</event>
<event>
 4    0  0.2219362E-002  0.1798349E+03  0.7546771E-02  0.1167963E+00
         21   -1    0    0  502  501  0.00000000000E+00  0.00000000000E+00  0.73087913076E+02  0.73087913076E+02  0.00000000000E+00 0. -1.
         21   -1    0    0  501  502 -0.00000000000E+00 -0.00000000000E+00 -0.44248902659E+03  0.44248902659E+03  0.00000000000E+00 0. -1.
         25    1    1    2    0    0 -0.42827005634E+02  0.13419521971E+02 -0.10893156388E+02  0.13325875895E+03  0.12500000000E+03 0.  0.
         25    1    1    2    0    0  0.42827005634E+02 -0.13419521971E+02 -0.35850795713E+03  0.38231818072E+03  0.12500000000E+03 0.  0.
</event>
<event>
 4    0  0.2219362E-002  0.1508794E+03  0.7546771E-02  0.1199397E+00
         21   -1    0    0  502  501  0.00000000000E+00  0.00000000000E+00  0.13208435127E+03  0.13208435127E+03  0.00000000000E+00 0.  1.
         21   -1    0    0  501  502 -0.00000000000E+00 -0.00000000000E+00 -0.17234896454E+03  0.17234896454E+03  0.00000000000E+00 0.  1.
         25    1    1    2    0    0 -0.38111752965E+02  0.45005124589E+02 -0.81180053308E+02  0.16029088561E+03  0.12500000000E+03 0.  0.
         25    1    1    2    0    0  0.38111752965E+02 -0.45005124589E+02  0.40915440036E+02  0.14414243021E+03  0.12500000000E+03 0.  0.
</event>
<event>
 4    0  0.2219362E-002  0.3323994E+03  0.7546771E-02  0.1070080E+00
         21   -1    0    0  502  501  0.00000000000E+00  0.00000000000E+00  0.40440674693E+03  0.40440674693E+03  0.00000000000E+00 0.  1.
         21   -1    0    0  501  502 -0.00000000000E+00 -0.00000000000E+00 -0.27321350029E+03  0.27321350029E+03  0.00000000000E+00 0.  1.
         25    1    1    2    0    0  0.91231186150E+02 -0.21732674704E+03  0.26768879774E+03  0.37793694810E+03  0.12500000000E+03 0.  0.
         25    1    1    2    0    0 -0.91231186150E+02  0.21732674704E+03 -0.13649555110E+03  0.29968329912E+03  0.12500000000E+03 0.  0.
</event>
<event>
 4    0  0.2219362E-002  0.2272937E+03  0.7546771E-02  0.1128559E+00
         21   -1    0    0  502  501  0.00000000000E+00  0.00000000000E+00  0.80310929219E+03  0.80310929219E+03  0.00000000000E+00 0. -1.
         21   -1    0    0  501  502 -0.00000000000E+00 -0.00000000000E+00 -0.64327989867E+02  0.64327989867E+02  0.00000000000E+00 0. -1.
         25    1    1    2    0    0 -0.54090844896E+01 -0.16381281721E+03  0.18662754885E+03  0.27806247368E+03  0.12500000000E+03 0.  0.
         25    1    1    2    0    0  0.54090844896E+01  0.16381281721E+03  0.55215375347E+03  0.58937480837E+03  0.12500000000E+03 0.  0.
</event>
<event>
 4    0  0.2219362E-002  0.2307790E+03  0.7546771E-02  0.1126093E+00
         21   -1    0    0  502  501  0.00000000000E+00  0.00000000000E+00  0.47805968381E+02  0.47805968381E+02  0.00000000000E+00 0.  1.
         21   -1    0    0  501  502 -0.00000000000E+00 -0.00000000000E+00 -0.11140651426E+04  0.11140651426E+04  0.00000000000E+00 0.  1.
         25    1    1    2    0    0  0.90462457950E+02 -0.14578947515E+03 -0.30523664567E+03  0.37179623078E+03  0.12500000000E+03 0.  0.
         25    1    1    2    0    0 -0.90462457950E+02  0.14578947515E+03 -0.76102252851E+03  0.79007488017E+03  0.12500000000E+03 0.  0.
</event>
<event>
 4    0  0.2219362E-002  0.2211361E+03  0.7546771E-02  0.1133039E+00
         21   -1    0    0  502  501  0.00000000000E+00  0.00000000000E+00  0.14142762114E+04  0.14142762114E+04  0.00000000000E+00 0. -1.
         21   -1    0    0  501  502 -0.00000000000E+00 -0.00000000000E+00 -0.34576834952E+02  0.34576834952E+02  0.00000000000E+00 0. -1.
         25    1    1    2    0    0  0.31001707088E+02  0.16226361358E+03  0.43640174106E+03  0.48307563149E+03  0.12500000000E+03 0.  0.
         25    1    1    2    0    0 -0.31001707088E+02 -0.16226361358E+03  0.94329763534E+03  0.96577741482E+03  0.12500000000E+03 0.  0.
</event>
<event>
 4    0  0.2219362E-002  0.2266534E+03  0.7546771E-02  0.1129018E+00
         21   -1    0    0  502  501  0.00000000000E+00  0.00000000000E+00  0.33032144146E+03  0.33032144146E+03  0.00000000000E+00 0. -1.
         21   -1    0    0  501  502 -0.00000000000E+00 -0.00000000000E+00 -0.15552053676E+03  0.15552053676E+03  0.00000000000E+00 0. -1.
         25    1    1    2    0    0 -0.18823923507E+03 -0.12530926317E+02  0.10077548067E+03  0.24773318558E+03  0.12500000000E+03 0.  0.
         25    1    1    2    0    0  0.18823923507E+03  0.12530926317E+02  0.74025424023E+02  0.23810879264E+03  0.12500000000E+03 0.  0.
</event>
<event>
 4    0  0.2219362E-002  0.2430368E+03  0.7546771E-02  0.1117786E+00
         21   -1    0    0  502  501  0.00000000000E+00  0.00000000000E+00  0.13460864911E+03  0.13460864911E+03  0.00000000000E+00 0.  1.
         21   -1    0    0  501  502 -0.00000000000E+00 -0.00000000000E+00 -0.43880440702E+03  0.43880440702E+03  0.00000000000E+00 0.  1.
         25    1    1    2    0    0 -0.17459152256E+03 -0.10824833029E+03 -0.19367177806E+03  0.30876149109E+03  0.12500000000E+03 0.  0.
         25    1    1    2    0    0  0.17459152256E+03  0.10824833029E+03 -0.11052397986E+03  0.26465156505E+03  0.12500000000E+03 0.  0.
</event>
<event>
 4    0  0.2219362E-002  0.2070240E+03  0.7546771E-02  0.1143945E+00
         21   -1    0    0  502  501  0.00000000000E+00  0.00000000000E+00  0.51249535988E+03  0.51249535988E+03  0.00000000000E+00 0.  1.
         21   -1    0    0  501  502 -0.00000000000E+00 -0.00000000000E+00 -0.83627942760E+02  0.83627942760E+02  0.00000000000E+00 0.  1.
         25    1    1    2    0    0  0.14173241452E+03 -0.82960351508E+02  0.23780175854E+03  0.31487326595E+03  0.12500000000E+03 0.  0.
         25    1    1    2    0    0 -0.14173241452E+03  0.82960351508E+02  0.19106565858E+03  0.28125003669E+03  0.12500000000E+03 0.  0.
</event>
<event>
 4    0  0.2219362E-002  0.1925272E+03  0.7546771E-02  0.1156201E+00
         21   -1    0    0  502  501  0.00000000000E+00  0.00000000000E+00  0.48161229487E+03  0.48161229487E+03  0.00000000000E+00 0.  1.
         21   -1    0    0  501  502 -0.00000000000E+00 -0.00000000000E+00 -0.76963855096E+02  0.76963855096E+02  0.00000000000E+00 0.  1.
         25    1    1    2    0    0 -0.10590019250E+03  0.98953169069E+02  0.23258526382E+03  0.30121003534E+03  0.12500000000E+03 0.  0.
         25    1    1    2    0    0  0.10590019250E+03 -0.98953169069E+02  0.17206317595E+03  0.25736611463E+03  0.12500000000E+03 0.  0.
</event>
<event>
 4    0  0.2219362E-002  0.2262895E+03  0.7546771E-02  0.1129279E+00
         21   -1    0    0  502  501  0.00000000000E+00  0.00000000000E+00  0.12150499104E+04  0.12150499104E+04  0.00000000000E+00 0.  1.
         21   -1    0    0  501  502 -0.00000000000E+00 -0.00000000000E+00 -0.42143890182E+02  0.42143890182E+02  0.00000000000E+00 0.  1.
         25    1    1    2    0    0 -0.70598371493E+02 -0.17440133482E+03  0.54898048581E+03  0.59363669819E+03  0.12500000000E+03 0.  0.
         25    1    1    2    0    0  0.70598371493E+02  0.17440133482E+03  0.62392553442E+03  0.66355710240E+03  0.12500000000E+03 0.  0.
</event>
<event>
 4    0  0.2219362E-002  0.3095812E+03  0.7546771E-02  0.1080547E+00
         21   -1    0    0  502  501  0.00000000000E+00  0.00000000000E+00  0.39364248871E+03  0.39364248871E+03  0.00000000000E+00 0. -1.
         21   -1    0    0  501  502 -0.00000000000E+00 -0.00000000000E+00 -0.24347092467E+03  0.24347092467E+03  0.00000000000E+00 0. -1.
         25    1    1    2    0    0 -0.18675346057E+03  0.21267606143E+03  0.64415046671E+02  0.31604154850E+03  0.12500000000E+03 0.  0.
         25    1    1    2    0    0  0.18675346057E+03 -0.21267606143E+03  0.85756517375E+02  0.32107186488E+03  0.12500000000E+03 0.  0.
</event>
<event>
 4    0  0.2219362E-002  0.1998553E+03  0.7546771E-02  0.1149861E+00
         21   -1    0    0  502  501  0.00000000000E+00  0.00000000000E+00  0.79795241675E+02  0.79795241675E+02  0.00000000000E+00 0.  1.
         21   -1    0    0  501  502 -0.00000000000E+00 -0.00000000000E+00 -0.50055803231E+03  0.50055803231E+03  0.00000000000E+00 0.  1.
         25    1    1    2    0    0  0.13984289067E+02 -0.12317223090E+03 -0.34774221212E+03  0.38976480715E+03  0.12500000000E+03 0.  0.
         25    1    1    2    0    0 -0.13984289067E+02  0.12317223090E+03 -0.73020578524E+02  0.19058846684E+03  0.12500000000E+03 0.  0.
</event>
<event>
 4    0  0.2219362E-002  0.2721534E+03  0.7546771E-02  0.1100053E+00
         21   -1    0    0  502  501  0.00000000000E+00  0.00000000000E+00  0.17403779820E+03  0.17403779820E+03  0.00000000000E+00 0.  1.
         21   -1    0    0  501  502 -0.00000000000E+00 -0.00000000000E+00 -0.42558258915E+03  0.42558258915E+03  0.00000000000E+00 0.  1.
         25    1    1    2    0    0  0.78494688604E+02  0.18527659681E+03 -0.27338000025E+03  0.36173257802E+03  0.12500000000E+03 0.  0.
         25    1    1    2    0    0 -0.78494688604E+02 -0.18527659681E+03  0.21835209303E+02  0.23788780933E+03  0.12500000000E+03 0.  0.
</event>
<event>
 4    0  0.2219362E-002  0.3197282E+03  0.7546771E-02  0.1075774E+00
         21   -1    0    0  502  501  0.00000000000E+00  0.00000000000E+00  0.34447427103E+03  0.34447427103E+03  0.00000000000E+00 0.  1.
         21   -1    0    0  501  502 -0.00000000000E+00 -0.00000000000E+00 -0.29675986786E+03  0.29675986786E+03  0.00000000000E+00 0.  1.
         25    1    1    2    0    0  0.13468764349E+03 -0.13149038800E+03 -0.20298097723E+03  0.30373798011E+03  0.12500000000E+03 0.  0.
         25    1    1    2    0    0 -0.13468764349E+03  0.13149038800E+03  0.25069538039E+03  0.33749615878E+03  0.12500000000E+03 0.  0.
</event>
<event>
 4    0  0.2219362E-002  0.1804301E+03  0.7546771E-02  0.1167387E+00
         21   -1    0    0  502  501  0.00000000000E+00  0.00000000000E+00  0.21294906800E+04  0.21294906800E+04  0.00000000000E+00 0.  1.
         21   -1    0    0  501  502 -0.00000000000E+00 -0.00000000000E+00 -0.15287702653E+02  0.15287702653E+02  0.00000000000E+00 0.  1.
         25    1    1    2    0    0 -0.12435448540E+03  0.13507914344E+02  0.84416773309E+03  0.86249096423E+03  0.12500000000E+03 0.  0.
         25    1    1    2    0    0  0.12435448540E+03 -0.13507914344E+02  0.12700352443E+04  0.12822874184E+04  0.12500000000E+03 0.  0.
</event>
<event>
 4    0  0.2219362E-002  0.2153661E+03  0.7546771E-02  0.1137386E+00
         21   -1    0    0  502  501  0.00000000000E+00  0.00000000000E+00  0.91728744378E+02  0.91728744378E+02  0.00000000000E+00 0. -1.
         21   -1    0    0  501  502 -0.00000000000E+00 -0.00000000000E+00 -0.50564892593E+03  0.50564892593E+03  0.00000000000E+00 0. -1.
         25    1    1    2    0    0  0.91057383591E+02  0.13690186684E+03 -0.29159411114E+03  0.35733135029E+03  0.12500000000E+03 0.  0.
         25    1    1    2    0    0 -0.91057383591E+02 -0.13690186684E+03 -0.12232607041E+03  0.24004632002E+03  0.12500000000E+03 0.  0.
</event>
<event>
 4    0  0.2219362E-002  0.2443757E+03  0.7546771E-02  0.1116912E+00
         21   -1    0    0  502  501  0.00000000000E+00  0.00000000000E+00  0.24193965685E+02  0.24193965685E+02  0.00000000000E+00 0. -1.
         21   -1    0    0  501  502 -0.00000000000E+00 -0.00000000000E+00 -0.24683636645E+04  0.24683636645E+04  0.00000000000E+00 0. -1.
         25    1    1    2    0    0 -0.17787851350E+03  0.50966609012E+02 -0.17283880259E+04  0.17427531463E+04  0.12500000000E+03 0.  0.
         25    1    1    2    0    0  0.17787851350E+03 -0.50966609012E+02 -0.71578167291E+03  0.74980448390E+03  0.12500000000E+03 0.  0.
</event>
<event>
 4    0  0.2219362E-002  0.2080588E+03  0.7546771E-02  0.1143112E+00
         21   -1    0    0  502  501  0.00000000000E+00  0.00000000000E+00  0.88054943587E+02  0.88054943587E+02  0.00000000000E+00 0.  1.
         21   -1    0    0  501  502 -0.00000000000E+00 -0.00000000000E+00 -0.49160738872E+03  0.49160738872E+03  0.00000000000E+00 0.  1.
         25    1    1    2    0    0 -0.15610939440E+03 -0.57293259676E+02 -0.20635422511E+03  0.29301830463E+03  0.12500000000E+03 0.  0.
         25    1    1    2    0    0  0.15610939440E+03  0.57293259676E+02 -0.19719822003E+03  0.28664402768E+03  0.12500000000E+03 0.  0.
</event>
<event>
 4    0  0.2219362E-002  0.2339005E+03  0.7546771E-02  0.1123924E+00
         21   -1    0    0  502  501  0.00000000000E+00  0.00000000000E+00  0.28832335164E+04  0.28832335164E+04  0.00000000000E+00 0. -1.
         21   -1    0    0  501  502 -0.00000000000E+00 -0.00000000000E+00 -0.18975035878E+02  0.18975035878E+02  0.00000000000E+00 0. -1.
         25    1    1    2    0    0 -0.15854582683E+03 -0.11684729048E+03  0.13256831745E+04  0.13460501282E+04  0.12500000000E+03 0.  0.
         25    1    1    2    0    0  0.15854582683E+03  0.11684729048E+03  0.15385753060E+04  0.15561584241E+04  0.12500000000E+03 0.  0.
</event>
<event>
 4    0  0.2219362E-002  0.1919142E+03  0.7546771E-02  0.1156746E+00
         21   -1    0    0  502  501  0.00000000000E+00  0.00000000000E+00  0.29256029431E+03  0.29256029431E+03  0.00000000000E+00 0. -1.
         21   -1    0    0  501  502 -0.00000000000E+00 -0.00000000000E+00 -0.12589224905E+03  0.12589224905E+03  0.00000000000E+00 0. -1.
         25    1    1    2    0    0  0.52503369243E+02 -0.13582237495E+03  0.84777102335E+02  0.20980104480E+03  0.12500000000E+03 0.  0.
         25    1    1    2    0    0 -0.52503369243E+02  0.13582237495E+03  0.81890942925E+02  0.20865149856E+03  0.12500000000E+03 0.  0.
</event>
<event>
 4    0  0.2219362E-002  0.2143341E+03  0.7546771E-02  0.1138179E+00
         21   -1    0    0  502  501  0.00000000000E+00  0.00000000000E+00  0.16951955651E+03  0.16951955651E+03  0.00000000000E+00 0. -1.
         21   -1    0    0  501  502 -0.00000000000E+00 -0.00000000000E+00 -0.27099584587E+03  0.27099584587E+03  0.00000000000E+00 0. -1.
         25    1    1    2    0    0 -0.23327849560E+02  0.10041412654E+03  0.93449704028E+02  0.18704286289E+03  0.12500000000E+03 0.  0.
         25    1    1    2    0    0  0.23327849560E+02 -0.10041412654E+03 -0.19492599339E+03  0.25347253949E+03  0.12500000000E+03 0.  0.
</event>
<event>
 4    0  0.2219362E-002  0.1691677E+03  0.7546771E-02  0.1178719E+00
         21   -1    0    0  502  501  0.00000000000E+00  0.00000000000E+00  0.47308098546E+02  0.47308098546E+02  0.00000000000E+00 0.  1.
         21   -1    0    0  501  502 -0.00000000000E+00 -0.00000000000E+00 -0.60492191737E+03  0.60492191737E+03  0.00000000000E+00 0.  1.
         25    1    1    2    0    0 -0.66146156442E+02  0.11626262728E+02 -0.10126201477E+03  0.17432578591E+03  0.12500000000E+03 0.  0.
         25    1    1    2    0    0  0.66146156442E+02 -0.11626262728E+02 -0.45635180405E+03  0.47790423000E+03  0.12500000000E+03 0.  0.
</event>
<event>
 4    0  0.2219362E-002  0.3266258E+03  0.7546771E-02  0.1072640E+00
         21   -1    0    0  502  501  0.00000000000E+00  0.00000000000E+00  0.41879417595E+02  0.41879417595E+02  0.00000000000E+00 0.  1.
         21   -1    0    0  501  502 -0.00000000000E+00 -0.00000000000E+00 -0.25474186422E+04  0.25474186422E+04  0.00000000000E+00 0.  1.
         25    1    1    2    0    0  0.24790319504E+03  0.28585369519E+02 -0.58026629224E+03  0.64389990477E+03  0.12500000000E+03 0.  0.
         25    1    1    2    0    0 -0.24790319504E+03 -0.28585369519E+02 -0.19252729324E+04  0.19453981551E+04  0.12500000000E+03 0.  0.
</event>
<event>
 4    0  0.2219362E-002  0.2610594E+03  0.7546771E-02  0.1106508E+00
         21   -1    0    0  502  501  0.00000000000E+00  0.00000000000E+00  0.10116929532E+04  0.10116929532E+04  0.00000000000E+00 0.  1.
         21   -1    0    0  501  502 -0.00000000000E+00 -0.00000000000E+00 -0.67364334171E+02  0.67364334171E+02  0.00000000000E+00 0.  1.
         25    1    1    2    0    0  0.15453997330E+03  0.11956772242E+03  0.71971862017E+03  0.75617387935E+03  0.12500000000E+03 0.  0.
         25    1    1    2    0    0 -0.15453997330E+03 -0.11956772242E+03  0.22460999889E+03  0.32288340805E+03  0.12500000000E+03 0.  0.
</event>
<event>
 4    0  0.2219362E-002  0.1734090E+03  0.7546771E-02  0.1174339E+00
         21   -1    0    0  502  501  0.00000000000E+00  0.00000000000E+00  0.15171161756E+03  0.15171161756E+03  0.00000000000E+00 0.  1.
         21   -1    0    0  501  502 -0.00000000000E+00 -0.00000000000E+00 -0.19820947640E+03  0.19820947640E+03  0.00000000000E+00 0.  1.
         25    1    1    2    0    0  0.76605891054E+01 -0.11956883270E+03 -0.32836047797E+02  0.17623449269E+03  0.12500000000E+03 0.  0.
         25    1    1    2    0    0 -0.76605891054E+01  0.11956883270E+03 -0.13661811051E+02  0.17368660127E+03  0.12500000000E+03 0.  0.
</event>
<event>
 4    0  0.2219362E-002  0.2151379E+03  0.7546771E-02  0.1137561E+00
         21   -1    0    0  502  501  0.00000000000E+00  0.00000000000E+00  0.12079815583E+04  0.12079815583E+04  0.00000000000E+00 0. -1.
         21   -1    0    0  501  502 -0.00000000000E+00 -0.00000000000E+00 -0.38315406133E+02  0.38315406133E+02  0.00000000000E+00 0. -1.
         25    1    1    2    0    0  0.80438646451E+02  0.13325183860E+03  0.35251807619E+03  0.40511778827E+03  0.12500000000E+03 0.  0.
         25    1    1    2    0    0 -0.80438646451E+02 -0.13325183860E+03  0.81714807597E+03  0.84117917615E+03  0.12500000000E+03 0.  0.
</event>
<event>
 4    0  0.2219362E-002  0.4166191E+03  0.7546771E-02  0.1038172E+00
         21   -1    0    0  502  501  0.00000000000E+00  0.00000000000E+00  0.41295161798E+03  0.41295161798E+03  0.00000000000E+00 0. -1.
         21   -1    0    0  501  502 -0.00000000000E+00 -0.00000000000E+00 -0.42031908384E+03  0.42031908384E+03  0.00000000000E+00 0. -1.
         25    1    1    2    0    0 -0.13664862660E+03  0.67834919007E+02  0.36330748095E+03  0.41339055275E+03  0.12500000000E+03 0.  0.
         25    1    1    2    0    0  0.13664862660E+03 -0.67834919007E+02 -0.37067494681E+03  0.41988014907E+03  0.12500000000E+03 0.  0.
</event>
<event>
 4    0  0.2219362E-002  0.1900521E+03  0.7546771E-02  0.1158414E+00
         21   -1    0    0  502  501  0.00000000000E+00  0.00000000000E+00  0.82146537356E+02  0.82146537356E+02  0.00000000000E+00 0.  1.
         21   -1    0    0  501  502 -0.00000000000E+00 -0.00000000000E+00 -0.43969958467E+03  0.43969958467E+03  0.00000000000E+00 0.  1.
         25    1    1    2    0    0 -0.93130313191E+01  0.76919394017E+02 -0.34404729981E+03  0.37416155633E+03  0.12500000000E+03 0.  0.
         25    1    1    2    0    0  0.93130313191E+01 -0.76919394017E+02 -0.13505747500E+02  0.14768456569E+03  0.12500000000E+03 0.  0.
</event>
<event>
 4    0  0.2219362E-002  0.2292026E+03  0.7546771E-02  0.1127202E+00
         21   -1    0    0  502  501  0.00000000000E+00  0.00000000000E+00  0.22509739965E+03  0.22509739965E+03  0.00000000000E+00 0.  1.
         21   -1    0    0  501  502 -0.00000000000E+00 -0.00000000000E+00 -0.23338276186E+03  0.23338276186E+03  0.00000000000E+00 0.  1.
         25    1    1    2    0    0 -0.99328920508E+02 -0.14610502897E+03  0.71341089571E+02  0.22787598601E+03  0.12500000000E+03 0.  0.
         25    1    1    2    0    0  0.99328920508E+02  0.14610502897E+03 -0.79626451781E+02  0.23060417551E+03  0.12500000000E+03 0.  0.
</event>
<event>
 4    0  0.2219362E-002  0.1634357E+03  0.7546771E-02  0.1184872E+00
         21   -1    0    0  502  501  0.00000000000E+00  0.00000000000E+00  0.36491162407E+03  0.36491162407E+03  0.00000000000E+00 0.  1.
         21   -1    0    0  501  502 -0.00000000000E+00 -0.00000000000E+00 -0.73199170067E+02  0.73199170067E+02  0.00000000000E+00 0.  1.
         25    1    1    2    0    0  0.26206843927E+02  0.10197595956E+03  0.14662970997E+03  0.21957041431E+03  0.12500000000E+03 0.  0.
         25    1    1    2    0    0 -0.26206843927E+02 -0.10197595956E+03  0.14508274404E+03  0.21854037982E+03  0.12500000000E+03 0.  0.
</event>
<event>
 4    0  0.2219362E-002  0.2050170E+03  0.7546771E-02  0.1145574E+00
         21   -1    0    0  502  501  0.00000000000E+00  0.00000000000E+00  0.98663343090E+02  0.98663343090E+02  0.00000000000E+00 0. -1.
         21   -1    0    0  501  502 -0.00000000000E+00 -0.00000000000E+00 -0.42601388487E+03  0.42601388487E+03  0.00000000000E+00 0. -1.
         25    1    1    2    0    0 -0.15519935007E+03  0.15996931560E+02 -0.10553864951E+03  0.22606668623E+03  0.12500000000E+03 0.  0.
         25    1    1    2    0    0  0.15519935007E+03 -0.15996931560E+02 -0.22181189226E+03  0.29861054173E+03  0.12500000000E+03 0.  0.
</event>
<event>
 4    0  0.2219362E-002  0.1811269E+03  0.7546771E-02  0.1166717E+00
         21   -1    0    0  502  501  0.00000000000E+00  0.00000000000E+00  0.18636019436E+03  0.18636019436E+03  0.00000000000E+00 0.  1.
         21   -1    0    0  501  502 -0.00000000000E+00 -0.00000000000E+00 -0.17604052342E+03  0.17604052342E+03  0.00000000000E+00 0. -1.
         25    1    1    2    0    0  0.13011119598E+03  0.81099029066E+01 -0.85297326542E+01  0.18081053671E+03  0.12500000000E+03 0.  0.
         25    1    1    2    0    0 -0.13011119598E+03 -0.81099029066E+01  0.18849403592E+02  0.18159018107E+03  0.12500000000E+03 0.  0.
</event>
<event>
 4    0  0.2219362E-002  0.2211659E+03  0.7546771E-02  0.1133017E+00
         21   -1    0    0  502  501  0.00000000000E+00  0.00000000000E+00  0.36541666483E+03  0.36541666483E+03  0.00000000000E+00 0.  1.
         21   -1    0    0  501  502 -0.00000000000E+00 -0.00000000000E+00 -0.13385907653E+03  0.13385907653E+03  0.00000000000E+00 0.  1.
         25    1    1    2    0    0 -0.62476254942E+01  0.58924891344E+02 -0.78999843627E+02  0.15930207449E+03  0.12500000000E+03 0.  0.
         25    1    1    2    0    0  0.62476254942E+01 -0.58924891344E+02  0.31055743193E+03  0.33997366688E+03  0.12500000000E+03 0.  0.
</event>
<event>
 4    0  0.2219362E-002  0.3757815E+03  0.7546771E-02  0.1052504E+00
         21   -1    0    0  502  501  0.00000000000E+00  0.00000000000E+00  0.23893112483E+03  0.23893112483E+03  0.00000000000E+00 0. -1.
         21   -1    0    0  501  502 -0.00000000000E+00 -0.00000000000E+00 -0.59101455842E+03  0.59101455842E+03  0.00000000000E+00 0.  1.
         25    1    1    2    0    0 -0.22865776862E+03  0.26995674225E+03 -0.19882751792E+03  0.42463914059E+03  0.12500000000E+03 0.  0.
         25    1    1    2    0    0  0.22865776862E+03 -0.26995674225E+03 -0.15325591566E+03  0.40530654266E+03  0.12500000000E+03 0.  0.
</event>
<event>
 4    0  0.2219362E-002  0.2607149E+03  0.7546771E-02  0.1106714E+00
         21   -1    0    0  502  501  0.00000000000E+00  0.00000000000E+00  0.76482018063E+03  0.76482018063E+03  0.00000000000E+00 0.  1.
         21   -1    0    0  501  502 -0.00000000000E+00 -0.00000000000E+00 -0.88873496445E+02  0.88873496445E+02  0.00000000000E+00 0.  1.
         25    1    1    2    0    0  0.36411156822E+02  0.22327677167E+03  0.39394975560E+03  0.47116844021E+03  0.12500000000E+03 0.  0.
         25    1    1    2    0    0 -0.36411156822E+02 -0.22327677167E+03  0.28199692858E+03  0.38252523687E+03  0.12500000000E+03 0.  0.
</event>
<event>
 4    0  0.2219362E-002  0.2069387E+03  0.7546771E-02  0.1144013E+00
         21   -1    0    0  502  501  0.00000000000E+00  0.00000000000E+00  0.51112092547E+03  0.51112092547E+03  0.00000000000E+00 0. -1.
         21   -1    0    0  501  502 -0.00000000000E+00 -0.00000000000E+00 -0.83783769365E+02  0.83783769365E+02  0.00000000000E+00 0. -1.
         25    1    1    2    0    0 -0.15663491618E+03 -0.17415047943E+02  0.14382757757E+03  0.24728354763E+03  0.12500000000E+03 0.  0.
         25    1    1    2    0    0  0.15663491618E+03  0.17415047943E+02  0.28350957854E+03  0.34762114721E+03  0.12500000000E+03 0.  0.
</event>
<event>
 4    0  0.2219362E-002  0.2620392E+03  0.7546771E-02  0.1105924E+00
         21   -1    0    0  502  501  0.00000000000E+00  0.00000000000E+00  0.12334801796E+04  0.12334801796E+04  0.00000000000E+00 0. -1.
         21   -1    0    0  501  502 -0.00000000000E+00 -0.00000000000E+00 -0.55667307037E+02  0.55667307037E+02  0.00000000000E+00 0.  1.
         25    1    1    2    0    0 -0.21920625934E+03 -0.10063141139E+02  0.76086418970E+03  0.80168071332E+03  0.12500000000E+03 0.  0.
         25    1    1    2    0    0  0.21920625934E+03  0.10063141139E+02  0.41694868287E+03  0.48746677332E+03  0.12500000000E+03 0.  0.
</event>
<event>
 4    0  0.2219362E-002  0.2803765E+03  0.7546771E-02  0.1095483E+00
         21   -1    0    0  502  501  0.00000000000E+00  0.00000000000E+00  0.17564565220E+03  0.17564565220E+03  0.00000000000E+00 0.  1.
         21   -1    0    0  501  502 -0.00000000000E+00 -0.00000000000E+00 -0.44755432699E+03  0.44755432699E+03  0.00000000000E+00 0.  1.
         25    1    1    2    0    0  0.15010884123E+03 -0.41454564750E+02  0.82774809892E+02  0.21616617290E+03  0.12500000000E+03 0.  0.
         25    1    1    2    0    0 -0.15010884123E+03  0.41454564750E+02 -0.35468348468E+03  0.40703380629E+03  0.12500000000E+03 0.  0.
</event>
<event>
 4    0  0.2219362E-002  0.1696587E+03  0.7546771E-02  0.1178204E+00
         21   -1    0    0  502  501  0.00000000000E+00  0.00000000000E+00  0.29330003656E+03  0.29330003656E+03  0.00000000000E+00 0.  1.
         21   -1    0    0  501  502 -0.00000000000E+00 -0.00000000000E+00 -0.98138706712E+02  0.98138706712E+02  0.00000000000E+00 0.  1.
         25    1    1    2    0    0  0.46624000587E+02  0.76247803840E+02  0.18054060413E+03  0.23708107213E+03  0.12500000000E+03 0.  0.
         25    1    1    2    0    0 -0.46624000587E+02 -0.76247803840E+02  0.14620725720E+02  0.15435767115E+03  0.12500000000E+03 0.  0.
</event>
<event>
 4    0  0.2219362E-002  0.1872933E+03  0.7546771E-02  0.1160926E+00
         21   -1    0    0  502  501  0.00000000000E+00  0.00000000000E+00  0.28086112248E+03  0.28086112248E+03  0.00000000000E+00 0. -1.
         21   -1    0    0  501  502 -0.00000000000E+00 -0.00000000000E+00 -0.12489721796E+03  0.12489721796E+03  0.00000000000E+00 0. -1.
         25    1    1    2    0    0  0.11213299294E+02 -0.50342431258E+01 -0.72513783613E+02  0.14503217057E+03  0.12500000000E+03 0.  0.
         25    1    1    2    0    0 -0.11213299294E+02  0.50342431258E+01  0.22847768813E+03  0.26072616988E+03  0.12500000000E+03 0.  0.
</event>
<event>
 4    0  0.2219362E-002  0.2702486E+03  0.7546771E-02  0.1101137E+00
         21   -1    0    0  502  501  0.00000000000E+00  0.00000000000E+00  0.43626779241E+02  0.43626779241E+02  0.00000000000E+00 0. -1.
         21   -1    0    0  501  502 -0.00000000000E+00 -0.00000000000E+00 -0.16740707171E+04  0.16740707171E+04  0.00000000000E+00 0. -1.
         25    1    1    2    0    0  0.17572062173E+03 -0.51218501314E+02 -0.32383115785E+03  0.39241902422E+03  0.12500000000E+03 0.  0.
         25    1    1    2    0    0 -0.17572062173E+03  0.51218501314E+02 -0.13066127800E+04  0.13252784721E+04  0.12500000000E+03 0.  0.
</event>
<event>
 4    0  0.2219362E-002  0.1884576E+03  0.7546771E-02  0.1159860E+00
         21   -1    0    0  502  501  0.00000000000E+00  0.00000000000E+00  0.23996288807E+02  0.23996288807E+02  0.00000000000E+00 0. -1.
         21   -1    0    0  501  502 -0.00000000000E+00 -0.00000000000E+00 -0.14800735247E+04  0.14800735247E+04  0.00000000000E+00 0. -1.
         25    1    1    2    0    0  0.10528879600E+01  0.13981220570E+03 -0.80191198665E+03  0.82355108874E+03  0.12500000000E+03 0.  0.
         25    1    1    2    0    0 -0.10528879600E+01 -0.13981220570E+03 -0.65416524926E+03  0.68051872478E+03  0.12500000000E+03 0.  0.
</event>
<event>
 4    0  0.2219362E-002  0.1993870E+03  0.7546771E-02  0.1150257E+00
         21   -1    0    0  502  501  0.00000000000E+00  0.00000000000E+00  0.18683039908E+03  0.18683039908E+03  0.00000000000E+00 0.  1.
         21   -1    0    0  501  502 -0.00000000000E+00 -0.00000000000E+00 -0.21278755980E+03  0.21278755980E+03  0.00000000000E+00 0.  1.
         25    1    1    2    0    0  0.15421144356E+03 -0.87942859760E+01 -0.29496056597E+02  0.20088187113E+03  0.12500000000E+03 0.  0.
         25    1    1    2    0    0 -0.15421144356E+03  0.87942859760E+01  0.35388958822E+01  0.19873608775E+03  0.12500000000E+03 0.  0.
</event>
<event>
 4    0  0.2219362E-002  0.2406546E+03  0.7546771E-02  0.1119358E+00
         21   -1    0    0  502  501  0.00000000000E+00  0.00000000000E+00  0.12169590009E+03  0.12169590009E+03  0.00000000000E+00 0. -1.
         21   -1    0    0  501  502 -0.00000000000E+00 -0.00000000000E+00 -0.47589642956E+03  0.47589642956E+03  0.00000000000E+00 0. -1.
         25    1    1    2    0    0  0.32727179348E+02  0.67877196088E+02  0.60467862224E+02  0.15798653227E+03  0.12500000000E+03 0.  0.
         25    1    1    2    0    0 -0.32727179348E+02 -0.67877196088E+02 -0.41466839170E+03  0.43960579738E+03  0.12500000000E+03 0.  0.
</event>
<event>
 4    0  0.2219362E-002  0.2386903E+03  0.7546771E-02  0.1120668E+00
         21   -1    0    0  502  501  0.00000000000E+00  0.00000000000E+00  0.11983220140E+03  0.11983220140E+03  0.00000000000E+00 0.  1.
         21   -1    0    0  501  502 -0.00000000000E+00 -0.00000000000E+00 -0.47544041273E+03  0.47544041273E+03  0.00000000000E+00 0.  1.
         25    1    1    2    0    0  0.12581047972E+03 -0.15134497937E+03 -0.11404463164E+03  0.25954721650E+03  0.12500000000E+03 0.  0.
         25    1    1    2    0    0 -0.12581047972E+03  0.15134497937E+03 -0.24156357969E+03  0.33572539763E+03  0.12500000000E+03 0.  0.
</event>
<event>
 4    0  0.2219362E-002  0.2272048E+03  0.7546771E-02  0.1128623E+00
         21   -1    0    0  502  501  0.00000000000E+00  0.00000000000E+00  0.76220466344E+02  0.76220466344E+02  0.00000000000E+00 0.  1.
         21   -1    0    0  501  502 -0.00000000000E+00 -0.00000000000E+00 -0.67727232620E+03  0.67727232620E+03  0.00000000000E+00 0.  1.
         25    1    1    2    0    0 -0.11334880923E+03  0.15042554884E+03 -0.26266948910E+03  0.34654878271E+03  0.12500000000E+03 0.  0.
         25    1    1    2    0    0  0.11334880923E+03 -0.15042554884E+03 -0.33838237076E+03  0.40694400983E+03  0.12500000000E+03 0.  0.
</event>
<event>
 4    0  0.2219362E-002  0.1635945E+03  0.7546771E-02  0.1184697E+00
         21   -1    0    0  502  501  0.00000000000E+00  0.00000000000E+00  0.27183738512E+02  0.27183738512E+02  0.00000000000E+00 0. -1.
         21   -1    0    0  501  502 -0.00000000000E+00 -0.00000000000E+00 -0.98452888059E+03  0.98452888059E+03  0.00000000000E+00 0. -1.
         25    1    1    2    0    0 -0.36415667971E+01  0.73269569931E+02 -0.71327744412E+03  0.72785397105E+03  0.12500000000E+03 0.  0.
         25    1    1    2    0    0  0.36415667971E+01 -0.73269569931E+02 -0.24406769796E+03  0.28385864805E+03  0.12500000000E+03 0.  0.
</event>
<event>
 4    0  0.2219362E-002  0.2315189E+03  0.7546771E-02  0.1125575E+00
         21   -1    0    0  502  501  0.00000000000E+00  0.00000000000E+00  0.20724212374E+03  0.20724212374E+03  0.00000000000E+00 0. -1.
         21   -1    0    0  501  502 -0.00000000000E+00 -0.00000000000E+00 -0.25863950928E+03  0.25863950928E+03  0.00000000000E+00 0. -1.
         25    1    1    2    0    0  0.17946345292E+03  0.28472543746E+01 -0.10206453778E+03  0.24136571352E+03  0.12500000000E+03 0.  0.
         25    1    1    2    0    0 -0.17946345292E+03 -0.28472543746E+01  0.50667152246E+02  0.22451591950E+03  0.12500000000E+03 0.  0.
</event>
<event>
 4    0  0.2219362E-002  0.1764168E+03  0.7546771E-02  0.1171317E+00
         21   -1    0    0  502  501  0.00000000000E+00  0.00000000000E+00  0.10070888993E+03  0.10070888993E+03  0.00000000000E+00 0.  1.
         21   -1    0    0  501  502 -0.00000000000E+00 -0.00000000000E+00 -0.30903805736E+03  0.30903805736E+03  0.00000000000E+00 0.  1.
         25    1    1    2    0    0  0.46904105233E+02 -0.10789380618E+03 -0.56894937150E+02  0.18083999108E+03  0.12500000000E+03 0.  0.
         25    1    1    2    0    0 -0.46904105233E+02  0.10789380618E+03 -0.15143423029E+03  0.22890695621E+03  0.12500000000E+03 0.  0.
</event>
<event>
 4    0  0.2219362E-002  0.1700739E+03  0.7546771E-02  0.1177771E+00
         21   -1    0    0  502  501  0.00000000000E+00  0.00000000000E+00  0.13802618134E+04  0.13802618134E+04  0.00000000000E+00 0. -1.
         21   -1    0    0  501  502 -0.00000000000E+00 -0.00000000000E+00 -0.20956269822E+02  0.20956269822E+02  0.00000000000E+00 0. -1.
         25    1    1    2    0    0 -0.90521992557E+02  0.57270142100E+02  0.85568532828E+03  0.87137619966E+03  0.12500000000E+03 0.  0.
         25    1    1    2    0    0  0.90521992557E+02 -0.57270142100E+02  0.50362021530E+03  0.52984188355E+03  0.12500000000E+03 0.  0.
</event>
<event>
 4    0  0.2219362E-002  0.2452341E+03  0.7546771E-02  0.1116354E+00
         21   -1    0    0  502  501  0.00000000000E+00  0.00000000000E+00  0.11629943285E+03  0.11629943285E+03  0.00000000000E+00 0. -1.
         21   -1    0    0  501  502 -0.00000000000E+00 -0.00000000000E+00 -0.51711125889E+03  0.51711125889E+03  0.00000000000E+00 0. -1.
         25    1    1    2    0    0 -0.18131727267E+03  0.59303411091E+02 -0.31679261710E+03  0.39035293028E+03  0.12500000000E+03 0.  0.
         25    1    1    2    0    0  0.18131727267E+03 -0.59303411091E+02 -0.84019208945E+02  0.24305776146E+03  0.12500000000E+03 0.  0.
</event>
<event>
 4    0  0.2219362E-002  0.1643827E+03  0.7546771E-02  0.1183836E+00
         21   -1    0    0  502  501  0.00000000000E+00  0.00000000000E+00  0.16166689404E+02  0.16166689404E+02  0.00000000000E+00 0. -1.
         21   -1    0    0  501  502 -0.00000000000E+00 -0.00000000000E+00 -0.16714403985E+04  0.16714403985E+04  0.00000000000E+00 0. -1.
         25    1    1    2    0    0 -0.81802823211E+01 -0.86500113385E+02 -0.11460368376E+04  0.11561032047E+04  0.12500000000E+03 0.  0.
         25    1    1    2    0    0  0.81802823211E+01  0.86500113385E+02 -0.50923687143E+03  0.53150388320E+03  0.12500000000E+03 0.  0.
</event>
<event>
 4    0  0.2219362E-002  0.2854940E+03  0.7546771E-02  0.1092725E+00
         21   -1    0    0  502  501  0.00000000000E+00  0.00000000000E+00  0.12334359032E+03  0.12334359032E+03  0.00000000000E+00 0.  1.
         21   -1    0    0  501  502 -0.00000000000E+00 -0.00000000000E+00 -0.66081131847E+03  0.66081131847E+03  0.00000000000E+00 0. -1.
         25    1    1    2    0    0 -0.11383022990E+03 -0.90379686044E+02  0.21802586507E+02  0.19294082426E+03  0.12500000000E+03 0.  0.
         25    1    1    2    0    0  0.11383022990E+03  0.90379686044E+02 -0.55927031465E+03  0.59121408452E+03  0.12500000000E+03 0.  0.
</event>
<event>
 4    0  0.2219362E-002  0.1908952E+03  0.7546771E-02  0.1157656E+00
         21   -1    0    0  502  501  0.00000000000E+00  0.00000000000E+00  0.17305366138E+03  0.17305366138E+03  0.00000000000E+00 0.  1.
         21   -1    0    0  501  502 -0.00000000000E+00 -0.00000000000E+00 -0.21057608411E+03  0.21057608411E+03  0.00000000000E+00 0.  1.
         25    1    1    2    0    0  0.28000630182E+02  0.11843847007E+03  0.59099246795E+02  0.18419942306E+03  0.12500000000E+03 0.  0.
         25    1    1    2    0    0 -0.28000630182E+02 -0.11843847007E+03 -0.96621669522E+02  0.19943032243E+03  0.12500000000E+03 0.  0.
</event>
<event>
 4    0  0.2219362E-002  0.3046074E+03  0.7546771E-02  0.1082960E+00
         21   -1    0    0  502  501  0.00000000000E+00  0.00000000000E+00  0.98978920247E+03  0.98978920247E+03  0.00000000000E+00 0.  1.
         21   -1    0    0  501  502 -0.00000000000E+00 -0.00000000000E+00 -0.93742881863E+02  0.93742881863E+02  0.00000000000E+00 0.  1.
         25    1    1    2    0    0 -0.22612064640E+03 -0.45627010639E+02  0.17278489423E+03  0.31415281394E+03  0.12500000000E+03 0.  0.
         25    1    1    2    0    0  0.22612064640E+03  0.45627010639E+02  0.72326142638E+03  0.76937927040E+03  0.12500000000E+03 0.  0.
</event>
<event>
 4    0  0.2219362E-002  0.2232903E+03  0.7546771E-02  0.1131454E+00
         21   -1    0    0  502  501  0.00000000000E+00  0.00000000000E+00  0.20801746151E+04  0.20801746151E+04  0.00000000000E+00 0. -1.
         21   -1    0    0  501  502 -0.00000000000E+00 -0.00000000000E+00 -0.23968438360E+02  0.23968438360E+02  0.00000000000E+00 0. -1.
         25    1    1    2    0    0  0.30339687407E+02 -0.17543976725E+03  0.79092603039E+03  0.82029786914E+03  0.12500000000E+03 0.  0.
         25    1    1    2    0    0 -0.30339687407E+02  0.17543976725E+03  0.12652801464E+04  0.12838451844E+04  0.12500000000E+03 0.  0.
</event>
<event>
 4    0  0.2219362E-002  0.3369556E+03  0.7546771E-02  0.1068100E+00
         21   -1    0    0  502  501  0.00000000000E+00  0.00000000000E+00  0.18447914732E+03  0.18447914732E+03  0.00000000000E+00 0.  1.
         21   -1    0    0  501  502 -0.00000000000E+00 -0.00000000000E+00 -0.61545767099E+03  0.61545767099E+03  0.00000000000E+00 0.  1.
         25    1    1    2    0    0 -0.17904500105E+03 -0.96278975913E+02  0.66876895428E+02  0.24783920744E+03  0.12500000000E+03 0.  0.
         25    1    1    2    0    0  0.17904500105E+03  0.96278975913E+02 -0.49785541910E+03  0.55209761087E+03  0.12500000000E+03 0.  0.
</event>
<event>
 4    0  0.2219362E-002  0.2092364E+03  0.7546771E-02  0.1142172E+00
         21   -1    0    0  502  501  0.00000000000E+00  0.00000000000E+00  0.52158973250E+03  0.52158973250E+03  0.00000000000E+00 0.  1.
         21   -1    0    0  501  502 -0.00000000000E+00 -0.00000000000E+00 -0.83935425489E+02  0.83935425489E+02  0.00000000000E+00 0.  1.
         25    1    1    2    0    0 -0.37782505808E+02 -0.84488509816E+02  0.42134882244E+03  0.44913879393E+03  0.12500000000E+03 0.  0.
         25    1    1    2    0    0  0.37782505808E+02  0.84488509816E+02  0.16305484563E+02  0.15638636406E+03  0.12500000000E+03 0.  0.
</event>
<event>
 4    0  0.2219362E-002  0.2979260E+03  0.7546771E-02  0.1086282E+00
         21   -1    0    0  502  501  0.00000000000E+00  0.00000000000E+00  0.10996933156E+03  0.10996933156E+03  0.00000000000E+00 0.  1.
         21   -1    0    0  501  502 -0.00000000000E+00 -0.00000000000E+00 -0.80713345691E+03  0.80713345691E+03  0.00000000000E+00 0. -1.
         25    1    1    2    0    0 -0.25454084238E+03  0.91326388684E+02 -0.34575362367E+03  0.45640126861E+03  0.12500000000E+03 0.  0.
         25    1    1    2    0    0  0.25454084238E+03 -0.91326388684E+02 -0.35141050169E+03  0.46070151987E+03  0.12500000000E+03 0.  0.
</event>
<event>
 4    0  0.2219362E-002  0.2050925E+03  0.7546771E-02  0.1145512E+00
         21   -1    0    0  502  501  0.00000000000E+00  0.00000000000E+00  0.58463515877E+03  0.58463515877E+03  0.00000000000E+00 0. -1.
         21   -1    0    0  501  502 -0.00000000000E+00 -0.00000000000E+00 -0.71947300076E+02  0.71947300076E+02  0.00000000000E+00 0. -1.
         25    1    1    2    0    0 -0.49111887207E+02 -0.14525247149E+03  0.16973351289E+03  0.26066208650E+03  0.12500000000E+03 0.  0.
         25    1    1    2    0    0  0.49111887207E+02  0.14525247149E+03  0.34295434580E+03  0.39592037235E+03  0.12500000000E+03 0.  0.
</event>
<event>
 4    0  0.2219362E-002  0.1740514E+03  0.7546771E-02  0.1173688E+00
         21   -1    0    0  502  501  0.00000000000E+00  0.00000000000E+00  0.46397292151E+02  0.46397292151E+02  0.00000000000E+00 0.  1.
         21   -1    0    0  501  502 -0.00000000000E+00 -0.00000000000E+00 -0.65292370282E+03  0.65292370282E+03  0.00000000000E+00 0.  1.
         25    1    1    2    0    0  0.77198968282E+02 -0.59360088785E+02 -0.15859664219E+03  0.22419008845E+03  0.12500000000E+03 0.  0.
         25    1    1    2    0    0 -0.77198968282E+02  0.59360088785E+02 -0.44792976848E+03  0.47513090652E+03  0.12500000000E+03 0.  0.
</event>
<event>
 4    0  0.2219362E-002  0.1779187E+03  0.7546771E-02  0.1169833E+00
         21   -1    0    0  502  501  0.00000000000E+00  0.00000000000E+00  0.11063967004E+03  0.11063967004E+03  0.00000000000E+00 0. -1.
         21   -1    0    0  501  502 -0.00000000000E+00 -0.00000000000E+00 -0.28610941124E+03  0.28610941124E+03  0.00000000000E+00 0. -1.
         25    1    1    2    0    0  0.78179317536E+02 -0.78540574101E+02 -0.15600750611E+03  0.22856939742E+03  0.12500000000E+03 0.  0.
         25    1    1    2    0    0 -0.78179317536E+02  0.78540574101E+02 -0.19462235077E+02  0.16817968386E+03  0.12500000000E+03 0.  0.
</event>
<event>
 4    0  0.2219362E-002  0.2010292E+03  0.7546771E-02  0.1148874E+00
         21   -1    0    0  502  501  0.00000000000E+00  0.00000000000E+00  0.10854470877E+03  0.10854470877E+03  0.00000000000E+00 0.  1.
         21   -1    0    0  501  502 -0.00000000000E+00 -0.00000000000E+00 -0.37231420936E+03  0.37231420936E+03  0.00000000000E+00 0.  1.
         25    1    1    2    0    0  0.59715730369E+02  0.14368591052E+03 -0.10317773309E+03  0.22468256261E+03  0.12500000000E+03 0.  0.
         25    1    1    2    0    0 -0.59715730369E+02 -0.14368591052E+03 -0.16059176751E+03  0.25617635552E+03  0.12500000000E+03 0.  0.
</event>
<event>
 4    0  0.2219362E-002  0.2538790E+03  0.7546771E-02  0.1110878E+00
         21   -1    0    0  502  501  0.00000000000E+00  0.00000000000E+00  0.17224926379E+03  0.17224926379E+03  0.00000000000E+00 0.  1.
         21   -1    0    0  501  502 -0.00000000000E+00 -0.00000000000E+00 -0.37419341879E+03  0.37419341879E+03  0.00000000000E+00 0.  1.
         25    1    1    2    0    0 -0.11620949455E+03  0.15971143419E+03  0.56582193873E+01  0.23381489320E+03  0.12500000000E+03 0.  0.
         25    1    1    2    0    0  0.11620949455E+03 -0.15971143419E+03 -0.20760237439E+03  0.31262778937E+03  0.12500000000E+03 0.  0.
</event>
<event>
 4    0  0.2219362E-002  0.1783435E+03  0.7546771E-02  0.1169416E+00
         21   -1    0    0  502  501  0.00000000000E+00  0.00000000000E+00  0.42766287470E+03  0.42766287470E+03  0.00000000000E+00 0. -1.
         21   -1    0    0  501  502 -0.00000000000E+00 -0.00000000000E+00 -0.74372632049E+02  0.74372632049E+02  0.00000000000E+00 0. -1.
         25    1    1    2    0    0 -0.22512473120E+02  0.11841443688E+03  0.23386329937E+03  0.29128308070E+03  0.12500000000E+03 0.  0.
         25    1    1    2    0    0  0.22512473120E+02 -0.11841443688E+03  0.11942694328E+03  0.21075242606E+03  0.12500000000E+03 0.  0.
</event>
<event>
 4    0  0.2219362E-002  0.2043146E+03  0.7546771E-02  0.1146149E+00
         21   -1    0    0  502  501  0.00000000000E+00  0.00000000000E+00  0.59516612304E+02  0.59516612304E+02  0.00000000000E+00 0.  1.
         21   -1    0    0  501  502 -0.00000000000E+00 -0.00000000000E+00 -0.70139177652E+03  0.70139177652E+03  0.00000000000E+00 0.  1.
         25    1    1    2    0    0 -0.14930935200E+03  0.39910469954E+02 -0.23293816387E+03  0.30622102539E+03  0.12500000000E+03 0.  0.
         25    1    1    2    0    0  0.14930935200E+03 -0.39910469954E+02 -0.40893700035E+03  0.45468736343E+03  0.12500000000E+03 0.  0.
</event>
<event>
 4    0  0.2219362E-002  0.2655432E+03  0.7546771E-02  0.1103858E+00
         21   -1    0    0  502  501  0.00000000000E+00  0.00000000000E+00  0.39326021722E+02  0.39326021722E+02  0.00000000000E+00 0.  1.
         21   -1    0    0  501  502 -0.00000000000E+00 -0.00000000000E+00 -0.17930417770E+04  0.17930417770E+04  0.00000000000E+00 0.  1.
         25    1    1    2    0    0 -0.64678431440E+02  0.12198946233E+03 -0.15298850884E+04  0.15411807526E+04  0.12500000000E+03 0.  0.
         25    1    1    2    0    0  0.64678431440E+02 -0.12198946233E+03 -0.22383066693E+03  0.29118704619E+03  0.12500000000E+03 0.  0.
</event>
<event>
 4    0  0.2219362E-002  0.2625704E+03  0.7546771E-02  0.1105609E+00
         21   -1    0    0  502  501  0.00000000000E+00  0.00000000000E+00  0.50881466612E+02  0.50881466612E+02  0.00000000000E+00 0. -1.
         21   -1    0    0  501  502 -0.00000000000E+00 -0.00000000000E+00 -0.13549764812E+04  0.13549764812E+04  0.00000000000E+00 0. -1.
         25    1    1    2    0    0 -0.89367675879E+02  0.19888639618E+03 -0.85550431415E+03  0.89165857345E+03  0.12500000000E+03 0.  0.
         25    1    1    2    0    0  0.89367675879E+02 -0.19888639618E+03 -0.44859070045E+03  0.51419937438E+03  0.12500000000E+03 0.  0.
</event>
<event>
 4    0  0.2219362E-002  0.2972752E+03  0.7546771E-02  0.1086611E+00
         21   -1    0    0  502  501  0.00000000000E+00  0.00000000000E+00  0.79512885905E+02  0.79512885905E+02  0.00000000000E+00 0.  1.
         21   -1    0    0  501  502 -0.00000000000E+00 -0.00000000000E+00 -0.11114241805E+04  0.11114241805E+04  0.00000000000E+00 0.  1.
         25    1    1    2    0    0  0.17655569494E+03 -0.48709296265E+01 -0.10764039222E+03  0.24167559539E+03  0.12500000000E+03 0.  0.
         25    1    1    2    0    0 -0.17655569494E+03  0.48709296265E+01 -0.92427090236E+03  0.94926147100E+03  0.12500000000E+03 0.  0.
</event>
<event>
 4    0  0.2219362E-002  0.2653704E+03  0.7546771E-02  0.1103959E+00
         21   -1    0    0  502  501  0.00000000000E+00  0.00000000000E+00  0.28417752477E+03  0.28417752477E+03  0.00000000000E+00 0.  1.
         21   -1    0    0  501  502 -0.00000000000E+00 -0.00000000000E+00 -0.24780787288E+03  0.24780787288E+03  0.00000000000E+00 0.  1.
         25    1    1    2    0    0 -0.62729264001E+02 -0.22142447166E+03 -0.24725273741E+02  0.26305911194E+03  0.12500000000E+03 0.  0.
         25    1    1    2    0    0  0.62729264001E+02  0.22142447166E+03  0.61094925632E+02  0.26892628572E+03  0.12500000000E+03 0.  0.
</event>
<event>
 4    0  0.2219362E-002  0.2078461E+03  0.7546771E-02  0.1143283E+00
         21   -1    0    0  502  501  0.00000000000E+00  0.00000000000E+00  0.42098592632E+02  0.42098592632E+02  0.00000000000E+00 0.  1.
         21   -1    0    0  501  502 -0.00000000000E+00 -0.00000000000E+00 -0.10261628035E+04  0.10261628035E+04  0.00000000000E+00 0.  1.
         25    1    1    2    0    0  0.11791644322E+03  0.81513245285E+02 -0.27662036716E+03  0.33569707217E+03  0.12500000000E+03 0.  0.
         25    1    1    2    0    0 -0.11791644322E+03 -0.81513245285E+02 -0.70744384376E+03  0.73256432401E+03  0.12500000000E+03 0.  0.
</event>
<event>
 4    0  0.2219362E-002  0.2105639E+03  0.7546771E-02  0.1141120E+00
         21   -1    0    0  502  501  0.00000000000E+00  0.00000000000E+00  0.47714517260E+03  0.47714517260E+03  0.00000000000E+00 0.  1.
         21   -1    0    0  501  502 -0.00000000000E+00 -0.00000000000E+00 -0.92921735165E+02  0.92921735165E+02  0.00000000000E+00 0.  1.
         25    1    1    2    0    0  0.12838226643E+03  0.99705195037E+01  0.34120413593E+03  0.38552130935E+03  0.12500000000E+03 0.  0.
         25    1    1    2    0    0 -0.12838226643E+03 -0.99705195037E+01  0.43019301511E+02  0.18454559841E+03  0.12500000000E+03 0.  0.
</event>
<event>
 4    0  0.2219362E-002  0.2048542E+03  0.7546771E-02  0.1145707E+00
         21   -1    0    0  502  501  0.00000000000E+00  0.00000000000E+00  0.77895301551E+02  0.77895301551E+02  0.00000000000E+00 0. -1.
         21   -1    0    0  501  502 -0.00000000000E+00 -0.00000000000E+00 -0.53873912472E+03  0.53873912472E+03  0.00000000000E+00 0. -1.
         25    1    1    2    0    0 -0.79513185245E+02  0.94240054622E+02 -0.71592335207E+02  0.18961539226E+03  0.12500000000E+03 0.  0.
         25    1    1    2    0    0  0.79513185245E+02 -0.94240054622E+02 -0.38925148796E+03  0.42701903401E+03  0.12500000000E+03 0.  0.
</event>
<event>
 4    0  0.2219362E-002  0.1914655E+03  0.7546771E-02  0.1157146E+00
         21   -1    0    0  502  501  0.00000000000E+00  0.00000000000E+00  0.38716180147E+03  0.38716180147E+03  0.00000000000E+00 0. -1.
         21   -1    0    0  501  502 -0.00000000000E+00 -0.00000000000E+00 -0.94686566235E+02  0.94686566235E+02  0.00000000000E+00 0. -1.
         25    1    1    2    0    0 -0.10963666720E+03  0.74766864452E+02  0.72610080969E+02  0.19623329654E+03  0.12500000000E+03 0.  0.
         25    1    1    2    0    0  0.10963666720E+03 -0.74766864452E+02  0.21986515427E+03  0.28561507116E+03  0.12500000000E+03 0.  0.
</event>
<event>
 4    0  0.2219362E-002  0.1886607E+03  0.7546771E-02  0.1159675E+00
         21   -1    0    0  502  501  0.00000000000E+00  0.00000000000E+00  0.19220565708E+03  0.19220565708E+03  0.00000000000E+00 0. -1.
         21   -1    0    0  501  502 -0.00000000000E+00 -0.00000000000E+00 -0.18518113739E+03  0.18518113739E+03  0.00000000000E+00 0. -1.
         25    1    1    2    0    0 -0.98289551409E+02 -0.78902090864E+02  0.67409841301E+02  0.18988276005E+03  0.12500000000E+03 0.  0.
         25    1    1    2    0    0  0.98289551409E+02  0.78902090864E+02 -0.60385321609E+02  0.18750403442E+03  0.12500000000E+03 0.  0.
</event>
<event>
 4    0  0.2219362E-002  0.2126212E+03  0.7546771E-02  0.1139507E+00
         21   -1    0    0  502  501  0.00000000000E+00  0.00000000000E+00  0.35465233899E+03  0.35465233899E+03  0.00000000000E+00 0.  1.
         21   -1    0    0  501  502 -0.00000000000E+00 -0.00000000000E+00 -0.12747064907E+03  0.12747064907E+03  0.00000000000E+00 0.  1.
         25    1    1    2    0    0  0.10586950933E+03 -0.13461791741E+03  0.95577707386E+02  0.23257350417E+03  0.12500000000E+03 0.  0.
         25    1    1    2    0    0 -0.10586950933E+03  0.13461791741E+03  0.13160398253E+03  0.24954948390E+03  0.12500000000E+03 0.  0.
</event>
<event>
 4    0  0.2219362E-002  0.2517724E+03  0.7546771E-02  0.1112190E+00
         21   -1    0    0  502  501  0.00000000000E+00  0.00000000000E+00  0.22400267627E+02  0.22400267627E+02  0.00000000000E+00 0.  1.
         21   -1    0    0  501  502 -0.00000000000E+00 -0.00000000000E+00 -0.28298470341E+04  0.28298470341E+04  0.00000000000E+00 0.  1.
         25    1    1    2    0    0 -0.10142335273E+03 -0.74406423593E+02 -0.24160613349E+04  0.24225607085E+04  0.12500000000E+03 0.  0.
         25    1    1    2    0    0  0.10142335273E+03  0.74406423593E+02 -0.39138543152E+03  0.42968659318E+03  0.12500000000E+03 0.  0.
</event>
<event>
 4    0  0.2219362E-002  0.1852718E+03  0.7546771E-02  0.1162796E+00
         21   -1    0    0  502  501  0.00000000000E+00  0.00000000000E+00  0.30659204934E+03  0.30659204934E+03  0.00000000000E+00 0.  1.
         21   -1    0    0  501  502 -0.00000000000E+00 -0.00000000000E+00 -0.11195868212E+03  0.11195868212E+03  0.00000000000E+00 0.  1.
         25    1    1    2    0    0  0.10311455962E+03  0.79083531783E+02  0.14542347541E+03  0.23164586032E+03  0.12500000000E+03 0.  0.
         25    1    1    2    0    0 -0.10311455962E+03 -0.79083531783E+02  0.49209891817E+02  0.18690487115E+03  0.12500000000E+03 0.  0.
</event>
<event>
 4    0  0.2219362E-002  0.2884648E+03  0.7546771E-02  0.1091153E+00
         21   -1    0    0  502  501  0.00000000000E+00  0.00000000000E+00  0.59211794130E+03  0.59211794130E+03  0.00000000000E+00 0. -1.
         21   -1    0    0  501  502 -0.00000000000E+00 -0.00000000000E+00 -0.14053267033E+03  0.14053267033E+03  0.00000000000E+00 0. -1.
         25    1    1    2    0    0 -0.16289219891E+02  0.20633015523E+03  0.42557487768E+03  0.48946547187E+03  0.12500000000E+03 0.  0.
         25    1    1    2    0    0  0.16289219891E+02 -0.20633015523E+03  0.26010393290E+02  0.24318513976E+03  0.12500000000E+03 0.  0.
</event>
<event>
 4    0  0.2219362E-002  0.2145341E+03  0.7546771E-02  0.1138025E+00
         21   -1    0    0  502  501  0.00000000000E+00  0.00000000000E+00  0.71742849101E+03  0.71742849101E+03  0.00000000000E+00 0. -1.
         21   -1    0    0  501  502 -0.00000000000E+00 -0.00000000000E+00 -0.64152561759E+02  0.64152561759E+02  0.00000000000E+00 0. -1.
         25    1    1    2    0    0 -0.98060339636E+02  0.76290990321E+02  0.54946488057E+03  0.57703795403E+03  0.12500000000E+03 0.  0.
         25    1    1    2    0    0  0.98060339636E+02 -0.76290990321E+02  0.10381104868E+03  0.20454309874E+03  0.12500000000E+03 0.  0.
</event>
<event>
 4    0  0.2219362E-002  0.1833870E+03  0.7546771E-02  0.1164565E+00
         21   -1    0    0  502  501  0.00000000000E+00  0.00000000000E+00  0.46953513108E+02  0.46953513108E+02  0.00000000000E+00 0. -1.
         21   -1    0    0  501  502 -0.00000000000E+00 -0.00000000000E+00 -0.71625750892E+03  0.71625750892E+03  0.00000000000E+00 0. -1.
         25    1    1    2    0    0 -0.33623079522E+02  0.11920932070E+03 -0.44206290317E+03  0.47580036147E+03  0.12500000000E+03 0.  0.
         25    1    1    2    0    0  0.33623079522E+02 -0.11920932070E+03 -0.22724109265E+03  0.28741066056E+03  0.12500000000E+03 0.  0.
</event>
<event>
 4    0  0.2219362E-002  0.1751871E+03  0.7546771E-02  0.1172544E+00
         21   -1    0    0  502  501  0.00000000000E+00  0.00000000000E+00  0.13284907086E+03  0.13284907086E+03  0.00000000000E+00 0.  1.
         21   -1    0    0  501  502 -0.00000000000E+00 -0.00000000000E+00 -0.23101804798E+03  0.23101804798E+03  0.00000000000E+00 0.  1.
         25    1    1    2    0    0  0.10584590669E+03  0.61069714886E+02 -0.61046164575E+02  0.18516074165E+03  0.12500000000E+03 0.  0.
         25    1    1    2    0    0 -0.10584590669E+03 -0.61069714886E+02 -0.37122812547E+02  0.17870637719E+03  0.12500000000E+03 0.  0.
</event>
<event>
 4    0  0.2219362E-002  0.2106617E+03  0.7546771E-02  0.1141043E+00
         21   -1    0    0  502  501  0.00000000000E+00  0.00000000000E+00  0.69336029542E+02  0.69336029542E+02  0.00000000000E+00 0.  1.
         21   -1    0    0  501  502 -0.00000000000E+00 -0.00000000000E+00 -0.64004762537E+03  0.64004762537E+03  0.00000000000E+00 0.  1.
         25    1    1    2    0    0 -0.37409749634E+02 -0.14472147948E+03 -0.15055892024E+03  0.24624537448E+03  0.12500000000E+03 0.  0.
         25    1    1    2    0    0  0.37409749634E+02  0.14472147948E+03 -0.42015267559E+03  0.46313828043E+03  0.12500000000E+03 0.  0.
</event>
<event>
 4    0  0.2219362E-002  0.2219699E+03  0.7546771E-02  0.1132423E+00
         21   -1    0    0  502  501  0.00000000000E+00  0.00000000000E+00  0.43779212593E+03  0.43779212593E+03  0.00000000000E+00 0. -1.
         21   -1    0    0  501  502 -0.00000000000E+00 -0.00000000000E+00 -0.11254346817E+03  0.11254346817E+03  0.00000000000E+00 0. -1.
         25    1    1    2    0    0 -0.97376713190E+02  0.15540510481E+03  0.16703747805E+03  0.27777597079E+03  0.12500000000E+03 0.  0.
         25    1    1    2    0    0  0.97376713190E+02 -0.15540510481E+03  0.15821117971E+03  0.27255962330E+03  0.12500000000E+03 0.  0.
</event>
<event>
 4    0  0.2219362E-002  0.1320494E+03  0.7546771E-02  0.1224446E+00
         21   -1    0    0  502  501  0.00000000000E+00  0.00000000000E+00  0.71729623258E+02  0.71729623258E+02  0.00000000000E+00 0.  1.
         21   -1    0    0  501  502 -0.00000000000E+00 -0.00000000000E+00 -0.24309386636E+03  0.24309386636E+03  0.00000000000E+00 0.  1.
         25    1    1    2    0    0  0.87481346135E+01  0.33419047064E+02 -0.11533248316E+03  0.17355098455E+03  0.12500000000E+03 0.  0.
         25    1    1    2    0    0 -0.87481346135E+01 -0.33419047064E+02 -0.56031759940E+02  0.14127250507E+03  0.12500000000E+03 0.  0.
</event>
<event>
 4    0  0.2219362E-002  0.3022920E+03  0.7546771E-02  0.1084100E+00
         21   -1    0    0  502  501  0.00000000000E+00  0.00000000000E+00  0.11332070092E+03  0.11332070092E+03  0.00000000000E+00 0. -1.
         21   -1    0    0  501  502 -0.00000000000E+00 -0.00000000000E+00 -0.80638779784E+03  0.80638779784E+03  0.00000000000E+00 0. -1.
         25    1    1    2    0    0  0.47706838082E+02 -0.18098587661E+03 -0.39548878389E+02  0.22851902265E+03  0.12500000000E+03 0.  0.
         25    1    1    2    0    0 -0.47706838082E+02  0.18098587661E+03 -0.65351821853E+03  0.69118947611E+03  0.12500000000E+03 0.  0.
</event>
<event>
 4    0  0.2219362E-002  0.2445383E+03  0.7546771E-02  0.1116806E+00
         21   -1    0    0  502  501  0.00000000000E+00  0.00000000000E+00  0.31533474639E+02  0.31533474639E+02  0.00000000000E+00 0.  1.
         21   -1    0    0  501  502 -0.00000000000E+00 -0.00000000000E+00 -0.18963652397E+04  0.18963652397E+04  0.00000000000E+00 0.  1.
         25    1    1    2    0    0 -0.15701653194E+03  0.10681449142E+03 -0.12874172363E+04  0.13073376256E+04  0.12500000000E+03 0.  0.
         25    1    1    2    0    0  0.15701653194E+03 -0.10681449142E+03 -0.57741452868E+03  0.62056108870E+03  0.12500000000E+03 0.  0.
</event>
<event>
 4    0  0.2219362E-002  0.2660089E+03  0.7546771E-02  0.1103586E+00
         21   -1    0    0  502  501  0.00000000000E+00  0.00000000000E+00  0.19067602336E+03  0.19067602336E+03  0.00000000000E+00 0. -1.
         21   -1    0    0  501  502 -0.00000000000E+00 -0.00000000000E+00 -0.37110444832E+03  0.37110444832E+03  0.00000000000E+00 0. -1.
         25    1    1    2    0    0  0.79875529334E+02  0.85645116004E+02 -0.30512012720E+03  0.34991210054E+03  0.12500000000E+03 0.  0.
         25    1    1    2    0    0 -0.79875529334E+02 -0.85645116004E+02  0.12469170223E+03  0.21186837114E+03  0.12500000000E+03 0.  0.
</event>
<event>
 4    0  0.2219362E-002  0.2870740E+03  0.7546771E-02  0.1091887E+00
         21   -1    0    0  502  501  0.00000000000E+00  0.00000000000E+00  0.56236741561E+03  0.56236741561E+03  0.00000000000E+00 0. -1.
         21   -1    0    0  501  502 -0.00000000000E+00 -0.00000000000E+00 -0.14654384098E+03  0.14654384098E+03  0.00000000000E+00 0. -1.
         25    1    1    2    0    0  0.16157381709E+03 -0.10704183818E+03 -0.31580439420E+01  0.23064914206E+03  0.12500000000E+03 0.  0.
         25    1    1    2    0    0 -0.16157381709E+03  0.10704183818E+03  0.41898161858E+03  0.47826211453E+03  0.12500000000E+03 0.  0.
</event>
<event>
 4    0  0.2219362E-002  0.1615676E+03  0.7546771E-02  0.1186938E+00
         21   -1    0    0  502  501  0.00000000000E+00  0.00000000000E+00  0.85004355507E+03  0.85004355507E+03  0.00000000000E+00 0.  1.
         21   -1    0    0  501  502 -0.00000000000E+00 -0.00000000000E+00 -0.30709105288E+02  0.30709105288E+02  0.00000000000E+00 0.  1.
         25    1    1    2    0    0  0.11613740944E+02 -0.10152499800E+03  0.42621817994E+03  0.45577312461E+03  0.12500000000E+03 0.  0.
         25    1    1    2    0    0 -0.11613740944E+02  0.10152499800E+03  0.39311626984E+03  0.42497953575E+03  0.12500000000E+03 0.  0.
</event>
<event>
 4    0  0.2219362E-002  0.1706434E+03  0.7546771E-02  0.1177179E+00
         21   -1    0    0  502  501  0.00000000000E+00  0.00000000000E+00  0.11358737051E+03  0.11358737051E+03  0.00000000000E+00 0. -1.
         21   -1    0    0  501  502 -0.00000000000E+00 -0.00000000000E+00 -0.25635913979E+03  0.25635913979E+03  0.00000000000E+00 0. -1.
         25    1    1    2    0    0 -0.62132107781E+00 -0.11580495038E+03 -0.81260660089E+02  0.18878418220E+03  0.12500000000E+03 0.  0.
         25    1    1    2    0    0  0.62132107781E+00  0.11580495038E+03 -0.61511109192E+02  0.18116232811E+03  0.12500000000E+03 0.  0.
</event>
<event>
 4    0  0.2219362E-002  0.1606089E+03  0.7546771E-02  0.1188011E+00
         21   -1    0    0  502  501  0.00000000000E+00  0.00000000000E+00  0.37098248599E+02  0.37098248599E+02  0.00000000000E+00 0. -1.
         21   -1    0    0  501  502 -0.00000000000E+00 -0.00000000000E+00 -0.69532208296E+03  0.69532208296E+03  0.00000000000E+00 0. -1.
         25    1    1    2    0    0 -0.25857713157E+02 -0.38041343449E+02 -0.53374651712E+03  0.55011463322E+03  0.12500000000E+03 0.  0.
         25    1    1    2    0    0  0.25857713157E+02  0.38041343449E+02 -0.12447731725E+03  0.18230569835E+03  0.12500000000E+03 0.  0.
</event>
<event>
 4    0  0.2219362E-002  0.2188365E+03  0.7546771E-02  0.1134753E+00
         21   -1    0    0  502  501  0.00000000000E+00  0.00000000000E+00  0.34296417073E+03  0.34296417073E+03  0.00000000000E+00 0.  1.
         21   -1    0    0  501  502 -0.00000000000E+00 -0.00000000000E+00 -0.13963385091E+03  0.13963385091E+03  0.00000000000E+00 0.  1.
         25    1    1    2    0    0 -0.38475678961E+02 -0.13890221762E+03  0.21986031549E+03  0.29109751332E+03  0.12500000000E+03 0.  0.
         25    1    1    2    0    0  0.38475678961E+02  0.13890221762E+03 -0.16529995674E+02  0.19150050833E+03  0.12500000000E+03 0.  0.
</event>
<event>
 4    0  0.2219362E-002  0.2177867E+03  0.7546771E-02  0.1135544E+00
         21   -1    0    0  502  501  0.00000000000E+00  0.00000000000E+00  0.58025211975E+02  0.58025211975E+02  0.00000000000E+00 0. -1.
         21   -1    0    0  501  502 -0.00000000000E+00 -0.00000000000E+00 -0.81742109620E+03  0.81742109620E+03  0.00000000000E+00 0. -1.
         25    1    1    2    0    0 -0.94973341825E+01  0.30231227830E+02 -0.73243982269E+03  0.74370506275E+03  0.12500000000E+03 0.  0.
         25    1    1    2    0    0  0.94973341825E+01 -0.30231227830E+02 -0.26956061531E+02  0.13174124542E+03  0.12500000000E+03 0.  0.
</event>
<event>
 4    0  0.2219362E-002  0.3294783E+03  0.7546771E-02  0.1071368E+00
         21   -1    0    0  502  501  0.00000000000E+00  0.00000000000E+00  0.67857017748E+02  0.67857017748E+02  0.00000000000E+00 0.  1.
         21   -1    0    0  501  502 -0.00000000000E+00 -0.00000000000E+00 -0.15997751527E+04  0.15997751527E+04  0.00000000000E+00 0.  1.
         25    1    1    2    0    0 -0.15084369184E+03  0.26457812368E+03 -0.73242655226E+03  0.80301248891E+03  0.12500000000E+03 0.  0.
         25    1    1    2    0    0  0.15084369184E+03 -0.26457812368E+03 -0.79949158270E+03  0.86461968154E+03  0.12500000000E+03 0.  0.
</event>
<event>
 4    0  0.2219362E-002  0.1960582E+03  0.7546771E-02  0.1153108E+00
         21   -1    0    0  502  501  0.00000000000E+00  0.00000000000E+00  0.87770072388E+02  0.87770072388E+02  0.00000000000E+00 0. -1.
         21   -1    0    0  501  502 -0.00000000000E+00 -0.00000000000E+00 -0.43794907370E+03  0.43794907370E+03  0.00000000000E+00 0. -1.
         25    1    1    2    0    0  0.61108185784E+02 -0.11853122628E+03 -0.80002526763E+02  0.19952259587E+03  0.12500000000E+03 0.  0.
         25    1    1    2    0    0 -0.61108185784E+02  0.11853122628E+03 -0.27017647455E+03  0.32619655022E+03  0.12500000000E+03 0.  0.
</event>
<event>
 4    0  0.2219362E-002  0.1795596E+03  0.7546771E-02  0.1168230E+00
         21   -1    0    0  502  501  0.00000000000E+00  0.00000000000E+00  0.12029410266E+03  0.12029410266E+03  0.00000000000E+00 0. -1.
         21   -1    0    0  501  502 -0.00000000000E+00 -0.00000000000E+00 -0.26802341998E+03  0.26802341998E+03  0.00000000000E+00 0. -1.
         25    1    1    2    0    0 -0.98557088605E+02 -0.71387341345E+02 -0.27899826849E+02  0.17667216124E+03  0.12500000000E+03 0.  0.
         25    1    1    2    0    0  0.98557088605E+02  0.71387341345E+02 -0.11982949047E+03  0.21164536141E+03  0.12500000000E+03 0.  0.
</event>
<event>
 4    0  0.2219362E-002  0.1929828E+03  0.7546771E-02  0.1155798E+00
         21   -1    0    0  502  501  0.00000000000E+00  0.00000000000E+00  0.14121038608E+04  0.14121038608E+04  0.00000000000E+00 0.  1.
         21   -1    0    0  501  502 -0.00000000000E+00 -0.00000000000E+00 -0.26373656424E+02  0.26373656424E+02  0.00000000000E+00 0.  1.
         25    1    1    2    0    0  0.11461887682E+03 -0.46070230775E+02  0.39570261642E+03  0.43297287875E+03  0.12500000000E+03 0.  0.
         25    1    1    2    0    0 -0.11461887682E+03  0.46070230775E+02  0.99002758791E+03  0.10055046384E+04  0.12500000000E+03 0.  0.
</event>
<event>
 4    0  0.2219362E-002  0.2017898E+03  0.7546771E-02  0.1148238E+00
         21   -1    0    0  502  501  0.00000000000E+00  0.00000000000E+00  0.36262583399E+03  0.36262583399E+03  0.00000000000E+00 0.  1.
         21   -1    0    0  501  502 -0.00000000000E+00 -0.00000000000E+00 -0.11228958486E+03  0.11228958486E+03  0.00000000000E+00 0.  1.
         25    1    1    2    0    0 -0.15548191440E+03 -0.98503228080E+01  0.91420604579E+02  0.21966879958E+03  0.12500000000E+03 0.  0.
         25    1    1    2    0    0  0.15548191440E+03  0.98503228080E+01  0.15891564455E+03  0.25524661927E+03  0.12500000000E+03 0.  0.
</event>
<event>
 4    0  0.2219362E-002  0.2239664E+03  0.7546771E-02  0.1130960E+00
         21   -1    0    0  502  501  0.00000000000E+00  0.00000000000E+00  0.31216795098E+03  0.31216795098E+03  0.00000000000E+00 0.  1.
         21   -1    0    0  501  502 -0.00000000000E+00 -0.00000000000E+00 -0.16068578422E+03  0.16068578422E+03  0.00000000000E+00 0.  1.
         25    1    1    2    0    0 -0.58767968956E+02  0.12836188152E+03 -0.51835872465E+02  0.19555665286E+03  0.12500000000E+03 0.  0.
         25    1    1    2    0    0  0.58767968956E+02 -0.12836188152E+03  0.20331803922E+03  0.27729708234E+03  0.12500000000E+03 0.  0.
</event>
<event>
 4    0  0.2219362E-002  0.2263318E+03  0.7546771E-02  0.1129249E+00
         21   -1    0    0  502  501  0.00000000000E+00  0.00000000000E+00  0.95666338046E+02  0.95666338046E+02  0.00000000000E+00 0. -1.
         21   -1    0    0  501  502 -0.00000000000E+00 -0.00000000000E+00 -0.53546597130E+03  0.53546597130E+03  0.00000000000E+00 0. -1.
         25    1    1    2    0    0 -0.76112119207E+02 -0.16779173987E+03 -0.16319687856E+03  0.27605315400E+03  0.12500000000E+03 0.  0.
         25    1    1    2    0    0  0.76112119207E+02  0.16779173987E+03 -0.27660275469E+03  0.35507915535E+03  0.12500000000E+03 0.  0.
</event>
<event>
 4    0  0.2219362E-002  0.3169505E+03  0.7546771E-02  0.1077061E+00
         21   -1    0    0  502  501  0.00000000000E+00  0.00000000000E+00  0.45598799137E+03  0.45598799137E+03  0.00000000000E+00 0.  1.
         21   -1    0    0  501  502 -0.00000000000E+00 -0.00000000000E+00 -0.22030757629E+03  0.22030757629E+03  0.00000000000E+00 0.  1.
         25    1    1    2    0    0 -0.18227620391E+02 -0.28995004179E+03  0.95734015339E+02  0.33044405664E+03  0.12500000000E+03 0.  0.
         25    1    1    2    0    0  0.18227620391E+02  0.28995004179E+03  0.13994639974E+03  0.34585151102E+03  0.12500000000E+03 0.  0.
</event>
<event>
 4    0  0.2219362E-002  0.1927243E+03  0.7546771E-02  0.1156027E+00
         21   -1    0    0  502  501  0.00000000000E+00  0.00000000000E+00  0.14850512316E+03  0.14850512316E+03  0.00000000000E+00 0. -1.
         21   -1    0    0  501  502 -0.00000000000E+00 -0.00000000000E+00 -0.25011025905E+03  0.25011025905E+03  0.00000000000E+00 0. -1.
         25    1    1    2    0    0  0.29483022560E+01  0.13966114266E+03 -0.97094672297E+02  0.21110732494E+03  0.12500000000E+03 0.  0.
         25    1    1    2    0    0 -0.29483022560E+01 -0.13966114266E+03 -0.45104635971E+01  0.18750805726E+03  0.12500000000E+03 0.  0.
</event>
<event>
 4    0  0.2219362E-002  0.1640214E+03  0.7546771E-02  0.1184230E+00
         21   -1    0    0  502  501  0.00000000000E+00  0.00000000000E+00  0.58334757683E+02  0.58334757683E+02  0.00000000000E+00 0.  1.
         21   -1    0    0  501  502 -0.00000000000E+00 -0.00000000000E+00 -0.46118309199E+03  0.46118309199E+03  0.00000000000E+00 0.  1.
         25    1    1    2    0    0  0.18564894675E+02 -0.23641064179E+02 -0.36273094055E+03  0.38484060396E+03  0.12500000000E+03 0.  0.
         25    1    1    2    0    0 -0.18564894675E+02  0.23641064179E+02 -0.40117393762E+02  0.13467724571E+03  0.12500000000E+03 0.  0.
</event>
<event>
 4    0  0.2219362E-002  0.1683604E+03  0.7546771E-02  0.1179569E+00
         21   -1    0    0  502  501  0.00000000000E+00  0.00000000000E+00  0.29921657999E+03  0.29921657999E+03  0.00000000000E+00 0. -1.
         21   -1    0    0  501  502 -0.00000000000E+00 -0.00000000000E+00 -0.94731423952E+02  0.94731423952E+02  0.00000000000E+00 0. -1.
         25    1    1    2    0    0  0.53846334587E+02  0.17476367020E+02  0.21636781587E+03  0.25621257365E+03  0.12500000000E+03 0.  0.
         25    1    1    2    0    0 -0.53846334587E+02 -0.17476367020E+02 -0.11882659832E+02  0.13773543029E+03  0.12500000000E+03 0.  0.
</event>
<event>
 4    0  0.2219362E-002  0.3889039E+03  0.7546771E-02  0.1047691E+00
         21   -1    0    0  502  501  0.00000000000E+00  0.00000000000E+00  0.14386488010E+04  0.14386488010E+04  0.00000000000E+00 0.  1.
         21   -1    0    0  501  502 -0.00000000000E+00 -0.00000000000E+00 -0.10513074599E+03  0.10513074599E+03  0.00000000000E+00 0.  1.
         25    1    1    2    0    0  0.17500308945E+03 -0.29606913259E+03  0.40541346051E+03  0.54613925564E+03  0.12500000000E+03 0.  0.
         25    1    1    2    0    0 -0.17500308945E+03  0.29606913259E+03  0.92810459448E+03  0.99764029133E+03  0.12500000000E+03 0.  0.
</event>
<event>
 4    0  0.2219362E-002  0.2791544E+03  0.7546771E-02  0.1096152E+00
         21   -1    0    0  502  501  0.00000000000E+00  0.00000000000E+00  0.20758752979E+03  0.20758752979E+03  0.00000000000E+00 0. -1.
         21   -1    0    0  501  502 -0.00000000000E+00 -0.00000000000E+00 -0.37539435378E+03  0.37539435378E+03  0.00000000000E+00 0. -1.
         25    1    1    2    0    0  0.86403121152E+02 -0.21388815030E+03 -0.18345032102E+03  0.32014474924E+03  0.12500000000E+03 0.  0.
         25    1    1    2    0    0 -0.86403121152E+02  0.21388815030E+03  0.15643497022E+02  0.26283713433E+03  0.12500000000E+03 0.  0.
</event>
<event>
 4    0  0.2219362E-002  0.2083338E+03  0.7546771E-02  0.1142892E+00
         21   -1    0    0  502  501  0.00000000000E+00  0.00000000000E+00  0.88371734652E+02  0.88371734652E+02  0.00000000000E+00 0.  1.
         21   -1    0    0  501  502 -0.00000000000E+00 -0.00000000000E+00 -0.49114078785E+03  0.49114078785E+03  0.00000000000E+00 0.  1.
         25    1    1    2    0    0 -0.91347680228E+02 -0.13868430976E+03 -0.18170410595E+03  0.27607810231E+03  0.12500000000E+03 0.  0.
         25    1    1    2    0    0  0.91347680228E+02  0.13868430976E+03 -0.22106494724E+03  0.30343442019E+03  0.12500000000E+03 0.  0.
</event>
<event>
 4    0  0.2219362E-002  0.2106383E+03  0.7546771E-02  0.1141062E+00
         21   -1    0    0  502  501  0.00000000000E+00  0.00000000000E+00  0.26669049525E+03  0.26669049525E+03  0.00000000000E+00 0. -1.
         21   -1    0    0  501  502 -0.00000000000E+00 -0.00000000000E+00 -0.16636691873E+03  0.16636691873E+03  0.00000000000E+00 0. -1.
         25    1    1    2    0    0 -0.15316689910E+03 -0.72685571254E+02  0.50603575518E+02  0.21663105295E+03  0.12500000000E+03 0.  0.
         25    1    1    2    0    0  0.15316689910E+03  0.72685571254E+02  0.49720001006E+02  0.21642636103E+03  0.12500000000E+03 0.  0.
</event>
<event>
 4    0  0.2219362E-002  0.2298518E+03  0.7546771E-02  0.1126744E+00
         21   -1    0    0  502  501  0.00000000000E+00  0.00000000000E+00  0.95075024145E+02  0.95075024145E+02  0.00000000000E+00 0.  1.
         21   -1    0    0  501  502 -0.00000000000E+00 -0.00000000000E+00 -0.55568597462E+03  0.55568597462E+03  0.00000000000E+00 0.  1.
         25    1    1    2    0    0  0.52773880319E+02  0.15319148456E+03 -0.82144848764E+02  0.22051188078E+03  0.12500000000E+03 0.  0.
         25    1    1    2    0    0 -0.52773880319E+02 -0.15319148456E+03 -0.37846610172E+03  0.43024911799E+03  0.12500000000E+03 0.  0.
</event>
<event>
 4    0  0.2219362E-002  0.1743026E+03  0.7546771E-02  0.1173434E+00
         21   -1    0    0  502  501  0.00000000000E+00  0.00000000000E+00  0.16821883741E+04  0.16821883741E+04  0.00000000000E+00 0.  1.
         21   -1    0    0  501  502 -0.00000000000E+00 -0.00000000000E+00 -0.18060636307E+02  0.18060636307E+02  0.00000000000E+00 0.  1.
         25    1    1    2    0    0  0.10660400876E+03 -0.51163082001E+02  0.69634568677E+03  0.71728961454E+03  0.12500000000E+03 0.  0.
         25    1    1    2    0    0 -0.10660400876E+03  0.51163082001E+02  0.96778205106E+03  0.98295939590E+03  0.12500000000E+03 0.  0.
</event>
<event>
 4    0  0.2219362E-002  0.3137621E+03  0.7546771E-02  0.1078556E+00
         21   -1    0    0  502  501  0.00000000000E+00  0.00000000000E+00  0.31415218116E+03  0.31415218116E+03  0.00000000000E+00 0.  1.
         21   -1    0    0  501  502 -0.00000000000E+00 -0.00000000000E+00 -0.31337256011E+03  0.31337256011E+03  0.00000000000E+00 0.  1.
         25    1    1    2    0    0  0.23517210145E+03 -0.44401039473E+02  0.16021578806E+03  0.31396093444E+03  0.12500000000E+03 0.  0.
         25    1    1    2    0    0 -0.23517210145E+03  0.44401039473E+02 -0.15943616701E+03  0.31356380684E+03  0.12500000000E+03 0.  0.
</event>
<event>
 4    0  0.2219362E-002  0.2943106E+03  0.7546771E-02  0.1088120E+00
         21   -1    0    0  502  501  0.00000000000E+00  0.00000000000E+00  0.43212596549E+03  0.43212596549E+03  0.00000000000E+00 0.  1.
         21   -1    0    0  501  502 -0.00000000000E+00 -0.00000000000E+00 -0.20044787953E+03  0.20044787953E+03  0.00000000000E+00 0.  1.
         25    1    1    2    0    0  0.15542174035E+03 -0.15211433280E+03 -0.49601044690E+02  0.25569503565E+03  0.12500000000E+03 0.  0.
         25    1    1    2    0    0 -0.15542174035E+03  0.15211433280E+03  0.28127913065E+03  0.37687880938E+03  0.12500000000E+03 0.  0.
</event>
<event>
 4    0  0.2219362E-002  0.3201968E+03  0.7546771E-02  0.1075559E+00
         21   -1    0    0  502  501  0.00000000000E+00  0.00000000000E+00  0.99763171976E+02  0.99763171976E+02  0.00000000000E+00 0. -1.
         21   -1    0    0  501  502 -0.00000000000E+00 -0.00000000000E+00 -0.10276938024E+04  0.10276938024E+04  0.00000000000E+00 0. -1.
         25    1    1    2    0    0 -0.77305346118E+02 -0.71751485714E+01  0.36709589590E+02  0.15165814605E+03  0.12500000000E+03 0.  0.
         25    1    1    2    0    0  0.77305346118E+02  0.71751485714E+01 -0.96464022002E+03  0.97579882834E+03  0.12500000000E+03 0.  0.
</event>
<event>
 4    0  0.2219362E-002  0.4490696E+03  0.7546771E-02  0.1028000E+00
         21   -1    0    0  502  501  0.00000000000E+00  0.00000000000E+00  0.48789631543E+03  0.48789631543E+03  0.00000000000E+00 0. -1.
         21   -1    0    0  501  502 -0.00000000000E+00 -0.00000000000E+00 -0.41333262332E+03  0.41333262332E+03  0.00000000000E+00 0. -1.
         25    1    1    2    0    0  0.45557023148E+02 -0.10441239677E+03 -0.38015542018E+03  0.41607755822E+03  0.12500000000E+03 0.  0.
         25    1    1    2    0    0 -0.45557023148E+02  0.10441239677E+03  0.45471911229E+03  0.48515138054E+03  0.12500000000E+03 0.  0.
</event>
<event>
 4    0  0.2219362E-002  0.2561858E+03  0.7546771E-02  0.1109457E+00
         21   -1    0    0  502  501  0.00000000000E+00  0.00000000000E+00  0.62004771424E+03  0.62004771424E+03  0.00000000000E+00 0. -1.
         21   -1    0    0  501  502 -0.00000000000E+00 -0.00000000000E+00 -0.10584857476E+03  0.10584857476E+03  0.00000000000E+00 0. -1.
         25    1    1    2    0    0 -0.99750940626E+02 -0.30698460280E+02 -0.23090652312E+02  0.16447134657E+03  0.12500000000E+03 0.  0.
         25    1    1    2    0    0  0.99750940626E+02  0.30698460280E+02  0.53728979179E+03  0.56142494243E+03  0.12500000000E+03 0.  0.
</event>
<event>
 4    0  0.2219362E-002  0.2144161E+03  0.7546771E-02  0.1138116E+00
         21   -1    0    0  502  501  0.00000000000E+00  0.00000000000E+00  0.69988562052E+03  0.69988562052E+03  0.00000000000E+00 0.  1.
         21   -1    0    0  501  502 -0.00000000000E+00 -0.00000000000E+00 -0.65688238062E+02  0.65688238062E+02  0.00000000000E+00 0.  1.
         25    1    1    2    0    0  0.13954512139E+03  0.85403889798E+02  0.42395451310E+03  0.47130573354E+03  0.12500000000E+03 0.  0.
         25    1    1    2    0    0 -0.13954512139E+03 -0.85403889798E+02  0.21024286936E+03  0.29426812503E+03  0.12500000000E+03 0.  0.
</event>
<event>
 4    0  0.2219362E-002  0.2147550E+03  0.7546771E-02  0.1137855E+00
         21   -1    0    0  502  501  0.00000000000E+00  0.00000000000E+00  0.14566652027E+03  0.14566652027E+03  0.00000000000E+00 0. -1.
         21   -1    0    0  501  502 -0.00000000000E+00 -0.00000000000E+00 -0.31661147597E+03  0.31661147597E+03  0.00000000000E+00 0. -1.
         25    1    1    2    0    0 -0.27793807844E+02  0.14712229273E+03 -0.18220247549E+03  0.26690861142E+03  0.12500000000E+03 0.  0.
         25    1    1    2    0    0  0.27793807844E+02 -0.14712229273E+03  0.11257519786E+02  0.19536938482E+03  0.12500000000E+03 0.  0.
</event>
<event>
 4    0  0.2219362E-002  0.2358238E+03  0.7546771E-02  0.1122607E+00
         21   -1    0    0  502  501  0.00000000000E+00  0.00000000000E+00  0.22276241989E+03  0.22276241989E+03  0.00000000000E+00 0.  1.
         21   -1    0    0  501  502 -0.00000000000E+00 -0.00000000000E+00 -0.24965100211E+03  0.24965100211E+03  0.00000000000E+00 0.  1.
         25    1    1    2    0    0 -0.58009753345E+02  0.85473602887E+02 -0.18494437008E+03  0.24596806357E+03  0.12500000000E+03 0.  0.
         25    1    1    2    0    0  0.58009753345E+02 -0.85473602887E+02  0.15805578786E+03  0.22644535842E+03  0.12500000000E+03 0.  0.
</event>
<event>
 4    0  0.2219362E-002  0.2691160E+03  0.7546771E-02  0.1101787E+00
         21   -1    0    0  502  501  0.00000000000E+00  0.00000000000E+00  0.17678101154E+04  0.17678101154E+04  0.00000000000E+00 0.  1.
         21   -1    0    0  501  502 -0.00000000000E+00 -0.00000000000E+00 -0.40967871594E+02  0.40967871594E+02  0.00000000000E+00 0. -1.
         25    1    1    2    0    0  0.18968443505E+03  0.91473464637E+02  0.48843512126E+03  0.54638946486E+03  0.12500000000E+03 0.  0.
         25    1    1    2    0    0 -0.18968443505E+03 -0.91473464637E+02  0.12384071225E+04  0.12623885221E+04  0.12500000000E+03 0.  0.
</event>
<event>
 4    0  0.2219362E-002  0.2749882E+03  0.7546771E-02  0.1098458E+00
         21   -1    0    0  502  501  0.00000000000E+00  0.00000000000E+00  0.84841983659E+03  0.84841983659E+03  0.00000000000E+00 0. -1.
         21   -1    0    0  501  502 -0.00000000000E+00 -0.00000000000E+00 -0.89128675523E+02  0.89128675523E+02  0.00000000000E+00 0. -1.
         25    1    1    2    0    0  0.36858039140E+02 -0.20448541324E+03  0.15855403752E+03  0.28971914346E+03  0.12500000000E+03 0.  0.
         25    1    1    2    0    0 -0.36858039140E+02  0.20448541324E+03  0.60073712355E+03  0.64782936865E+03  0.12500000000E+03 0.  0.
</event>
<event>
 4    0  0.2219362E-002  0.2962811E+03  0.7546771E-02  0.1087115E+00
         21   -1    0    0  502  501  0.00000000000E+00  0.00000000000E+00  0.57907137122E+03  0.57907137122E+03  0.00000000000E+00 0.  1.
         21   -1    0    0  501  502 -0.00000000000E+00 -0.00000000000E+00 -0.15159181727E+03  0.15159181727E+03  0.00000000000E+00 0.  1.
         25    1    1    2    0    0  0.12043081490E+03  0.23998187487E+03  0.22349575105E+03  0.37103939438E+03  0.12500000000E+03 0.  0.
         25    1    1    2    0    0 -0.12043081490E+03 -0.23998187487E+03  0.20398380290E+03  0.35962379411E+03  0.12500000000E+03 0.  0.
</event>
<event>
 4    0  0.2219362E-002  0.2578658E+03  0.7546771E-02  0.1108432E+00
         21   -1    0    0  502  501  0.00000000000E+00  0.00000000000E+00  0.20459836793E+04  0.20459836793E+04  0.00000000000E+00 0.  1.
         21   -1    0    0  501  502 -0.00000000000E+00 -0.00000000000E+00 -0.32500148155E+02  0.32500148155E+02  0.00000000000E+00 0.  1.
         25    1    1    2    0    0 -0.36070056113E+02  0.19516519840E+03  0.14385391618E+04  0.14575357367E+04  0.12500000000E+03 0.  0.
         25    1    1    2    0    0  0.36070056113E+02 -0.19516519840E+03  0.57494436929E+03  0.62094809074E+03  0.12500000000E+03 0.  0.
</event>
<event>
 4    0  0.2219362E-002  0.2162900E+03  0.7546771E-02  0.1136680E+00
         21   -1    0    0  502  501  0.00000000000E+00  0.00000000000E+00  0.38362041849E+03  0.38362041849E+03  0.00000000000E+00 0.  1.
         21   -1    0    0  501  502 -0.00000000000E+00 -0.00000000000E+00 -0.12194699624E+03  0.12194699624E+03  0.00000000000E+00 0.  1.
         25    1    1    2    0    0 -0.29733078856E+02  0.12860027055E+03  0.26780356893E+03  0.32367551204E+03  0.12500000000E+03 0.  0.
         25    1    1    2    0    0  0.29733078856E+02 -0.12860027055E+03 -0.61301466879E+01  0.18189190269E+03  0.12500000000E+03 0.  0.
</event>
<event>
 4    0  0.2219362E-002  0.2468216E+03  0.7546771E-02  0.1115330E+00
         21   -1    0    0  502  501  0.00000000000E+00  0.00000000000E+00  0.10631138518E+03  0.10631138518E+03  0.00000000000E+00 0.  1.
         21   -1    0    0  501  502 -0.00000000000E+00 -0.00000000000E+00 -0.57304192665E+03  0.57304192665E+03  0.00000000000E+00 0.  1.
         25    1    1    2    0    0  0.14720472178E+02  0.48645695886E+02  0.51055663290E+02  0.14427327120E+03  0.12500000000E+03 0.  0.
         25    1    1    2    0    0 -0.14720472178E+02 -0.48645695886E+02 -0.51778620476E+03  0.53508004062E+03  0.12500000000E+03 0.  0.
</event>
<event>
 4    0  0.2219362E-002  0.3232838E+03  0.7546771E-02  0.1074148E+00
         21   -1    0    0  502  501  0.00000000000E+00  0.00000000000E+00  0.28026265165E+03  0.28026265165E+03  0.00000000000E+00 0. -1.
         21   -1    0    0  501  502 -0.00000000000E+00 -0.00000000000E+00 -0.37290875023E+03  0.37290875023E+03  0.00000000000E+00 0. -1.
         25    1    1    2    0    0  0.21272942925E+03  0.16223616988E+02  0.16405957875E+03  0.29674494300E+03  0.12500000000E+03 0.  0.
         25    1    1    2    0    0 -0.21272942925E+03 -0.16223616988E+02 -0.25670567733E+03  0.35642645888E+03  0.12500000000E+03 0.  0.
</event>
<event>
 4    0  0.2219362E-002  0.1772175E+03  0.7546771E-02  0.1170523E+00
         21   -1    0    0  502  501  0.00000000000E+00  0.00000000000E+00  0.18649781850E+03  0.18649781850E+03  0.00000000000E+00 0.  1.
         21   -1    0    0  501  502 -0.00000000000E+00 -0.00000000000E+00 -0.16839905255E+03  0.16839905255E+03  0.00000000000E+00 0.  1.
         25    1    1    2    0    0 -0.37119774277E+02 -0.24341485080E+02  0.12672130716E+03  0.18344938056E+03  0.12500000000E+03 0.  0.
         25    1    1    2    0    0  0.37119774277E+02  0.24341485080E+02 -0.10862254120E+03  0.17144749049E+03  0.12500000000E+03 0.  0.
</event>
<event>
 4    0  0.2219362E-002  0.1701473E+03  0.7546771E-02  0.1177694E+00
         21   -1    0    0  502  501  0.00000000000E+00  0.00000000000E+00  0.15624551779E+03  0.15624551779E+03  0.00000000000E+00 0. -1.
         21   -1    0    0  501  502 -0.00000000000E+00 -0.00000000000E+00 -0.18528593505E+03  0.18528593505E+03  0.00000000000E+00 0. -1.
         25    1    1    2    0    0  0.13787297926E+02 -0.87189604239E+02  0.60134165177E+02  0.16441786549E+03  0.12500000000E+03 0.  0.
         25    1    1    2    0    0 -0.13787297926E+02  0.87189604239E+02 -0.89174582431E+02  0.17711358735E+03  0.12500000000E+03 0.  0.
</event>
<event>
 4    0  0.2219362E-002  0.3567492E+03  0.7546771E-02  0.1059879E+00
         21   -1    0    0  502  501  0.00000000000E+00  0.00000000000E+00  0.97626731232E+02  0.97626731232E+02  0.00000000000E+00 0.  1.
         21   -1    0    0  501  502 -0.00000000000E+00 -0.00000000000E+00 -0.13036384812E+04  0.13036384812E+04  0.00000000000E+00 0.  1.
         25    1    1    2    0    0  0.30056645962E+03 -0.47263255728E+02 -0.87422078873E+03  0.93405620786E+03  0.12500000000E+03 0.  0.
         25    1    1    2    0    0 -0.30056645962E+03  0.47263255728E+02 -0.33179096121E+03  0.46720900454E+03  0.12500000000E+03 0.  0.
</event>
<event>
 4    0  0.2219362E-002  0.2524978E+03  0.7546771E-02  0.1111736E+00
         21   -1    0    0  502  501  0.00000000000E+00  0.00000000000E+00  0.45959941034E+03  0.45959941034E+03  0.00000000000E+00 0. -1.
         21   -1    0    0  501  502 -0.00000000000E+00 -0.00000000000E+00 -0.13871895532E+03  0.13871895532E+03  0.00000000000E+00 0. -1.
         25    1    1    2    0    0 -0.21811698210E+03 -0.15271905765E+02  0.13918303430E+03  0.28775886784E+03  0.12500000000E+03 0.  0.
         25    1    1    2    0    0  0.21811698210E+03  0.15271905765E+02  0.18169742073E+03  0.31055949782E+03  0.12500000000E+03 0.  0.
</event>
<event>
 4    0  0.2219362E-002  0.2992790E+03  0.7546771E-02  0.1085602E+00
         21   -1    0    0  502  501  0.00000000000E+00  0.00000000000E+00  0.90145381864E+02  0.90145381864E+02  0.00000000000E+00 0.  1.
         21   -1    0    0  501  502 -0.00000000000E+00 -0.00000000000E+00 -0.99359403125E+03  0.99359403125E+03  0.00000000000E+00 0.  1.
         25    1    1    2    0    0 -0.21387193937E+02  0.23018664312E+02  0.37319846340E+02  0.13418286739E+03  0.12500000000E+03 0.  0.
         25    1    1    2    0    0  0.21387193937E+02 -0.23018664312E+02 -0.94076849573E+03  0.94955654572E+03  0.12500000000E+03 0.  0.
</event>
<event>
 4    0  0.2219362E-002  0.2265439E+03  0.7546771E-02  0.1129096E+00
         21   -1    0    0  502  501  0.00000000000E+00  0.00000000000E+00  0.13185106682E+03  0.13185106682E+03  0.00000000000E+00 0. -1.
         21   -1    0    0  501  502 -0.00000000000E+00 -0.00000000000E+00 -0.38924322590E+03  0.38924322590E+03  0.00000000000E+00 0. -1.
         25    1    1    2    0    0  0.80073433224E+02 -0.61057368591E+02 -0.31255813471E+03  0.35136497341E+03  0.12500000000E+03 0.  0.
         25    1    1    2    0    0 -0.80073433224E+02  0.61057368591E+02  0.55165975628E+02  0.16972931931E+03  0.12500000000E+03 0.  0.
</event>
<event>
 4    0  0.2219362E-002  0.1794146E+03  0.7546771E-02  0.1168371E+00
         21   -1    0    0  502  501  0.00000000000E+00  0.00000000000E+00  0.18949682127E+03  0.18949682127E+03  0.00000000000E+00 0.  1.
         21   -1    0    0  501  502 -0.00000000000E+00 -0.00000000000E+00 -0.16986877533E+03  0.16986877533E+03  0.00000000000E+00 0.  1.
         25    1    1    2    0    0  0.12495393959E+03  0.26546099292E+02 -0.59069134095E+01  0.17882414276E+03  0.12500000000E+03 0.  0.
         25    1    1    2    0    0 -0.12495393959E+03 -0.26546099292E+02  0.25534959353E+02  0.18054145384E+03  0.12500000000E+03 0.  0.
</event>
<event>
 4    0  0.2219362E-002  0.2111754E+03  0.7546771E-02  0.1140639E+00
         21   -1    0    0  502  501  0.00000000000E+00  0.00000000000E+00  0.71819761416E+03  0.71819761416E+03  0.00000000000E+00 0.  1.
         21   -1    0    0  501  502 -0.00000000000E+00 -0.00000000000E+00 -0.62093004751E+02  0.62093004751E+02  0.00000000000E+00 0.  1.
         25    1    1    2    0    0  0.29254180154E+02 -0.14717170214E+03  0.17962214891E+03  0.26533833750E+03  0.12500000000E+03 0.  0.
         25    1    1    2    0    0 -0.29254180154E+02  0.14717170214E+03  0.47648246050E+03  0.51495228141E+03  0.12500000000E+03 0.  0.
</event>
<event>
 4    0  0.2219362E-002  0.2824739E+03  0.7546771E-02  0.1094345E+00
         21   -1    0    0  502  501  0.00000000000E+00  0.00000000000E+00  0.77258742552E+02  0.77258742552E+02  0.00000000000E+00 0. -1.
         21   -1    0    0  501  502 -0.00000000000E+00 -0.00000000000E+00 -0.10327826109E+04  0.10327826109E+04  0.00000000000E+00 0. -1.
         25    1    1    2    0    0  0.12488975644E+03  0.22024975343E+03 -0.49286460363E+03  0.56802105828E+03  0.12500000000E+03 0.  0.
         25    1    1    2    0    0 -0.12488975644E+03 -0.22024975343E+03 -0.46265926477E+03  0.54202029522E+03  0.12500000000E+03 0.  0.
</event>
<event>
 4    0  0.2219362E-002  0.1642863E+03  0.7546771E-02  0.1183941E+00
         21   -1    0    0  502  501  0.00000000000E+00  0.00000000000E+00  0.58908692105E+03  0.58908692105E+03  0.00000000000E+00 0.  1.
         21   -1    0    0  501  502 -0.00000000000E+00 -0.00000000000E+00 -0.45816653474E+02  0.45816653474E+02  0.00000000000E+00 0.  1.
         25    1    1    2    0    0  0.99227752723E+02  0.37705036583E+02  0.25258698129E+03  0.30115278483E+03  0.12500000000E+03 0.  0.
         25    1    1    2    0    0 -0.99227752723E+02 -0.37705036583E+02  0.29068328628E+03  0.33375078969E+03  0.12500000000E+03 0.  0.
</event>
<event>
 4    0  0.2219362E-002  0.2562910E+03  0.7546771E-02  0.1109392E+00
         21   -1    0    0  502  501  0.00000000000E+00  0.00000000000E+00  0.60327019188E+03  0.60327019188E+03  0.00000000000E+00 0.  1.
         21   -1    0    0  501  502 -0.00000000000E+00 -0.00000000000E+00 -0.10888167154E+03  0.10888167154E+03  0.00000000000E+00 0.  1.
         25    1    1    2    0    0  0.18266635386E+03 -0.11904849171E+03  0.17744253641E+03  0.30765304149E+03  0.12500000000E+03 0.  0.
         25    1    1    2    0    0 -0.18266635386E+03  0.11904849171E+03  0.31694598394E+03  0.40449882193E+03  0.12500000000E+03 0.  0.
</event>
<event>
 4    0  0.2219362E-002  0.2828008E+03  0.7546771E-02  0.1094169E+00
         21   -1    0    0  502  501  0.00000000000E+00  0.00000000000E+00  0.13976247876E+04  0.13976247876E+04  0.00000000000E+00 0. -1.
         21   -1    0    0  501  502 -0.00000000000E+00 -0.00000000000E+00 -0.57222995434E+02  0.57222995434E+02  0.00000000000E+00 0. -1.
         25    1    1    2    0    0 -0.10840414192E+03  0.21422568492E+03  0.45954346616E+03  0.53333788479E+03  0.12500000000E+03 0.  0.
         25    1    1    2    0    0  0.10840414192E+03 -0.21422568492E+03  0.88085832599E+03  0.92150989823E+03  0.12500000000E+03 0.  0.
</event>
<event>
 4    0  0.2219362E-002  0.2563981E+03  0.7546771E-02  0.1109327E+00
         21   -1    0    0  502  501  0.00000000000E+00  0.00000000000E+00  0.88512795119E+02  0.88512795119E+02  0.00000000000E+00 0. -1.
         21   -1    0    0  501  502 -0.00000000000E+00 -0.00000000000E+00 -0.74271750881E+03  0.74271750881E+03  0.00000000000E+00 0. -1.
         25    1    1    2    0    0  0.35224973447E+02 -0.13585282853E+03 -0.44390930905E+02  0.19311225886E+03  0.12500000000E+03 0.  0.
         25    1    1    2    0    0 -0.35224973447E+02  0.13585282853E+03 -0.60981378279E+03  0.63811804508E+03  0.12500000000E+03 0.  0.
</event>
<event>
 4    0  0.2219362E-002  0.2077954E+03  0.7546771E-02  0.1143324E+00
         21   -1    0    0  502  501  0.00000000000E+00  0.00000000000E+00  0.28255056952E+03  0.28255056952E+03  0.00000000000E+00 0. -1.
         21   -1    0    0  501  502 -0.00000000000E+00 -0.00000000000E+00 -0.15281835638E+03  0.15281835638E+03  0.00000000000E+00 0. -1.
         25    1    1    2    0    0 -0.91657831936E+01 -0.10096720554E+03  0.20255763156E+03  0.25871409370E+03  0.12500000000E+03 0.  0.
         25    1    1    2    0    0  0.91657831936E+01  0.10096720554E+03 -0.72825418412E+02  0.17665483221E+03  0.12500000000E+03 0.  0.
</event>
<event>
 4    0  0.2219362E-002  0.2471841E+03  0.7546771E-02  0.1115097E+00
         21   -1    0    0  502  501  0.00000000000E+00  0.00000000000E+00  0.22286092505E+03  0.22286092505E+03  0.00000000000E+00 0. -1.
         21   -1    0    0  501  502 -0.00000000000E+00 -0.00000000000E+00 -0.27416189071E+03  0.27416189071E+03  0.00000000000E+00 0. -1.
         25    1    1    2    0    0  0.12421861851E+03  0.67249418484E+02 -0.18626510207E+03  0.26508949002E+03  0.12500000000E+03 0.  0.
         25    1    1    2    0    0 -0.12421861851E+03 -0.67249418484E+02  0.13496413641E+03  0.23193332574E+03  0.12500000000E+03 0.  0.
</event>
<event>
 4    0  0.2219362E-002  0.3168711E+03  0.7546771E-02  0.1077098E+00
         21   -1    0    0  502  501  0.00000000000E+00  0.00000000000E+00  0.26384987253E+03  0.26384987253E+03  0.00000000000E+00 0. -1.
         21   -1    0    0  501  502 -0.00000000000E+00 -0.00000000000E+00 -0.38054711173E+03  0.38054711173E+03  0.00000000000E+00 0. -1.
         25    1    1    2    0    0  0.31270210961E+02  0.26633403404E+03  0.57007677298E+02  0.30130801359E+03  0.12500000000E+03 0.  0.
         25    1    1    2    0    0 -0.31270210961E+02 -0.26633403404E+03 -0.17370491650E+03  0.34308897067E+03  0.12500000000E+03 0.  0.
</event>
<event>
 4    0  0.2219362E-002  0.2744001E+03  0.7546771E-02  0.1098787E+00
         21   -1    0    0  502  501  0.00000000000E+00  0.00000000000E+00  0.36402700039E+03  0.36402700039E+03  0.00000000000E+00 0.  1.
         21   -1    0    0  501  502 -0.00000000000E+00 -0.00000000000E+00 -0.20684013687E+03  0.20684013687E+03  0.00000000000E+00 0.  1.
         25    1    1    2    0    0  0.11464953211E+02  0.24273867422E+03  0.52757560519E+02  0.27831972497E+03  0.12500000000E+03 0.  0.
         25    1    1    2    0    0 -0.11464953211E+02 -0.24273867422E+03  0.10442930300E+03  0.29254741229E+03  0.12500000000E+03 0.  0.
</event>
<event>
 4    0  0.2219362E-002  0.6470695E+03  0.7546771E-02  0.9812294E-01
         21   -1    0    0  502  501  0.00000000000E+00  0.00000000000E+00  0.13536161790E+04  0.13536161790E+04  0.00000000000E+00 0. -1.
         21   -1    0    0  501  502 -0.00000000000E+00 -0.00000000000E+00 -0.30931882996E+03  0.30931882996E+03  0.00000000000E+00 0. -1.
         25    1    1    2    0    0 -0.14292604819E+03 -0.23473680944E+03  0.12575588810E+04  0.12932936883E+04  0.12500000000E+03 0.  0.
         25    1    1    2    0    0  0.14292604819E+03  0.23473680944E+03 -0.21326153194E+03  0.36964132069E+03  0.12500000000E+03 0.  0.
</event>
<event>
 4    0  0.2219362E-002  0.2191896E+03  0.7546771E-02  0.1134489E+00
         21   -1    0    0  502  501  0.00000000000E+00  0.00000000000E+00  0.24250408988E+03  0.24250408988E+03  0.00000000000E+00 0.  1.
         21   -1    0    0  501  502 -0.00000000000E+00 -0.00000000000E+00 -0.19811661966E+03  0.19811661966E+03  0.00000000000E+00 0.  1.
         25    1    1    2    0    0 -0.13710914759E+03  0.80455552171E+02  0.10716637895E+03  0.22887037162E+03  0.12500000000E+03 0.  0.
         25    1    1    2    0    0  0.13710914759E+03 -0.80455552171E+02 -0.62778908732E+02  0.21175033792E+03  0.12500000000E+03 0.  0.
</event>
<event>
 4    0  0.2219362E-002  0.2356088E+03  0.7546771E-02  0.1122753E+00
         21   -1    0    0  502  501  0.00000000000E+00  0.00000000000E+00  0.10147706978E+04  0.10147706978E+04  0.00000000000E+00 0. -1.
         21   -1    0    0  501  502 -0.00000000000E+00 -0.00000000000E+00 -0.54703484056E+02  0.54703484056E+02  0.00000000000E+00 0. -1.
         25    1    1    2    0    0  0.17516767148E+03 -0.14950179160E+02  0.26496876814E+03  0.34167333679E+03  0.12500000000E+03 0.  0.
         25    1    1    2    0    0 -0.17516767148E+03  0.14950179160E+02  0.69509844562E+03  0.72780084508E+03  0.12500000000E+03 0.  0.
</event>
<event>
 4    0  0.2219362E-002  0.1771291E+03  0.7546771E-02  0.1170611E+00
         21   -1    0    0  502  501  0.00000000000E+00  0.00000000000E+00  0.10942192479E+04  0.10942192479E+04  0.00000000000E+00 0. -1.
         21   -1    0    0  501  502 -0.00000000000E+00 -0.00000000000E+00 -0.28673161505E+02  0.28673161505E+02  0.00000000000E+00 0. -1.
         25    1    1    2    0    0 -0.68494656854E+01  0.12481958042E+03  0.49763617972E+03  0.52810378734E+03  0.12500000000E+03 0.  0.
         25    1    1    2    0    0  0.68494656854E+01 -0.12481958042E+03  0.56790990669E+03  0.59478862208E+03  0.12500000000E+03 0.  0.
</event>
<event>
 4    0  0.2219362E-002  0.2557695E+03  0.7546771E-02  0.1109712E+00
         21   -1    0    0  502  501  0.00000000000E+00  0.00000000000E+00  0.27334369964E+04  0.27334369964E+04  0.00000000000E+00 0. -1.
         21   -1    0    0  501  502 -0.00000000000E+00 -0.00000000000E+00 -0.23932528952E+02  0.23932528952E+02  0.00000000000E+00 0. -1.
         25    1    1    2    0    0 -0.15894078722E+03 -0.13510645401E+03  0.17818199929E+04  0.17983390711E+04  0.12500000000E+03 0.  0.
         25    1    1    2    0    0  0.15894078722E+03  0.13510645401E+03  0.92768447460E+03  0.95903045425E+03  0.12500000000E+03 0.  0.
</event>
<event>
 4    0  0.2219362E-002  0.1982663E+03  0.7546771E-02  0.1151210E+00
         21   -1    0    0  502  501  0.00000000000E+00  0.00000000000E+00  0.16953836195E+03  0.16953836195E+03  0.00000000000E+00 0.  1.
         21   -1    0    0  501  502 -0.00000000000E+00 -0.00000000000E+00 -0.23186211947E+03  0.23186211947E+03  0.00000000000E+00 0.  1.
         25    1    1    2    0    0 -0.99700565384E+02  0.79309886765E+02  0.56236093906E+02  0.18713032660E+03  0.12500000000E+03 0.  0.
         25    1    1    2    0    0  0.99700565384E+02 -0.79309886765E+02 -0.11855985143E+03  0.21427015482E+03  0.12500000000E+03 0.  0.
</event>
<event>
 4    0  0.2219362E-002  0.1635729E+03  0.7546771E-02  0.1184721E+00
         21   -1    0    0  502  501  0.00000000000E+00  0.00000000000E+00  0.69480868710E+02  0.69480868710E+02  0.00000000000E+00 0.  1.
         21   -1    0    0  501  502 -0.00000000000E+00 -0.00000000000E+00 -0.38508589228E+03  0.38508589228E+03  0.00000000000E+00 0.  1.
         25    1    1    2    0    0 -0.30875728905E+02 -0.81118041634E+02 -0.74460109652E+02  0.16941887511E+03  0.12500000000E+03 0.  0.
         25    1    1    2    0    0  0.30875728905E+02  0.81118041634E+02 -0.24114491392E+03  0.28514788588E+03  0.12500000000E+03 0.  0.
</event>
<event>
 4    0  0.2219362E-002  0.2843829E+03  0.7546771E-02  0.1093319E+00
         21   -1    0    0  502  501  0.00000000000E+00  0.00000000000E+00  0.43033840510E+02  0.43033840510E+02  0.00000000000E+00 0. -1.
         21   -1    0    0  501  502 -0.00000000000E+00 -0.00000000000E+00 -0.18793027562E+04  0.18793027562E+04  0.00000000000E+00 0. -1.
         25    1    1    2    0    0  0.32637497177E+02 -0.20201542993E+03 -0.14348539737E+04  0.14547530258E+04  0.12500000000E+03 0.  0.
         25    1    1    2    0    0 -0.32637497177E+02  0.20201542993E+03 -0.40141494194E+03  0.46758357089E+03  0.12500000000E+03 0.  0.
</event>
<event>
 4    0  0.2219362E-002  0.2007468E+03  0.7546771E-02  0.1149110E+00
         21   -1    0    0  502  501  0.00000000000E+00  0.00000000000E+00  0.18364832954E+02  0.18364832954E+02  0.00000000000E+00 0. -1.
         21   -1    0    0  501  502 -0.00000000000E+00 -0.00000000000E+00 -0.21943725410E+04  0.21943725410E+04  0.00000000000E+00 0. -1.
         25    1    1    2    0    0 -0.55052229220E+02  0.14347226638E+03 -0.90863393212E+03  0.92997616193E+03  0.12500000000E+03 0.  0.
         25    1    1    2    0    0  0.55052229220E+02 -0.14347226638E+03 -0.12673737759E+04  0.12827612120E+04  0.12500000000E+03 0.  0.
</event>
<event>
 4    0  0.2219362E-002  0.2305426E+03  0.7546771E-02  0.1126258E+00
         21   -1    0    0  502  501  0.00000000000E+00  0.00000000000E+00  0.34236907917E+02  0.34236907917E+02  0.00000000000E+00 0. -1.
         21   -1    0    0  501  502 -0.00000000000E+00 -0.00000000000E+00 -0.15524144330E+04  0.15524144330E+04  0.00000000000E+00 0. -1.
         25    1    1    2    0    0 -0.70386928601E+01  0.10002295191E+03 -0.13294310208E+04  0.13390541338E+04  0.12500000000E+03 0.  0.
         25    1    1    2    0    0  0.70386928601E+01 -0.10002295191E+03 -0.18874650428E+03  0.24759720715E+03  0.12500000000E+03 0.  0.
</event>
<event>
 4    0  0.2219362E-002  0.1677576E+03  0.7546771E-02  0.1180207E+00
         21   -1    0    0  502  501  0.00000000000E+00  0.00000000000E+00  0.57944486026E+03  0.57944486026E+03  0.00000000000E+00 0. -1.
         21   -1    0    0  501  502 -0.00000000000E+00 -0.00000000000E+00 -0.48568238723E+02  0.48568238723E+02  0.00000000000E+00 0. -1.
         25    1    1    2    0    0 -0.28209744052E+02 -0.10267765631E+03  0.20116413823E+03  0.25967383633E+03  0.12500000000E+03 0.  0.
         25    1    1    2    0    0  0.28209744052E+02  0.10267765631E+03  0.32971248330E+03  0.36833926265E+03  0.12500000000E+03 0.  0.
</event>
<event>
 4    0  0.2219362E-002  0.2363351E+03  0.7546771E-02  0.1122259E+00
         21   -1    0    0  502  501  0.00000000000E+00  0.00000000000E+00  0.13057562093E+03  0.13057562093E+03  0.00000000000E+00 0. -1.
         21   -1    0    0  501  502 -0.00000000000E+00 -0.00000000000E+00 -0.42775413895E+03  0.42775413895E+03  0.00000000000E+00 0. -1.
         25    1    1    2    0    0  0.38413597164E+01 -0.15150451844E+03 -0.30377941792E+03  0.36176692760E+03  0.12500000000E+03 0.  0.
         25    1    1    2    0    0 -0.38413597164E+01  0.15150451844E+03  0.66008999052E+01  0.19656283228E+03  0.12500000000E+03 0.  0.
</event>
<event>
 4    0  0.2219362E-002  0.2733675E+03  0.7546771E-02  0.1099368E+00
         21   -1    0    0  502  501  0.00000000000E+00  0.00000000000E+00  0.77556552398E+02  0.77556552398E+02  0.00000000000E+00 0.  1.
         21   -1    0    0  501  502 -0.00000000000E+00 -0.00000000000E+00 -0.96355204337E+03  0.96355204337E+03  0.00000000000E+00 0.  1.
         25    1    1    2    0    0  0.13862177760E+03  0.31478639556E+02 -0.81856016227E+03  0.84016227077E+03  0.12500000000E+03 0.  0.
         25    1    1    2    0    0 -0.13862177760E+03 -0.31478639556E+02 -0.67435328707E+02  0.20094632500E+03  0.12500000000E+03 0.  0.
</event>
<event>
 4    0  0.2219362E-002  0.2056144E+03  0.7546771E-02  0.1145087E+00
         21   -1    0    0  502  501  0.00000000000E+00  0.00000000000E+00  0.19356271512E+03  0.19356271512E+03  0.00000000000E+00 0. -1.
         21   -1    0    0  501  502 -0.00000000000E+00 -0.00000000000E+00 -0.21841641099E+03  0.21841641099E+03  0.00000000000E+00 0. -1.
         25    1    1    2    0    0 -0.12062734646E+03 -0.59795356195E+02  0.80077068634E+02  0.20040902739E+03  0.12500000000E+03 0.  0.
         25    1    1    2    0    0  0.12062734646E+03  0.59795356195E+02 -0.10493076450E+03  0.21157009873E+03  0.12500000000E+03 0.  0.
</event>
<event>
 4    0  0.2219362E-002  0.1876484E+03  0.7546771E-02  0.1160600E+00
         21   -1    0    0  502  501  0.00000000000E+00  0.00000000000E+00  0.27483515365E+03  0.27483515365E+03  0.00000000000E+00 0. -1.
         21   -1    0    0  501  502 -0.00000000000E+00 -0.00000000000E+00 -0.12812017973E+03  0.12812017973E+03  0.00000000000E+00 0. -1.
         25    1    1    2    0    0  0.34638744005E+02 -0.10761269905E+03 -0.15224805606E+02  0.16922508764E+03  0.12500000000E+03 0.  0.
         25    1    1    2    0    0 -0.34638744005E+02  0.10761269905E+03  0.16193977952E+03  0.23373024574E+03  0.12500000000E+03 0.  0.
</event>
<event>
 4    0  0.2219362E-002  0.2453861E+03  0.7546771E-02  0.1116256E+00
         21   -1    0    0  502  501  0.00000000000E+00  0.00000000000E+00  0.72488180093E+02  0.72488180093E+02  0.00000000000E+00 0. -1.
         21   -1    0    0  501  502 -0.00000000000E+00 -0.00000000000E+00 -0.83067827288E+03  0.83067827288E+03  0.00000000000E+00 0. -1.
         25    1    1    2    0    0 -0.71304456194E+02 -0.17604412326E+03 -0.20929344445E+03  0.30903819294E+03  0.12500000000E+03 0.  0.
         25    1    1    2    0    0  0.71304456194E+02  0.17604412326E+03 -0.54889664834E+03  0.59412826003E+03  0.12500000000E+03 0.  0.
</event>
<event>
 4    0  0.2219362E-002  0.2138937E+03  0.7546771E-02  0.1138519E+00
         21   -1    0    0  502  501  0.00000000000E+00  0.00000000000E+00  0.10578470610E+03  0.10578470610E+03  0.00000000000E+00 0.  1.
         21   -1    0    0  501  502 -0.00000000000E+00 -0.00000000000E+00 -0.43248710641E+03  0.43248710641E+03  0.00000000000E+00 0.  1.
         25    1    1    2    0    0  0.13300306823E+03  0.10011198873E+03 -0.10153834214E+03  0.23161878458E+03  0.12500000000E+03 0.  0.
         25    1    1    2    0    0 -0.13300306823E+03 -0.10011198873E+03 -0.22516405816E+03  0.30665302792E+03  0.12500000000E+03 0.  0.
</event>
<event>
 4    0  0.2219362E-002  0.2071045E+03  0.7546771E-02  0.1143880E+00
         21   -1    0    0  502  501  0.00000000000E+00  0.00000000000E+00  0.18443978807E+03  0.18443978807E+03  0.00000000000E+00 0. -1.
         21   -1    0    0  501  502 -0.00000000000E+00 -0.00000000000E+00 -0.23255433452E+03  0.23255433452E+03  0.00000000000E+00 0. -1.
         25    1    1    2    0    0  0.67039859558E+02  0.14961649631E+03 -0.42313675748E+01  0.20620946440E+03  0.12500000000E+03 0.  0.
         25    1    1    2    0    0 -0.67039859558E+02 -0.14961649631E+03 -0.43883178880E+02  0.21078465819E+03  0.12500000000E+03 0.  0.
</event>
<event>
 4    0  0.2219362E-002  0.2332475E+03  0.7546771E-02  0.1124375E+00
         21   -1    0    0  502  501  0.00000000000E+00  0.00000000000E+00  0.10277612592E+03  0.10277612592E+03  0.00000000000E+00 0.  1.
         21   -1    0    0  501  502 -0.00000000000E+00 -0.00000000000E+00 -0.52934845509E+03  0.52934845509E+03  0.00000000000E+00 0.  1.
         25    1    1    2    0    0  0.86092378630E+02  0.13825288935E+03 -0.36328504542E+03  0.41728501447E+03  0.12500000000E+03 0.  0.
         25    1    1    2    0    0 -0.86092378630E+02 -0.13825288935E+03 -0.63287283752E+02  0.21483956655E+03  0.12500000000E+03 0.  0.
</event>
<event>
 4    0  0.2219362E-002  0.1907891E+03  0.7546771E-02  0.1157752E+00
         21   -1    0    0  502  501  0.00000000000E+00  0.00000000000E+00  0.75646388120E+02  0.75646388120E+02  0.00000000000E+00 0.  1.
         21   -1    0    0  501  502 -0.00000000000E+00 -0.00000000000E+00 -0.48119280161E+03  0.48119280161E+03  0.00000000000E+00 0.  1.
         25    1    1    2    0    0 -0.94818429171E+02  0.80844450700E+02 -0.30850123213E+03  0.35542139771E+03  0.12500000000E+03 0.  0.
         25    1    1    2    0    0  0.94818429171E+02 -0.80844450700E+02 -0.97045181356E+02  0.20141779202E+03  0.12500000000E+03 0.  0.
</event>
<event>
 4    0  0.2219362E-002  0.2247420E+03  0.7546771E-02  0.1130396E+00
         21   -1    0    0  502  501  0.00000000000E+00  0.00000000000E+00  0.56580839791E+02  0.56580839791E+02  0.00000000000E+00 0.  1.
         21   -1    0    0  501  502 -0.00000000000E+00 -0.00000000000E+00 -0.89268704921E+03  0.89268704921E+03  0.00000000000E+00 0.  1.
         25    1    1    2    0    0  0.64552271020E+02 -0.57422037637E+02 -0.76776129765E+03  0.78265362471E+03  0.12500000000E+03 0.  0.
         25    1    1    2    0    0 -0.64552271020E+02  0.57422037637E+02 -0.68344911764E+02  0.16661426429E+03  0.12500000000E+03 0.  0.
</event>
<event>
 4    0  0.2219362E-002  0.2281166E+03  0.7546771E-02  0.1127972E+00
         21   -1    0    0  502  501  0.00000000000E+00  0.00000000000E+00  0.82340560198E+02  0.82340560198E+02  0.00000000000E+00 0. -1.
         21   -1    0    0  501  502 -0.00000000000E+00 -0.00000000000E+00 -0.63197489718E+03  0.63197489718E+03  0.00000000000E+00 0. -1.
         25    1    1    2    0    0 -0.10120759777E+03 -0.12266475939E+03 -0.43993931875E+03  0.48421196312E+03  0.12500000000E+03 0.  0.
         25    1    1    2    0    0  0.10120759777E+03  0.12266475939E+03 -0.10969501823E+03  0.23010349425E+03  0.12500000000E+03 0.  0.
</event>
<event>
 4    0  0.2219362E-002  0.3113524E+03  0.7546771E-02  0.1079699E+00
         21   -1    0    0  502  501  0.00000000000E+00  0.00000000000E+00  0.10200808608E+03  0.10200808608E+03  0.00000000000E+00 0. -1.
         21   -1    0    0  501  502 -0.00000000000E+00 -0.00000000000E+00 -0.95031968013E+03  0.95031968013E+03  0.00000000000E+00 0. -1.
         25    1    1    2    0    0  0.18155546306E+03  0.19840799927E+03 -0.58436239010E+03  0.65531101265E+03  0.12500000000E+03 0.  0.
         25    1    1    2    0    0 -0.18155546306E+03 -0.19840799927E+03 -0.26394920395E+03  0.39701675356E+03  0.12500000000E+03 0.  0.
</event>
<event>
 4    0  0.2219362E-002  0.2820284E+03  0.7546771E-02  0.1094586E+00
         21   -1    0    0  502  501  0.00000000000E+00  0.00000000000E+00  0.12761816581E+04  0.12761816581E+04  0.00000000000E+00 0. -1.
         21   -1    0    0  501  502 -0.00000000000E+00 -0.00000000000E+00 -0.62326584394E+02  0.62326584394E+02  0.00000000000E+00 0. -1.
         25    1    1    2    0    0  0.17959377097E+03 -0.69788165259E+02  0.99533757135E+03  0.10214921397E+04  0.12500000000E+03 0.  0.
         25    1    1    2    0    0 -0.17959377097E+03  0.69788165259E+02  0.21851750237E+03  0.31701610278E+03  0.12500000000E+03 0.  0.
</event>
<event>
 4    0  0.2219362E-002  0.3884313E+03  0.7546771E-02  0.1047861E+00
         21   -1    0    0  502  501  0.00000000000E+00  0.00000000000E+00  0.29501353669E+03  0.29501353669E+03  0.00000000000E+00 0.  1.
         21   -1    0    0  501  502 -0.00000000000E+00 -0.00000000000E+00 -0.51143041942E+03  0.51143041942E+03  0.00000000000E+00 0.  1.
         25    1    1    2    0    0  0.34532144337E+03 -0.54501781385E+02  0.10316933992E+02  0.37141456966E+03  0.12500000000E+03 0.  0.
         25    1    1    2    0    0 -0.34532144337E+03  0.54501781385E+02 -0.22673381672E+03  0.43502938645E+03  0.12500000000E+03 0.  0.
</event>
<event>
 4    0  0.2219362E-002  0.1957509E+03  0.7546771E-02  0.1153374E+00
         21   -1    0    0  502  501  0.00000000000E+00  0.00000000000E+00  0.22584508976E+03  0.22584508976E+03  0.00000000000E+00 0.  1.
         21   -1    0    0  501  502 -0.00000000000E+00 -0.00000000000E+00 -0.16966684315E+03  0.16966684315E+03  0.00000000000E+00 0.  1.
         25    1    1    2    0    0  0.25137938365E+02  0.32286832720E+02 -0.11837542143E+03  0.17695224189E+03  0.12500000000E+03 0.  0.
         25    1    1    2    0    0 -0.25137938365E+02 -0.32286832720E+02  0.17455366804E+03  0.21855969102E+03  0.12500000000E+03 0.  0.
</event>
<event>
 4    0  0.2219362E-002  0.2734488E+03  0.7546771E-02  0.1099322E+00
         21   -1    0    0  502  501  0.00000000000E+00  0.00000000000E+00  0.14713054159E+03  0.14713054159E+03  0.00000000000E+00 0. -1.
         21   -1    0    0  501  502 -0.00000000000E+00 -0.00000000000E+00 -0.50821714323E+03  0.50821714323E+03  0.00000000000E+00 0. -1.
         25    1    1    2    0    0 -0.10181039413E+03 -0.67533153777E+02 -0.43253758356E+03  0.46651885750E+03  0.12500000000E+03 0.  0.
         25    1    1    2    0    0  0.10181039413E+03  0.67533153777E+02  0.71450981915E+02  0.18882882732E+03  0.12500000000E+03 0.  0.
</event>
<event>
 4    0  0.2219362E-002  0.2348185E+03  0.7546771E-02  0.1123294E+00
         21   -1    0    0  502  501  0.00000000000E+00  0.00000000000E+00  0.73457273097E+03  0.73457273097E+03  0.00000000000E+00 0.  1.
         21   -1    0    0  501  502 -0.00000000000E+00 -0.00000000000E+00 -0.75063673619E+02  0.75063673619E+02  0.00000000000E+00 0.  1.
         25    1    1    2    0    0 -0.47067446723E+02  0.14120386134E+03  0.55690479472E+03  0.58984898523E+03  0.12500000000E+03 0.  0.
         25    1    1    2    0    0  0.47067446723E+02 -0.14120386134E+03  0.10260426263E+03  0.21978741935E+03  0.12500000000E+03 0.  0.
</event>
<event>
 4    0  0.2219362E-002  0.2102092E+03  0.7546771E-02  0.1141400E+00
         21   -1    0    0  502  501  0.00000000000E+00  0.00000000000E+00  0.19575645276E+04  0.19575645276E+04  0.00000000000E+00 0.  1.
         21   -1    0    0  501  502 -0.00000000000E+00 -0.00000000000E+00 -0.22572894068E+02  0.22572894068E+02  0.00000000000E+00 0.  1.
         25    1    1    2    0    0 -0.54001996032E+01 -0.49636172030E+02  0.20702235844E+03  0.24693353078E+03  0.12500000000E+03 0.  0.
         25    1    1    2    0    0  0.54001996032E+01  0.49636172030E+02  0.17279692751E+04  0.17332038909E+04  0.12500000000E+03 0.  0.
</event>
<event>
 4    0  0.2219362E-002  0.2183468E+03  0.7546771E-02  0.1135122E+00
         21   -1    0    0  502  501  0.00000000000E+00  0.00000000000E+00  0.35139532087E+03  0.35139532087E+03  0.00000000000E+00 0.  1.
         21   -1    0    0  501  502 -0.00000000000E+00 -0.00000000000E+00 -0.13567437276E+03  0.13567437276E+03  0.00000000000E+00 0.  1.
         25    1    1    2    0    0 -0.97822248117E+02 -0.12749385871E+03  0.19587106510E+03  0.28251433659E+03  0.12500000000E+03 0.  0.
         25    1    1    2    0    0  0.97822248117E+02  0.12749385871E+03  0.19849883005E+02  0.20455535703E+03  0.12500000000E+03 0.  0.
</event>
<event>
 4    0  0.2219362E-002  0.1793608E+03  0.7546771E-02  0.1168423E+00
         21   -1    0    0  502  501  0.00000000000E+00  0.00000000000E+00  0.18950844879E+03  0.18950844879E+03  0.00000000000E+00 0. -1.
         21   -1    0    0  501  502 -0.00000000000E+00 -0.00000000000E+00 -0.16975651497E+03  0.16975651497E+03  0.00000000000E+00 0. -1.
         25    1    1    2    0    0 -0.92419797736E+02  0.70626957161E+02  0.64874610838E+02  0.18265623784E+03  0.12500000000E+03 0.  0.
         25    1    1    2    0    0  0.92419797736E+02 -0.70626957161E+02 -0.45122677018E+02  0.17660872592E+03  0.12500000000E+03 0.  0.
</event>
<event>
 4    0  0.2219362E-002  0.2019276E+03  0.7546771E-02  0.1148123E+00
         21   -1    0    0  502  501  0.00000000000E+00  0.00000000000E+00  0.47037649492E+03  0.47037649492E+03  0.00000000000E+00 0.  1.
         21   -1    0    0  501  502 -0.00000000000E+00 -0.00000000000E+00 -0.86685377725E+02  0.86685377725E+02  0.00000000000E+00 0.  1.
         25    1    1    2    0    0  0.95144521734E+02  0.98834010613E+02  0.82109474129E+02  0.20294730206E+03  0.12500000000E+03 0.  0.
         25    1    1    2    0    0 -0.95144521734E+02 -0.98834010613E+02  0.30158164307E+03  0.35411457059E+03  0.12500000000E+03 0.  0.
</event>
<event>
 4    0  0.2219362E-002  0.2459195E+03  0.7546771E-02  0.1115911E+00
         21   -1    0    0  502  501  0.00000000000E+00  0.00000000000E+00  0.42592119845E+03  0.42592119845E+03  0.00000000000E+00 0.  1.
         21   -1    0    0  501  502 -0.00000000000E+00 -0.00000000000E+00 -0.14198968032E+03  0.14198968032E+03  0.00000000000E+00 0.  1.
         25    1    1    2    0    0 -0.10292791187E+02 -0.21059551398E+03  0.11901710420E+03  0.27248207859E+03  0.12500000000E+03 0.  0.
         25    1    1    2    0    0  0.10292791187E+02  0.21059551398E+03  0.16491441392E+03  0.29542880018E+03  0.12500000000E+03 0.  0.
</event>
<event>
 4    0  0.2219362E-002  0.2392964E+03  0.7546771E-02  0.1120262E+00
         21   -1    0    0  502  501  0.00000000000E+00  0.00000000000E+00  0.67757317919E+03  0.67757317919E+03  0.00000000000E+00 0.  1.
         21   -1    0    0  501  502 -0.00000000000E+00 -0.00000000000E+00 -0.84511555317E+02  0.84511555317E+02  0.00000000000E+00 0.  1.
         25    1    1    2    0    0  0.19901708026E+02 -0.32901869448E+01  0.61986253174E+03  0.63266220179E+03  0.12500000000E+03 0.  0.
         25    1    1    2    0    0 -0.19901708026E+02  0.32901869448E+01 -0.26800907871E+02  0.12942253272E+03  0.12500000000E+03 0.  0.
</event>
<event>
 4    0  0.2219362E-002  0.2741180E+03  0.7546771E-02  0.1098946E+00
         21   -1    0    0  502  501  0.00000000000E+00  0.00000000000E+00  0.60355042881E+02  0.60355042881E+02  0.00000000000E+00 0.  1.
         21   -1    0    0  501  502 -0.00000000000E+00 -0.00000000000E+00 -0.12449772131E+04  0.12449772131E+04  0.00000000000E+00 0.  1.
         25    1    1    2    0    0 -0.61322038874E+02  0.60413897663E+02 -0.48816716245E+02  0.15943118662E+03  0.12500000000E+03 0.  0.
         25    1    1    2    0    0  0.61322038874E+02 -0.60413897663E+02 -0.11358054539E+04  0.11459010693E+04  0.12500000000E+03 0.  0.
</event>
<event>
 4    0  0.2219362E-002  0.2612516E+03  0.7546771E-02  0.1106394E+00
         21   -1    0    0  502  501  0.00000000000E+00  0.00000000000E+00  0.61083539365E+03  0.61083539365E+03  0.00000000000E+00 0. -1.
         21   -1    0    0  501  502 -0.00000000000E+00 -0.00000000000E+00 -0.11173619460E+03  0.11173619460E+03  0.00000000000E+00 0. -1.
         25    1    1    2    0    0 -0.54784799949E+02  0.73932631617E+01 -0.58348769902E+02  0.14861229288E+03  0.12500000000E+03 0.  0.
         25    1    1    2    0    0  0.54784799949E+02 -0.73932631617E+01  0.55744796896E+03  0.57395929537E+03  0.12500000000E+03 0.  0.
</event>
<event>
 4    0  0.2219362E-002  0.1919369E+03  0.7546771E-02  0.1156726E+00
         21   -1    0    0  502  501  0.00000000000E+00  0.00000000000E+00  0.13433076264E+02  0.13433076264E+02  0.00000000000E+00 0. -1.
         21   -1    0    0  501  502 -0.00000000000E+00 -0.00000000000E+00 -0.27424684003E+04  0.27424684003E+04  0.00000000000E+00 0. -1.
         25    1    1    2    0    0  0.97711587953E+02  0.60015880942E+02 -0.71977542777E+03  0.73949383149E+03  0.12500000000E+03 0.  0.
         25    1    1    2    0    0 -0.97711587953E+02 -0.60015880942E+02 -0.20092598962E+04  0.20164076450E+04  0.12500000000E+03 0.  0.
</event>
<event>
 4    0  0.2219362E-002  0.1757041E+03  0.7546771E-02  0.1172027E+00
         21   -1    0    0  502  501  0.00000000000E+00  0.00000000000E+00  0.28040597369E+03  0.28040597369E+03  0.00000000000E+00 0. -1.
         21   -1    0    0  501  502 -0.00000000000E+00 -0.00000000000E+00 -0.11009724807E+03  0.11009724807E+03  0.00000000000E+00 0. -1.
         25    1    1    2    0    0  0.62532494934E+02  0.54160750086E+02  0.18702189658E+03  0.23967872157E+03  0.12500000000E+03 0.  0.
         25    1    1    2    0    0 -0.62532494934E+02 -0.54160750086E+02 -0.16713170969E+02  0.15082450019E+03  0.12500000000E+03 0.  0.
</event>
<event>
 4    0  0.2219362E-002  0.3007351E+03  0.7546771E-02  0.1084874E+00
         21   -1    0    0  502  501  0.00000000000E+00  0.00000000000E+00  0.57535525632E+03  0.57535525632E+03  0.00000000000E+00 0.  1.
         21   -1    0    0  501  502 -0.00000000000E+00 -0.00000000000E+00 -0.15719261633E+03  0.15719261633E+03  0.00000000000E+00 0.  1.
         25    1    1    2    0    0  0.31206916471E+02  0.73827718617E+02  0.52759285955E+03  0.54809089495E+03  0.12500000000E+03 0.  0.
         25    1    1    2    0    0 -0.31206916471E+02 -0.73827718617E+02 -0.10943021957E+03  0.18445697771E+03  0.12500000000E+03 0.  0.
</event>
<event>
 4    0  0.2219362E-002  0.3588331E+03  0.7546771E-02  0.1059047E+00
         21   -1    0    0  502  501  0.00000000000E+00  0.00000000000E+00  0.50666389482E+02  0.50666389482E+02  0.00000000000E+00 0.  1.
         21   -1    0    0  501  502 -0.00000000000E+00 -0.00000000000E+00 -0.25413535729E+04  0.25413535729E+04  0.00000000000E+00 0.  1.
         25    1    1    2    0    0 -0.21701161190E+03  0.14641288619E+03 -0.20081418996E+04  0.20289873489E+04  0.12500000000E+03 0.  0.
         25    1    1    2    0    0  0.21701161190E+03 -0.14641288619E+03 -0.48254528381E+03  0.56303261351E+03  0.12500000000E+03 0.  0.
</event>
<event>
 4    0  0.2219362E-002  0.3066727E+03  0.7546771E-02  0.1081952E+00
         21   -1    0    0  502  501  0.00000000000E+00  0.00000000000E+00  0.40346793169E+03  0.40346793169E+03  0.00000000000E+00 0. -1.
         21   -1    0    0  501  502 -0.00000000000E+00 -0.00000000000E+00 -0.23309949315E+03  0.23309949315E+03  0.00000000000E+00 0. -1.
         25    1    1    2    0    0  0.24624089547E+03  0.31492720380E+02 -0.49325144770E+02  0.28228414753E+03  0.12500000000E+03 0.  0.
         25    1    1    2    0    0 -0.24624089547E+03 -0.31492720380E+02  0.21969358331E+03  0.35428327731E+03  0.12500000000E+03 0.  0.
</event>
<event>
 4    0  0.2219362E-002  0.2526257E+03  0.7546771E-02  0.1111657E+00
         21   -1    0    0  502  501  0.00000000000E+00  0.00000000000E+00  0.29330026296E+03  0.29330026296E+03  0.00000000000E+00 0.  1.
         21   -1    0    0  501  502 -0.00000000000E+00 -0.00000000000E+00 -0.21759189093E+03  0.21759189093E+03  0.00000000000E+00 0.  1.
         25    1    1    2    0    0 -0.10654826994E+03 -0.19091100353E+03  0.57956112011E+02  0.25842495239E+03  0.12500000000E+03 0.  0.
         25    1    1    2    0    0  0.10654826994E+03  0.19091100353E+03  0.17752260019E+02  0.25246720150E+03  0.12500000000E+03 0.  0.
</event>
<event>
 4    0  0.2219362E-002  0.2065378E+03  0.7546771E-02  0.1144337E+00
         21   -1    0    0  502  501  0.00000000000E+00  0.00000000000E+00  0.11004359034E+03  0.11004359034E+03  0.00000000000E+00 0. -1.
         21   -1    0    0  501  502 -0.00000000000E+00 -0.00000000000E+00 -0.38764523588E+03  0.38764523588E+03  0.00000000000E+00 0. -1.
         25    1    1    2    0    0 -0.45015834333E+02  0.15119010495E+03 -0.19464083030E+03  0.27999093913E+03  0.12500000000E+03 0.  0.
         25    1    1    2    0    0  0.45015834333E+02 -0.15119010495E+03 -0.82960815241E+02  0.21769788709E+03  0.12500000000E+03 0.  0.
</event>
<event>
 4    0  0.2219362E-002  0.3076742E+03  0.7546771E-02  0.1081466E+00
         21   -1    0    0  502  501  0.00000000000E+00  0.00000000000E+00  0.10489529418E+04  0.10489529418E+04  0.00000000000E+00 0. -1.
         21   -1    0    0  501  502 -0.00000000000E+00 -0.00000000000E+00 -0.90245602006E+02  0.90245602006E+02  0.00000000000E+00 0. -1.
         25    1    1    2    0    0  0.13922226156E+03  0.11760344539E+03  0.83048673677E+02  0.23608365187E+03  0.12500000000E+03 0.  0.
         25    1    1    2    0    0 -0.13922226156E+03 -0.11760344539E+03  0.87565866610E+03  0.90311489191E+03  0.12500000000E+03 0.  0.
</event>
<event>
 4    0  0.2219362E-002  0.2024604E+03  0.7546771E-02  0.1147680E+00
         21   -1    0    0  502  501  0.00000000000E+00  0.00000000000E+00  0.14844193552E+03  0.14844193552E+03  0.00000000000E+00 0.  1.
         21   -1    0    0  501  502 -0.00000000000E+00 -0.00000000000E+00 -0.27613632680E+03  0.27613632680E+03  0.00000000000E+00 0.  1.
         25    1    1    2    0    0  0.15788473391E+02 -0.14462822462E+03  0.40951494162E+01  0.19185507421E+03  0.12500000000E+03 0.  0.
         25    1    1    2    0    0 -0.15788473391E+02  0.14462822462E+03 -0.13178954069E+03  0.23272318811E+03  0.12500000000E+03 0.  0.
</event>
<event>
 4    0  0.2219362E-002  0.1939643E+03  0.7546771E-02  0.1154934E+00
         21   -1    0    0  502  501  0.00000000000E+00  0.00000000000E+00  0.47020291357E+02  0.47020291357E+02  0.00000000000E+00 0.  1.
         21   -1    0    0  501  502 -0.00000000000E+00 -0.00000000000E+00 -0.80012565451E+03  0.80012565451E+03  0.00000000000E+00 0.  1.
         25    1    1    2    0    0 -0.77181091075E+02  0.84950593093E+02 -0.58168298268E+03  0.60593202294E+03  0.12500000000E+03 0.  0.
         25    1    1    2    0    0  0.77181091075E+02 -0.84950593093E+02 -0.17142238047E+03  0.24121392293E+03  0.12500000000E+03 0.  0.
</event>
<event>
 4    0  0.2219362E-002  0.1447456E+03  0.7546771E-02  0.1207082E+00
         21   -1    0    0  502  501  0.00000000000E+00  0.00000000000E+00  0.31343779406E+02  0.31343779406E+02  0.00000000000E+00 0.  1.
         21   -1    0    0  501  502 -0.00000000000E+00 -0.00000000000E+00 -0.66843522840E+03  0.66843522840E+03  0.00000000000E+00 0.  1.
         25    1    1    2    0    0  0.22017565634E+02 -0.60613193837E+02 -0.23594876997E+03  0.27469174453E+03  0.12500000000E+03 0.  0.
         25    1    1    2    0    0 -0.22017565634E+02  0.60613193837E+02 -0.40114267902E+03  0.42508726327E+03  0.12500000000E+03 0.  0.
</event>
<event>
 4    0  0.2219362E-002  0.1691277E+03  0.7546771E-02  0.1178761E+00
         21   -1    0    0  502  501  0.00000000000E+00  0.00000000000E+00  0.17943349529E+04  0.17943349529E+04  0.00000000000E+00 0. -1.
         21   -1    0    0  501  502 -0.00000000000E+00 -0.00000000000E+00 -0.15941375201E+02  0.15941375201E+02  0.00000000000E+00 0. -1.
         25    1    1    2    0    0  0.35105468702E+02 -0.47556590122E+02  0.36797545918E+03  0.39309663157E+03  0.12500000000E+03 0.  0.
         25    1    1    2    0    0 -0.35105468702E+02  0.47556590122E+02  0.14104181185E+04  0.14171796965E+04  0.12500000000E+03 0.  0.
</event>
<event>
 4    0  0.2219362E-002  0.1563926E+03  0.7546771E-02  0.1192831E+00
         21   -1    0    0  502  501  0.00000000000E+00  0.00000000000E+00  0.69304882431E+02  0.69304882431E+02  0.00000000000E+00 0.  1.
         21   -1    0    0  501  502 -0.00000000000E+00 -0.00000000000E+00 -0.35291384589E+03  0.35291384589E+03  0.00000000000E+00 0.  1.
         25    1    1    2    0    0 -0.82668189147E+02 -0.40567779419E+02 -0.11641123427E+03  0.19405244056E+03  0.12500000000E+03 0.  0.
         25    1    1    2    0    0  0.82668189147E+02  0.40567779419E+02 -0.16719772918E+03  0.22816628776E+03  0.12500000000E+03 0.  0.
</event>
<event>
 4    0  0.2219362E-002  0.1897264E+03  0.7546771E-02  0.1158708E+00
         21   -1    0    0  502  501  0.00000000000E+00  0.00000000000E+00  0.83785133627E+03  0.83785133627E+03  0.00000000000E+00 0.  1.
         21   -1    0    0  501  502 -0.00000000000E+00 -0.00000000000E+00 -0.42962388648E+02  0.42962388648E+02  0.00000000000E+00 0.  1.
         25    1    1    2    0    0 -0.86322054834E+02  0.11289020064E+03  0.36670181616E+03  0.41266319987E+03  0.12500000000E+03 0.  0.
         25    1    1    2    0    0  0.86322054834E+02 -0.11289020064E+03  0.42818713147E+03  0.46815052505E+03  0.12500000000E+03 0.  0.
</event>
<event>
 4    0  0.2219362E-002  0.2076625E+03  0.7546771E-02  0.1143431E+00
         21   -1    0    0  502  501  0.00000000000E+00  0.00000000000E+00  0.67334570117E+03  0.67334570117E+03  0.00000000000E+00 0.  1.
         21   -1    0    0  501  502 -0.00000000000E+00 -0.00000000000E+00 -0.64043919826E+02  0.64043919826E+02  0.00000000000E+00 0.  1.
         25    1    1    2    0    0  0.56795156181E+02 -0.64540852033E+02  0.52890199637E+02  0.16066606538E+03  0.12500000000E+03 0.  0.
         25    1    1    2    0    0 -0.56795156181E+02  0.64540852033E+02  0.55641158171E+03  0.57672355562E+03  0.12500000000E+03 0.  0.
</event>
<event>
 4    0  0.2219362E-002  0.1942642E+03  0.7546771E-02  0.1154671E+00
         21   -1    0    0  502  501  0.00000000000E+00  0.00000000000E+00  0.83053865194E+02  0.83053865194E+02  0.00000000000E+00 0. -1.
         21   -1    0    0  501  502 -0.00000000000E+00 -0.00000000000E+00 -0.45438698587E+03  0.45438698587E+03  0.00000000000E+00 0. -1.
         25    1    1    2    0    0  0.58946319280E+02 -0.57219668501E+02 -0.14203021442E+02  0.15025140544E+03  0.12500000000E+03 0.  0.
         25    1    1    2    0    0 -0.58946319280E+02  0.57219668501E+02 -0.35713009924E+03  0.38718944562E+03  0.12500000000E+03 0.  0.
</event>
<event>
 4    0  0.2219362E-002  0.2881992E+03  0.7546771E-02  0.1091293E+00
         21   -1    0    0  502  501  0.00000000000E+00  0.00000000000E+00  0.18349837565E+03  0.18349837565E+03  0.00000000000E+00 0.  1.
         21   -1    0    0  501  502 -0.00000000000E+00 -0.00000000000E+00 -0.45264035568E+03  0.45264035568E+03  0.00000000000E+00 0.  1.
         25    1    1    2    0    0 -0.20607538538E+03  0.81230248880E+02 -0.28414777504E+03  0.38135334777E+03  0.12500000000E+03 0.  0.
         25    1    1    2    0    0  0.20607538538E+03 -0.81230248880E+02  0.15005795017E+02  0.25478538356E+03  0.12500000000E+03 0.  0.
</event>
<event>
 4    0  0.2219362E-002  0.2805433E+03  0.7546771E-02  0.1095393E+00
         21   -1    0    0  502  501  0.00000000000E+00  0.00000000000E+00  0.12778022615E+03  0.12778022615E+03  0.00000000000E+00 0. -1.
         21   -1    0    0  501  502 -0.00000000000E+00 -0.00000000000E+00 -0.61593700639E+03  0.61593700639E+03  0.00000000000E+00 0. -1.
         25    1    1    2    0    0 -0.19172577186E+02  0.24383473275E+03 -0.31971994371E+03  0.42150777812E+03  0.12500000000E+03 0.  0.
         25    1    1    2    0    0  0.19172577186E+02 -0.24383473275E+03 -0.16843683653E+03  0.32220945441E+03  0.12500000000E+03 0.  0.
</event>
<event>
 4    0  0.2219362E-002  0.5650902E+03  0.7546771E-02  0.9980602E-01
         21   -1    0    0  502  501  0.00000000000E+00  0.00000000000E+00  0.18671126230E+04  0.18671126230E+04  0.00000000000E+00 0.  1.
         21   -1    0    0  501  502 -0.00000000000E+00 -0.00000000000E+00 -0.17102715853E+03  0.17102715853E+03  0.00000000000E+00 0.  1.
         25    1    1    2    0    0  0.34637686620E+03 -0.42289768457E+03  0.97405444783E+03  0.11239334733E+04  0.12500000000E+03 0.  0.
         25    1    1    2    0    0 -0.34637686620E+03  0.42289768457E+03  0.72203101666E+03  0.91420630826E+03  0.12500000000E+03 0.  0.
</event>
<event>
 4    0  0.2219362E-002  0.1665196E+03  0.7546771E-02  0.1181527E+00
         21   -1    0    0  502  501  0.00000000000E+00  0.00000000000E+00  0.32257617484E+03  0.32257617484E+03  0.00000000000E+00 0.  1.
         21   -1    0    0  501  502 -0.00000000000E+00 -0.00000000000E+00 -0.85960449373E+02  0.85960449373E+02  0.00000000000E+00 0.  1.
         25    1    1    2    0    0 -0.63708116696E+02 -0.46778792270E+02  0.24429347584E+02  0.14989587240E+03  0.12500000000E+03 0.  0.
         25    1    1    2    0    0  0.63708116696E+02  0.46778792270E+02  0.21218637788E+03  0.25864075181E+03  0.12500000000E+03 0.  0.
</event>
<event>
 4    0  0.2219362E-002  0.1938504E+03  0.7546771E-02  0.1155034E+00
         21   -1    0    0  502  501  0.00000000000E+00  0.00000000000E+00  0.74607647346E+03  0.74607647346E+03  0.00000000000E+00 0. -1.
         21   -1    0    0  501  502 -0.00000000000E+00 -0.00000000000E+00 -0.50367454845E+02  0.50367454845E+02  0.00000000000E+00 0. -1.
         25    1    1    2    0    0  0.47090593083E+02 -0.51515837618E+02  0.61634097419E+03  0.63275003117E+03  0.12500000000E+03 0.  0.
         25    1    1    2    0    0 -0.47090593083E+02  0.51515837618E+02  0.79368044423E+02  0.16369389713E+03  0.12500000000E+03 0.  0.
</event>
<event>
 4    0  0.2219362E-002  0.4785606E+03  0.7546771E-02  0.1019532E+00
         21   -1    0    0  502  501  0.00000000000E+00  0.00000000000E+00  0.45720864884E+03  0.45720864884E+03  0.00000000000E+00 0. -1.
         21   -1    0    0  501  502 -0.00000000000E+00 -0.00000000000E+00 -0.50090966951E+03  0.50090966951E+03  0.00000000000E+00 0.  1.
         25    1    1    2    0    0  0.14090740097E+03  0.43695497725E+03 -0.72998608707E+02  0.48139209036E+03  0.12500000000E+03 0.  0.
         25    1    1    2    0    0 -0.14090740097E+03 -0.43695497725E+03  0.29297588030E+02  0.47672622799E+03  0.12500000000E+03 0.  0.
</event>
<event>
 4    0  0.2219362E-002  0.2373942E+03  0.7546771E-02  0.1121541E+00
         21   -1    0    0  502  501  0.00000000000E+00  0.00000000000E+00  0.23073187374E+03  0.23073187374E+03  0.00000000000E+00 0. -1.
         21   -1    0    0  501  502 -0.00000000000E+00 -0.00000000000E+00 -0.24424896375E+03  0.24424896375E+03  0.00000000000E+00 0. -1.
         25    1    1    2    0    0  0.18239008807E+03 -0.59873758562E+02  0.55556418808E+02  0.23571704831E+03  0.12500000000E+03 0.  0.
         25    1    1    2    0    0 -0.18239008807E+03  0.59873758562E+02 -0.69073508820E+02  0.23926378918E+03  0.12500000000E+03 0.  0.
</event>
<event>
 4    0  0.2219362E-002  0.2381581E+03  0.7546771E-02  0.1121026E+00
         21   -1    0    0  502  501  0.00000000000E+00  0.00000000000E+00  0.24159071765E+03  0.24159071765E+03  0.00000000000E+00 0. -1.
         21   -1    0    0  501  502 -0.00000000000E+00 -0.00000000000E+00 -0.23477417963E+03  0.23477417963E+03  0.00000000000E+00 0.  1.
         25    1    1    2    0    0  0.12066473535E+03  0.16288011312E+03  0.54948512617E+01  0.23821230656E+03  0.12500000000E+03 0.  0.
         25    1    1    2    0    0 -0.12066473535E+03 -0.16288011312E+03  0.13216867569E+01  0.23815259071E+03  0.12500000000E+03 0.  0.
</event>
<event>
 4    0  0.2219362E-002  0.3335853E+03  0.7546771E-02  0.1069561E+00
         21   -1    0    0  502  501  0.00000000000E+00  0.00000000000E+00  0.61888934547E+03  0.61888934547E+03  0.00000000000E+00 0.  1.
         21   -1    0    0  501  502 -0.00000000000E+00 -0.00000000000E+00 -0.17980461285E+03  0.17980461285E+03  0.00000000000E+00 0.  1.
         25    1    1    2    0    0  0.20910619814E+03  0.76028578122E+02  0.47671329206E+03  0.54072757431E+03  0.12500000000E+03 0.  0.
         25    1    1    2    0    0 -0.20910619814E+03 -0.76028578122E+02 -0.37628559442E+02  0.25796638401E+03  0.12500000000E+03 0.  0.
</event>
<event>
 4    0  0.2219362E-002  0.1764437E+03  0.7546771E-02  0.1171290E+00
         21   -1    0    0  502  501  0.00000000000E+00  0.00000000000E+00  0.13031408614E+02  0.13031408614E+02  0.00000000000E+00 0.  1.
         21   -1    0    0  501  502 -0.00000000000E+00 -0.00000000000E+00 -0.23890274151E+04  0.23890274151E+04  0.00000000000E+00 0. -1.
         25    1    1    2    0    0  0.23717667417E+02 -0.12144668035E+03 -0.12831892185E+04  0.12951877834E+04  0.12500000000E+03 0.  0.
         25    1    1    2    0    0 -0.23717667417E+02  0.12144668035E+03 -0.10928067880E+04  0.11068710402E+04  0.12500000000E+03 0.  0.
</event>
<event>
 4    0  0.2219362E-002  0.2947134E+03  0.7546771E-02  0.1087914E+00
         21   -1    0    0  502  501  0.00000000000E+00  0.00000000000E+00  0.18953222892E+03  0.18953222892E+03  0.00000000000E+00 0. -1.
         21   -1    0    0  501  502 -0.00000000000E+00 -0.00000000000E+00 -0.45826490743E+03  0.45826490743E+03  0.00000000000E+00 0. -1.
         25    1    1    2    0    0  0.73996768553E+02  0.25612332409E+03 -0.12062669761E+03  0.31819880433E+03  0.12500000000E+03 0.  0.
         25    1    1    2    0    0 -0.73996768553E+02 -0.25612332409E+03 -0.14810598090E+03  0.32959833203E+03  0.12500000000E+03 0.  0.
</event>
<event>
 4    0  0.2219362E-002  0.3008830E+03  0.7546771E-02  0.1084800E+00
         21   -1    0    0  502  501  0.00000000000E+00  0.00000000000E+00  0.10049959213E+04  0.10049959213E+04  0.00000000000E+00 0.  1.
         21   -1    0    0  501  502 -0.00000000000E+00 -0.00000000000E+00 -0.90080566776E+02  0.90080566776E+02  0.00000000000E+00 0.  1.
         25    1    1    2    0    0  0.50428998735E+02  0.26235439591E+03  0.56561837285E+03  0.63790442597E+03  0.12500000000E+03 0.  0.
         25    1    1    2    0    0 -0.50428998735E+02 -0.26235439591E+03  0.34929698169E+03  0.45717206212E+03  0.12500000000E+03 0.  0.
</event>
<event>
 4    0  0.2219362E-002  0.4118153E+03  0.7546771E-02  0.1039764E+00
         21   -1    0    0  502  501  0.00000000000E+00  0.00000000000E+00  0.83434040043E+03  0.83434040043E+03  0.00000000000E+00 0.  1.
         21   -1    0    0  501  502 -0.00000000000E+00 -0.00000000000E+00 -0.20326454737E+03  0.20326454737E+03  0.00000000000E+00 0.  1.
         25    1    1    2    0    0  0.32183388034E+03  0.16016625734E+03  0.51367654193E+03  0.63931124364E+03  0.12500000000E+03 0.  0.
         25    1    1    2    0    0 -0.32183388034E+03 -0.16016625734E+03  0.11739931113E+03  0.39829370416E+03  0.12500000000E+03 0.  0.
</event>
<event>
 4    0  0.2219362E-002  0.4125104E+03  0.7546771E-02  0.1039532E+00
         21   -1    0    0  502  501  0.00000000000E+00  0.00000000000E+00  0.12329223664E+03  0.12329223664E+03  0.00000000000E+00 0.  1.
         21   -1    0    0  501  502 -0.00000000000E+00 -0.00000000000E+00 -0.13801748249E+04  0.13801748249E+04  0.00000000000E+00 0.  1.
         25    1    1    2    0    0 -0.38872059842E+03  0.15358871845E+02 -0.73153222290E+03  0.83791645867E+03  0.12500000000E+03 0.  0.
         25    1    1    2    0    0  0.38872059842E+03 -0.15358871845E+02 -0.52535036534E+03  0.66555060284E+03  0.12500000000E+03 0.  0.
</event>
<event>
 4    0  0.2219362E-002  0.2443293E+03  0.7546771E-02  0.1116942E+00
         21   -1    0    0  502  501  0.00000000000E+00  0.00000000000E+00  0.86801504105E+02  0.86801504105E+02  0.00000000000E+00 0.  1.
         21   -1    0    0  501  502 -0.00000000000E+00 -0.00000000000E+00 -0.68773916898E+03  0.68773916898E+03  0.00000000000E+00 0.  1.
         25    1    1    2    0    0  0.17351536830E+03  0.47089258187E+02 -0.12867848585E+03  0.25398451526E+03  0.12500000000E+03 0.  0.
         25    1    1    2    0    0 -0.17351536830E+03 -0.47089258187E+02 -0.47225917902E+03  0.52055615782E+03  0.12500000000E+03 0.  0.
</event>
<event>
 4    0  0.2219362E-002  0.2295593E+03  0.7546771E-02  0.1126950E+00
         21   -1    0    0  502  501  0.00000000000E+00  0.00000000000E+00  0.51606910580E+02  0.51606910580E+02  0.00000000000E+00 0. -1.
         21   -1    0    0  501  502 -0.00000000000E+00 -0.00000000000E+00 -0.10211319711E+04  0.10211319711E+04  0.00000000000E+00 0. -1.
         25    1    1    2    0    0 -0.39236043167E+02 -0.17257289451E+03 -0.66196236792E+03  0.69651995488E+03  0.12500000000E+03 0.  0.
         25    1    1    2    0    0  0.39236043167E+02  0.17257289451E+03 -0.30756269259E+03  0.37621892679E+03  0.12500000000E+03 0.  0.
</event>
<event>
 4    0  0.2219362E-002  0.2225831E+03  0.7546771E-02  0.1131972E+00
         21   -1    0    0  502  501  0.00000000000E+00  0.00000000000E+00  0.12805279012E+03  0.12805279012E+03  0.00000000000E+00 0. -1.
         21   -1    0    0  501  502 -0.00000000000E+00 -0.00000000000E+00 -0.38689710205E+03  0.38689710205E+03  0.00000000000E+00 0. -1.
         25    1    1    2    0    0  0.55639198947E+02 -0.16897317377E+03 -0.74301676959E+02  0.22976812902E+03  0.12500000000E+03 0.  0.
         25    1    1    2    0    0 -0.55639198947E+02  0.16897317377E+03 -0.18454263496E+03  0.28518176315E+03  0.12500000000E+03 0.  0.
</event>
<event>
 4    0  0.2219362E-002  0.1866743E+03  0.7546771E-02  0.1161496E+00
         21   -1    0    0  502  501  0.00000000000E+00  0.00000000000E+00  0.33296323715E+03  0.33296323715E+03  0.00000000000E+00 0.  1.
         21   -1    0    0  501  502 -0.00000000000E+00 -0.00000000000E+00 -0.10465811517E+03  0.10465811517E+03  0.00000000000E+00 0.  1.
         25    1    1    2    0    0  0.61690250650E+02  0.81576087998E+02  0.22387224186E+03  0.27605094790E+03  0.12500000000E+03 0.  0.
         25    1    1    2    0    0 -0.61690250650E+02 -0.81576087998E+02  0.44328801219E+01  0.16157040442E+03  0.12500000000E+03 0.  0.
</event>
<event>
 4    0  0.2219362E-002  0.1900901E+03  0.7546771E-02  0.1158380E+00
         21   -1    0    0  502  501  0.00000000000E+00  0.00000000000E+00  0.96902321343E+03  0.96902321343E+03  0.00000000000E+00 0. -1.
         21   -1    0    0  501  502 -0.00000000000E+00 -0.00000000000E+00 -0.37289345889E+02  0.37289345889E+02  0.00000000000E+00 0. -1.
         25    1    1    2    0    0 -0.18080361431E+01  0.12398843262E+03  0.27623025302E+03  0.32757373690E+03  0.12500000000E+03 0.  0.
         25    1    1    2    0    0  0.18080361431E+01 -0.12398843262E+03  0.65550361452E+03  0.67873882242E+03  0.12500000000E+03 0.  0.
</event>
<event>
 4    0  0.2219362E-002  0.2161299E+03  0.7546771E-02  0.1136802E+00
         21   -1    0    0  502  501  0.00000000000E+00  0.00000000000E+00  0.79089850976E+03  0.79089850976E+03  0.00000000000E+00 0.  1.
         21   -1    0    0  501  502 -0.00000000000E+00 -0.00000000000E+00 -0.59062086463E+02  0.59062086463E+02  0.00000000000E+00 0.  1.
         25    1    1    2    0    0 -0.15820294217E+03 -0.52585036339E+02  0.25306863113E+03  0.32781410742E+03  0.12500000000E+03 0.  0.
         25    1    1    2    0    0  0.15820294217E+03  0.52585036339E+02  0.47876779216E+03  0.52214648880E+03  0.12500000000E+03 0.  0.
</event>
<event>
 4    0  0.2219362E-002  0.2665877E+03  0.7546771E-02  0.1103249E+00
         21   -1    0    0  502  501  0.00000000000E+00  0.00000000000E+00  0.13918424135E+03  0.13918424135E+03  0.00000000000E+00 0.  1.
         21   -1    0    0  501  502 -0.00000000000E+00 -0.00000000000E+00 -0.51061087985E+03  0.51061087985E+03  0.00000000000E+00 0.  1.
         25    1    1    2    0    0 -0.11940875126E+03  0.24181670690E+02 -0.43128235203E+03  0.46526623588E+03  0.12500000000E+03 0.  0.
         25    1    1    2    0    0  0.11940875126E+03 -0.24181670690E+02  0.59855713535E+02  0.18452888532E+03  0.12500000000E+03 0.  0.
</event>
<event>
 4    0  0.2219362E-002  0.1730088E+03  0.7546771E-02  0.1174746E+00
         21   -1    0    0  502  501  0.00000000000E+00  0.00000000000E+00  0.26790516360E+03  0.26790516360E+03  0.00000000000E+00 0.  1.
         21   -1    0    0  501  502 -0.00000000000E+00 -0.00000000000E+00 -0.11172626351E+03  0.11172626351E+03  0.00000000000E+00 0.  1.
         25    1    1    2    0    0 -0.69454379080E+02  0.27725786676E+02  0.18050904376E+03  0.23195073809E+03  0.12500000000E+03 0.  0.
         25    1    1    2    0    0  0.69454379080E+02 -0.27725786676E+02 -0.24330143675E+02  0.14768068903E+03  0.12500000000E+03 0.  0.
</event>
<event>
 4    0  0.2219362E-002  0.2100537E+03  0.7546771E-02  0.1141524E+00
         21   -1    0    0  502  501  0.00000000000E+00  0.00000000000E+00  0.37708808512E+03  0.37708808512E+03  0.00000000000E+00 0. -1.
         21   -1    0    0  501  502 -0.00000000000E+00 -0.00000000000E+00 -0.11700857403E+03  0.11700857403E+03  0.00000000000E+00 0. -1.
         25    1    1    2    0    0 -0.36720459360E+02  0.10425026108E+03 -0.20029805517E+02  0.16805565203E+03  0.12500000000E+03 0.  0.
         25    1    1    2    0    0  0.36720459360E+02 -0.10425026108E+03  0.28010931661E+03  0.32604100712E+03  0.12500000000E+03 0.  0.
</event>
<event>
 4    0  0.2219362E-002  0.3491602E+03  0.7546771E-02  0.1062960E+00
         21   -1    0    0  502  501  0.00000000000E+00  0.00000000000E+00  0.72130998380E+03  0.72130998380E+03  0.00000000000E+00 0.  1.
         21   -1    0    0  501  502 -0.00000000000E+00 -0.00000000000E+00 -0.16901590477E+03  0.16901590477E+03  0.00000000000E+00 0.  1.
         25    1    1    2    0    0 -0.11956241462E+03 -0.26155725537E+03  0.80365983659E+02  0.32371447320E+03  0.12500000000E+03 0.  0.
         25    1    1    2    0    0  0.11956241462E+03  0.26155725537E+03  0.47192809537E+03  0.56661141537E+03  0.12500000000E+03 0.  0.
</event>
<event>
 4    0  0.2219362E-002  0.1613842E+03  0.7546771E-02  0.1187143E+00
         21   -1    0    0  502  501  0.00000000000E+00  0.00000000000E+00  0.82448147276E+03  0.82448147276E+03  0.00000000000E+00 0.  1.
         21   -1    0    0  501  502 -0.00000000000E+00 -0.00000000000E+00 -0.31589390716E+02  0.31589390716E+02  0.00000000000E+00 0.  1.
         25    1    1    2    0    0  0.68109906962E+02  0.53337204039E+02  0.54016048356E+03  0.56114362222E+03  0.12500000000E+03 0.  0.
         25    1    1    2    0    0 -0.68109906962E+02 -0.53337204039E+02  0.25273159848E+03  0.29492724125E+03  0.12500000000E+03 0.  0.
</event>
<event>
 4    0  0.2219362E-002  0.2073650E+03  0.7546771E-02  0.1143670E+00
         21   -1    0    0  502  501  0.00000000000E+00  0.00000000000E+00  0.17695573883E+03  0.17695573883E+03  0.00000000000E+00 0.  1.
         21   -1    0    0  501  502 -0.00000000000E+00 -0.00000000000E+00 -0.24299993024E+03  0.24299993024E+03  0.00000000000E+00 0.  1.
         25    1    1    2    0    0 -0.12653904773E+03 -0.42655105982E+02 -0.13194461242E+03  0.22553485188E+03  0.12500000000E+03 0.  0.
         25    1    1    2    0    0  0.12653904773E+03  0.42655105982E+02  0.65900421009E+02  0.19442081719E+03  0.12500000000E+03 0.  0.
</event>
<event>
 4    0  0.2219362E-002  0.2390576E+03  0.7546771E-02  0.1120422E+00
         21   -1    0    0  502  501  0.00000000000E+00  0.00000000000E+00  0.58994162956E+03  0.58994162956E+03  0.00000000000E+00 0. -1.
         21   -1    0    0  501  502 -0.00000000000E+00 -0.00000000000E+00 -0.96871480250E+02  0.96871480250E+02  0.00000000000E+00 0. -1.
         25    1    1    2    0    0  0.18068501739E+03  0.94002419939E+02  0.25561899674E+03  0.34992799539E+03  0.12500000000E+03 0.  0.
         25    1    1    2    0    0 -0.18068501739E+03 -0.94002419939E+02  0.23745115258E+03  0.33688511443E+03  0.12500000000E+03 0.  0.
</event>
<event>
 4    0  0.2219362E-002  0.2543384E+03  0.7546771E-02  0.1110593E+00
         21   -1    0    0  502  501  0.00000000000E+00  0.00000000000E+00  0.10285061224E+03  0.10285061224E+03  0.00000000000E+00 0. -1.
         21   -1    0    0  501  502 -0.00000000000E+00 -0.00000000000E+00 -0.62895147958E+03  0.62895147958E+03  0.00000000000E+00 0. -1.
         25    1    1    2    0    0  0.11871210043E+03  0.16723250123E+03 -0.38344798482E+03  0.45245621812E+03  0.12500000000E+03 0.  0.
         25    1    1    2    0    0 -0.11871210043E+03 -0.16723250123E+03 -0.14265288252E+03  0.27934587369E+03  0.12500000000E+03 0.  0.
</event>
<event>
 4    0  0.2219362E-002  0.1985090E+03  0.7546771E-02  0.1151003E+00
         21   -1    0    0  502  501  0.00000000000E+00  0.00000000000E+00  0.95332032762E+02  0.95332032762E+02  0.00000000000E+00 0. -1.
         21   -1    0    0  501  502 -0.00000000000E+00 -0.00000000000E+00 -0.41335324616E+03  0.41335324616E+03  0.00000000000E+00 0. -1.
         25    1    1    2    0    0  0.45436612911E+02  0.14539095209E+03 -0.18980873013E+03  0.27359709205E+03  0.12500000000E+03 0.  0.
         25    1    1    2    0    0 -0.45436612911E+02 -0.14539095209E+03 -0.12821248327E+03  0.23508818688E+03  0.12500000000E+03 0.  0.
</event>
<event>
 4    0  0.2219362E-002  0.2163770E+03  0.7546771E-02  0.1136613E+00
         21   -1    0    0  502  501  0.00000000000E+00  0.00000000000E+00  0.10230077585E+03  0.10230077585E+03  0.00000000000E+00 0.  1.
         21   -1    0    0  501  502 -0.00000000000E+00 -0.00000000000E+00 -0.45766036850E+03  0.45766036850E+03  0.00000000000E+00 0.  1.
         25    1    1    2    0    0 -0.12395436153E+02 -0.17400626655E+03 -0.21340267499E+03  0.30265083732E+03  0.12500000000E+03 0.  0.
         25    1    1    2    0    0  0.12395436153E+02  0.17400626655E+03 -0.14195691765E+03  0.25731030703E+03  0.12500000000E+03 0.  0.
</event>
<event>
 4    0  0.2219362E-002  0.2401585E+03  0.7546771E-02  0.1119687E+00
         21   -1    0    0  502  501  0.00000000000E+00  0.00000000000E+00  0.93925988149E+02  0.93925988149E+02  0.00000000000E+00 0. -1.
         21   -1    0    0  501  502 -0.00000000000E+00 -0.00000000000E+00 -0.61405903322E+03  0.61405903322E+03  0.00000000000E+00 0. -1.
         25    1    1    2    0    0  0.80787816538E+02 -0.15639839711E+03 -0.41510933955E+03  0.46789731107E+03  0.12500000000E+03 0.  0.
         25    1    1    2    0    0 -0.80787816538E+02  0.15639839711E+03 -0.10502370552E+03  0.24008771031E+03  0.12500000000E+03 0.  0.
</event>
<event>
 4    0  0.2219362E-002  0.2117391E+03  0.7546771E-02  0.1140196E+00
         21   -1    0    0  502  501  0.00000000000E+00  0.00000000000E+00  0.54575041789E+03  0.54575041789E+03  0.00000000000E+00 0.  1.
         21   -1    0    0  501  502 -0.00000000000E+00 -0.00000000000E+00 -0.82150099834E+02  0.82150099834E+02  0.00000000000E+00 0.  1.
         25    1    1    2    0    0  0.13508607493E+03 -0.54664931629E+02  0.99414173449E+02  0.21620518096E+03  0.12500000000E+03 0.  0.
         25    1    1    2    0    0 -0.13508607493E+03  0.54664931629E+02  0.36418614461E+03  0.41169533676E+03  0.12500000000E+03 0.  0.
</event>
<event>
 4    0  0.2219362E-002  0.1942459E+03  0.7546771E-02  0.1154687E+00
         21   -1    0    0  502  501  0.00000000000E+00  0.00000000000E+00  0.15665004184E+03  0.15665004184E+03  0.00000000000E+00 0.  1.
         21   -1    0    0  501  502 -0.00000000000E+00 -0.00000000000E+00 -0.24086463787E+03  0.24086463787E+03  0.00000000000E+00 0.  1.
         25    1    1    2    0    0 -0.14070830417E+03  0.34700323290E+02 -0.81165460721E+01  0.19155630405E+03  0.12500000000E+03 0.  0.
         25    1    1    2    0    0  0.14070830417E+03 -0.34700323290E+02 -0.76098049954E+02  0.20595837567E+03  0.12500000000E+03 0.  0.
</event>
<event>
 4    0  0.2219362E-002  0.1894041E+03  0.7546771E-02  0.1159000E+00
         21   -1    0    0  502  501  0.00000000000E+00  0.00000000000E+00  0.56512521905E+02  0.56512521905E+02  0.00000000000E+00 0.  1.
         21   -1    0    0  501  502 -0.00000000000E+00 -0.00000000000E+00 -0.63479581321E+03  0.63479581321E+03  0.00000000000E+00 0.  1.
         25    1    1    2    0    0 -0.11367552470E+02 -0.53051012817E+00 -0.30284568707E+02  0.12911877397E+03  0.12500000000E+03 0.  0.
         25    1    1    2    0    0  0.11367552470E+02  0.53051012817E+00 -0.54799872259E+03  0.56218956114E+03  0.12500000000E+03 0.  0.
</event>
<event>
 4    0  0.2219362E-002  0.2115985E+03  0.7546771E-02  0.1140306E+00
         21   -1    0    0  502  501  0.00000000000E+00  0.00000000000E+00  0.87799638173E+03  0.87799638173E+03  0.00000000000E+00 0.  1.
         21   -1    0    0  501  502 -0.00000000000E+00 -0.00000000000E+00 -0.50995549511E+02  0.50995549511E+02  0.00000000000E+00 0.  1.
         25    1    1    2    0    0 -0.14552784261E+03 -0.46334953477E+02  0.24598058627E+03  0.31536761043E+03  0.12500000000E+03 0.  0.
         25    1    1    2    0    0  0.14552784261E+03  0.46334953477E+02  0.58102024594E+03  0.61362432080E+03  0.12500000000E+03 0.  0.
</event>
<event>
 4    0  0.2219362E-002  0.2046493E+03  0.7546771E-02  0.1145875E+00
         21   -1    0    0  502  501  0.00000000000E+00  0.00000000000E+00  0.23982547368E+03  0.23982547368E+03  0.00000000000E+00 0. -1.
         21   -1    0    0  501  502 -0.00000000000E+00 -0.00000000000E+00 -0.17463262273E+03  0.17463262273E+03  0.00000000000E+00 0. -1.
         25    1    1    2    0    0  0.22009485962E+02  0.98280041712E+02  0.16113339389E+03  0.22744747679E+03  0.12500000000E+03 0.  0.
         25    1    1    2    0    0 -0.22009485962E+02 -0.98280041712E+02 -0.95940542945E+02  0.18701061962E+03  0.12500000000E+03 0.  0.
</event>
<event>
 4    0  0.2219362E-002  0.1857478E+03  0.7546771E-02  0.1162353E+00
         21   -1    0    0  502  501  0.00000000000E+00  0.00000000000E+00  0.12154466845E+04  0.12154466845E+04  0.00000000000E+00 0.  1.
         21   -1    0    0  501  502 -0.00000000000E+00 -0.00000000000E+00 -0.28386472492E+02  0.28386472492E+02  0.00000000000E+00 0.  1.
         25    1    1    2    0    0  0.13045712122E+03  0.43106044938E+02  0.59276449390E+03  0.62118591164E+03  0.12500000000E+03 0.  0.
         25    1    1    2    0    0 -0.13045712122E+03 -0.43106044938E+02  0.59429571809E+03  0.62264724534E+03  0.12500000000E+03 0.  0.
</event>
<event>
 4    0  0.2219362E-002  0.2250083E+03  0.7546771E-02  0.1130203E+00
         21   -1    0    0  502  501  0.00000000000E+00  0.00000000000E+00  0.18546535213E+03  0.18546535213E+03  0.00000000000E+00 0. -1.
         21   -1    0    0  501  502 -0.00000000000E+00 -0.00000000000E+00 -0.27298210790E+03  0.27298210790E+03  0.00000000000E+00 0. -1.
         25    1    1    2    0    0 -0.12303537149E+02 -0.13699252234E+03  0.85445916535E+02  0.20455887381E+03  0.12500000000E+03 0.  0.
         25    1    1    2    0    0  0.12303537149E+02  0.13699252234E+03 -0.17296267230E+03  0.25388858622E+03  0.12500000000E+03 0.  0.
</event>
<event>
 4    0  0.2219362E-002  0.2230135E+03  0.7546771E-02  0.1131656E+00
         21   -1    0    0  502  501  0.00000000000E+00  0.00000000000E+00  0.40947194492E+03  0.40947194492E+03  0.00000000000E+00 0. -1.
         21   -1    0    0  501  502 -0.00000000000E+00 -0.00000000000E+00 -0.12146135976E+03  0.12146135976E+03  0.00000000000E+00 0. -1.
         25    1    1    2    0    0  0.83143353603E+02 -0.16446457966E+03  0.15851618372E+03  0.27333824414E+03  0.12500000000E+03 0.  0.
         25    1    1    2    0    0 -0.83143353603E+02  0.16446457966E+03  0.12949440144E+03  0.25759506054E+03  0.12500000000E+03 0.  0.
</event>
<event>
 4    0  0.2219362E-002  0.2915718E+03  0.7546771E-02  0.1089531E+00
         21   -1    0    0  502  501  0.00000000000E+00  0.00000000000E+00  0.21163264237E+03  0.21163264237E+03  0.00000000000E+00 0.  1.
         21   -1    0    0  501  502 -0.00000000000E+00 -0.00000000000E+00 -0.40170593008E+03  0.40170593008E+03  0.00000000000E+00 0.  1.
         25    1    1    2    0    0  0.94249675537E+02 -0.24595164746E+03 -0.98954182794E+02  0.30788332940E+03  0.12500000000E+03 0.  0.
         25    1    1    2    0    0 -0.94249675537E+02  0.24595164746E+03 -0.91119104907E+02  0.30545524305E+03  0.12500000000E+03 0.  0.
</event>
<event>
 4    0  0.2219362E-002  0.2084905E+03  0.7546771E-02  0.1142767E+00
         21   -1    0    0  502  501  0.00000000000E+00  0.00000000000E+00  0.32074594971E+03  0.32074594971E+03  0.00000000000E+00 0.  1.
         21   -1    0    0  501  502 -0.00000000000E+00 -0.00000000000E+00 -0.13552255068E+03  0.13552255068E+03  0.00000000000E+00 0.  1.
         25    1    1    2    0    0 -0.10096040091E+01 -0.74606102812E+01  0.27501053052E+03  0.30217953588E+03  0.12500000000E+03 0.  0.
         25    1    1    2    0    0  0.10096040091E+01  0.74606102812E+01 -0.89787131489E+02  0.15408896452E+03  0.12500000000E+03 0.  0.
</event>
<event>
 4    0  0.2219362E-002  0.2312786E+03  0.7546771E-02  0.1125743E+00
         21   -1    0    0  502  501  0.00000000000E+00  0.00000000000E+00  0.27123315797E+02  0.27123315797E+02  0.00000000000E+00 0. -1.
         21   -1    0    0  501  502 -0.00000000000E+00 -0.00000000000E+00 -0.19720966436E+04  0.19720966436E+04  0.00000000000E+00 0. -1.
         25    1    1    2    0    0 -0.14447730783E+03 -0.61047373774E+02 -0.14702669409E+04  0.14838835372E+04  0.12500000000E+03 0.  0.
         25    1    1    2    0    0  0.14447730783E+03  0.61047373774E+02 -0.47470638687E+03  0.51533642221E+03  0.12500000000E+03 0.  0.
</event>
<event>
 4    0  0.2219362E-002  0.1843767E+03  0.7546771E-02  0.1163633E+00
         21   -1    0    0  502  501  0.00000000000E+00  0.00000000000E+00  0.23664453878E+03  0.23664453878E+03  0.00000000000E+00 0. -1.
         21   -1    0    0  501  502 -0.00000000000E+00 -0.00000000000E+00 -0.14365328438E+03  0.14365328438E+03  0.00000000000E+00 0. -1.
         25    1    1    2    0    0 -0.17934653800E+02  0.12761357213E+03  0.31943823327E+01  0.17956079661E+03  0.12500000000E+03 0.  0.
         25    1    1    2    0    0  0.17934653800E+02 -0.12761357213E+03  0.89796872068E+02  0.20073702656E+03  0.12500000000E+03 0.  0.
</event>
<event>
 4    0  0.2219362E-002  0.4705909E+03  0.7546771E-02  0.1021754E+00
         21   -1    0    0  502  501  0.00000000000E+00  0.00000000000E+00  0.10752922827E+04  0.10752922827E+04  0.00000000000E+00 0.  1.
         21   -1    0    0  501  502 -0.00000000000E+00 -0.00000000000E+00 -0.20594943001E+03  0.20594943001E+03  0.00000000000E+00 0.  1.
         25    1    1    2    0    0  0.38803266641E+03  0.14464193856E+03  0.68693751427E+03  0.81178740388E+03  0.12500000000E+03 0.  0.
         25    1    1    2    0    0 -0.38803266641E+03 -0.14464193856E+03  0.18240533844E+03  0.46945430883E+03  0.12500000000E+03 0.  0.
</event>
<event>
 4    0  0.2219362E-002  0.2608363E+03  0.7546771E-02  0.1106642E+00
         21   -1    0    0  502  501  0.00000000000E+00  0.00000000000E+00  0.28608488959E+03  0.28608488959E+03  0.00000000000E+00 0. -1.
         21   -1    0    0  501  502 -0.00000000000E+00 -0.00000000000E+00 -0.23781604734E+03  0.23781604734E+03  0.00000000000E+00 0. -1.
         25    1    1    2    0    0 -0.70894875512E+02  0.21759206334E+03  0.17928360781E+02  0.26137868222E+03  0.12500000000E+03 0.  0.
         25    1    1    2    0    0  0.70894875512E+02 -0.21759206334E+03  0.30340481475E+02  0.26252225471E+03  0.12500000000E+03 0.  0.
</event>
<event>
 4    0  0.2219362E-002  0.2092503E+03  0.7546771E-02  0.1142161E+00
         21   -1    0    0  502  501  0.00000000000E+00  0.00000000000E+00  0.42637243281E+02  0.42637243281E+02  0.00000000000E+00 0.  1.
         21   -1    0    0  501  502 -0.00000000000E+00 -0.00000000000E+00 -0.10269356992E+04  0.10269356992E+04  0.00000000000E+00 0.  1.
         25    1    1    2    0    0 -0.66470866522E+02 -0.79237584204E+02 -0.82988947077E+03  0.84559949417E+03  0.12500000000E+03 0.  0.
         25    1    1    2    0    0  0.66470866522E+02  0.79237584204E+02 -0.15440898510E+03  0.22397344826E+03  0.12500000000E+03 0.  0.
</event>
<event>
 4    0  0.2219362E-002  0.1819079E+03  0.7546771E-02  0.1165969E+00
         21   -1    0    0  502  501  0.00000000000E+00  0.00000000000E+00  0.17047842767E+03  0.17047842767E+03  0.00000000000E+00 0.  1.
         21   -1    0    0  501  502 -0.00000000000E+00 -0.00000000000E+00 -0.19410356218E+03  0.19410356218E+03  0.00000000000E+00 0.  1.
         25    1    1    2    0    0  0.89936626061E+02  0.85073855025E+02 -0.58162687825E+02  0.18529451090E+03  0.12500000000E+03 0.  0.
         25    1    1    2    0    0 -0.89936626061E+02 -0.85073855025E+02  0.34537553321E+02  0.17928747894E+03  0.12500000000E+03 0.  0.
</event>
<event>
 4    0  0.2219362E-002  0.2616017E+03  0.7546771E-02  0.1106185E+00
         21   -1    0    0  502  501  0.00000000000E+00  0.00000000000E+00  0.62318427819E+03  0.62318427819E+03  0.00000000000E+00 0.  1.
         21   -1    0    0  501  502 -0.00000000000E+00 -0.00000000000E+00 -0.10981576207E+03  0.10981576207E+03  0.00000000000E+00 0.  1.
         25    1    1    2    0    0 -0.16519111294E+03 -0.58846284739E+02  0.46476454120E+03  0.51223243530E+03  0.12500000000E+03 0.  0.
         25    1    1    2    0    0  0.16519111294E+03  0.58846284739E+02  0.48603974920E+02  0.22076760496E+03  0.12500000000E+03 0.  0.
</event>
<event>
 4    0  0.2219362E-002  0.1904678E+03  0.7546771E-02  0.1158040E+00
         21   -1    0    0  502  501  0.00000000000E+00  0.00000000000E+00  0.30226539621E+03  0.30226539621E+03  0.00000000000E+00 0. -1.
         21   -1    0    0  501  502 -0.00000000000E+00 -0.00000000000E+00 -0.12002030573E+03  0.12002030573E+03  0.00000000000E+00 0. -1.
         25    1    1    2    0    0 -0.53814580111E+02 -0.11560223244E+03  0.16459767307E+03  0.24285238141E+03  0.12500000000E+03 0.  0.
         25    1    1    2    0    0  0.53814580111E+02  0.11560223244E+03  0.17647417405E+02  0.17943332053E+03  0.12500000000E+03 0.  0.
</event>
<event>
 4    0  0.2219362E-002  0.2545615E+03  0.7546771E-02  0.1110456E+00
         21   -1    0    0  502  501  0.00000000000E+00  0.00000000000E+00  0.43979867369E+03  0.43979867369E+03  0.00000000000E+00 0. -1.
         21   -1    0    0  501  502 -0.00000000000E+00 -0.00000000000E+00 -0.14734372892E+03  0.14734372892E+03  0.00000000000E+00 0. -1.
         25    1    1    2    0    0  0.40741704127E+02 -0.20607531358E+03  0.64276987436E+02  0.25275176050E+03  0.12500000000E+03 0.  0.
         25    1    1    2    0    0 -0.40741704127E+02  0.20607531358E+03  0.22817795733E+03  0.33439064212E+03  0.12500000000E+03 0.  0.
</event>
<event>
 4    0  0.2219362E-002  0.2219956E+03  0.7546771E-02  0.1132404E+00
         21   -1    0    0  502  501  0.00000000000E+00  0.00000000000E+00  0.94899016954E+02  0.94899016954E+02  0.00000000000E+00 0.  1.
         21   -1    0    0  501  502 -0.00000000000E+00 -0.00000000000E+00 -0.51931033689E+03  0.51931033689E+03  0.00000000000E+00 0.  1.
         25    1    1    2    0    0  0.98704053451E+02  0.66403855046E+02 -0.40540958243E+03  0.44060627737E+03  0.12500000000E+03 0.  0.
         25    1    1    2    0    0 -0.98704053451E+02 -0.66403855046E+02 -0.19001737507E+02  0.17360307647E+03  0.12500000000E+03 0.  0.
</event>
<event>
 4    0  0.2219362E-002  0.2847486E+03  0.7546771E-02  0.1093123E+00
         21   -1    0    0  502  501  0.00000000000E+00  0.00000000000E+00  0.14081648261E+04  0.14081648261E+04  0.00000000000E+00 0.  1.
         21   -1    0    0  501  502 -0.00000000000E+00 -0.00000000000E+00 -0.57579746216E+02  0.57579746216E+02  0.00000000000E+00 0.  1.
         25    1    1    2    0    0  0.23179434951E+03  0.73891142985E+02  0.47152270286E+03  0.54511208094E+03  0.12500000000E+03 0.  0.
         25    1    1    2    0    0 -0.23179434951E+03 -0.73891142985E+02  0.87906237707E+03  0.92063249142E+03  0.12500000000E+03 0.  0.
</event>
<event>
 4    0  0.2219362E-002  0.2485524E+03  0.7546771E-02  0.1114223E+00
         21   -1    0    0  502  501  0.00000000000E+00  0.00000000000E+00  0.10087935362E+03  0.10087935362E+03  0.00000000000E+00 0. -1.
         21   -1    0    0  501  502 -0.00000000000E+00 -0.00000000000E+00 -0.61239771677E+03  0.61239771677E+03  0.00000000000E+00 0. -1.
         25    1    1    2    0    0  0.12591808705E+03  0.97437507156E+02 -0.48801174943E+02  0.20822100548E+03  0.12500000000E+03 0.  0.
         25    1    1    2    0    0 -0.12591808705E+03 -0.97437507156E+02 -0.46271718820E+03  0.50505606491E+03  0.12500000000E+03 0.  0.
</event>
<event>
 4    0  0.2219362E-002  0.3003653E+03  0.7546771E-02  0.1085058E+00
         21   -1    0    0  502  501  0.00000000000E+00  0.00000000000E+00  0.84751422380E+03  0.84751422380E+03  0.00000000000E+00 0. -1.
         21   -1    0    0  501  502 -0.00000000000E+00 -0.00000000000E+00 -0.10645166812E+03  0.10645166812E+03  0.00000000000E+00 0. -1.
         25    1    1    2    0    0 -0.15584146781E+03 -0.36349167577E+02  0.19058879261E+02  0.20395113618E+03  0.12500000000E+03 0.  0.
         25    1    1    2    0    0  0.15584146781E+03  0.36349167577E+02  0.72200367641E+03  0.75001475574E+03  0.12500000000E+03 0.  0.
</event>
<event>
 4    0  0.2219362E-002  0.1778269E+03  0.7546771E-02  0.1169923E+00
         21   -1    0    0  502  501  0.00000000000E+00  0.00000000000E+00  0.54882102078E+03  0.54882102078E+03  0.00000000000E+00 0.  1.
         21   -1    0    0  501  502 -0.00000000000E+00 -0.00000000000E+00 -0.57618823755E+02  0.57618823755E+02  0.00000000000E+00 0.  1.
         25    1    1    2    0    0 -0.31911947862E+02  0.11763306649E+03  0.18799078951E+03  0.25655690926E+03  0.12500000000E+03 0.  0.
         25    1    1    2    0    0  0.31911947862E+02 -0.11763306649E+03  0.30321140752E+03  0.34988293528E+03  0.12500000000E+03 0.  0.
</event>
<event>
 4    0  0.2219362E-002  0.2482475E+03  0.7546771E-02  0.1114417E+00
         21   -1    0    0  502  501  0.00000000000E+00  0.00000000000E+00  0.33889319260E+03  0.33889319260E+03  0.00000000000E+00 0. -1.
         21   -1    0    0  501  502 -0.00000000000E+00 -0.00000000000E+00 -0.18184739558E+03  0.18184739558E+03  0.00000000000E+00 0. -1.
         25    1    1    2    0    0  0.32479726990E+01 -0.14448739988E+03 -0.87692152849E+02  0.21024288745E+03  0.12500000000E+03 0.  0.
         25    1    1    2    0    0 -0.32479726990E+01  0.14448739988E+03  0.24473794987E+03  0.31049770073E+03  0.12500000000E+03 0.  0.
</event>
<event>
 4    0  0.2219362E-002  0.2992083E+03  0.7546771E-02  0.1085637E+00
         21   -1    0    0  502  501  0.00000000000E+00  0.00000000000E+00  0.15742439898E+03  0.15742439898E+03  0.00000000000E+00 0. -1.
         21   -1    0    0  501  502 -0.00000000000E+00 -0.00000000000E+00 -0.56868953520E+03  0.56868953520E+03  0.00000000000E+00 0. -1.
         25    1    1    2    0    0 -0.13485066784E+03 -0.20847972764E+03 -0.33994201420E+03  0.43912876525E+03  0.12500000000E+03 0.  0.
         25    1    1    2    0    0  0.13485066784E+03  0.20847972764E+03 -0.71323122018E+02  0.28698516893E+03  0.12500000000E+03 0.  0.
</event>
<event>
 4    0  0.2219362E-002  0.2306157E+03  0.7546771E-02  0.1126207E+00
         21   -1    0    0  502  501  0.00000000000E+00  0.00000000000E+00  0.76961543210E+03  0.76961543210E+03  0.00000000000E+00 0.  1.
         21   -1    0    0  501  502 -0.00000000000E+00 -0.00000000000E+00 -0.69104122200E+02  0.69104122200E+02  0.00000000000E+00 0.  1.
         25    1    1    2    0    0  0.89649237988E+02 -0.11983827388E+03  0.12635608591E+03  0.23235545659E+03  0.12500000000E+03 0.  0.
         25    1    1    2    0    0 -0.89649237988E+02  0.11983827388E+03  0.57415522399E+03  0.60636409771E+03  0.12500000000E+03 0.  0.
</event>
<event>
 4    0  0.2219362E-002  0.1863261E+03  0.7546771E-02  0.1161817E+00
         21   -1    0    0  502  501  0.00000000000E+00  0.00000000000E+00  0.18045449684E+02  0.18045449684E+02  0.00000000000E+00 0. -1.
         21   -1    0    0  501  502 -0.00000000000E+00 -0.00000000000E+00 -0.19238865930E+04  0.19238865930E+04  0.00000000000E+00 0. -1.
         25    1    1    2    0    0  0.13738861926E+03  0.29559528928E+00 -0.10296281881E+04  0.10462480231E+04  0.12500000000E+03 0.  0.
         25    1    1    2    0    0 -0.13738861926E+03 -0.29559528928E+00 -0.87621295519E+03  0.89568401958E+03  0.12500000000E+03 0.  0.
</event>
<event>
 4    0  0.2219362E-002  0.2053546E+03  0.7546771E-02  0.1145298E+00
         21   -1    0    0  502  501  0.00000000000E+00  0.00000000000E+00  0.18546079742E+04  0.18546079742E+04  0.00000000000E+00 0. -1.
         21   -1    0    0  501  502 -0.00000000000E+00 -0.00000000000E+00 -0.22738236837E+02  0.22738236837E+02  0.00000000000E+00 0. -1.
         25    1    1    2    0    0 -0.27449860036E+02  0.16026228641E+03  0.86842736617E+03  0.89231641561E+03  0.12500000000E+03 0.  0.
         25    1    1    2    0    0  0.27449860036E+02 -0.16026228641E+03  0.96344237115E+03  0.98502979538E+03  0.12500000000E+03 0.  0.
</event>
<event>
 4    0  0.2219362E-002  0.2736353E+03  0.7546771E-02  0.1099217E+00
         21   -1    0    0  502  501  0.00000000000E+00  0.00000000000E+00  0.41501493390E+03  0.41501493390E+03  0.00000000000E+00 0. -1.
         21   -1    0    0  501  502 -0.00000000000E+00 -0.00000000000E+00 -0.18041831912E+03  0.18041831912E+03  0.00000000000E+00 0. -1.
         25    1    1    2    0    0 -0.15454570813E+03 -0.42173136843E+00 -0.87312441152E+02  0.21710139599E+03  0.12500000000E+03 0.  0.
         25    1    1    2    0    0  0.15454570813E+03  0.42173136843E+00  0.32190905593E+03  0.37833185704E+03  0.12500000000E+03 0.  0.
</event>
<event>
 4    0  0.2219362E-002  0.2370321E+03  0.7546771E-02  0.1121786E+00
         21   -1    0    0  502  501  0.00000000000E+00  0.00000000000E+00  0.44355889828E+03  0.44355889828E+03  0.00000000000E+00 0. -1.
         21   -1    0    0  501  502 -0.00000000000E+00 -0.00000000000E+00 -0.12666690618E+03  0.12666690618E+03  0.00000000000E+00 0. -1.
         25    1    1    2    0    0  0.18493546098E+03  0.74431840657E+02  0.12404358551E+03  0.26599442614E+03  0.12500000000E+03 0.  0.
         25    1    1    2    0    0 -0.18493546098E+03 -0.74431840657E+02  0.19284840658E+03  0.30423137832E+03  0.12500000000E+03 0.  0.
</event>
<event>
 4    0  0.2219362E-002  0.3029935E+03  0.7546771E-02  0.1083754E+00
         21   -1    0    0  502  501  0.00000000000E+00  0.00000000000E+00  0.10713956553E+04  0.10713956553E+04  0.00000000000E+00 0.  1.
         21   -1    0    0  501  502 -0.00000000000E+00 -0.00000000000E+00 -0.85687363971E+02  0.85687363971E+02  0.00000000000E+00 0.  1.
         25    1    1    2    0    0 -0.12595290941E+02 -0.27416106635E+03  0.43695225185E+03  0.53091920482E+03  0.12500000000E+03 0.  0.
         25    1    1    2    0    0  0.12595290941E+02  0.27416106635E+03  0.54875603949E+03  0.62616381446E+03  0.12500000000E+03 0.  0.
</event>
<event>
 4    0  0.2219362E-002  0.1851761E+03  0.7546771E-02  0.1162886E+00
         21   -1    0    0  502  501  0.00000000000E+00  0.00000000000E+00  0.33453121646E+03  0.33453121646E+03  0.00000000000E+00 0. -1.
         21   -1    0    0  501  502 -0.00000000000E+00 -0.00000000000E+00 -0.10250220170E+03  0.10250220170E+03  0.00000000000E+00 0. -1.
         25    1    1    2    0    0 -0.44935469003E+02 -0.57578069512E+02  0.25226155973E+03  0.29085275481E+03  0.12500000000E+03 0.  0.
         25    1    1    2    0    0  0.44935469003E+02  0.57578069512E+02 -0.20232544965E+02  0.14618066336E+03  0.12500000000E+03 0.  0.
</event>
<event>
 4    0  0.2219362E-002  0.2317610E+03  0.7546771E-02  0.1125406E+00
         21   -1    0    0  502  501  0.00000000000E+00  0.00000000000E+00  0.11481086523E+03  0.11481086523E+03  0.00000000000E+00 0.  1.
         21   -1    0    0  501  502 -0.00000000000E+00 -0.00000000000E+00 -0.46784035789E+03  0.46784035789E+03  0.00000000000E+00 0.  1.
         25    1    1    2    0    0 -0.11838781375E+03 -0.12231946095E+02  0.17907023288E+02  0.17352508877E+03  0.12500000000E+03 0.  0.
         25    1    1    2    0    0  0.11838781375E+03  0.12231946095E+02 -0.37093651594E+03  0.40912613435E+03  0.12500000000E+03 0.  0.
</event>
<event>
 4    0  0.2219362E-002  0.2872495E+03  0.7546771E-02  0.1091794E+00
         21   -1    0    0  502  501  0.00000000000E+00  0.00000000000E+00  0.47259223803E+03  0.47259223803E+03  0.00000000000E+00 0.  1.
         21   -1    0    0  501  502 -0.00000000000E+00 -0.00000000000E+00 -0.17459507664E+03  0.17459507664E+03  0.00000000000E+00 0.  1.
         25    1    1    2    0    0  0.17459148492E+03  0.18690951868E+03  0.10580809977E+03  0.30370661626E+03  0.12500000000E+03 0.  0.
         25    1    1    2    0    0 -0.17459148492E+03 -0.18690951868E+03  0.19218906162E+03  0.34348069842E+03  0.12500000000E+03 0.  0.
</event>
<event>
 4    0  0.2219362E-002  0.2385832E+03  0.7546771E-02  0.1120740E+00
         21   -1    0    0  502  501  0.00000000000E+00  0.00000000000E+00  0.16541308727E+03  0.16541308727E+03  0.00000000000E+00 0.  1.
         21   -1    0    0  501  502 -0.00000000000E+00 -0.00000000000E+00 -0.34412003244E+03  0.34412003244E+03  0.00000000000E+00 0.  1.
         25    1    1    2    0    0 -0.16307121259E+03 -0.43137820408E+02  0.31664640758E+02  0.21232225837E+03  0.12500000000E+03 0.  0.
         25    1    1    2    0    0  0.16307121259E+03  0.43137820408E+02 -0.21037158593E+03  0.29721086133E+03  0.12500000000E+03 0.  0.
</event>
<event>
 4    0  0.2219362E-002  0.2282636E+03  0.7546771E-02  0.1127868E+00
         21   -1    0    0  502  501  0.00000000000E+00  0.00000000000E+00  0.58189712420E+03  0.58189712420E+03  0.00000000000E+00 0.  1.
         21   -1    0    0  501  502 -0.00000000000E+00 -0.00000000000E+00 -0.89542093896E+02  0.89542093896E+02  0.00000000000E+00 0.  1.
         25    1    1    2    0    0  0.15294818784E+03  0.93480234069E+02  0.34315345594E+03  0.40683042739E+03  0.12500000000E+03 0.  0.
         25    1    1    2    0    0 -0.15294818784E+03 -0.93480234069E+02  0.14920157436E+03  0.26460879070E+03  0.12500000000E+03 0.  0.
</event>
<event>
 4    0  0.2219362E-002  0.2548330E+03  0.7546771E-02  0.1110288E+00
         21   -1    0    0  502  501  0.00000000000E+00  0.00000000000E+00  0.36256502519E+03  0.36256502519E+03  0.00000000000E+00 0. -1.
         21   -1    0    0  501  502 -0.00000000000E+00 -0.00000000000E+00 -0.17911226136E+03  0.17911226136E+03  0.00000000000E+00 0. -1.
         25    1    1    2    0    0  0.74836654318E+02  0.20728695542E+03  0.62689433990E+02  0.26100454374E+03  0.12500000000E+03 0.  0.
         25    1    1    2    0    0 -0.74836654318E+02 -0.20728695542E+03  0.12076332984E+03  0.28067274280E+03  0.12500000000E+03 0.  0.
</event>
<event>
 4    0  0.2219362E-002  0.2366439E+03  0.7546771E-02  0.1122049E+00
         21   -1    0    0  502  501  0.00000000000E+00  0.00000000000E+00  0.32253617317E+02  0.32253617317E+02  0.00000000000E+00 0. -1.
         21   -1    0    0  501  502 -0.00000000000E+00 -0.00000000000E+00 -0.17362495391E+04  0.17362495391E+04  0.00000000000E+00 0. -1.
         25    1    1    2    0    0 -0.16433587024E+03 -0.12731244798E+02 -0.42257814949E+03  0.47049511716E+03  0.12500000000E+03 0.  0.
         25    1    1    2    0    0  0.16433587024E+03  0.12731244798E+02 -0.12814177722E+04  0.12980080392E+04  0.12500000000E+03 0.  0.
</event>
<event>
 4    0  0.2219362E-002  0.1953729E+03  0.7546771E-02  0.1153703E+00
         21   -1    0    0  502  501  0.00000000000E+00  0.00000000000E+00  0.97097268094E+02  0.97097268094E+02  0.00000000000E+00 0. -1.
         21   -1    0    0  501  502 -0.00000000000E+00 -0.00000000000E+00 -0.39311666205E+03  0.39311666205E+03  0.00000000000E+00 0. -1.
         25    1    1    2    0    0  0.10811484718E+03 -0.47101191668E+01 -0.27859576062E+03  0.32396234849E+03  0.12500000000E+03 0.  0.
         25    1    1    2    0    0 -0.10811484718E+03  0.47101191668E+01 -0.17423633338E+02  0.16625158166E+03  0.12500000000E+03 0.  0.
</event>
<event>
 4    0  0.2219362E-002  0.2164777E+03  0.7546771E-02  0.1136537E+00
         21   -1    0    0  502  501  0.00000000000E+00  0.00000000000E+00  0.73444797435E+02  0.73444797435E+02  0.00000000000E+00 0.  1.
         21   -1    0    0  501  502 -0.00000000000E+00 -0.00000000000E+00 -0.63806557757E+03  0.63806557757E+03  0.00000000000E+00 0.  1.
         25    1    1    2    0    0 -0.40337393537E+02 -0.62285197167E+02 -0.54592336693E+03  0.56494590331E+03  0.12500000000E+03 0.  0.
         25    1    1    2    0    0  0.40337393537E+02  0.62285197167E+02 -0.18697413205E+02  0.14656447170E+03  0.12500000000E+03 0.  0.
</event>
<event>
 4    0  0.2219362E-002  0.2913662E+03  0.7546771E-02  0.1089638E+00
         21   -1    0    0  502  501  0.00000000000E+00  0.00000000000E+00  0.20227062150E+03  0.20227062150E+03  0.00000000000E+00 0.  1.
         21   -1    0    0  501  502 -0.00000000000E+00 -0.00000000000E+00 -0.41970621749E+03  0.41970621749E+03  0.00000000000E+00 0.  1.
         25    1    1    2    0    0 -0.36684882291E+02  0.31058205812E+02  0.16747292522E+03  0.21443547612E+03  0.12500000000E+03 0.  0.
         25    1    1    2    0    0  0.36684882291E+02 -0.31058205812E+02 -0.38490852122E+03  0.40754136287E+03  0.12500000000E+03 0.  0.
</event>
<event>
 4    0  0.2219362E-002  0.2446154E+03  0.7546771E-02  0.1116756E+00
         21   -1    0    0  502  501  0.00000000000E+00  0.00000000000E+00  0.81557852095E+02  0.81557852095E+02  0.00000000000E+00 0.  1.
         21   -1    0    0  501  502 -0.00000000000E+00 -0.00000000000E+00 -0.73367170912E+03  0.73367170912E+03  0.00000000000E+00 0.  1.
         25    1    1    2    0    0 -0.15357582372E+03  0.12319353288E+03 -0.20304568264E+03  0.30921631492E+03  0.12500000000E+03 0.  0.
         25    1    1    2    0    0  0.15357582372E+03 -0.12319353288E+03 -0.44906817439E+03  0.50601324629E+03  0.12500000000E+03 0.  0.
</event>
<event>
 4    0  0.2219362E-002  0.2602486E+03  0.7546771E-02  0.1106994E+00
         21   -1    0    0  502  501  0.00000000000E+00  0.00000000000E+00  0.63124089788E+02  0.63124089788E+02  0.00000000000E+00 0. -1.
         21   -1    0    0  501  502 -0.00000000000E+00 -0.00000000000E+00 -0.10729554893E+04  0.10729554893E+04  0.00000000000E+00 0. -1.
         25    1    1    2    0    0 -0.83993577175E+02 -0.11458408705E+03 -0.11495473784E+03  0.22141369823E+03  0.12500000000E+03 0.  0.
         25    1    1    2    0    0  0.83993577175E+02  0.11458408705E+03 -0.89487666171E+03  0.91466588090E+03  0.12500000000E+03 0.  0.
</event>
<event>
 4    0  0.2219362E-002  0.2374657E+03  0.7546771E-02  0.1121493E+00
         21   -1    0    0  502  501  0.00000000000E+00  0.00000000000E+00  0.84884332460E+02  0.84884332460E+02  0.00000000000E+00 0.  1.
         21   -1    0    0  501  502 -0.00000000000E+00 -0.00000000000E+00 -0.66431531034E+03  0.66431531034E+03  0.00000000000E+00 0.  1.
         25    1    1    2    0    0 -0.11000033207E+03 -0.33688776136E+02 -0.55145507837E+03  0.57702921083E+03  0.12500000000E+03 0.  0.
         25    1    1    2    0    0  0.11000033207E+03  0.33688776136E+02 -0.27975899513E+02  0.17217043197E+03  0.12500000000E+03 0.  0.
</event>
<event>
 4    0  0.2219362E-002  0.2172535E+03  0.7546771E-02  0.1135947E+00
         21   -1    0    0  502  501  0.00000000000E+00  0.00000000000E+00  0.78754985846E+02  0.78754985846E+02  0.00000000000E+00 0. -1.
         21   -1    0    0  501  502 -0.00000000000E+00 -0.00000000000E+00 -0.59931556175E+03  0.59931556175E+03  0.00000000000E+00 0. -1.
         25    1    1    2    0    0 -0.10728232776E+03  0.13145643606E+03 -0.34261762066E+03  0.40224635041E+03  0.12500000000E+03 0.  0.
         25    1    1    2    0    0  0.10728232776E+03 -0.13145643606E+03 -0.17794295524E+03  0.27582419719E+03  0.12500000000E+03 0.  0.
</event>
<event>
 4    0  0.2219362E-002  0.3020634E+03  0.7546771E-02  0.1084214E+00
         21   -1    0    0  502  501  0.00000000000E+00  0.00000000000E+00  0.15136421699E+04  0.15136421699E+04  0.00000000000E+00 0.  1.
         21   -1    0    0  501  502 -0.00000000000E+00 -0.00000000000E+00 -0.60279963358E+02  0.60279963358E+02  0.00000000000E+00 0.  1.
         25    1    1    2    0    0  0.23046948858E+03  0.51205241673E+02  0.35935324793E+03  0.44776993952E+03  0.12500000000E+03 0.  0.
         25    1    1    2    0    0 -0.23046948858E+03 -0.51205241673E+02  0.10940089587E+04  0.11261521938E+04  0.12500000000E+03 0.  0.
</event>
<event>
 4    0  0.2219362E-002  0.2192058E+03  0.7546771E-02  0.1134477E+00
         21   -1    0    0  502  501  0.00000000000E+00  0.00000000000E+00  0.18982924350E+03  0.18982924350E+03  0.00000000000E+00 0.  1.
         21   -1    0    0  501  502 -0.00000000000E+00 -0.00000000000E+00 -0.25312854804E+03  0.25312854804E+03  0.00000000000E+00 0.  1.
         25    1    1    2    0    0  0.68190748283E+02 -0.15982208724E+03 -0.79395604085E+02  0.22830186086E+03  0.12500000000E+03 0.  0.
         25    1    1    2    0    0 -0.68190748283E+02  0.15982208724E+03  0.16096299542E+02  0.21465593069E+03  0.12500000000E+03 0.  0.
</event>
<event>
 4    0  0.2219362E-002  0.2892462E+03  0.7546771E-02  0.1090743E+00
         21   -1    0    0  502  501  0.00000000000E+00  0.00000000000E+00  0.11611977156E+04  0.11611977156E+04  0.00000000000E+00 0. -1.
         21   -1    0    0  501  502 -0.00000000000E+00 -0.00000000000E+00 -0.72049181588E+02  0.72049181588E+02  0.00000000000E+00 0. -1.
         25    1    1    2    0    0 -0.10499323379E+03  0.12463111042E+03  0.11038259072E+03  0.23316476827E+03  0.12500000000E+03 0.  0.
         25    1    1    2    0    0  0.10499323379E+03 -0.12463111042E+03  0.97876594327E+03  0.10000821289E+04  0.12500000000E+03 0.  0.
</event>
<event>
 4    0  0.2219362E-002  0.2055945E+03  0.7546771E-02  0.1145103E+00
         21   -1    0    0  502  501  0.00000000000E+00  0.00000000000E+00  0.59262795410E+02  0.59262795410E+02  0.00000000000E+00 0. -1.
         21   -1    0    0  501  502 -0.00000000000E+00 -0.00000000000E+00 -0.71324819059E+03  0.71324819059E+03  0.00000000000E+00 0. -1.
         25    1    1    2    0    0 -0.10549881440E+03  0.64939449069E+02 -0.52667697013E+03  0.55530240658E+03  0.12500000000E+03 0.  0.
         25    1    1    2    0    0  0.10549881440E+03 -0.64939449069E+02 -0.12730842505E+03  0.21720857942E+03  0.12500000000E+03 0.  0.
</event>
<event>
 4    0  0.2219362E-002  0.2131549E+03  0.7546771E-02  0.1139092E+00
         21   -1    0    0  502  501  0.00000000000E+00  0.00000000000E+00  0.71938458063E+02  0.71938458063E+02  0.00000000000E+00 0.  1.
         21   -1    0    0  501  502 -0.00000000000E+00 -0.00000000000E+00 -0.63158151080E+03  0.63158151080E+03  0.00000000000E+00 0.  1.
         25    1    1    2    0    0  0.16273532032E+03  0.30144145151E+02 -0.36097896809E+03  0.41631991229E+03  0.12500000000E+03 0.  0.
         25    1    1    2    0    0 -0.16273532032E+03 -0.30144145151E+02 -0.19866408465E+03  0.28720005657E+03  0.12500000000E+03 0.  0.
</event>
<event>
 4    0  0.2219362E-002  0.2599208E+03  0.7546771E-02  0.1107191E+00
         21   -1    0    0  502  501  0.00000000000E+00  0.00000000000E+00  0.22209023937E+03  0.22209023937E+03  0.00000000000E+00 0.  1.
         21   -1    0    0  501  502 -0.00000000000E+00 -0.00000000000E+00 -0.30419537357E+03  0.30419537357E+03  0.00000000000E+00 0.  1.
         25    1    1    2    0    0  0.30005301070E+02  0.10835009620E+03 -0.24173634512E+03  0.29445122175E+03  0.12500000000E+03 0.  0.
         25    1    1    2    0    0 -0.30005301070E+02 -0.10835009620E+03  0.15963121092E+03  0.23183439119E+03  0.12500000000E+03 0.  0.
</event>
<event>
 4    0  0.2219362E-002  0.2256365E+03  0.7546771E-02  0.1129749E+00
         21   -1    0    0  502  501  0.00000000000E+00  0.00000000000E+00  0.44487042193E+03  0.44487042193E+03  0.00000000000E+00 0. -1.
         21   -1    0    0  501  502 -0.00000000000E+00 -0.00000000000E+00 -0.11444190592E+03  0.11444190592E+03  0.00000000000E+00 0. -1.
         25    1    1    2    0    0 -0.18725184984E+03 -0.12023375486E+02  0.17623052720E+03  0.28616431563E+03  0.12500000000E+03 0.  0.
         25    1    1    2    0    0  0.18725184984E+03  0.12023375486E+02  0.15419798881E+03  0.27314801222E+03  0.12500000000E+03 0.  0.
</event>
<event>
 4    0  0.2219362E-002  0.1767117E+03  0.7546771E-02  0.1171024E+00
         21   -1    0    0  502  501  0.00000000000E+00  0.00000000000E+00  0.33666895806E+03  0.33666895806E+03  0.00000000000E+00 0. -1.
         21   -1    0    0  501  502 -0.00000000000E+00 -0.00000000000E+00 -0.92752856281E+02  0.92752856281E+02  0.00000000000E+00 0. -1.
         25    1    1    2    0    0 -0.17535470908E+02 -0.11546217510E+03  0.17579112347E+03  0.24528865793E+03  0.12500000000E+03 0.  0.
         25    1    1    2    0    0  0.17535470908E+02  0.11546217510E+03  0.68124978314E+02  0.18413315641E+03  0.12500000000E+03 0.  0.
</event>
<event>
 4    0  0.2219362E-002  0.2169616E+03  0.7546771E-02  0.1136169E+00
         21   -1    0    0  502  501  0.00000000000E+00  0.00000000000E+00  0.79758406418E+02  0.79758406418E+02  0.00000000000E+00 0.  1.
         21   -1    0    0  501  502 -0.00000000000E+00 -0.00000000000E+00 -0.59018631555E+03  0.59018631555E+03  0.00000000000E+00 0.  1.
         25    1    1    2    0    0 -0.13369784076E+03 -0.74623869528E+02 -0.11709103377E+03  0.22973712089E+03  0.12500000000E+03 0.  0.
         25    1    1    2    0    0  0.13369784076E+03  0.74623869528E+02 -0.39333687537E+03  0.44020760108E+03  0.12500000000E+03 0.  0.
</event>
<event>
 4    0  0.2219362E-002  0.2804524E+03  0.7546771E-02  0.1095442E+00
         21   -1    0    0  502  501  0.00000000000E+00  0.00000000000E+00  0.16243544599E+03  0.16243544599E+03  0.00000000000E+00 0.  1.
         21   -1    0    0  501  502 -0.00000000000E+00 -0.00000000000E+00 -0.48421419248E+03  0.48421419248E+03  0.00000000000E+00 0.  1.
         25    1    1    2    0    0 -0.19217793719E+03  0.14161079667E+03 -0.71272298057E+02  0.27873054685E+03  0.12500000000E+03 0.  0.
         25    1    1    2    0    0  0.19217793719E+03 -0.14161079667E+03 -0.25050644843E+03  0.36791909163E+03  0.12500000000E+03 0.  0.
</event>
<event>
 4    0  0.2219362E-002  0.2650049E+03  0.7546771E-02  0.1104173E+00
         21   -1    0    0  502  501  0.00000000000E+00  0.00000000000E+00  0.14412491207E+03  0.14412491207E+03  0.00000000000E+00 0.  1.
         21   -1    0    0  501  502 -0.00000000000E+00 -0.00000000000E+00 -0.48726885975E+03  0.48726885975E+03  0.00000000000E+00 0.  1.
         25    1    1    2    0    0  0.15753568854E+03  0.51645416280E+02 -0.36774711942E+03  0.42231230864E+03  0.12500000000E+03 0.  0.
         25    1    1    2    0    0 -0.15753568854E+03 -0.51645416280E+02  0.24603171742E+02  0.20908146318E+03  0.12500000000E+03 0.  0.
</event>
<event>
 4    0  0.2219362E-002  0.1965599E+03  0.7546771E-02  0.1152674E+00
         21   -1    0    0  502  501  0.00000000000E+00  0.00000000000E+00  0.29657253668E+03  0.29657253668E+03  0.00000000000E+00 0.  1.
         21   -1    0    0  501  502 -0.00000000000E+00 -0.00000000000E+00 -0.13027432329E+03  0.13027432329E+03  0.00000000000E+00 0.  1.
         25    1    1    2    0    0  0.57644645368E+02  0.69282594989E+02  0.21563283128E+03  0.26503867837E+03  0.12500000000E+03 0.  0.
         25    1    1    2    0    0 -0.57644645368E+02 -0.69282594989E+02 -0.49334617894E+02  0.16180818159E+03  0.12500000000E+03 0.  0.
</event>
<event>
 4    0  0.2219362E-002  0.1903861E+03  0.7546771E-02  0.1158114E+00
         21   -1    0    0  502  501  0.00000000000E+00  0.00000000000E+00  0.19974362510E+03  0.19974362510E+03  0.00000000000E+00 0.  1.
         21   -1    0    0  501  502 -0.00000000000E+00 -0.00000000000E+00 -0.18146686953E+03  0.18146686953E+03  0.00000000000E+00 0.  1.
         25    1    1    2    0    0  0.11584576046E+03 -0.45508758045E+02  0.80848791966E+02  0.19404333134E+03  0.12500000000E+03 0.  0.
         25    1    1    2    0    0 -0.11584576046E+03  0.45508758045E+02 -0.62572036390E+02  0.18716716329E+03  0.12500000000E+03 0.  0.
</event>
<event>
 4    0  0.2219362E-002  0.2716424E+03  0.7546771E-02  0.1100343E+00
         21   -1    0    0  502  501  0.00000000000E+00  0.00000000000E+00  0.29088303632E+03  0.29088303632E+03  0.00000000000E+00 0.  1.
         21   -1    0    0  501  502 -0.00000000000E+00 -0.00000000000E+00 -0.25367446020E+03  0.25367446020E+03  0.00000000000E+00 0.  1.
         25    1    1    2    0    0 -0.33521549457E+02 -0.21845429435E+03 -0.78154868700E+02  0.26566737944E+03  0.12500000000E+03 0.  0.
         25    1    1    2    0    0  0.33521549457E+02  0.21845429435E+03  0.11536344482E+03  0.27889011707E+03  0.12500000000E+03 0.  0.
</event>
<event>
 4    0  0.2219362E-002  0.2998622E+03  0.7546771E-02  0.1085310E+00
         21   -1    0    0  502  501  0.00000000000E+00  0.00000000000E+00  0.30997942560E+03  0.30997942560E+03  0.00000000000E+00 0. -1.
         21   -1    0    0  501  502 -0.00000000000E+00 -0.00000000000E+00 -0.29007517784E+03  0.29007517784E+03  0.00000000000E+00 0. -1.
         25    1    1    2    0    0  0.55670934627E+02  0.15746338180E+02 -0.25654981532E+03  0.29118723851E+03  0.12500000000E+03 0.  0.
         25    1    1    2    0    0 -0.55670934627E+02 -0.15746338180E+02  0.27645406308E+03  0.30886736493E+03  0.12500000000E+03 0.  0.
</event>
<event>
 4    0  0.2219362E-002  0.2427280E+03  0.7546771E-02  0.1117989E+00
         21   -1    0    0  502  501  0.00000000000E+00  0.00000000000E+00  0.90177786277E+03  0.90177786277E+03  0.00000000000E+00 0. -1.
         21   -1    0    0  501  502 -0.00000000000E+00 -0.00000000000E+00 -0.65334137724E+02  0.65334137724E+02  0.00000000000E+00 0. -1.
         25    1    1    2    0    0  0.85553322323E+02 -0.96970901371E+02  0.93496836776E+02  0.20270516806E+03  0.12500000000E+03 0.  0.
         25    1    1    2    0    0 -0.85553322323E+02  0.96970901371E+02  0.74294688827E+03  0.76440683242E+03  0.12500000000E+03 0.  0.
</event>
<event>
 4    0  0.2219362E-002  0.3354317E+03  0.7546771E-02  0.1068758E+00
         21   -1    0    0  502  501  0.00000000000E+00  0.00000000000E+00  0.22917696275E+03  0.22917696275E+03  0.00000000000E+00 0.  1.
         21   -1    0    0  501  502 -0.00000000000E+00 -0.00000000000E+00 -0.49094990722E+03  0.49094990722E+03  0.00000000000E+00 0.  1.
         25    1    1    2    0    0  0.18960747361E+03 -0.23537098417E+03 -0.50997418950E+02  0.33102300672E+03  0.12500000000E+03 0.  0.
         25    1    1    2    0    0 -0.18960747361E+03  0.23537098417E+03 -0.21077552552E+03  0.38910386325E+03  0.12500000000E+03 0.  0.
</event>
<event>
 4    0  0.2219362E-002  0.1745684E+03  0.7546771E-02  0.1173166E+00
         21   -1    0    0  502  501  0.00000000000E+00  0.00000000000E+00  0.29956645558E+02  0.29956645558E+02  0.00000000000E+00 0. -1.
         21   -1    0    0  501  502 -0.00000000000E+00 -0.00000000000E+00 -0.10172744677E+04  0.10172744677E+04  0.00000000000E+00 0. -1.
         25    1    1    2    0    0  0.62842860044E+00 -0.74446986760E+02 -0.20429969871E+03  0.25081091614E+03  0.12500000000E+03 0.  0.
         25    1    1    2    0    0 -0.62842860044E+00  0.74446986760E+02 -0.78301812348E+03  0.79642019717E+03  0.12500000000E+03 0.  0.
</event>
<event>
 4    0  0.2219362E-002  0.3008226E+03  0.7546771E-02  0.1084830E+00
         21   -1    0    0  502  501  0.00000000000E+00  0.00000000000E+00  0.29093623809E+03  0.29093623809E+03  0.00000000000E+00 0.  1.
         21   -1    0    0  501  502 -0.00000000000E+00 -0.00000000000E+00 -0.31104482823E+03  0.31104482823E+03  0.00000000000E+00 0.  1.
         25    1    1    2    0    0 -0.34776130619E+02 -0.23988064812E+03  0.11696976416E+03  0.29674741841E+03  0.12500000000E+03 0.  0.
         25    1    1    2    0    0  0.34776130619E+02  0.23988064812E+03 -0.13707835430E+03  0.30523364792E+03  0.12500000000E+03 0.  0.
</event>
<event>
 4    0  0.2219362E-002  0.1668612E+03  0.7546771E-02  0.1181161E+00
         21   -1    0    0  502  501  0.00000000000E+00  0.00000000000E+00  0.12534601822E+04  0.12534601822E+04  0.00000000000E+00 0.  1.
         21   -1    0    0  501  502 -0.00000000000E+00 -0.00000000000E+00 -0.22212633549E+02  0.22212633549E+02  0.00000000000E+00 0.  1.
         25    1    1    2    0    0 -0.73759173350E+02 -0.74791066612E+02  0.48411822396E+03  0.51091053431E+03  0.12500000000E+03 0.  0.
         25    1    1    2    0    0  0.73759173350E+02  0.74791066612E+02  0.74712932471E+03  0.76476228146E+03  0.12500000000E+03 0.  0.
</event>
<event>
 4    0  0.2219362E-002  0.2949570E+03  0.7546771E-02  0.1087789E+00
         21   -1    0    0  502  501  0.00000000000E+00  0.00000000000E+00  0.15236583543E+03  0.15236583543E+03  0.00000000000E+00 0. -1.
         21   -1    0    0  501  502 -0.00000000000E+00 -0.00000000000E+00 -0.57099167548E+03  0.57099167548E+03  0.00000000000E+00 0.  1.
         25    1    1    2    0    0 -0.59799775409E+01 -0.24558379784E+03 -0.33807918332E+03  0.43619914728E+03  0.12500000000E+03 0.  0.
         25    1    1    2    0    0  0.59799775409E+01  0.24558379784E+03 -0.80546656732E+02  0.28715836363E+03  0.12500000000E+03 0.  0.
</event>
<event>
 4    0  0.2219362E-002  0.2009853E+03  0.7546771E-02  0.1148910E+00
         21   -1    0    0  502  501  0.00000000000E+00  0.00000000000E+00  0.94684802228E+02  0.94684802228E+02  0.00000000000E+00 0. -1.
         21   -1    0    0  501  502 -0.00000000000E+00 -0.00000000000E+00 -0.42662688656E+03  0.42662688656E+03  0.00000000000E+00 0. -1.
         25    1    1    2    0    0 -0.56250027288E+02 -0.14677250037E+03 -0.17633399410E+03  0.26725439175E+03  0.12500000000E+03 0.  0.
         25    1    1    2    0    0  0.56250027288E+02  0.14677250037E+03 -0.15560809023E+03  0.25405729704E+03  0.12500000000E+03 0.  0.
</event>
<event>
 4    0  0.2219362E-002  0.2352508E+03  0.7546771E-02  0.1122998E+00
         21   -1    0    0  502  501  0.00000000000E+00  0.00000000000E+00  0.20217478229E+04  0.20217478229E+04  0.00000000000E+00 0. -1.
         21   -1    0    0  501  502 -0.00000000000E+00 -0.00000000000E+00 -0.27373820675E+02  0.27373820675E+02  0.00000000000E+00 0. -1.
         25    1    1    2    0    0 -0.91838491988E+02  0.12706802243E+03  0.15330228645E+04  0.15460804293E+04  0.12500000000E+03 0.  0.
         25    1    1    2    0    0  0.91838491988E+02 -0.12706802243E+03  0.46135113778E+03  0.50304121428E+03  0.12500000000E+03 0.  0.
</event>
<event>
 4    0  0.2219362E-002  0.1820613E+03  0.7546771E-02  0.1165823E+00
         21   -1    0    0  502  501  0.00000000000E+00  0.00000000000E+00  0.18744391060E+04  0.18744391060E+04  0.00000000000E+00 0. -1.
         21   -1    0    0  501  502 -0.00000000000E+00 -0.00000000000E+00 -0.17683333737E+02  0.17683333737E+02  0.00000000000E+00 0. -1.
         25    1    1    2    0    0  0.14280470376E+02  0.11189918958E+03  0.56851271862E+03  0.59292248372E+03  0.12500000000E+03 0.  0.
         25    1    1    2    0    0 -0.14280470376E+02 -0.11189918958E+03  0.12882430537E+04  0.12991999560E+04  0.12500000000E+03 0.  0.
</event>
<event>
 4    0  0.2219362E-002  0.2092573E+03  0.7546771E-02  0.1142155E+00
         21   -1    0    0  502  501  0.00000000000E+00  0.00000000000E+00  0.49722631360E+03  0.49722631360E+03  0.00000000000E+00 0.  1.
         21   -1    0    0  501  502 -0.00000000000E+00 -0.00000000000E+00 -0.88065755925E+02  0.88065755925E+02  0.00000000000E+00 0.  1.
         25    1    1    2    0    0  0.80660195895E+02 -0.13934106850E+03  0.27079310791E+03  0.33893348590E+03  0.12500000000E+03 0.  0.
         25    1    1    2    0    0 -0.80660195895E+02  0.13934106850E+03  0.13836744976E+03  0.24635858363E+03  0.12500000000E+03 0.  0.
</event>
<event>
 4    0  0.2219362E-002  0.4192455E+03  0.7546771E-02  0.1037312E+00
         21   -1    0    0  502  501  0.00000000000E+00  0.00000000000E+00  0.79532895084E+02  0.79532895084E+02  0.00000000000E+00 0. -1.
         21   -1    0    0  501  502 -0.00000000000E+00 -0.00000000000E+00 -0.22099889071E+04  0.22099889071E+04  0.00000000000E+00 0. -1.
         25    1    1    2    0    0 -0.13403643428E+03  0.37623470825E+03 -0.11334088939E+04  0.12082048842E+04  0.12500000000E+03 0.  0.
         25    1    1    2    0    0  0.13403643428E+03 -0.37623470825E+03 -0.99704711811E+03  0.10813169180E+04  0.12500000000E+03 0.  0.
</event>
<event>
 4    0  0.2219362E-002  0.2152821E+03  0.7546771E-02  0.1137450E+00
         21   -1    0    0  502  501  0.00000000000E+00  0.00000000000E+00  0.12974428563E+03  0.12974428563E+03  0.00000000000E+00 0. -1.
         21   -1    0    0  501  502 -0.00000000000E+00 -0.00000000000E+00 -0.35721339846E+03  0.35721339846E+03  0.00000000000E+00 0. -1.
         25    1    1    2    0    0 -0.15417249414E+03 -0.54734812668E+02 -0.42596824280E+02  0.21024877432E+03  0.12500000000E+03 0.  0.
         25    1    1    2    0    0  0.15417249414E+03  0.54734812668E+02 -0.18487228855E+03  0.27670890976E+03  0.12500000000E+03 0.  0.
</event>
<event>
 4    0  0.2219362E-002  0.2459855E+03  0.7546771E-02  0.1115869E+00
         21   -1    0    0  502  501  0.00000000000E+00  0.00000000000E+00  0.69667234300E+02  0.69667234300E+02  0.00000000000E+00 0. -1.
         21   -1    0    0  501  502 -0.00000000000E+00 -0.00000000000E+00 -0.86854090977E+03  0.86854090977E+03  0.00000000000E+00 0. -1.
         25    1    1    2    0    0  0.80364544670E+00 -0.20557398192E+03 -0.30177600142E+03  0.38594696905E+03  0.12500000000E+03 0.  0.
         25    1    1    2    0    0 -0.80364544670E+00  0.20557398192E+03 -0.49709767405E+03  0.55226117502E+03  0.12500000000E+03 0.  0.
</event>
<event>
 4    0  0.2219362E-002  0.1962235E+03  0.7546771E-02  0.1152965E+00
         21   -1    0    0  502  501  0.00000000000E+00  0.00000000000E+00  0.22872594431E+02  0.22872594431E+02  0.00000000000E+00 0.  1.
         21   -1    0    0  501  502 -0.00000000000E+00 -0.00000000000E+00 -0.16833968957E+04  0.16833968957E+04  0.00000000000E+00 0.  1.
         25    1    1    2    0    0  0.21567143415E+02  0.29538436693E+02 -0.19214631956E+03  0.23212683826E+03  0.12500000000E+03 0.  0.
         25    1    1    2    0    0 -0.21567143415E+02 -0.29538436693E+02 -0.14683779817E+04  0.14741426519E+04  0.12500000000E+03 0.  0.
</event>
<event>
 4    0  0.2219362E-002  0.2267986E+03  0.7546771E-02  0.1128914E+00
         21   -1    0    0  502  501  0.00000000000E+00  0.00000000000E+00  0.89306751579E+03  0.89306751579E+03  0.00000000000E+00 0. -1.
         21   -1    0    0  501  502 -0.00000000000E+00 -0.00000000000E+00 -0.57596532533E+02  0.57596532533E+02  0.00000000000E+00 0. -1.
         25    1    1    2    0    0  0.63846893708E+02  0.69205505530E+02  0.76177638888E+03  0.77768508696E+03  0.12500000000E+03 0.  0.
         25    1    1    2    0    0 -0.63846893708E+02 -0.69205505530E+02  0.73694594375E+02  0.17297896136E+03  0.12500000000E+03 0.  0.
</event>
<event>
 4    0  0.2219362E-002  0.1905295E+03  0.7546771E-02  0.1157985E+00
         21   -1    0    0  502  501  0.00000000000E+00  0.00000000000E+00  0.66158256506E+03  0.66158256506E+03  0.00000000000E+00 0. -1.
         21   -1    0    0  501  502 -0.00000000000E+00 -0.00000000000E+00 -0.54870690061E+02  0.54870690061E+02  0.00000000000E+00 0. -1.
         25    1    1    2    0    0  0.40760008809E+02 -0.71178518808E+02  0.81299691697E+02  0.17018342965E+03  0.12500000000E+03 0.  0.
         25    1    1    2    0    0 -0.40760008809E+02  0.71178518808E+02  0.52541218330E+03  0.54626982547E+03  0.12500000000E+03 0.  0.
</event>
<event>
 4    0  0.2219362E-002  0.2177031E+03  0.7546771E-02  0.1135607E+00
         21   -1    0    0  502  501  0.00000000000E+00  0.00000000000E+00  0.27704138873E+03  0.27704138873E+03  0.00000000000E+00 0.  1.
         21   -1    0    0  501  502 -0.00000000000E+00 -0.00000000000E+00 -0.17107428816E+03  0.17107428816E+03  0.00000000000E+00 0.  1.
         25    1    1    2    0    0  0.63954853773E+02 -0.16386621511E+03  0.82585927323E+02  0.23105799092E+03  0.12500000000E+03 0.  0.
         25    1    1    2    0    0 -0.63954853773E+02  0.16386621511E+03  0.23381173247E+02  0.21705768597E+03  0.12500000000E+03 0.  0.
</event>
<event>
 4    0  0.2219362E-002  0.2827047E+03  0.7546771E-02  0.1094221E+00
         21   -1    0    0  502  501  0.00000000000E+00  0.00000000000E+00  0.11966039894E+04  0.11966039894E+04  0.00000000000E+00 0.  1.
         21   -1    0    0  501  502 -0.00000000000E+00 -0.00000000000E+00 -0.66790634463E+02  0.66790634463E+02  0.00000000000E+00 0.  1.
         25    1    1    2    0    0 -0.19400817733E+03 -0.88056279389E+02  0.87212792570E+03  0.90643543620E+03  0.12500000000E+03 0.  0.
         25    1    1    2    0    0  0.19400817733E+03  0.88056279389E+02  0.25768542921E+03  0.35695918764E+03  0.12500000000E+03 0.  0.
</event>
<event>
 4    0  0.2219362E-002  0.2749908E+03  0.7546771E-02  0.1098457E+00
         21   -1    0    0  502  501  0.00000000000E+00  0.00000000000E+00  0.69057347055E+03  0.69057347055E+03  0.00000000000E+00 0.  1.
         21   -1    0    0  501  502 -0.00000000000E+00 -0.00000000000E+00 -0.10950309484E+03  0.10950309484E+03  0.00000000000E+00 0.  1.
         25    1    1    2    0    0 -0.10081369678E+03 -0.20575313739E+03  0.41649508615E+03  0.49151898416E+03  0.12500000000E+03 0.  0.
         25    1    1    2    0    0  0.10081369678E+03  0.20575313739E+03  0.16457528956E+03  0.30855758123E+03  0.12500000000E+03 0.  0.
</event>
<event>
 4    0  0.2219362E-002  0.5724326E+03  0.7546771E-02  0.9964310E-01
         21   -1    0    0  502  501  0.00000000000E+00  0.00000000000E+00  0.18450578008E+03  0.18450578008E+03  0.00000000000E+00 0. -1.
         21   -1    0    0  501  502 -0.00000000000E+00 -0.00000000000E+00 -0.17759829948E+04  0.17759829948E+04  0.00000000000E+00 0. -1.
         25    1    1    2    0    0  0.39972647211E+03 -0.27532345442E+03 -0.12692769535E+04  0.13646513261E+04  0.12500000000E+03 0.  0.
         25    1    1    2    0    0 -0.39972647211E+03  0.27532345442E+03 -0.32220026120E+03  0.59583744879E+03  0.12500000000E+03 0.  0.
</event>
<event>
 4    0  0.2219362E-002  0.2343854E+03  0.7546771E-02  0.1123591E+00
         21   -1    0    0  502  501  0.00000000000E+00  0.00000000000E+00  0.62637679820E+02  0.62637679820E+02  0.00000000000E+00 0. -1.
         21   -1    0    0  501  502 -0.00000000000E+00 -0.00000000000E+00 -0.87705205126E+03  0.87705205126E+03  0.00000000000E+00 0. -1.
         25    1    1    2    0    0  0.55206135877E+02 -0.14206361212E+03 -0.66141575955E+03  0.69016345478E+03  0.12500000000E+03 0.  0.
         25    1    1    2    0    0 -0.55206135877E+02  0.14206361212E+03 -0.15299861189E+03  0.24952627631E+03  0.12500000000E+03 0.  0.
</event>
<event>
 4    0  0.2219362E-002  0.1651788E+03  0.7546771E-02  0.1182971E+00
         21   -1    0    0  502  501  0.00000000000E+00  0.00000000000E+00  0.39363740105E+03  0.39363740105E+03  0.00000000000E+00 0. -1.
         21   -1    0    0  501  502 -0.00000000000E+00 -0.00000000000E+00 -0.69312647491E+02  0.69312647491E+02  0.00000000000E+00 0. -1.
         25    1    1    2    0    0 -0.71424473672E+02  0.33062247187E+01  0.48776297634E+02  0.15204115815E+03  0.12500000000E+03 0.  0.
         25    1    1    2    0    0  0.71424473672E+02 -0.33062247187E+01  0.27554845593E+03  0.31090889039E+03  0.12500000000E+03 0.  0.
</event>
<event>
 4    0  0.2219362E-002  0.2308008E+03  0.7546771E-02  0.1126077E+00
         21   -1    0    0  502  501  0.00000000000E+00  0.00000000000E+00  0.23211872851E+03  0.23211872851E+03  0.00000000000E+00 0. -1.
         21   -1    0    0  501  502 -0.00000000000E+00 -0.00000000000E+00 -0.22949031930E+03  0.22949031930E+03  0.00000000000E+00 0. -1.
         25    1    1    2    0    0  0.66174219893E+02 -0.15498113689E+03 -0.94842546209E+02  0.23025700585E+03  0.12500000000E+03 0.  0.
         25    1    1    2    0    0 -0.66174219893E+02  0.15498113689E+03  0.97470955424E+02  0.23135204196E+03  0.12500000000E+03 0.  0.
</event>
<event>
 4    0  0.2219362E-002  0.2404950E+03  0.7546771E-02  0.1119464E+00
         21   -1    0    0  502  501  0.00000000000E+00  0.00000000000E+00  0.18293598008E+03  0.18293598008E+03  0.00000000000E+00 0.  1.
         21   -1    0    0  501  502 -0.00000000000E+00 -0.00000000000E+00 -0.31616434252E+03  0.31616434252E+03  0.00000000000E+00 0.  1.
         25    1    1    2    0    0 -0.83513183730E+02 -0.10605551504E+03  0.94106767812E+02  0.20664778701E+03  0.12500000000E+03 0.  0.
         25    1    1    2    0    0  0.83513183730E+02  0.10605551504E+03 -0.22733513025E+03  0.29245253559E+03  0.12500000000E+03 0.  0.
</event>
<event>
 4    0  0.2219362E-002  0.2426427E+03  0.7546771E-02  0.1118045E+00
         21   -1    0    0  502  501  0.00000000000E+00  0.00000000000E+00  0.46670456689E+02  0.46670456689E+02  0.00000000000E+00 0.  1.
         21   -1    0    0  501  502 -0.00000000000E+00 -0.00000000000E+00 -0.12615146104E+04  0.12615146104E+04  0.00000000000E+00 0.  1.
         25    1    1    2    0    0 -0.10722084403E+03  0.84002875102E+02 -0.10310650631E+04  0.10475079746E+04  0.12500000000E+03 0.  0.
         25    1    1    2    0    0  0.10722084403E+03 -0.84002875102E+02 -0.18377909058E+03  0.26067709250E+03  0.12500000000E+03 0.  0.
</event>
<event>
 4    0  0.2219362E-002  0.2663099E+03  0.7546771E-02  0.1103410E+00
         21   -1    0    0  502  501  0.00000000000E+00  0.00000000000E+00  0.13612257657E+04  0.13612257657E+04  0.00000000000E+00 0.  1.
         21   -1    0    0  501  502 -0.00000000000E+00 -0.00000000000E+00 -0.52100808402E+02  0.52100808402E+02  0.00000000000E+00 0.  1.
         25    1    1    2    0    0  0.15788860991E+03 -0.33398346289E+02  0.11084003924E+04  0.11270406792E+04  0.12500000000E+03 0.  0.
         25    1    1    2    0    0 -0.15788860991E+03  0.33398346289E+02  0.20072456490E+03  0.28628589491E+03  0.12500000000E+03 0.  0.
</event>
<event>
 4    0  0.2219362E-002  0.1824225E+03  0.7546771E-02  0.1165479E+00
         21   -1    0    0  502  501  0.00000000000E+00  0.00000000000E+00  0.17915154198E+03  0.17915154198E+03  0.00000000000E+00 0. -1.
         21   -1    0    0  501  502 -0.00000000000E+00 -0.00000000000E+00 -0.18575312536E+03  0.18575312536E+03  0.00000000000E+00 0. -1.
         25    1    1    2    0    0 -0.66367058562E+02  0.19437260254E+02  0.11016629217E+03  0.18039957173E+03  0.12500000000E+03 0.  0.
         25    1    1    2    0    0  0.66367058562E+02 -0.19437260254E+02 -0.11676787555E+03  0.18450509562E+03  0.12500000000E+03 0.  0.
</event>
<event>
 4    0  0.2219362E-002  0.2836018E+03  0.7546771E-02  0.1093738E+00
         21   -1    0    0  502  501  0.00000000000E+00  0.00000000000E+00  0.45652754482E+03  0.45652754482E+03  0.00000000000E+00 0. -1.
         21   -1    0    0  501  502 -0.00000000000E+00 -0.00000000000E+00 -0.17617768908E+03  0.17617768908E+03  0.00000000000E+00 0. -1.
         25    1    1    2    0    0  0.19158648620E+03 -0.13124404862E+03  0.25649879910E+03  0.36789538722E+03  0.12500000000E+03 0.  0.
         25    1    1    2    0    0 -0.19158648620E+03  0.13124404862E+03  0.23851056635E+02  0.26480984668E+03  0.12500000000E+03 0.  0.
</event>
<event>
 4    0  0.2219362E-002  0.2093020E+03  0.7546771E-02  0.1142120E+00
         21   -1    0    0  502  501  0.00000000000E+00  0.00000000000E+00  0.88769719162E+02  0.88769719162E+02  0.00000000000E+00 0.  1.
         21   -1    0    0  501  502 -0.00000000000E+00 -0.00000000000E+00 -0.49349393840E+03  0.49349393840E+03  0.00000000000E+00 0.  1.
         25    1    1    2    0    0  0.93146383250E+02  0.17591599811E+02 -0.39508290132E+03  0.42508965174E+03  0.12500000000E+03 0.  0.
         25    1    1    2    0    0 -0.93146383250E+02 -0.17591599811E+02 -0.96413179163E+01  0.15717400583E+03  0.12500000000E+03 0.  0.
</event>
<event>
 4    0  0.2219362E-002  0.3289282E+03  0.7546771E-02  0.1071612E+00
         21   -1    0    0  502  501  0.00000000000E+00  0.00000000000E+00  0.23997082110E+03  0.23997082110E+03  0.00000000000E+00 0.  1.
         21   -1    0    0  501  502 -0.00000000000E+00 -0.00000000000E+00 -0.45086228646E+03  0.45086228646E+03  0.00000000000E+00 0. -1.
         25    1    1    2    0    0 -0.15506345303E+03  0.19269884421E+03  0.80611451872E+02  0.28861865012E+03  0.12500000000E+03 0.  0.
         25    1    1    2    0    0  0.15506345303E+03 -0.19269884421E+03 -0.29150291723E+03  0.40221445745E+03  0.12500000000E+03 0.  0.
</event>
<event>
 4    0  0.2219362E-002  0.2098435E+03  0.7546771E-02  0.1141690E+00
         21   -1    0    0  502  501  0.00000000000E+00  0.00000000000E+00  0.25108624998E+03  0.25108624998E+03  0.00000000000E+00 0. -1.
         21   -1    0    0  501  502 -0.00000000000E+00 -0.00000000000E+00 -0.17537524255E+03  0.17537524255E+03  0.00000000000E+00 0. -1.
         25    1    1    2    0    0  0.45268366629E+02 -0.11394798967E+03 -0.79665750545E+02  0.19236684012E+03  0.12500000000E+03 0.  0.
         25    1    1    2    0    0 -0.45268366629E+02  0.11394798967E+03  0.15537675798E+03  0.23409465241E+03  0.12500000000E+03 0.  0.
</event>
<event>
 4    0  0.2219362E-002  0.5757207E+03  0.7546771E-02  0.9957099E-01
         21   -1    0    0  502  501  0.00000000000E+00  0.00000000000E+00  0.13143214971E+04  0.13143214971E+04  0.00000000000E+00 0. -1.
         21   -1    0    0  501  502 -0.00000000000E+00 -0.00000000000E+00 -0.25218662118E+03  0.25218662118E+03  0.00000000000E+00 0. -1.
         25    1    1    2    0    0 -0.45806737900E+03  0.10055265127E+03  0.10977497754E+03  0.49760637564E+03  0.12500000000E+03 0.  0.
         25    1    1    2    0    0  0.45806737900E+03 -0.10055265127E+03  0.95235989841E+03  0.10689017427E+04  0.12500000000E+03 0.  0.
</event>
<event>
 4    0  0.2219362E-002  0.2106713E+03  0.7546771E-02  0.1141036E+00
         21   -1    0    0  502  501  0.00000000000E+00  0.00000000000E+00  0.93472389790E+03  0.93472389790E+03  0.00000000000E+00 0.  1.
         21   -1    0    0  501  502 -0.00000000000E+00 -0.00000000000E+00 -0.47481807710E+02  0.47481807710E+02  0.00000000000E+00 0. -1.
         25    1    1    2    0    0  0.77646248387E+02 -0.15040634674E+03  0.46766353849E+03  0.51282082082E+03  0.12500000000E+03 0.  0.
         25    1    1    2    0    0 -0.77646248387E+02  0.15040634674E+03  0.41957855169E+03  0.46938488479E+03  0.12500000000E+03 0.  0.
</event>
<event>
 4    0  0.2219362E-002  0.1945335E+03  0.7546771E-02  0.1154435E+00
         21   -1    0    0  502  501  0.00000000000E+00  0.00000000000E+00  0.14621031950E+04  0.14621031950E+04  0.00000000000E+00 0.  1.
         21   -1    0    0  501  502 -0.00000000000E+00 -0.00000000000E+00 -0.25882775225E+02  0.25882775225E+02  0.00000000000E+00 0.  1.
         25    1    1    2    0    0  0.65889793572E+02 -0.99327352772E+01  0.20817163713E+03  0.25179466761E+03  0.12500000000E+03 0.  0.
         25    1    1    2    0    0 -0.65889793572E+02  0.99327352772E+01  0.12280487827E+04  0.12361913026E+04  0.12500000000E+03 0.  0.
</event>
<event>
 4    0  0.2219362E-002  0.3621962E+03  0.7546771E-02  0.1057718E+00
         21   -1    0    0  502  501  0.00000000000E+00  0.00000000000E+00  0.47950691457E+02  0.47950691457E+02  0.00000000000E+00 0. -1.
         21   -1    0    0  501  502 -0.00000000000E+00 -0.00000000000E+00 -0.27358546027E+04  0.27358546027E+04  0.00000000000E+00 0.  1.
         25    1    1    2    0    0 -0.31982138889E+03 -0.10470904298E+02 -0.17849004587E+04  0.18176605866E+04  0.12500000000E+03 0.  0.
         25    1    1    2    0    0  0.31982138889E+03  0.10470904298E+02 -0.90300345253E+03  0.96614470754E+03  0.12500000000E+03 0.  0.
</event>
<event>
 4    0  0.2219362E-002  0.2448303E+03  0.7546771E-02  0.1116616E+00
         21   -1    0    0  502  501  0.00000000000E+00  0.00000000000E+00  0.62181277913E+02  0.62181277913E+02  0.00000000000E+00 0.  1.
         21   -1    0    0  501  502 -0.00000000000E+00 -0.00000000000E+00 -0.96398610773E+03  0.96398610773E+03  0.00000000000E+00 0.  1.
         25    1    1    2    0    0 -0.26070659991E+02 -0.97609659295E+01 -0.88819977116E+03  0.89738441554E+03  0.12500000000E+03 0.  0.
         25    1    1    2    0    0  0.26070659991E+02  0.97609659295E+01 -0.13605058663E+02  0.12878297011E+03  0.12500000000E+03 0.  0.
</event>
<event>
 4    0  0.2219362E-002  0.1719955E+03  0.7546771E-02  0.1175783E+00
         21   -1    0    0  502  501  0.00000000000E+00  0.00000000000E+00  0.26702495185E+03  0.26702495185E+03  0.00000000000E+00 0. -1.
         21   -1    0    0  501  502 -0.00000000000E+00 -0.00000000000E+00 -0.11078537827E+03  0.11078537827E+03  0.00000000000E+00 0. -1.
         25    1    1    2    0    0  0.47125310733E+02  0.21443134436E+02  0.19475259468E+03  0.23713746237E+03  0.12500000000E+03 0.  0.
         25    1    1    2    0    0 -0.47125310733E+02 -0.21443134436E+02 -0.38513021101E+02  0.14067286775E+03  0.12500000000E+03 0.  0.
</event>
<event>
 4    0  0.2219362E-002  0.2294762E+03  0.7546771E-02  0.1127009E+00
         21   -1    0    0  502  501  0.00000000000E+00  0.00000000000E+00  0.31954438061E+03  0.31954438061E+03  0.00000000000E+00 0. -1.
         21   -1    0    0  501  502 -0.00000000000E+00 -0.00000000000E+00 -0.16479508588E+03  0.16479508588E+03  0.00000000000E+00 0. -1.
         25    1    1    2    0    0  0.53132976953E+02 -0.18482322141E+03  0.84955838222E+02  0.24459196810E+03  0.12500000000E+03 0.  0.
         25    1    1    2    0    0 -0.53132976953E+02  0.18482322141E+03  0.69793456510E+02  0.23974749839E+03  0.12500000000E+03 0.  0.
</event>
<event>
 4    0  0.2219362E-002  0.1646724E+03  0.7546771E-02  0.1183520E+00
         21   -1    0    0  502  501  0.00000000000E+00  0.00000000000E+00  0.74635246321E+03  0.74635246321E+03  0.00000000000E+00 0.  1.
         21   -1    0    0  501  502 -0.00000000000E+00 -0.00000000000E+00 -0.36332715833E+02  0.36332715833E+02  0.00000000000E+00 0.  1.
         25    1    1    2    0    0  0.40395882644E+02 -0.49114667736E+02  0.56010441846E+03  0.57739591053E+03  0.12500000000E+03 0.  0.
         25    1    1    2    0    0 -0.40395882644E+02  0.49114667736E+02  0.14991532892E+03  0.20528926851E+03  0.12500000000E+03 0.  0.
</event>
<event>
 4    0  0.2219362E-002  0.2133316E+03  0.7546771E-02  0.1138955E+00
         21   -1    0    0  502  501  0.00000000000E+00  0.00000000000E+00  0.14867646932E+04  0.14867646932E+04  0.00000000000E+00 0.  1.
         21   -1    0    0  501  502 -0.00000000000E+00 -0.00000000000E+00 -0.30610331280E+02  0.30610331280E+02  0.00000000000E+00 0.  1.
         25    1    1    2    0    0 -0.11000211520E+02  0.48028687538E+02  0.13173807763E+04  0.13242148123E+04  0.12500000000E+03 0.  0.
         25    1    1    2    0    0  0.11000211520E+02 -0.48028687538E+02  0.13877358558E+03  0.19316021209E+03  0.12500000000E+03 0.  0.
</event>
<event>
 4    0  0.2219362E-002  0.1988267E+03  0.7546771E-02  0.1150733E+00
         21   -1    0    0  502  501  0.00000000000E+00  0.00000000000E+00  0.17959642427E+03  0.17959642427E+03  0.00000000000E+00 0. -1.
         21   -1    0    0  501  502 -0.00000000000E+00 -0.00000000000E+00 -0.22011599093E+03  0.22011599093E+03  0.00000000000E+00 0. -1.
         25    1    1    2    0    0  0.12712947659E+03  0.71114091381E+02 -0.72373463573E+02  0.20513906513E+03  0.12500000000E+03 0.  0.
         25    1    1    2    0    0 -0.12712947659E+03 -0.71114091381E+02  0.31853896907E+02  0.19457335007E+03  0.12500000000E+03 0.  0.
</event>
<event>
 4    0  0.2219362E-002  0.2575503E+03  0.7546771E-02  0.1108624E+00
         21   -1    0    0  502  501  0.00000000000E+00  0.00000000000E+00  0.20299931450E+03  0.20299931450E+03  0.00000000000E+00 0. -1.
         21   -1    0    0  501  502 -0.00000000000E+00 -0.00000000000E+00 -0.32676059263E+03  0.32676059263E+03  0.00000000000E+00 0. -1.
         25    1    1    2    0    0 -0.22601536743E+02  0.52310597041E+02  0.16217227600E+03  0.21253723234E+03  0.12500000000E+03 0.  0.
         25    1    1    2    0    0  0.22601536743E+02 -0.52310597041E+02 -0.28593355413E+03  0.31722267480E+03  0.12500000000E+03 0.  0.
</event>
<event>
 4    0  0.2219362E-002  0.2259754E+03  0.7546771E-02  0.1129505E+00
         21   -1    0    0  502  501  0.00000000000E+00  0.00000000000E+00  0.33399982828E+03  0.33399982828E+03  0.00000000000E+00 0.  1.
         21   -1    0    0  501  502 -0.00000000000E+00 -0.00000000000E+00 -0.15288889487E+03  0.15288889487E+03  0.00000000000E+00 0.  1.
         25    1    1    2    0    0  0.10867166843E+03 -0.10061072181E+03  0.21576321119E+03  0.29001864107E+03  0.12500000000E+03 0.  0.
         25    1    1    2    0    0 -0.10867166843E+03  0.10061072181E+03 -0.34652277778E+02  0.19687008208E+03  0.12500000000E+03 0.  0.
</event>
<event>
 4    0  0.2219362E-002  0.2720398E+03  0.7546771E-02  0.1100118E+00
         21   -1    0    0  502  501  0.00000000000E+00  0.00000000000E+00  0.11176879587E+03  0.11176879587E+03  0.00000000000E+00 0. -1.
         21   -1    0    0  501  502 -0.00000000000E+00 -0.00000000000E+00 -0.66213150288E+03  0.66213150288E+03  0.00000000000E+00 0. -1.
         25    1    1    2    0    0  0.45396791087E+02  0.15936626760E+03 -0.25056093643E+02  0.20907243654E+03  0.12500000000E+03 0.  0.
         25    1    1    2    0    0 -0.45396791087E+02 -0.15936626760E+03 -0.52530661337E+03  0.56482786222E+03  0.12500000000E+03 0.  0.
</event>
<event>
 4    0  0.2219362E-002  0.2625710E+03  0.7546771E-02  0.1105608E+00
         21   -1    0    0  502  501  0.00000000000E+00  0.00000000000E+00  0.29654439877E+03  0.29654439877E+03  0.00000000000E+00 0. -1.
         21   -1    0    0  501  502 -0.00000000000E+00 -0.00000000000E+00 -0.23248977053E+03  0.23248977053E+03  0.00000000000E+00 0. -1.
         25    1    1    2    0    0  0.80033274191E+02  0.18383822374E+03 -0.83349779052E+02  0.25054740700E+03  0.12500000000E+03 0.  0.
         25    1    1    2    0    0 -0.80033274191E+02 -0.18383822374E+03  0.14740440730E+03  0.27848676230E+03  0.12500000000E+03 0.  0.
</event>
<event>
 4    0  0.2219362E-002  0.1810995E+03  0.7546771E-02  0.1166743E+00
         21   -1    0    0  502  501  0.00000000000E+00  0.00000000000E+00  0.69659116913E+03  0.69659116913E+03  0.00000000000E+00 0.  1.
         21   -1    0    0  501  502 -0.00000000000E+00 -0.00000000000E+00 -0.47082178146E+02  0.47082178146E+02  0.00000000000E+00 0.  1.
         25    1    1    2    0    0 -0.10152583765E+02 -0.13033748624E+03  0.34324420032E+03  0.38798520117E+03  0.12500000000E+03 0.  0.
         25    1    1    2    0    0  0.10152583765E+02  0.13033748624E+03  0.30626479067E+03  0.35568814610E+03  0.12500000000E+03 0.  0.
</event>
<event>
 4    0  0.2219362E-002  0.2595724E+03  0.7546771E-02  0.1107400E+00
         21   -1    0    0  502  501  0.00000000000E+00  0.00000000000E+00  0.88280899189E+02  0.88280899189E+02  0.00000000000E+00 0.  1.
         21   -1    0    0  501  502 -0.00000000000E+00 -0.00000000000E+00 -0.76322091453E+03  0.76322091453E+03  0.00000000000E+00 0.  1.
         25    1    1    2    0    0 -0.75401289220E+02 -0.20234965052E+03 -0.22008278930E+03  0.33270432763E+03  0.12500000000E+03 0.  0.
         25    1    1    2    0    0  0.75401289220E+02  0.20234965052E+03 -0.45485722604E+03  0.51879748608E+03  0.12500000000E+03 0.  0.
</event>
<event>
 4    0  0.2219362E-002  0.3346095E+03  0.7546771E-02  0.1069115E+00
         21   -1    0    0  502  501  0.00000000000E+00  0.00000000000E+00  0.61417984816E+03  0.61417984816E+03  0.00000000000E+00 0.  1.
         21   -1    0    0  501  502 -0.00000000000E+00 -0.00000000000E+00 -0.18229757549E+03  0.18229757549E+03  0.00000000000E+00 0.  1.
         25    1    1    2    0    0 -0.95240457683E+02 -0.99680619964E+02 -0.11502498332E+03  0.21877549580E+03  0.12500000000E+03 0.  0.
         25    1    1    2    0    0  0.95240457683E+02  0.99680619964E+02  0.54690725600E+03  0.57770192785E+03  0.12500000000E+03 0.  0.
</event>
<event>
 4    0  0.2219362E-002  0.2665862E+03  0.7546771E-02  0.1103249E+00
         21   -1    0    0  502  501  0.00000000000E+00  0.00000000000E+00  0.13628206303E+04  0.13628206303E+04  0.00000000000E+00 0.  1.
         21   -1    0    0  501  502 -0.00000000000E+00 -0.00000000000E+00 -0.52147861011E+02  0.52147861011E+02  0.00000000000E+00 0.  1.
         25    1    1    2    0    0  0.13167962698E+03 -0.19367438803E+03  0.72001064588E+03  0.76739144048E+03  0.12500000000E+03 0.  0.
         25    1    1    2    0    0 -0.13167962698E+03  0.19367438803E+03  0.59066212345E+03  0.64757705087E+03  0.12500000000E+03 0.  0.
</event>
<event>
 4    0  0.2219362E-002  0.2583757E+03  0.7546771E-02  0.1108123E+00
         21   -1    0    0  502  501  0.00000000000E+00  0.00000000000E+00  0.13748416778E+03  0.13748416778E+03  0.00000000000E+00 0.  1.
         21   -1    0    0  501  502 -0.00000000000E+00 -0.00000000000E+00 -0.48556869336E+03  0.48556869336E+03  0.00000000000E+00 0.  1.
         25    1    1    2    0    0  0.12683814984E+03 -0.18600869313E+03 -0.19950125861E+03  0.32574975420E+03  0.12500000000E+03 0.  0.
         25    1    1    2    0    0 -0.12683814984E+03  0.18600869313E+03 -0.14858326696E+03  0.29730310694E+03  0.12500000000E+03 0.  0.
</event>
<event>
 4    0  0.2219362E-002  0.2652235E+03  0.7546771E-02  0.1104045E+00
         21   -1    0    0  502  501  0.00000000000E+00  0.00000000000E+00  0.54235626269E+02  0.54235626269E+02  0.00000000000E+00 0. -1.
         21   -1    0    0  501  502 -0.00000000000E+00 -0.00000000000E+00 -0.12969983609E+04  0.12969983609E+04  0.00000000000E+00 0. -1.
         25    1    1    2    0    0  0.20853648749E+03 -0.10566501983E+03 -0.64206912950E+03  0.69464403121E+03  0.12500000000E+03 0.  0.
         25    1    1    2    0    0 -0.20853648749E+03  0.10566501983E+03 -0.60069360515E+03  0.65658995598E+03  0.12500000000E+03 0.  0.
</event>
<event>
 4    0  0.2219362E-002  0.2584072E+03  0.7546771E-02  0.1108104E+00
         21   -1    0    0  502  501  0.00000000000E+00  0.00000000000E+00  0.12063519722E+04  0.12063519722E+04  0.00000000000E+00 0. -1.
         21   -1    0    0  501  502 -0.00000000000E+00 -0.00000000000E+00 -0.55352254235E+02  0.55352254235E+02  0.00000000000E+00 0. -1.
         25    1    1    2    0    0  0.13028621629E+03 -0.87234762907E+02  0.17759708059E+03  0.26786213814E+03  0.12500000000E+03 0.  0.
         25    1    1    2    0    0 -0.13028621629E+03  0.87234762907E+02  0.97340263741E+03  0.99384208833E+03  0.12500000000E+03 0.  0.
</event>
<event>
 4    0  0.2219362E-002  0.2842985E+03  0.7546771E-02  0.1093364E+00
         21   -1    0    0  502  501  0.00000000000E+00  0.00000000000E+00  0.58032729693E+03  0.58032729693E+03  0.00000000000E+00 0. -1.
         21   -1    0    0  501  502 -0.00000000000E+00 -0.00000000000E+00 -0.13927595487E+03  0.13927595487E+03  0.00000000000E+00 0. -1.
         25    1    1    2    0    0 -0.68120203867E+02  0.10616799170E+03  0.50149695741E+03  0.53201146879E+03  0.12500000000E+03 0.  0.
         25    1    1    2    0    0  0.68120203867E+02 -0.10616799170E+03 -0.60445615346E+02  0.18759178300E+03  0.12500000000E+03 0.  0.
</event>
<event>
 4    0  0.2219362E-002  0.2132259E+03  0.7546771E-02  0.1139037E+00
         21   -1    0    0  502  501  0.00000000000E+00  0.00000000000E+00  0.45042225685E+03  0.45042225685E+03  0.00000000000E+00 0.  1.
         21   -1    0    0  501  502 -0.00000000000E+00 -0.00000000000E+00 -0.10093927520E+03  0.10093927520E+03  0.00000000000E+00 0.  1.
         25    1    1    2    0    0  0.41116203677E+02  0.11179229181E+03  0.33649535644E+03  0.37820917971E+03  0.12500000000E+03 0.  0.
         25    1    1    2    0    0 -0.41116203677E+02 -0.11179229181E+03  0.12987625218E+02  0.17315235234E+03  0.12500000000E+03 0.  0.
</event>
<event>
 4    0  0.2219362E-002  0.2610197E+03  0.7546771E-02  0.1106532E+00
         21   -1    0    0  502  501  0.00000000000E+00  0.00000000000E+00  0.74148137296E+03  0.74148137296E+03  0.00000000000E+00 0.  1.
         21   -1    0    0  501  502 -0.00000000000E+00 -0.00000000000E+00 -0.91885339749E+02  0.91885339749E+02  0.00000000000E+00 0.  1.
         25    1    1    2    0    0  0.79935237433E+02 -0.14400386774E+03  0.70481509691E+02  0.21844770385E+03  0.12500000000E+03 0.  0.
         25    1    1    2    0    0 -0.79935237433E+02  0.14400386774E+03  0.57911452352E+03  0.61491900886E+03  0.12500000000E+03 0.  0.
</event>
<event>
 4    0  0.2219362E-002  0.2531589E+03  0.7546771E-02  0.1111325E+00
         21   -1    0    0  502  501  0.00000000000E+00  0.00000000000E+00  0.56996037586E+02  0.56996037586E+02  0.00000000000E+00 0.  1.
         21   -1    0    0  501  502 -0.00000000000E+00 -0.00000000000E+00 -0.11244542067E+04  0.11244542067E+04  0.00000000000E+00 0.  1.
         25    1    1    2    0    0 -0.17188422735E+03 -0.90087777295E+02 -0.29118352237E+03  0.37158153739E+03  0.12500000000E+03 0.  0.
         25    1    1    2    0    0  0.17188422735E+03  0.90087777295E+02 -0.77627464677E+03  0.80986870692E+03  0.12500000000E+03 0.  0.
</event>
<event>
 4    0  0.2219362E-002  0.2529405E+03  0.7546771E-02  0.1111460E+00
         21   -1    0    0  502  501  0.00000000000E+00  0.00000000000E+00  0.36538728188E+03  0.36538728188E+03  0.00000000000E+00 0. -1.
         21   -1    0    0  501  502 -0.00000000000E+00 -0.00000000000E+00 -0.17509883027E+03  0.17509883027E+03  0.00000000000E+00 0. -1.
         25    1    1    2    0    0 -0.14256110498E+02  0.27286387654E+02 -0.13747913782E+03  0.18834356101E+03  0.12500000000E+03 0.  0.
         25    1    1    2    0    0  0.14256110498E+02 -0.27286387654E+02  0.32776758943E+03  0.35214255114E+03  0.12500000000E+03 0.  0.
</event>
<event>
 4    0  0.2219362E-002  0.2524926E+03  0.7546771E-02  0.1111740E+00
         21   -1    0    0  502  501  0.00000000000E+00  0.00000000000E+00  0.11665821520E+04  0.11665821520E+04  0.00000000000E+00 0. -1.
         21   -1    0    0  501  502 -0.00000000000E+00 -0.00000000000E+00 -0.54648972460E+02  0.54648972460E+02  0.00000000000E+00 0. -1.
         25    1    1    2    0    0 -0.20531684531E+03 -0.51030564897E+02  0.69632240573E+03  0.73840979019E+03  0.12500000000E+03 0.  0.
         25    1    1    2    0    0  0.20531684531E+03  0.51030564897E+02  0.41561077382E+03  0.48282133428E+03  0.12500000000E+03 0.  0.
</event>
<event>
 4    0  0.2219362E-002  0.1734480E+03  0.7546771E-02  0.1174299E+00
         21   -1    0    0  502  501  0.00000000000E+00  0.00000000000E+00  0.11026121314E+04  0.11026121314E+04  0.00000000000E+00 0. -1.
         21   -1    0    0  501  502 -0.00000000000E+00 -0.00000000000E+00 -0.27284482369E+02  0.27284482369E+02  0.00000000000E+00 0. -1.
         25    1    1    2    0    0  0.98441663583E+02  0.61331397749E+02  0.43430856261E+03  0.46658464295E+03  0.12500000000E+03 0.  0.
         25    1    1    2    0    0 -0.98441663583E+02 -0.61331397749E+02  0.64101908647E+03  0.66331197087E+03  0.12500000000E+03 0.  0.
</event>
<event>
 4    0  0.2219362E-002  0.2274356E+03  0.7546771E-02  0.1128458E+00
         21   -1    0    0  502  501  0.00000000000E+00  0.00000000000E+00  0.25144470493E+03  0.25144470493E+03  0.00000000000E+00 0. -1.
         21   -1    0    0  501  502 -0.00000000000E+00 -0.00000000000E+00 -0.20571899666E+03  0.20571899666E+03  0.00000000000E+00 0. -1.
         25    1    1    2    0    0  0.17387531478E+03  0.75859763685E+02  0.33623052479E+02  0.22965809042E+03  0.12500000000E+03 0.  0.
         25    1    1    2    0    0 -0.17387531478E+03 -0.75859763685E+02  0.12102655795E+02  0.22750561117E+03  0.12500000000E+03 0.  0.
</event>
<event>
 4    0  0.2219362E-002  0.2811447E+03  0.7546771E-02  0.1095065E+00
         21   -1    0    0  502  501  0.00000000000E+00  0.00000000000E+00  0.50457075784E+03  0.50457075784E+03  0.00000000000E+00 0.  1.
         21   -1    0    0  501  502 -0.00000000000E+00 -0.00000000000E+00 -0.15665263265E+03  0.15665263265E+03  0.00000000000E+00 0.  1.
         25    1    1    2    0    0 -0.15058665718E+03  0.20184326934E+03  0.17459328526E+03  0.33094540631E+03  0.12500000000E+03 0.  0.
         25    1    1    2    0    0  0.15058665718E+03 -0.20184326934E+03  0.17332483993E+03  0.33027798418E+03  0.12500000000E+03 0.  0.
</event>
<event>
 4    0  0.2219362E-002  0.2165489E+03  0.7546771E-02  0.1136482E+00
         21   -1    0    0  502  501  0.00000000000E+00  0.00000000000E+00  0.42111358583E+03  0.42111358583E+03  0.00000000000E+00 0. -1.
         21   -1    0    0  501  502 -0.00000000000E+00 -0.00000000000E+00 -0.11135574267E+03  0.11135574267E+03  0.00000000000E+00 0. -1.
         25    1    1    2    0    0  0.90615878232E+02 -0.15111370201E+03  0.17319011393E+03  0.27688698757E+03  0.12500000000E+03 0.  0.
         25    1    1    2    0    0 -0.90615878232E+02  0.15111370201E+03  0.13656772924E+03  0.25558234093E+03  0.12500000000E+03 0.  0.
</event>
<event>
 4    0  0.2219362E-002  0.1658449E+03  0.7546771E-02  0.1182252E+00
         21   -1    0    0  502  501  0.00000000000E+00  0.00000000000E+00  0.24020983468E+03  0.24020983468E+03  0.00000000000E+00 0.  1.
         21   -1    0    0  501  502 -0.00000000000E+00 -0.00000000000E+00 -0.11450210780E+03  0.11450210780E+03  0.00000000000E+00 0.  1.
         25    1    1    2    0    0 -0.59165855582E+02 -0.34081050094E+02 -0.27998148509E+02  0.14515857798E+03  0.12500000000E+03 0.  0.
         25    1    1    2    0    0  0.59165855582E+02  0.34081050094E+02  0.15370587539E+03  0.20955336449E+03  0.12500000000E+03 0.  0.
</event>
<event>
 4    0  0.2219362E-002  0.2137659E+03  0.7546771E-02  0.1138618E+00
         21   -1    0    0  502  501  0.00000000000E+00  0.00000000000E+00  0.15616790075E+03  0.15616790075E+03  0.00000000000E+00 0. -1.
         21   -1    0    0  501  502 -0.00000000000E+00 -0.00000000000E+00 -0.29260735427E+03  0.29260735427E+03  0.00000000000E+00 0. -1.
         25    1    1    2    0    0  0.16525770510E+03  0.45881444075E+02 -0.95097905067E+02  0.23255929901E+03  0.12500000000E+03 0.  0.
         25    1    1    2    0    0 -0.16525770510E+03 -0.45881444075E+02 -0.41341548452E+02  0.21621595601E+03  0.12500000000E+03 0.  0.
</event>
<event>
 4    0  0.2219362E-002  0.1885089E+03  0.7546771E-02  0.1159813E+00
         21   -1    0    0  502  501  0.00000000000E+00  0.00000000000E+00  0.47265881200E+03  0.47265881200E+03  0.00000000000E+00 0. -1.
         21   -1    0    0  501  502 -0.00000000000E+00 -0.00000000000E+00 -0.75182374785E+02  0.75182374785E+02  0.00000000000E+00 0. -1.
         25    1    1    2    0    0  0.72267312674E+02  0.70033102642E+02  0.34246508467E+03  0.37819906685E+03  0.12500000000E+03 0.  0.
         25    1    1    2    0    0 -0.72267312674E+02 -0.70033102642E+02  0.55011352541E+02  0.16964211993E+03  0.12500000000E+03 0.  0.
</event>
<event>
 4    0  0.2219362E-002  0.2053649E+03  0.7546771E-02  0.1145290E+00
         21   -1    0    0  502  501  0.00000000000E+00  0.00000000000E+00  0.85487003517E+02  0.85487003517E+02  0.00000000000E+00 0.  1.
         21   -1    0    0  501  502 -0.00000000000E+00 -0.00000000000E+00 -0.49334659131E+03  0.49334659131E+03  0.00000000000E+00 0.  1.
         25    1    1    2    0    0  0.15511583400E+03  0.25930024387E+00 -0.13362470883E+03  0.23987820243E+03  0.12500000000E+03 0.  0.
         25    1    1    2    0    0 -0.15511583400E+03 -0.25930024387E+00 -0.27423487897E+03  0.33895539240E+03  0.12500000000E+03 0.  0.
</event>
<event>
 4    0  0.2219362E-002  0.1772924E+03  0.7546771E-02  0.1170449E+00
         21   -1    0    0  502  501  0.00000000000E+00  0.00000000000E+00  0.37356161912E+02  0.37356161912E+02  0.00000000000E+00 0. -1.
         21   -1    0    0  501  502 -0.00000000000E+00 -0.00000000000E+00 -0.84143038813E+03  0.84143038813E+03  0.00000000000E+00 0. -1.
         25    1    1    2    0    0 -0.21779736984E+02  0.10512506835E+03 -0.56421257407E+03  0.58778096743E+03  0.12500000000E+03 0.  0.
         25    1    1    2    0    0  0.21779736984E+02 -0.10512506835E+03 -0.23986165215E+03  0.29100558261E+03  0.12500000000E+03 0.  0.
</event>
<event>
 4    0  0.2219362E-002  0.1723888E+03  0.7546771E-02  0.1175379E+00
         21   -1    0    0  502  501  0.00000000000E+00  0.00000000000E+00  0.38536208694E+02  0.38536208694E+02  0.00000000000E+00 0. -1.
         21   -1    0    0  501  502 -0.00000000000E+00 -0.00000000000E+00 -0.77116780126E+03  0.77116780126E+03  0.00000000000E+00 0. -1.
         25    1    1    2    0    0 -0.66227555880E+01  0.37792467662E+02 -0.63014931591E+03  0.64357228953E+03  0.12500000000E+03 0.  0.
         25    1    1    2    0    0  0.66227555880E+01 -0.37792467662E+02 -0.10248227665E+03  0.16613172043E+03  0.12500000000E+03 0.  0.
</event>
<event>
 4    0  0.2219362E-002  0.2837601E+03  0.7546771E-02  0.1093653E+00
         21   -1    0    0  502  501  0.00000000000E+00  0.00000000000E+00  0.32953446610E+03  0.32953446610E+03  0.00000000000E+00 0. -1.
         21   -1    0    0  501  502 -0.00000000000E+00 -0.00000000000E+00 -0.24434410196E+03  0.24434410196E+03  0.00000000000E+00 0. -1.
         25    1    1    2    0    0 -0.21741242298E+03  0.13182399200E+03  0.58554163419E+02  0.28930834172E+03  0.12500000000E+03 0.  0.
         25    1    1    2    0    0  0.21741242298E+03 -0.13182399200E+03  0.26636200721E+02  0.28457022635E+03  0.12500000000E+03 0.  0.
</event>
<event>
 4    0  0.2219362E-002  0.1967227E+03  0.7546771E-02  0.1152534E+00
         21   -1    0    0  502  501  0.00000000000E+00  0.00000000000E+00  0.33846116429E+03  0.33846116429E+03  0.00000000000E+00 0.  1.
         21   -1    0    0  501  502 -0.00000000000E+00 -0.00000000000E+00 -0.11434055376E+03  0.11434055376E+03  0.00000000000E+00 0.  1.
         25    1    1    2    0    0 -0.13941401180E+03  0.45840369541E+02  0.66937817143E+02  0.20406684574E+03  0.12500000000E+03 0.  0.
         25    1    1    2    0    0  0.13941401180E+03 -0.45840369541E+02  0.15718279338E+03  0.24873487231E+03  0.12500000000E+03 0.  0.
</event>
<event>
 4    0  0.2219362E-002  0.2636877E+03  0.7546771E-02  0.1104948E+00
         21   -1    0    0  502  501  0.00000000000E+00  0.00000000000E+00  0.85555087661E+03  0.85555087661E+03  0.00000000000E+00 0. -1.
         21   -1    0    0  501  502 -0.00000000000E+00 -0.00000000000E+00 -0.81270692452E+02  0.81270692452E+02  0.00000000000E+00 0. -1.
         25    1    1    2    0    0  0.21739816626E+03  0.79952776868E+02  0.35895188900E+03  0.44511332022E+03  0.12500000000E+03 0.  0.
         25    1    1    2    0    0 -0.21739816626E+03 -0.79952776868E+02  0.41532829515E+03  0.49170824884E+03  0.12500000000E+03 0.  0.
</event>
<event>
 4    0  0.2219362E-002  0.1859415E+03  0.7546771E-02  0.1162174E+00
         21   -1    0    0  502  501  0.00000000000E+00  0.00000000000E+00  0.32782691317E+02  0.32782691317E+02  0.00000000000E+00 0.  1.
         21   -1    0    0  501  502 -0.00000000000E+00 -0.00000000000E+00 -0.10546491187E+04  0.10546491187E+04  0.00000000000E+00 0.  1.
         25    1    1    2    0    0  0.55264767047E+02 -0.10134891061E+03 -0.29165434374E+03  0.33765818868E+03  0.12500000000E+03 0.  0.
         25    1    1    2    0    0 -0.55264767047E+02  0.10134891061E+03 -0.73021208366E+03  0.74977362136E+03  0.12500000000E+03 0.  0.
</event>
<event>
 4    0  0.2219362E-002  0.1815151E+03  0.7546771E-02  0.1166345E+00
         21   -1    0    0  502  501  0.00000000000E+00  0.00000000000E+00  0.18644215429E+02  0.18644215429E+02  0.00000000000E+00 0. -1.
         21   -1    0    0  501  502 -0.00000000000E+00 -0.00000000000E+00 -0.17671819158E+04  0.17671819158E+04  0.00000000000E+00 0. -1.
         25    1    1    2    0    0 -0.10661246302E+03 -0.85488751833E+01 -0.49694747266E+03  0.52347023900E+03  0.12500000000E+03 0.  0.
         25    1    1    2    0    0  0.10661246302E+03  0.85488751833E+01 -0.12515902277E+04  0.12623558922E+04  0.12500000000E+03 0.  0.
</event>
<event>
 4    0  0.2219362E-002  0.1991166E+03  0.7546771E-02  0.1150486E+00
         21   -1    0    0  502  501  0.00000000000E+00  0.00000000000E+00  0.74654617326E+03  0.74654617326E+03  0.00000000000E+00 0.  1.
         21   -1    0    0  501  502 -0.00000000000E+00 -0.00000000000E+00 -0.53107796093E+02  0.53107796093E+02  0.00000000000E+00 0.  1.
         25    1    1    2    0    0 -0.14807373744E+02 -0.11401073172E+03  0.13799570381E+03  0.21882760231E+03  0.12500000000E+03 0.  0.
         25    1    1    2    0    0  0.14807373744E+02  0.11401073172E+03  0.55544267336E+03  0.58082636704E+03  0.12500000000E+03 0.  0.
</event>
<event>
 4    0  0.2219362E-002  0.2141332E+03  0.7546771E-02  0.1138334E+00
         21   -1    0    0  502  501  0.00000000000E+00  0.00000000000E+00  0.36876480723E+02  0.36876480723E+02  0.00000000000E+00 0.  1.
         21   -1    0    0  501  502 -0.00000000000E+00 -0.00000000000E+00 -0.12434222893E+04  0.12434222893E+04  0.00000000000E+00 0.  1.
         25    1    1    2    0    0  0.14658504521E+03  0.50271676056E+02 -0.83892410732E+03  0.86222565187E+03  0.12500000000E+03 0.  0.
         25    1    1    2    0    0 -0.14658504521E+03 -0.50271676056E+02 -0.36762170125E+03  0.41807311816E+03  0.12500000000E+03 0.  0.
</event>
<event>
 4    0  0.2219362E-002  0.1905550E+03  0.7546771E-02  0.1157962E+00
         21   -1    0    0  502  501  0.00000000000E+00  0.00000000000E+00  0.28623480687E+02  0.28623480687E+02  0.00000000000E+00 0.  1.
         21   -1    0    0  501  502 -0.00000000000E+00 -0.00000000000E+00 -0.12685814187E+04  0.12685814187E+04  0.00000000000E+00 0.  1.
         25    1    1    2    0    0  0.16293495533E+01 -0.12432537755E+03 -0.37389998244E+03  0.41338317715E+03  0.12500000000E+03 0.  0.
         25    1    1    2    0    0 -0.16293495533E+01  0.12432537755E+03 -0.86605795556E+03  0.88382172222E+03  0.12500000000E+03 0.  0.
</event>
<event>
 4    0  0.2219362E-002  0.2007504E+03  0.7546771E-02  0.1149107E+00
         21   -1    0    0  502  501  0.00000000000E+00  0.00000000000E+00  0.10303068168E+03  0.10303068168E+03  0.00000000000E+00 0. -1.
         21   -1    0    0  501  502 -0.00000000000E+00 -0.00000000000E+00 -0.39115249122E+03  0.39115249122E+03  0.00000000000E+00 0. -1.
         25    1    1    2    0    0  0.84983026129E+02  0.24606621646E+02 -0.30382426273E+03  0.34023783326E+03  0.12500000000E+03 0.  0.
         25    1    1    2    0    0 -0.84983026129E+02 -0.24606621646E+02  0.15702453197E+02  0.15394533963E+03  0.12500000000E+03 0.  0.
</event>
<event>
 4    0  0.2219362E-002  0.2297792E+03  0.7546771E-02  0.1126795E+00
         21   -1    0    0  502  501  0.00000000000E+00  0.00000000000E+00  0.33732974176E+03  0.33732974176E+03  0.00000000000E+00 0.  1.
         21   -1    0    0  501  502 -0.00000000000E+00 -0.00000000000E+00 -0.15651890365E+03  0.15651890365E+03  0.00000000000E+00 0.  1.
         25    1    1    2    0    0 -0.12484304105E+03 -0.53010960061E+02 -0.56850391537E+02  0.19301013912E+03  0.12500000000E+03 0.  0.
         25    1    1    2    0    0  0.12484304105E+03  0.53010960061E+02  0.23766122965E+03  0.30083850629E+03  0.12500000000E+03 0.  0.
</event>
<event>
 4    0  0.2219362E-002  0.1524615E+03  0.7546771E-02  0.1197481E+00
         21   -1    0    0  502  501  0.00000000000E+00  0.00000000000E+00  0.12584547215E+03  0.12584547215E+03  0.00000000000E+00 0. -1.
         21   -1    0    0  501  502 -0.00000000000E+00 -0.00000000000E+00 -0.18470684752E+03  0.18470684752E+03  0.00000000000E+00 0. -1.
         25    1    1    2    0    0  0.71681858638E+02 -0.73340596970E+01  0.20747967763E+02  0.14576541241E+03  0.12500000000E+03 0.  0.
         25    1    1    2    0    0 -0.71681858638E+02  0.73340596970E+01 -0.79609343136E+02  0.16478690726E+03  0.12500000000E+03 0.  0.
</event>
<event>
 4    0  0.2219362E-002  0.2158264E+03  0.7546771E-02  0.1137033E+00
         21   -1    0    0  502  501  0.00000000000E+00  0.00000000000E+00  0.10065174363E+03  0.10065174363E+03  0.00000000000E+00 0.  1.
         21   -1    0    0  501  502 -0.00000000000E+00 -0.00000000000E+00 -0.46279397793E+03  0.46279397793E+03  0.00000000000E+00 0. -1.
         25    1    1    2    0    0 -0.12104699263E+03  0.12752180356E+03 -0.18951403841E+03  0.28714936107E+03  0.12500000000E+03 0.  0.
         25    1    1    2    0    0  0.12104699263E+03 -0.12752180356E+03 -0.17262819589E+03  0.27629636049E+03  0.12500000000E+03 0.  0.
</event>
<event>
 4    0  0.2219362E-002  0.3282742E+03  0.7546771E-02  0.1071903E+00
         21   -1    0    0  502  501  0.00000000000E+00  0.00000000000E+00  0.67099410004E+03  0.67099410004E+03  0.00000000000E+00 0. -1.
         21   -1    0    0  501  502 -0.00000000000E+00 -0.00000000000E+00 -0.16060346932E+03  0.16060346932E+03  0.00000000000E+00 0. -1.
         25    1    1    2    0    0  0.51231585922E+02  0.11875633378E+03 -0.92632604295E+02  0.20232039341E+03  0.12500000000E+03 0.  0.
         25    1    1    2    0    0 -0.51231585922E+02 -0.11875633378E+03  0.60302323501E+03  0.62927717595E+03  0.12500000000E+03 0.  0.
</event>
<event>
 4    0  0.2219362E-002  0.1907076E+03  0.7546771E-02  0.1157825E+00
         21   -1    0    0  502  501  0.00000000000E+00  0.00000000000E+00  0.79888567908E+02  0.79888567908E+02  0.00000000000E+00 0. -1.
         21   -1    0    0  501  502 -0.00000000000E+00 -0.00000000000E+00 -0.45525133240E+03  0.45525133240E+03  0.00000000000E+00 0. -1.
         25    1    1    2    0    0 -0.32122523564E+02 -0.60210689899E+02 -0.97266477661E+01  0.14274729901E+03  0.12500000000E+03 0.  0.
         25    1    1    2    0    0  0.32122523564E+02  0.60210689899E+02 -0.36563611672E+03  0.39239260130E+03  0.12500000000E+03 0.  0.
</event>
<event>
 4    0  0.2219362E-002  0.1911223E+03  0.7546771E-02  0.1157453E+00
         21   -1    0    0  502  501  0.00000000000E+00  0.00000000000E+00  0.41431804123E+03  0.41431804123E+03  0.00000000000E+00 0. -1.
         21   -1    0    0  501  502 -0.00000000000E+00 -0.00000000000E+00 -0.88163532052E+02  0.88163532052E+02  0.00000000000E+00 0. -1.
         25    1    1    2    0    0  0.84349874407E+02 -0.62419331241E+02  0.32335746413E+02  0.16637810770E+03  0.12500000000E+03 0.  0.
         25    1    1    2    0    0 -0.84349874407E+02  0.62419331241E+02  0.29381876277E+03  0.33610346559E+03  0.12500000000E+03 0.  0.
</event>
<event>
 4    0  0.2219362E-002  0.3764612E+03  0.7546771E-02  0.1052249E+00
         21   -1    0    0  502  501  0.00000000000E+00  0.00000000000E+00  0.35350437326E+03  0.35350437326E+03  0.00000000000E+00 0.  1.
         21   -1    0    0  501  502 -0.00000000000E+00 -0.00000000000E+00 -0.40090895262E+03  0.40090895262E+03  0.00000000000E+00 0.  1.
         25    1    1    2    0    0 -0.39618237296E+02  0.33001741512E+03  0.10151302727E+03  0.36933858953E+03  0.12500000000E+03 0.  0.
         25    1    1    2    0    0  0.39618237296E+02 -0.33001741512E+03 -0.14891760663E+03  0.38507473635E+03  0.12500000000E+03 0.  0.
</event>
<event>
 4    0  0.2219362E-002  0.1973675E+03  0.7546771E-02  0.1151979E+00
         21   -1    0    0  502  501  0.00000000000E+00  0.00000000000E+00  0.10307429290E+03  0.10307429290E+03  0.00000000000E+00 0.  1.
         21   -1    0    0  501  502 -0.00000000000E+00 -0.00000000000E+00 -0.37792082092E+03  0.37792082092E+03  0.00000000000E+00 0.  1.
         25    1    1    2    0    0 -0.11721673913E+03 -0.97924232833E+02 -0.13736768553E+03  0.24046579868E+03  0.12500000000E+03 0.  0.
         25    1    1    2    0    0  0.11721673913E+03  0.97924232833E+02 -0.13747884249E+03  0.24052931514E+03  0.12500000000E+03 0.  0.
</event>
<event>
 4    0  0.2219362E-002  0.2471529E+03  0.7546771E-02  0.1115117E+00
         21   -1    0    0  502  501  0.00000000000E+00  0.00000000000E+00  0.37370962447E+02  0.37370962447E+02  0.00000000000E+00 0. -1.
         21   -1    0    0  501  502 -0.00000000000E+00 -0.00000000000E+00 -0.16345454543E+04  0.16345454543E+04  0.00000000000E+00 0. -1.
         25    1    1    2    0    0  0.16390228227E+02  0.32777929708E+02 -0.15090142670E+04  0.15146260562E+04  0.12500000000E+03 0.  0.
         25    1    1    2    0    0 -0.16390228227E+02 -0.32777929708E+02 -0.88160224836E+02  0.15729036048E+03  0.12500000000E+03 0.  0.
</event>
<event>
 4    0  0.2219362E-002  0.3434874E+03  0.7546771E-02  0.1065320E+00
         21   -1    0    0  502  501  0.00000000000E+00  0.00000000000E+00  0.35746704899E+03  0.35746704899E+03  0.00000000000E+00 0.  1.
         21   -1    0    0  501  502 -0.00000000000E+00 -0.00000000000E+00 -0.33005450381E+03  0.33005450381E+03  0.00000000000E+00 0.  1.
         25    1    1    2    0    0  0.25304913476E+03  0.12956535259E+03 -0.13316733952E+03  0.33790469886E+03  0.12500000000E+03 0.  0.
         25    1    1    2    0    0 -0.25304913476E+03 -0.12956535259E+03  0.16057988470E+03  0.34961685395E+03  0.12500000000E+03 0.  0.
</event>
<event>
 4    0  0.2219362E-002  0.3198879E+03  0.7546771E-02  0.1075701E+00
         21   -1    0    0  502  501  0.00000000000E+00  0.00000000000E+00  0.72981208437E+02  0.72981208437E+02  0.00000000000E+00 0. -1.
         21   -1    0    0  501  502 -0.00000000000E+00 -0.00000000000E+00 -0.14021181578E+04  0.14021181578E+04  0.00000000000E+00 0. -1.
         25    1    1    2    0    0  0.65189155481E+02 -0.27782268785E+03 -0.49721882459E+03  0.58675943231E+03  0.12500000000E+03 0.  0.
         25    1    1    2    0    0 -0.65189155481E+02  0.27782268785E+03 -0.83191812476E+03  0.88833993391E+03  0.12500000000E+03 0.  0.
</event>
<event>
 4    0  0.2219362E-002  0.2300142E+03  0.7546771E-02  0.1126630E+00
         21   -1    0    0  502  501  0.00000000000E+00  0.00000000000E+00  0.72092615304E+02  0.72092615304E+02  0.00000000000E+00 0. -1.
         21   -1    0    0  501  502 -0.00000000000E+00 -0.00000000000E+00 -0.73386919022E+03  0.73386919022E+03  0.00000000000E+00 0. -1.
         25    1    1    2    0    0  0.12245589726E+03  0.43687690535E+02 -0.58098332357E+03  0.60833435161E+03  0.12500000000E+03 0.  0.
         25    1    1    2    0    0 -0.12245589726E+03 -0.43687690535E+02 -0.80793251344E+02  0.19762745392E+03  0.12500000000E+03 0.  0.
</event>
<event>
 4    0  0.2219362E-002  0.3025159E+03  0.7546771E-02  0.1083990E+00
         21   -1    0    0  502  501  0.00000000000E+00  0.00000000000E+00  0.61762838534E+03  0.61762838534E+03  0.00000000000E+00 0. -1.
         21   -1    0    0  501  502 -0.00000000000E+00 -0.00000000000E+00 -0.14817304059E+03  0.14817304059E+03  0.00000000000E+00 0. -1.
         25    1    1    2    0    0 -0.26689905551E+03  0.31571588904E+01  0.14845597985E+03  0.33001401703E+03  0.12500000000E+03 0.  0.
         25    1    1    2    0    0  0.26689905551E+03 -0.31571588904E+01  0.32099936490E+03  0.43578740890E+03  0.12500000000E+03 0.  0.
</event>
<event>
 4    0  0.2219362E-002  0.2178391E+03  0.7546771E-02  0.1135504E+00
         21   -1    0    0  502  501  0.00000000000E+00  0.00000000000E+00  0.59621152533E+02  0.59621152533E+02  0.00000000000E+00 0.  1.
         21   -1    0    0  501  502 -0.00000000000E+00 -0.00000000000E+00 -0.79592334151E+03  0.79592334151E+03  0.00000000000E+00 0.  1.
         25    1    1    2    0    0 -0.48493065787E+02 -0.16701012667E+03 -0.44632804174E+03  0.49505320995E+03  0.12500000000E+03 0.  0.
         25    1    1    2    0    0  0.48493065787E+02  0.16701012667E+03 -0.28997414724E+03  0.36049128409E+03  0.12500000000E+03 0.  0.
</event>
<event>
 4    0  0.2219362E-002  0.3948773E+03  0.7546771E-02  0.1045568E+00
         21   -1    0    0  502  501  0.00000000000E+00  0.00000000000E+00  0.39084083152E+03  0.39084083152E+03  0.00000000000E+00 0.  1.
         21   -1    0    0  501  502 -0.00000000000E+00 -0.00000000000E+00 -0.39895546950E+03  0.39895546950E+03  0.00000000000E+00 0.  1.
         25    1    1    2    0    0 -0.43297005071E+01 -0.28927799799E+03  0.23386820870E+03  0.39245362206E+03  0.12500000000E+03 0.  0.
         25    1    1    2    0    0  0.43297005071E+01  0.28927799799E+03 -0.24198284669E+03  0.39734267895E+03  0.12500000000E+03 0.  0.
</event>
<event>
 4    0  0.2219362E-002  0.2212375E+03  0.7546771E-02  0.1132964E+00
         21   -1    0    0  502  501  0.00000000000E+00  0.00000000000E+00  0.14717921424E+04  0.14717921424E+04  0.00000000000E+00 0. -1.
         21   -1    0    0  501  502 -0.00000000000E+00 -0.00000000000E+00 -0.33256076618E+02  0.33256076618E+02  0.00000000000E+00 0. -1.
         25    1    1    2    0    0  0.41310615767E+02  0.28637777538E+02  0.12237412863E+03  0.18200856198E+03  0.12500000000E+03 0.  0.
         25    1    1    2    0    0 -0.41310615767E+02 -0.28637777538E+02  0.13161619371E+04  0.13230396570E+04  0.12500000000E+03 0.  0.
</event>
<event>
 4    0  0.2219362E-002  0.3135841E+03  0.7546771E-02  0.1078641E+00
         21   -1    0    0  502  501  0.00000000000E+00  0.00000000000E+00  0.53851414775E+03  0.53851414775E+03  0.00000000000E+00 0. -1.
         21   -1    0    0  501  502 -0.00000000000E+00 -0.00000000000E+00 -0.18260423538E+03  0.18260423538E+03  0.00000000000E+00 0. -1.
         25    1    1    2    0    0  0.37798506818E+02 -0.11165806779E+03  0.47957492113E+03  0.50942453435E+03  0.12500000000E+03 0.  0.
         25    1    1    2    0    0 -0.37798506818E+02  0.11165806779E+03 -0.12366500876E+03  0.21169384878E+03  0.12500000000E+03 0.  0.
</event>
<event>
 4    0  0.2219362E-002  0.2121858E+03  0.7546771E-02  0.1139847E+00
         21   -1    0    0  502  501  0.00000000000E+00  0.00000000000E+00  0.17363573740E+04  0.17363573740E+04  0.00000000000E+00 0. -1.
         21   -1    0    0  501  502 -0.00000000000E+00 -0.00000000000E+00 -0.25929465017E+02  0.25929465017E+02  0.00000000000E+00 0. -1.
         25    1    1    2    0    0  0.13536486102E+03 -0.93382729505E+02  0.65374016613E+03  0.68559841349E+03  0.12500000000E+03 0.  0.
         25    1    1    2    0    0 -0.13536486102E+03  0.93382729505E+02  0.10566877429E+04  0.10766884255E+04  0.12500000000E+03 0.  0.
</event>
<event>
 4    0  0.2219362E-002  0.2803430E+03  0.7546771E-02  0.1095502E+00
         21   -1    0    0  502  501  0.00000000000E+00  0.00000000000E+00  0.55831125577E+02  0.55831125577E+02  0.00000000000E+00 0. -1.
         21   -1    0    0  501  502 -0.00000000000E+00 -0.00000000000E+00 -0.14076772432E+04  0.14076772432E+04  0.00000000000E+00 0. -1.
         25    1    1    2    0    0  0.17552394796E+03  0.10348265548E+02 -0.20861916451E+03  0.30010447966E+03  0.12500000000E+03 0.  0.
         25    1    1    2    0    0 -0.17552394796E+03 -0.10348265548E+02 -0.11432269531E+04  0.11634038892E+04  0.12500000000E+03 0.  0.
</event>
<event>
 4    0  0.2219362E-002  0.2051174E+03  0.7546771E-02  0.1145492E+00
         21   -1    0    0  502  501  0.00000000000E+00  0.00000000000E+00  0.15156479869E+04  0.15156479869E+04  0.00000000000E+00 0. -1.
         21   -1    0    0  501  502 -0.00000000000E+00 -0.00000000000E+00 -0.27759192993E+02  0.27759192993E+02  0.00000000000E+00 0. -1.
         25    1    1    2    0    0 -0.48977322990E+02 -0.11813376149E+03  0.36595875551E+03  0.40731458911E+03  0.12500000000E+03 0.  0.
         25    1    1    2    0    0  0.48977322990E+02  0.11813376149E+03  0.11219300384E+04  0.11360925908E+04  0.12500000000E+03 0.  0.
</event>
<event>
 4    0  0.2219362E-002  0.1945216E+03  0.7546771E-02  0.1154445E+00
         21   -1    0    0  502  501  0.00000000000E+00  0.00000000000E+00  0.51029880432E+03  0.51029880432E+03  0.00000000000E+00 0.  1.
         21   -1    0    0  501  502 -0.00000000000E+00 -0.00000000000E+00 -0.74150000788E+02  0.74150000788E+02  0.00000000000E+00 0.  1.
         25    1    1    2    0    0  0.21015983947E+02 -0.74961476607E+02  0.27145346521E+02  0.14974232666E+03  0.12500000000E+03 0.  0.
         25    1    1    2    0    0 -0.21015983947E+02  0.74961476607E+02  0.40900345701E+03  0.43470647844E+03  0.12500000000E+03 0.  0.
</event>
<event>
 4    0  0.2219362E-002  0.2391286E+03  0.7546771E-02  0.1120375E+00
         21   -1    0    0  502  501  0.00000000000E+00  0.00000000000E+00  0.98990933275E+02  0.98990933275E+02  0.00000000000E+00 0.  1.
         21   -1    0    0  501  502 -0.00000000000E+00 -0.00000000000E+00 -0.57765356665E+03  0.57765356665E+03  0.00000000000E+00 0.  1.
         25    1    1    2    0    0 -0.20522918136E+02  0.70829163011E+02  0.29555814361E+02  0.14810977910E+03  0.12500000000E+03 0.  0.
         25    1    1    2    0    0  0.20522918136E+02 -0.70829163011E+02 -0.50821844773E+03  0.52853472082E+03  0.12500000000E+03 0.  0.
</event>
<event>
 4    0  0.2219362E-002  0.2321100E+03  0.7546771E-02  0.1125163E+00
         21   -1    0    0  502  501  0.00000000000E+00  0.00000000000E+00  0.18548575855E+03  0.18548575855E+03  0.00000000000E+00 0. -1.
         21   -1    0    0  501  502 -0.00000000000E+00 -0.00000000000E+00 -0.29045388478E+03  0.29045388478E+03  0.00000000000E+00 0. -1.
         25    1    1    2    0    0  0.84300719875E+02 -0.32331868349E+02  0.12538381804E+03  0.19874119580E+03  0.12500000000E+03 0.  0.
         25    1    1    2    0    0 -0.84300719875E+02  0.32331868349E+02 -0.23035194427E+03  0.27719844752E+03  0.12500000000E+03 0.  0.
</event>
<event>
 4    0  0.2219362E-002  0.2444754E+03  0.7546771E-02  0.1116847E+00
         21   -1    0    0  502  501  0.00000000000E+00  0.00000000000E+00  0.67800655650E+02  0.67800655650E+02  0.00000000000E+00 0.  1.
         21   -1    0    0  501  502 -0.00000000000E+00 -0.00000000000E+00 -0.88152901114E+03  0.88152901114E+03  0.00000000000E+00 0.  1.
         25    1    1    2    0    0 -0.31141884092E+02 -0.64086038611E+02 -0.79061873360E+03  0.80360426779E+03  0.12500000000E+03 0.  0.
         25    1    1    2    0    0  0.31141884092E+02  0.64086038611E+02 -0.23109621889E+02  0.14572539900E+03  0.12500000000E+03 0.  0.
</event>
<event>
 4    0  0.2219362E-002  0.1910134E+03  0.7546771E-02  0.1157550E+00
         21   -1    0    0  502  501  0.00000000000E+00  0.00000000000E+00  0.13048595418E+03  0.13048595418E+03  0.00000000000E+00 0.  1.
         21   -1    0    0  501  502 -0.00000000000E+00 -0.00000000000E+00 -0.27961729262E+03  0.27961729262E+03  0.00000000000E+00 0.  1.
         25    1    1    2    0    0 -0.49729294726E+02  0.81986001338E+02 -0.19051497639E+03  0.24721582352E+03  0.12500000000E+03 0.  0.
         25    1    1    2    0    0  0.49729294726E+02 -0.81986001338E+02  0.41383637955E+02  0.16288742327E+03  0.12500000000E+03 0.  0.
</event>
<event>
 4    0  0.2219362E-002  0.1902129E+03  0.7546771E-02  0.1158269E+00
         21   -1    0    0  502  501  0.00000000000E+00  0.00000000000E+00  0.68496596061E+02  0.68496596061E+02  0.00000000000E+00 0. -1.
         21   -1    0    0  501  502 -0.00000000000E+00 -0.00000000000E+00 -0.52821532349E+03  0.52821532349E+03  0.00000000000E+00 0. -1.
         25    1    1    2    0    0  0.75783724488E+02 -0.51592972112E+01 -0.39127860672E+02  0.15141261746E+03  0.12500000000E+03 0.  0.
         25    1    1    2    0    0 -0.75783724488E+02  0.51592972112E+01 -0.42059086675E+03  0.44529930209E+03  0.12500000000E+03 0.  0.
</event>
<event>
 4    0  0.2219362E-002  0.1801305E+03  0.7546771E-02  0.1167677E+00
         21   -1    0    0  502  501  0.00000000000E+00  0.00000000000E+00  0.16709043165E+02  0.16709043165E+02  0.00000000000E+00 0.  1.
         21   -1    0    0  501  502 -0.00000000000E+00 -0.00000000000E+00 -0.19418827618E+04  0.19418827618E+04  0.00000000000E+00 0.  1.
         25    1    1    2    0    0 -0.49773997128E+02  0.68089378387E+02 -0.42691328731E+03  0.45276215513E+03  0.12500000000E+03 0.  0.
         25    1    1    2    0    0  0.49773997128E+02 -0.68089378387E+02 -0.14982604314E+04  0.15058296499E+04  0.12500000000E+03 0.  0.
</event>
<event>
 4    0  0.2219362E-002  0.2135540E+03  0.7546771E-02  0.1138782E+00
         21   -1    0    0  502  501  0.00000000000E+00  0.00000000000E+00  0.97408880408E+02  0.97408880408E+02  0.00000000000E+00 0.  1.
         21   -1    0    0  501  502 -0.00000000000E+00 -0.00000000000E+00 -0.46818413266E+03  0.46818413266E+03  0.00000000000E+00 0.  1.
         25    1    1    2    0    0 -0.55499747329E+02 -0.12443255205E+03 -0.43894609472E+02  0.19004057121E+03  0.12500000000E+03 0.  0.
         25    1    1    2    0    0  0.55499747329E+02  0.12443255205E+03 -0.32688064278E+03  0.37555244186E+03  0.12500000000E+03 0.  0.
</event>
<event>
 4    0  0.2219362E-002  0.2513840E+03  0.7546771E-02  0.1112433E+00
         21   -1    0    0  502  501  0.00000000000E+00  0.00000000000E+00  0.21678087197E+03  0.21678087197E+03  0.00000000000E+00 0. -1.
         21   -1    0    0  501  502 -0.00000000000E+00 -0.00000000000E+00 -0.29151052611E+03  0.29151052611E+03  0.00000000000E+00 0. -1.
         25    1    1    2    0    0  0.47364830136E+02 -0.82768738311E+02  0.16094006757E+03  0.22499065875E+03  0.12500000000E+03 0.  0.
         25    1    1    2    0    0 -0.47364830136E+02  0.82768738311E+02 -0.23566972171E+03  0.28330073933E+03  0.12500000000E+03 0.  0.
</event>
<event>
 4    0  0.2219362E-002  0.2708067E+03  0.7546771E-02  0.1100819E+00
         21   -1    0    0  502  501  0.00000000000E+00  0.00000000000E+00  0.13571251057E+04  0.13571251057E+04  0.00000000000E+00 0. -1.
         21   -1    0    0  501  502 -0.00000000000E+00 -0.00000000000E+00 -0.54037948288E+02  0.54037948288E+02  0.00000000000E+00 0. -1.
         25    1    1    2    0    0  0.20928933948E+03  0.11771182417E+03  0.63254765754E+03  0.68804043502E+03  0.12500000000E+03 0.  0.
         25    1    1    2    0    0 -0.20928933948E+03 -0.11771182417E+03  0.67053949989E+03  0.72312261898E+03  0.12500000000E+03 0.  0.
</event>
<event>
 4    0  0.2219362E-002  0.1558270E+03  0.7546771E-02  0.1193490E+00
         21   -1    0    0  502  501  0.00000000000E+00  0.00000000000E+00  0.22664079591E+04  0.22664079591E+04  0.00000000000E+00 0. -1.
         21   -1    0    0  501  502 -0.00000000000E+00 -0.00000000000E+00 -0.10713887552E+02  0.10713887552E+02  0.00000000000E+00 0. -1.
         25    1    1    2    0    0  0.23957731306E+02 -0.57939341786E+02  0.62554477446E+03  0.64098533921E+03  0.12500000000E+03 0.  0.
         25    1    1    2    0    0 -0.23957731306E+02  0.57939341786E+02  0.16301492971E+04  0.16361365075E+04  0.12500000000E+03 0.  0.
</event>
<event>
 4    0  0.2219362E-002  0.2051747E+03  0.7546771E-02  0.1145445E+00
         21   -1    0    0  502  501  0.00000000000E+00  0.00000000000E+00  0.53325933046E+02  0.53325933046E+02  0.00000000000E+00 0. -1.
         21   -1    0    0  501  502 -0.00000000000E+00 -0.00000000000E+00 -0.78942195717E+03  0.78942195717E+03  0.00000000000E+00 0. -1.
         25    1    1    2    0    0 -0.14924869025E+02  0.36953031627E+02 -0.69201336641E+03  0.70434066868E+03  0.12500000000E+03 0.  0.
         25    1    1    2    0    0  0.14924869025E+02 -0.36953031627E+02 -0.44082657707E+02  0.13840722153E+03  0.12500000000E+03 0.  0.
</event>
<event>
 4    0  0.2219362E-002  0.2194154E+03  0.7546771E-02  0.1134320E+00
         21   -1    0    0  502  501  0.00000000000E+00  0.00000000000E+00  0.99116140855E+02  0.99116140855E+02  0.00000000000E+00 0.  1.
         21   -1    0    0  501  502 -0.00000000000E+00 -0.00000000000E+00 -0.48572419512E+03  0.48572419512E+03  0.00000000000E+00 0.  1.
         25    1    1    2    0    0  0.13532329447E+03 -0.72624174484E+02 -0.31925486962E+03  0.37567983246E+03  0.12500000000E+03 0.  0.
         25    1    1    2    0    0 -0.13532329447E+03  0.72624174484E+02 -0.67353184643E+02  0.20916050351E+03  0.12500000000E+03 0.  0.
</event>
<event>
 4    0  0.2219362E-002  0.2572423E+03  0.7546771E-02  0.1108811E+00
         21   -1    0    0  502  501  0.00000000000E+00  0.00000000000E+00  0.36280221924E+03  0.36280221924E+03  0.00000000000E+00 0. -1.
         21   -1    0    0  501  502 -0.00000000000E+00 -0.00000000000E+00 -0.18239586230E+03  0.18239586230E+03  0.00000000000E+00 0. -1.
         25    1    1    2    0    0 -0.16948618918E+03  0.72079873805E+02  0.22684887479E+03  0.31781517982E+03  0.12500000000E+03 0.  0.
         25    1    1    2    0    0  0.16948618918E+03 -0.72079873805E+02 -0.46442517846E+02  0.22738290172E+03  0.12500000000E+03 0.  0.
</event>
<event>
 4    0  0.2219362E-002  0.3150933E+03  0.7546771E-02  0.1077930E+00
         21   -1    0    0  502  501  0.00000000000E+00  0.00000000000E+00  0.57962474371E+03  0.57962474371E+03  0.00000000000E+00 0. -1.
         21   -1    0    0  501  502 -0.00000000000E+00 -0.00000000000E+00 -0.17128975938E+03  0.17128975938E+03  0.00000000000E+00 0. -1.
         25    1    1    2    0    0  0.16084107876E+03  0.58551126300E+02  0.48198770670E+03  0.52653132520E+03  0.12500000000E+03 0.  0.
         25    1    1    2    0    0 -0.16084107876E+03 -0.58551126300E+02 -0.73652722362E+02  0.22438317789E+03  0.12500000000E+03 0.  0.
</event>
<event>
 4    0  0.2219362E-002  0.1984908E+03  0.7546771E-02  0.1151019E+00
         21   -1    0    0  502  501  0.00000000000E+00  0.00000000000E+00  0.39892717235E+02  0.39892717235E+02  0.00000000000E+00 0. -1.
         21   -1    0    0  501  502 -0.00000000000E+00 -0.00000000000E+00 -0.98761384304E+03  0.98761384304E+03  0.00000000000E+00 0. -1.
         25    1    1    2    0    0 -0.40189196347E+02 -0.11847919298E+03 -0.70711068870E+03  0.72889163581E+03  0.12500000000E+03 0.  0.
         25    1    1    2    0    0  0.40189196347E+02  0.11847919298E+03 -0.24061043710E+03  0.29861492447E+03  0.12500000000E+03 0.  0.
</event>
<event>
 4    0  0.2219362E-002  0.3083501E+03  0.7546771E-02  0.1081139E+00
         21   -1    0    0  502  501  0.00000000000E+00  0.00000000000E+00  0.31250560656E+03  0.31250560656E+03  0.00000000000E+00 0.  1.
         21   -1    0    0  501  502 -0.00000000000E+00 -0.00000000000E+00 -0.30424992719E+03  0.30424992719E+03  0.00000000000E+00 0.  1.
         25    1    1    2    0    0 -0.22126327637E+03 -0.14882584346E+03  0.95504723860E+02  0.30960090670E+03  0.12500000000E+03 0.  0.
         25    1    1    2    0    0  0.22126327637E+03  0.14882584346E+03 -0.87249044493E+02  0.30715462705E+03  0.12500000000E+03 0.  0.
</event>
<event>
 4    0  0.2219362E-002  0.1813770E+03  0.7546771E-02  0.1166477E+00
         21   -1    0    0  502  501  0.00000000000E+00  0.00000000000E+00  0.15432569966E+03  0.15432569966E+03  0.00000000000E+00 0. -1.
         21   -1    0    0  501  502 -0.00000000000E+00 -0.00000000000E+00 -0.21316993310E+03  0.21316993310E+03  0.00000000000E+00 0. -1.
         25    1    1    2    0    0  0.45242096932E+02 -0.31306672042E+02 -0.15033738085E+03  0.20310904246E+03  0.12500000000E+03 0.  0.
         25    1    1    2    0    0 -0.45242096932E+02  0.31306672042E+02  0.91493147398E+02  0.16438659030E+03  0.12500000000E+03 0.  0.
</event>
<event>
 4    0  0.2219362E-002  0.3560357E+03  0.7546771E-02  0.1060165E+00
         21   -1    0    0  502  501  0.00000000000E+00  0.00000000000E+00  0.79465236873E+03  0.79465236873E+03  0.00000000000E+00 0. -1.
         21   -1    0    0  501  502 -0.00000000000E+00 -0.00000000000E+00 -0.15951810336E+03  0.15951810336E+03  0.00000000000E+00 0. -1.
         25    1    1    2    0    0  0.27443710828E+03  0.12896992858E+03  0.50318135580E+03  0.60063753271E+03  0.12500000000E+03 0.  0.
         25    1    1    2    0    0 -0.27443710828E+03 -0.12896992858E+03  0.13195290958E+03  0.35353293938E+03  0.12500000000E+03 0.  0.
</event>
