<event>
 3    0  0.4607503E-005  0.9118800E+02  0.7546771E-02  0.1235069E+00
         25   -1    0    0    0    0  0.00000000000E+00  0.00000000000E+00  0.99999998245E-14  0.12500000000E+03  0.12500000000E+03 0.  0.
          5    1    1    0  501    0 -0.30686140260E+02 -0.97786458540E+01  0.53356338716E+02  0.62500000000E+02  0.47000000000E+01 0. -1.
         -5    1    1    0    0  501  0.30686140260E+02  0.97786458540E+01 -0.53356338716E+02  0.62500000000E+02  0.47000000000E+01 0. -1.
</event>
<event>
 3    0  0.4607503E-005  0.9118800E+02  0.7546771E-02  0.1235069E+00
         25   -1    0    0    0    0  0.00000000000E+00  0.00000000000E+00  0.99999998245E-14  0.12500000000E+03  0.12500000000E+03 0.  0.
          5    1    1    0  501    0 -0.36383332119E+02  0.45825923545E+02 -0.21456884098E+02  0.62500000000E+02  0.47000000000E+01 0.  1.
         -5    1    1    0    0  501  0.36383332119E+02 -0.45825923545E+02  0.21456884098E+02  0.62500000000E+02  0.47000000000E+01 0.  1.
</event>
<event>
 3    0  0.4607503E-005  0.9118800E+02  0.7546771E-02  0.1235069E+00
         25   -1    0    0    0    0  0.00000000000E+00  0.00000000000E+00  0.99999998245E-14  0.12500000000E+03  0.12500000000E+03 0.  0.
          5    1    1    0  501    0 -0.25811807491E+02 -0.56710039423E+02  0.13718683277E+01  0.62500000000E+02  0.47000000000E+01 0. -1.
         -5    1    1    0    0  501  0.25811807491E+02  0.56710039423E+02 -0.13718683277E+01  0.62500000000E+02  0.47000000000E+01 0. -1.
</event>
<event>
 3    0  0.4607503E-005  0.9118800E+02  0.7546771E-02  0.1235069E+00
         25   -1    0    0    0    0  0.00000000000E+00  0.00000000000E+00  0.99999998245E-14  0.12500000000E+03  0.12500000000E+03 0.  0.
          5    1    1    0  501    0 -0.42851914644E+02 -0.44123724116E+02  0.10048401938E+02  0.62500000000E+02  0.47000000000E+01 0. -1.
         -5    1    1    0    0  501  0.42851914644E+02  0.44123724116E+02 -0.10048401938E+02  0.62500000000E+02  0.47000000000E+01 0. -1.
</event>
<event>
 3    0  0.4607503E-005  0.9118800E+02  0.7546771E-02  0.1235069E+00
         25   -1    0    0    0    0  0.00000000000E+00  0.00000000000E+00  0.99999998245E-14  0.12500000000E+03  0.12500000000E+03 0.  0.
          5    1    1    0  501    0 -0.52526669940E+02 -0.29146640452E+02 -0.16600671533E+02  0.62500000000E+02  0.47000000000E+01 0. -1.
         -5    1    1    0    0  501  0.52526669940E+02  0.29146640452E+02  0.16600671533E+02  0.62500000000E+02  0.47000000000E+01 0. -1.
</event>
<event>
 3    0  0.4607503E-005  0.9118800E+02  0.7546771E-02  0.1235069E+00
         25   -1    0    0    0    0  0.00000000000E+00  0.00000000000E+00  0.99999998245E-14  0.12500000000E+03  0.12500000000E+03 0.  0.
          5    1    1    0  501    0  0.42670843662E+02 -0.35215651013E+02  0.28691758833E+02  0.62500000000E+02  0.47000000000E+01 0. -1.
         -5    1    1    0    0  501 -0.42670843662E+02  0.35215651013E+02 -0.28691758833E+02  0.62500000000E+02  0.47000000000E+01 0. -1.
</event>
<event>
 3    0  0.4607503E-005  0.9118800E+02  0.7546771E-02  0.1235069E+00
         25   -1    0    0    0    0  0.00000000000E+00  0.00000000000E+00  0.99999998245E-14  0.12500000000E+03  0.12500000000E+03 0.  0.
          5    1    1    0  501    0 -0.43829144927E+02  0.93976480836E+01  0.43299541169E+02  0.62500000000E+02  0.47000000000E+01 0.  1.
         -5    1    1    0    0  501  0.43829144927E+02 -0.93976480836E+01 -0.43299541169E+02  0.62500000000E+02  0.47000000000E+01 0.  1.
</event>
<event>
 3    0  0.4607503E-005  0.9118800E+02  0.7546771E-02  0.1235069E+00
         25   -1    0    0    0    0  0.00000000000E+00  0.00000000000E+00  0.99999998245E-14  0.12500000000E+03  0.12500000000E+03 0.  0.
          5    1    1    0  501    0  0.26706225613E+02 -0.23923762327E+02  0.50976377957E+02  0.62500000000E+02  0.47000000000E+01 0. -1.
         -5    1    1    0    0  501 -0.26706225613E+02  0.23923762327E+02 -0.50976377957E+02  0.62500000000E+02  0.47000000000E+01 0. -1.
</event>
<event>
 3    0  0.4607503E-005  0.9118800E+02  0.7546771E-02  0.1235069E+00
         25   -1    0    0    0    0  0.00000000000E+00  0.00000000000E+00  0.99999998245E-14  0.12500000000E+03  0.12500000000E+03 0.  0.
          5    1    1    0  501    0 -0.45281132858E+02  0.58019398729E+01 -0.42427779825E+02  0.62500000000E+02  0.47000000000E+01 0. -1.
         -5    1    1    0    0  501  0.45281132858E+02 -0.58019398729E+01  0.42427779825E+02  0.62500000000E+02  0.47000000000E+01 0. -1.
</event>
<event>
 3    0  0.4607503E-005  0.9118800E+02  0.7546771E-02  0.1235069E+00
         25   -1    0    0    0    0  0.00000000000E+00  0.00000000000E+00  0.99999998245E-14  0.12500000000E+03  0.12500000000E+03 0.  0.
          5    1    1    0  501    0 -0.28372066519E+02  0.80011574398E+01  0.54910539253E+02  0.62500000000E+02  0.47000000000E+01 0.  1.
         -5    1    1    0    0  501  0.28372066519E+02 -0.80011574398E+01 -0.54910539253E+02  0.62500000000E+02  0.47000000000E+01 0.  1.
</event>
<event>
 3    0  0.4607503E-005  0.9118800E+02  0.7546771E-02  0.1235069E+00
         25   -1    0    0    0    0  0.00000000000E+00  0.00000000000E+00  0.99999998245E-14  0.12500000000E+03  0.12500000000E+03 0.  0.
          5    1    1    0  501    0  0.31008532745E+01 -0.61231162446E+02  0.11193277202E+02  0.62500000000E+02  0.47000000000E+01 0.  1.
         -5    1    1    0    0  501 -0.31008532745E+01  0.61231162446E+02 -0.11193277202E+02  0.62500000000E+02  0.47000000000E+01 0.  1.
</event>
<event>
 3    0  0.4607503E-005  0.9118800E+02  0.7546771E-02  0.1235069E+00
         25   -1    0    0    0    0  0.00000000000E+00  0.00000000000E+00  0.99999998245E-14  0.12500000000E+03  0.12500000000E+03 0.  0.
          5    1    1    0  501    0 -0.45203281425E+02  0.31836527648E+02 -0.28762107985E+02  0.62500000000E+02  0.47000000000E+01 0.  1.
         -5    1    1    0    0  501  0.45203281425E+02 -0.31836527648E+02  0.28762107985E+02  0.62500000000E+02  0.47000000000E+01 0.  1.
</event>
<event>
 3    0  0.4607503E-005  0.9118800E+02  0.7546771E-02  0.1235069E+00
         25   -1    0    0    0    0  0.00000000000E+00  0.00000000000E+00  0.99999998245E-14  0.12500000000E+03  0.12500000000E+03 0.  0.
          5    1    1    0  501    0  0.22382531316E+01  0.15597274103E+02  0.60298219405E+02  0.62500000000E+02  0.47000000000E+01 0. -1.
         -5    1    1    0    0  501 -0.22382531316E+01 -0.15597274103E+02 -0.60298219405E+02  0.62500000000E+02  0.47000000000E+01 0. -1.
</event>
<event>
 3    0  0.4607503E-005  0.9118800E+02  0.7546771E-02  0.1235069E+00
         25   -1    0    0    0    0  0.00000000000E+00  0.00000000000E+00  0.99999998245E-14  0.12500000000E+03  0.12500000000E+03 0.  0.
          5    1    1    0  501    0  0.10611158047E+02 -0.53020498483E+02  0.30990160786E+02  0.62500000000E+02  0.47000000000E+01 0.  1.
         -5    1    1    0    0  501 -0.10611158047E+02  0.53020498483E+02 -0.30990160786E+02  0.62500000000E+02  0.47000000000E+01 0.  1.
</event>
<event>
 3    0  0.4607503E-005  0.9118800E+02  0.7546771E-02  0.1235069E+00
         25   -1    0    0    0    0  0.00000000000E+00  0.00000000000E+00  0.99999998245E-14  0.12500000000E+03  0.12500000000E+03 0.  0.
          5    1    1    0  501    0  0.11343274086E+00  0.43382277801E+02  0.44745112647E+02  0.62500000000E+02  0.47000000000E+01 0. -1.
         -5    1    1    0    0  501 -0.11343274086E+00 -0.43382277801E+02 -0.44745112647E+02  0.62500000000E+02  0.47000000000E+01 0. -1.
</event>
<event>
 3    0  0.4607503E-005  0.9118800E+02  0.7546771E-02  0.1235069E+00
         25   -1    0    0    0    0  0.00000000000E+00  0.00000000000E+00  0.99999998245E-14  0.12500000000E+03  0.12500000000E+03 0.  0.
          5    1    1    0  501    0  0.45662456277E+02 -0.18341166060E+02  0.38245283556E+02  0.62500000000E+02  0.47000000000E+01 0.  1.
         -5    1    1    0    0  501 -0.45662456277E+02  0.18341166060E+02 -0.38245283556E+02  0.62500000000E+02  0.47000000000E+01 0.  1.
</event>
<event>
 3    0  0.4607503E-005  0.9118800E+02  0.7546771E-02  0.1235069E+00
         25   -1    0    0    0    0  0.00000000000E+00  0.00000000000E+00  0.99999998245E-14  0.12500000000E+03  0.12500000000E+03 0.  0.
          5    1    1    0  501    0  0.36724466887E+02 -0.14191258503E+02  0.48312335008E+02  0.62500000000E+02  0.47000000000E+01 0. -1.
         -5    1    1    0    0  501 -0.36724466887E+02  0.14191258503E+02 -0.48312335008E+02  0.62500000000E+02  0.47000000000E+01 0. -1.
</event>
<event>
 3    0  0.4607503E-005  0.9118800E+02  0.7546771E-02  0.1235069E+00
         25   -1    0    0    0    0  0.00000000000E+00  0.00000000000E+00  0.99999998245E-14  0.12500000000E+03  0.12500000000E+03 0.  0.
          5    1    1    0  501    0 -0.40156649372E+02  0.25285375772E+02  0.40401154480E+02  0.62500000000E+02  0.47000000000E+01 0. -1.
         -5    1    1    0    0  501  0.40156649372E+02 -0.25285375772E+02 -0.40401154480E+02  0.62500000000E+02  0.47000000000E+01 0. -1.
</event>
<event>
 3    0  0.4607503E-005  0.9118800E+02  0.7546771E-02  0.1235069E+00
         25   -1    0    0    0    0  0.00000000000E+00  0.00000000000E+00  0.99999998245E-14  0.12500000000E+03  0.12500000000E+03 0.  0.
          5    1    1    0  501    0 -0.22023156816E+02 -0.56634965644E+02 -0.13842732038E+02  0.62500000000E+02  0.47000000000E+01 0.  1.
         -5    1    1    0    0  501  0.22023156816E+02  0.56634965644E+02  0.13842732038E+02  0.62500000000E+02  0.47000000000E+01 0.  1.
</event>
<event>
 3    0  0.4607503E-005  0.9118800E+02  0.7546771E-02  0.1235069E+00
         25   -1    0    0    0    0  0.00000000000E+00  0.00000000000E+00  0.99999998245E-14  0.12500000000E+03  0.12500000000E+03 0.  0.
          5    1    1    0  501    0  0.45253891731E+02  0.22571646565E+02 -0.36424799994E+02  0.62500000000E+02  0.47000000000E+01 0. -1.
         -5    1    1    0    0  501 -0.45253891731E+02 -0.22571646565E+02  0.36424799994E+02  0.62500000000E+02  0.47000000000E+01 0. -1.
</event>
<event>
 3    0  0.4607503E-005  0.9118800E+02  0.7546771E-02  0.1235069E+00
         25   -1    0    0    0    0  0.00000000000E+00  0.00000000000E+00  0.99999998245E-14  0.12500000000E+03  0.12500000000E+03 0.  0.
          5    1    1    0  501    0  0.46379075970E+02  0.30278472055E+02 -0.28571934520E+02  0.62500000000E+02  0.47000000000E+01 0.  1.
         -5    1    1    0    0  501 -0.46379075970E+02 -0.30278472055E+02  0.28571934520E+02  0.62500000000E+02  0.47000000000E+01 0.  1.
</event>
<event>
 3    0  0.4607503E-005  0.9118800E+02  0.7546771E-02  0.1235069E+00
         25   -1    0    0    0    0  0.00000000000E+00  0.00000000000E+00  0.99999998245E-14  0.12500000000E+03  0.12500000000E+03 0.  0.
          5    1    1    0  501    0 -0.56012223447E+02  0.43029161309E+01  0.26986584395E+02  0.62500000000E+02  0.47000000000E+01 0. -1.
         -5    1    1    0    0  501  0.56012223447E+02 -0.43029161309E+01 -0.26986584395E+02  0.62500000000E+02  0.47000000000E+01 0. -1.
</event>
<event>
 3    0  0.4607503E-005  0.9118800E+02  0.7546771E-02  0.1235069E+00
         25   -1    0    0    0    0  0.00000000000E+00  0.00000000000E+00  0.99999998245E-14  0.12500000000E+03  0.12500000000E+03 0.  0.
          5    1    1    0  501    0 -0.18755795733E+02 -0.41890265996E+02 -0.42161424800E+02  0.62500000000E+02  0.47000000000E+01 0. -1.
         -5    1    1    0    0  501  0.18755795733E+02  0.41890265996E+02  0.42161424800E+02  0.62500000000E+02  0.47000000000E+01 0. -1.
</event>
<event>
 3    0  0.4607503E-005  0.9118800E+02  0.7546771E-02  0.1235069E+00
         25   -1    0    0    0    0  0.00000000000E+00  0.00000000000E+00  0.99999998245E-14  0.12500000000E+03  0.12500000000E+03 0.  0.
          5    1    1    0  501    0 -0.53648328613E+02  0.28581680394E+02 -0.13751522930E+02  0.62500000000E+02  0.47000000000E+01 0. -1.
         -5    1    1    0    0  501  0.53648328613E+02 -0.28581680394E+02  0.13751522930E+02  0.62500000000E+02  0.47000000000E+01 0. -1.
</event>
<event>
 3    0  0.4607503E-005  0.9118800E+02  0.7546771E-02  0.1235069E+00
         25   -1    0    0    0    0  0.00000000000E+00  0.00000000000E+00  0.99999998245E-14  0.12500000000E+03  0.12500000000E+03 0.  0.
          5    1    1    0  501    0  0.58825620979E+02  0.18887250794E+02 -0.81840133137E+01  0.62500000000E+02  0.47000000000E+01 0. -1.
         -5    1    1    0    0  501 -0.58825620979E+02 -0.18887250794E+02  0.81840133137E+01  0.62500000000E+02  0.47000000000E+01 0. -1.
</event>
<event>
 3    0  0.4607503E-005  0.9118800E+02  0.7546771E-02  0.1235069E+00
         25   -1    0    0    0    0  0.00000000000E+00  0.00000000000E+00  0.99999998245E-14  0.12500000000E+03  0.12500000000E+03 0.  0.
          5    1    1    0  501    0  0.46141198481E+02 -0.41519070339E+02  0.55961237440E+01  0.62500000000E+02  0.47000000000E+01 0.  1.
         -5    1    1    0    0  501 -0.46141198481E+02  0.41519070339E+02 -0.55961237440E+01  0.62500000000E+02  0.47000000000E+01 0.  1.
</event>
<event>
 3    0  0.4607503E-005  0.9118800E+02  0.7546771E-02  0.1235069E+00
         25   -1    0    0    0    0  0.00000000000E+00  0.00000000000E+00  0.99999998245E-14  0.12500000000E+03  0.12500000000E+03 0.  0.
          5    1    1    0  501    0 -0.40104510128E+02 -0.16533511050E+02  0.44748533828E+02  0.62500000000E+02  0.47000000000E+01 0. -1.
         -5    1    1    0    0  501  0.40104510128E+02  0.16533511050E+02 -0.44748533828E+02  0.62500000000E+02  0.47000000000E+01 0. -1.
</event>
<event>
 3    0  0.4607503E-005  0.9118800E+02  0.7546771E-02  0.1235069E+00
         25   -1    0    0    0    0  0.00000000000E+00  0.00000000000E+00  0.99999998245E-14  0.12500000000E+03  0.12500000000E+03 0.  0.
          5    1    1    0  501    0 -0.41796162825E+02 -0.20206031425E+02  0.41580729517E+02  0.62500000000E+02  0.47000000000E+01 0.  1.
         -5    1    1    0    0  501  0.41796162825E+02  0.20206031425E+02 -0.41580729517E+02  0.62500000000E+02  0.47000000000E+01 0.  1.
</event>
<event>
 3    0  0.4607503E-005  0.9118800E+02  0.7546771E-02  0.1235069E+00
         25   -1    0    0    0    0  0.00000000000E+00  0.00000000000E+00  0.99999998245E-14  0.12500000000E+03  0.12500000000E+03 0.  0.
          5    1    1    0  501    0 -0.61429394222E+02  0.58255281172E+01 -0.87551554928E+01  0.62500000000E+02  0.47000000000E+01 0. -1.
         -5    1    1    0    0  501  0.61429394222E+02 -0.58255281172E+01  0.87551554928E+01  0.62500000000E+02  0.47000000000E+01 0. -1.
</event>
<event>
 3    0  0.4607503E-005  0.9118800E+02  0.7546771E-02  0.1235069E+00
         25   -1    0    0    0    0  0.00000000000E+00  0.00000000000E+00  0.99999998245E-14  0.12500000000E+03  0.12500000000E+03 0.  0.
          5    1    1    0  501    0 -0.46281951539E+02 -0.41734109708E+02 -0.63643431551E+00  0.62500000000E+02  0.47000000000E+01 0. -1.
         -5    1    1    0    0  501  0.46281951539E+02  0.41734109708E+02  0.63643431551E+00  0.62500000000E+02  0.47000000000E+01 0. -1.
</event>
<event>
 3    0  0.4607503E-005  0.9118800E+02  0.7546771E-02  0.1235069E+00
         25   -1    0    0    0    0  0.00000000000E+00  0.00000000000E+00  0.99999998245E-14  0.12500000000E+03  0.12500000000E+03 0.  0.
          5    1    1    0  501    0 -0.86047461791E+01  0.48109511031E+02 -0.38672901256E+02  0.62500000000E+02  0.47000000000E+01 0. -1.
         -5    1    1    0    0  501  0.86047461791E+01 -0.48109511031E+02  0.38672901256E+02  0.62500000000E+02  0.47000000000E+01 0. -1.
</event>
<event>
 3    0  0.4607503E-005  0.9118800E+02  0.7546771E-02  0.1235069E+00
         25   -1    0    0    0    0  0.00000000000E+00  0.00000000000E+00  0.99999998245E-14  0.12500000000E+03  0.12500000000E+03 0.  0.
          5    1    1    0  501    0 -0.21723460835E+02  0.54890600239E+02  0.19981823109E+02  0.62500000000E+02  0.47000000000E+01 0. -1.
         -5    1    1    0    0  501  0.21723460835E+02 -0.54890600239E+02 -0.19981823109E+02  0.62500000000E+02  0.47000000000E+01 0. -1.
</event>
<event>
 3    0  0.4607503E-005  0.9118800E+02  0.7546771E-02  0.1235069E+00
         25   -1    0    0    0    0  0.00000000000E+00  0.00000000000E+00  0.99999998245E-14  0.12500000000E+03  0.12500000000E+03 0.  0.
          5    1    1    0  501    0  0.29815928267E+02  0.30383094076E+02  0.45519644286E+02  0.62500000000E+02  0.47000000000E+01 0.  1.
         -5    1    1    0    0  501 -0.29815928267E+02 -0.30383094076E+02 -0.45519644286E+02  0.62500000000E+02  0.47000000000E+01 0.  1.
</event>
<event>
 3    0  0.4607503E-005  0.9118800E+02  0.7546771E-02  0.1235069E+00
         25   -1    0    0    0    0  0.00000000000E+00  0.00000000000E+00  0.99999998245E-14  0.12500000000E+03  0.12500000000E+03 0.  0.
          5    1    1    0  501    0  0.26113616587E+02 -0.54478664682E+02  0.15307322535E+02  0.62500000000E+02  0.47000000000E+01 0. -1.
         -5    1    1    0    0  501 -0.26113616587E+02  0.54478664682E+02 -0.15307322535E+02  0.62500000000E+02  0.47000000000E+01 0. -1.
</event>
<event>
 3    0  0.4607503E-005  0.9118800E+02  0.7546771E-02  0.1235069E+00
         25   -1    0    0    0    0  0.00000000000E+00  0.00000000000E+00  0.99999998245E-14  0.12500000000E+03  0.12500000000E+03 0.  0.
          5    1    1    0  501    0 -0.59585107771E+02  0.25011572390E+01  0.18097490002E+02  0.62500000000E+02  0.47000000000E+01 0.  1.
         -5    1    1    0    0  501  0.59585107771E+02 -0.25011572390E+01 -0.18097490002E+02  0.62500000000E+02  0.47000000000E+01 0.  1.
</event>
<event>
 3    0  0.4607503E-005  0.9118800E+02  0.7546771E-02  0.1235069E+00
         25   -1    0    0    0    0  0.00000000000E+00  0.00000000000E+00  0.99999998245E-14  0.12500000000E+03  0.12500000000E+03 0.  0.
          5    1    1    0  501    0 -0.39498174056E+02  0.44099360631E+02  0.19475642178E+02  0.62500000000E+02  0.47000000000E+01 0.  1.
         -5    1    1    0    0  501  0.39498174056E+02 -0.44099360631E+02 -0.19475642178E+02  0.62500000000E+02  0.47000000000E+01 0.  1.
</event>
<event>
 3    0  0.4607503E-005  0.9118800E+02  0.7546771E-02  0.1235069E+00
         25   -1    0    0    0    0  0.00000000000E+00  0.00000000000E+00  0.99999998245E-14  0.12500000000E+03  0.12500000000E+03 0.  0.
          5    1    1    0  501    0  0.61048443256E+02  0.59968808136E+01  0.11012946771E+02  0.62500000000E+02  0.47000000000E+01 0.  1.
         -5    1    1    0    0  501 -0.61048443256E+02 -0.59968808136E+01 -0.11012946771E+02  0.62500000000E+02  0.47000000000E+01 0.  1.
</event>
<event>
 3    0  0.4607503E-005  0.9118800E+02  0.7546771E-02  0.1235069E+00
         25   -1    0    0    0    0  0.00000000000E+00  0.00000000000E+00  0.99999998245E-14  0.12500000000E+03  0.12500000000E+03 0.  0.
          5    1    1    0  501    0  0.42760258898E+01  0.37717421403E+02 -0.49429462118E+02  0.62500000000E+02  0.47000000000E+01 0.  1.
         -5    1    1    0    0  501 -0.42760258898E+01 -0.37717421403E+02  0.49429462118E+02  0.62500000000E+02  0.47000000000E+01 0.  1.
</event>
<event>
 3    0  0.4607503E-005  0.9118800E+02  0.7546771E-02  0.1235069E+00
         25   -1    0    0    0    0  0.00000000000E+00  0.00000000000E+00  0.99999998245E-14  0.12500000000E+03  0.12500000000E+03 0.  0.
          5    1    1    0  501    0 -0.59879154947E+02 -0.17277854614E+02  0.35006102291E+00  0.62500000000E+02  0.47000000000E+01 0. -1.
         -5    1    1    0    0  501  0.59879154947E+02  0.17277854614E+02 -0.35006102291E+00  0.62500000000E+02  0.47000000000E+01 0. -1.
</event>
<event>
 3    0  0.4607503E-005  0.9118800E+02  0.7546771E-02  0.1235069E+00
         25   -1    0    0    0    0  0.00000000000E+00  0.00000000000E+00  0.99999998245E-14  0.12500000000E+03  0.12500000000E+03 0.  0.
          5    1    1    0  501    0  0.20606967391E+02 -0.27113724152E+02 -0.52195391153E+02  0.62500000000E+02  0.47000000000E+01 0.  1.
         -5    1    1    0    0  501 -0.20606967391E+02  0.27113724152E+02  0.52195391153E+02  0.62500000000E+02  0.47000000000E+01 0.  1.
</event>
<event>
 3    0  0.4607503E-005  0.9118800E+02  0.7546771E-02  0.1235069E+00
         25   -1    0    0    0    0  0.00000000000E+00  0.00000000000E+00  0.99999998245E-14  0.12500000000E+03  0.12500000000E+03 0.  0.
          5    1    1    0  501    0  0.24475591322E+02 -0.12268938121E+02 -0.55987307373E+02  0.62500000000E+02  0.47000000000E+01 0.  1.
         -5    1    1    0    0  501 -0.24475591322E+02  0.12268938121E+02  0.55987307373E+02  0.62500000000E+02  0.47000000000E+01 0.  1.
</event>
<event>
 3    0  0.4607503E-005  0.9118800E+02  0.7546771E-02  0.1235069E+00
         25   -1    0    0    0    0  0.00000000000E+00  0.00000000000E+00  0.99999998245E-14  0.12500000000E+03  0.12500000000E+03 0.  0.
          5    1    1    0  501    0  0.84573644534E+01  0.28071688001E+02 -0.54996484609E+02  0.62500000000E+02  0.47000000000E+01 0.  1.
         -5    1    1    0    0  501 -0.84573644534E+01 -0.28071688001E+02  0.54996484609E+02  0.62500000000E+02  0.47000000000E+01 0.  1.
</event>
<event>
 3    0  0.4607503E-005  0.9118800E+02  0.7546771E-02  0.1235069E+00
         25   -1    0    0    0    0  0.00000000000E+00  0.00000000000E+00  0.99999998245E-14  0.12500000000E+03  0.12500000000E+03 0.  0.
          5    1    1    0  501    0  0.79617666878E+01 -0.61649936561E+02 -0.44783471491E+01  0.62500000000E+02  0.47000000000E+01 0. -1.
         -5    1    1    0    0  501 -0.79617666878E+01  0.61649936561E+02  0.44783471491E+01  0.62500000000E+02  0.47000000000E+01 0. -1.
</event>
<event>
 3    0  0.4607503E-005  0.9118800E+02  0.7546771E-02  0.1235069E+00
         25   -1    0    0    0    0  0.00000000000E+00  0.00000000000E+00  0.99999998245E-14  0.12500000000E+03  0.12500000000E+03 0.  0.
          5    1    1    0  501    0  0.18961875887E+02  0.12374433180E+02 -0.58064452691E+02  0.62500000000E+02  0.47000000000E+01 0. -1.
         -5    1    1    0    0  501 -0.18961875887E+02 -0.12374433180E+02  0.58064452691E+02  0.62500000000E+02  0.47000000000E+01 0. -1.
</event>
<event>
 3    0  0.4607503E-005  0.9118800E+02  0.7546771E-02  0.1235069E+00
         25   -1    0    0    0    0  0.00000000000E+00  0.00000000000E+00  0.99999998245E-14  0.12500000000E+03  0.12500000000E+03 0.  0.
          5    1    1    0  501    0  0.18271701332E+01  0.41354597999E+02  0.46589898837E+02  0.62500000000E+02  0.47000000000E+01 0. -1.
         -5    1    1    0    0  501 -0.18271701332E+01 -0.41354597999E+02 -0.46589898837E+02  0.62500000000E+02  0.47000000000E+01 0. -1.
</event>
<event>
 3    0  0.4607503E-005  0.9118800E+02  0.7546771E-02  0.1235069E+00
         25   -1    0    0    0    0  0.00000000000E+00  0.00000000000E+00  0.99999998245E-14  0.12500000000E+03  0.12500000000E+03 0.  0.
          5    1    1    0  501    0  0.22664310380E+02 -0.50248571646E+02 -0.29078687772E+02  0.62500000000E+02  0.47000000000E+01 0.  1.
         -5    1    1    0    0  501 -0.22664310380E+02  0.50248571646E+02  0.29078687772E+02  0.62500000000E+02  0.47000000000E+01 0.  1.
</event>
<event>
 3    0  0.4607503E-005  0.9118800E+02  0.7546771E-02  0.1235069E+00
         25   -1    0    0    0    0  0.00000000000E+00  0.00000000000E+00  0.99999998245E-14  0.12500000000E+03  0.12500000000E+03 0.  0.
          5    1    1    0  501    0  0.17031460709E+02 -0.13674084874E+01 -0.59935127765E+02  0.62500000000E+02  0.47000000000E+01 0.  1.
         -5    1    1    0    0  501 -0.17031460709E+02  0.13674084874E+01  0.59935127765E+02  0.62500000000E+02  0.47000000000E+01 0.  1.
</event>
<event>
 3    0  0.4607503E-005  0.9118800E+02  0.7546771E-02  0.1235069E+00
         25   -1    0    0    0    0  0.00000000000E+00  0.00000000000E+00  0.99999998245E-14  0.12500000000E+03  0.12500000000E+03 0.  0.
          5    1    1    0  501    0  0.30206932442E+02 -0.54513266342E+02  0.70888169824E-01  0.62500000000E+02  0.47000000000E+01 0. -1.
         -5    1    1    0    0  501 -0.30206932442E+02  0.54513266342E+02 -0.70888169824E-01  0.62500000000E+02  0.47000000000E+01 0. -1.
</event>
<event>
 3    0  0.4607503E-005  0.9118800E+02  0.7546771E-02  0.1235069E+00
         25   -1    0    0    0    0  0.00000000000E+00  0.00000000000E+00  0.99999998245E-14  0.12500000000E+03  0.12500000000E+03 0.  0.
          5    1    1    0  501    0 -0.44431780742E+02  0.25752091043E+02  0.35310149632E+02  0.62500000000E+02  0.47000000000E+01 0. -1.
         -5    1    1    0    0  501  0.44431780742E+02 -0.25752091043E+02 -0.35310149632E+02  0.62500000000E+02  0.47000000000E+01 0. -1.
</event>
<event>
 3    0  0.4607503E-005  0.9118800E+02  0.7546771E-02  0.1235069E+00
         25   -1    0    0    0    0  0.00000000000E+00  0.00000000000E+00  0.99999998245E-14  0.12500000000E+03  0.12500000000E+03 0.  0.
          5    1    1    0  501    0 -0.10221807820E+01  0.27345528920E+02  0.55994081781E+02  0.62500000000E+02  0.47000000000E+01 0. -1.
         -5    1    1    0    0  501  0.10221807820E+01 -0.27345528920E+02 -0.55994081781E+02  0.62500000000E+02  0.47000000000E+01 0. -1.
</event>
<event>
 3    0  0.4607503E-005  0.9118800E+02  0.7546771E-02  0.1235069E+00
         25   -1    0    0    0    0  0.00000000000E+00  0.00000000000E+00  0.99999998245E-14  0.12500000000E+03  0.12500000000E+03 0.  0.
          5    1    1    0  501    0  0.46206668220E+02  0.27192173713E+02  0.31775611728E+02  0.62500000000E+02  0.47000000000E+01 0.  1.
         -5    1    1    0    0  501 -0.46206668220E+02 -0.27192173713E+02 -0.31775611728E+02  0.62500000000E+02  0.47000000000E+01 0.  1.
</event>
<event>
 3    0  0.4607503E-005  0.9118800E+02  0.7546771E-02  0.1235069E+00
         25   -1    0    0    0    0  0.00000000000E+00  0.00000000000E+00  0.99999998245E-14  0.12500000000E+03  0.12500000000E+03 0.  0.
          5    1    1    0  501    0  0.74030769070E+01 -0.46556715692E+02  0.40765508415E+02  0.62500000000E+02  0.47000000000E+01 0.  1.
         -5    1    1    0    0  501 -0.74030769070E+01  0.46556715692E+02 -0.40765508415E+02  0.62500000000E+02  0.47000000000E+01 0.  1.
</event>
<event>
 3    0  0.4607503E-005  0.9118800E+02  0.7546771E-02  0.1235069E+00
         25   -1    0    0    0    0  0.00000000000E+00  0.00000000000E+00  0.99999998245E-14  0.12500000000E+03  0.12500000000E+03 0.  0.
          5    1    1    0  501    0 -0.58591262916E+02  0.19633748444E+02  0.81080103550E+01  0.62500000000E+02  0.47000000000E+01 0.  1.
         -5    1    1    0    0  501  0.58591262916E+02 -0.19633748444E+02 -0.81080103550E+01  0.62500000000E+02  0.47000000000E+01 0.  1.
</event>
<event>
 3    0  0.4607503E-005  0.9118800E+02  0.7546771E-02  0.1235069E+00
         25   -1    0    0    0    0  0.00000000000E+00  0.00000000000E+00  0.99999998245E-14  0.12500000000E+03  0.12500000000E+03 0.  0.
          5    1    1    0  501    0  0.61150080722E+02 -0.11925880274E+02 -0.16127638780E+01  0.62500000000E+02  0.47000000000E+01 0. -1.
         -5    1    1    0    0  501 -0.61150080722E+02  0.11925880274E+02  0.16127638780E+01  0.62500000000E+02  0.47000000000E+01 0. -1.
</event>
<event>
 3    0  0.4607503E-005  0.9118800E+02  0.7546771E-02  0.1235069E+00
         25   -1    0    0    0    0  0.00000000000E+00  0.00000000000E+00  0.99999998245E-14  0.12500000000E+03  0.12500000000E+03 0.  0.
          5    1    1    0  501    0  0.21245523629E+02  0.44756402332E+02 -0.37810741543E+02  0.62500000000E+02  0.47000000000E+01 0.  1.
         -5    1    1    0    0  501 -0.21245523629E+02 -0.44756402332E+02  0.37810741543E+02  0.62500000000E+02  0.47000000000E+01 0.  1.
</event>
<event>
 3    0  0.4607503E-005  0.9118800E+02  0.7546771E-02  0.1235069E+00
         25   -1    0    0    0    0  0.00000000000E+00  0.00000000000E+00  0.99999998245E-14  0.12500000000E+03  0.12500000000E+03 0.  0.
          5    1    1    0  501    0 -0.58425078442E+02 -0.18926072143E+02  0.10605376104E+02  0.62500000000E+02  0.47000000000E+01 0. -1.
         -5    1    1    0    0  501  0.58425078442E+02  0.18926072143E+02 -0.10605376104E+02  0.62500000000E+02  0.47000000000E+01 0. -1.
</event>
<event>
 3    0  0.4607503E-005  0.9118800E+02  0.7546771E-02  0.1235069E+00
         25   -1    0    0    0    0  0.00000000000E+00  0.00000000000E+00  0.99999998245E-14  0.12500000000E+03  0.12500000000E+03 0.  0.
          5    1    1    0  501    0 -0.34250494599E+02 -0.43763959004E+02  0.28209564194E+02  0.62500000000E+02  0.47000000000E+01 0. -1.
         -5    1    1    0    0  501  0.34250494599E+02  0.43763959004E+02 -0.28209564194E+02  0.62500000000E+02  0.47000000000E+01 0. -1.
</event>
<event>
 3    0  0.4607503E-005  0.9118800E+02  0.7546771E-02  0.1235069E+00
         25   -1    0    0    0    0  0.00000000000E+00  0.00000000000E+00  0.99999998245E-14  0.12500000000E+03  0.12500000000E+03 0.  0.
          5    1    1    0  501    0 -0.20351695140E+02  0.41267233395E+02  0.42035508238E+02  0.62500000000E+02  0.47000000000E+01 0. -1.
         -5    1    1    0    0  501  0.20351695140E+02 -0.41267233395E+02 -0.42035508238E+02  0.62500000000E+02  0.47000000000E+01 0. -1.
</event>
<event>
 3    0  0.4607503E-005  0.9118800E+02  0.7546771E-02  0.1235069E+00
         25   -1    0    0    0    0  0.00000000000E+00  0.00000000000E+00  0.99999998245E-14  0.12500000000E+03  0.12500000000E+03 0.  0.
          5    1    1    0  501    0 -0.21314018389E+02  0.34782978946E+02 -0.47117056314E+02  0.62500000000E+02  0.47000000000E+01 0.  1.
         -5    1    1    0    0  501  0.21314018389E+02 -0.34782978946E+02  0.47117056314E+02  0.62500000000E+02  0.47000000000E+01 0.  1.
</event>
<event>
 3    0  0.4607503E-005  0.9118800E+02  0.7546771E-02  0.1235069E+00
         25   -1    0    0    0    0  0.00000000000E+00  0.00000000000E+00  0.99999998245E-14  0.12500000000E+03  0.12500000000E+03 0.  0.
          5    1    1    0  501    0 -0.45484419560E+02  0.29658697743E+02  0.30589037669E+02  0.62500000000E+02  0.47000000000E+01 0. -1.
         -5    1    1    0    0  501  0.45484419560E+02 -0.29658697743E+02 -0.30589037669E+02  0.62500000000E+02  0.47000000000E+01 0. -1.
</event>
<event>
 3    0  0.4607503E-005  0.9118800E+02  0.7546771E-02  0.1235069E+00
         25   -1    0    0    0    0  0.00000000000E+00  0.00000000000E+00  0.99999998245E-14  0.12500000000E+03  0.12500000000E+03 0.  0.
          5    1    1    0  501    0 -0.31986222168E+02  0.53397681452E+02  0.31191676757E+01  0.62500000000E+02  0.47000000000E+01 0.  1.
         -5    1    1    0    0  501  0.31986222168E+02 -0.53397681452E+02 -0.31191676757E+01  0.62500000000E+02  0.47000000000E+01 0.  1.
</event>
<event>
 3    0  0.4607503E-005  0.9118800E+02  0.7546771E-02  0.1235069E+00
         25   -1    0    0    0    0  0.00000000000E+00  0.00000000000E+00  0.99999998245E-14  0.12500000000E+03  0.12500000000E+03 0.  0.
          5    1    1    0  501    0 -0.14496714318E+02  0.39277198230E+02 -0.46166080332E+02  0.62500000000E+02  0.47000000000E+01 0.  1.
         -5    1    1    0    0  501  0.14496714318E+02 -0.39277198230E+02  0.46166080332E+02  0.62500000000E+02  0.47000000000E+01 0.  1.
</event>
<event>
 3    0  0.4607503E-005  0.9118800E+02  0.7546771E-02  0.1235069E+00
         25   -1    0    0    0    0  0.00000000000E+00  0.00000000000E+00  0.99999998245E-14  0.12500000000E+03  0.12500000000E+03 0.  0.
          5    1    1    0  501    0  0.27878478933E+02 -0.53474529957E+02  0.15729750737E+02  0.62500000000E+02  0.47000000000E+01 0. -1.
         -5    1    1    0    0  501 -0.27878478933E+02  0.53474529957E+02 -0.15729750737E+02  0.62500000000E+02  0.47000000000E+01 0. -1.
</event>
<event>
 3    0  0.4607503E-005  0.9118800E+02  0.7546771E-02  0.1235069E+00
         25   -1    0    0    0    0  0.00000000000E+00  0.00000000000E+00  0.99999998245E-14  0.12500000000E+03  0.12500000000E+03 0.  0.
          5    1    1    0  501    0  0.33838352120E+02 -0.68197607263E+01  0.51890430615E+02  0.62500000000E+02  0.47000000000E+01 0. -1.
         -5    1    1    0    0  501 -0.33838352120E+02  0.68197607263E+01 -0.51890430615E+02  0.62500000000E+02  0.47000000000E+01 0. -1.
</event>
<event>
 3    0  0.4607503E-005  0.9118800E+02  0.7546771E-02  0.1235069E+00
         25   -1    0    0    0    0  0.00000000000E+00  0.00000000000E+00  0.99999998245E-14  0.12500000000E+03  0.12500000000E+03 0.  0.
          5    1    1    0  501    0  0.23269888083E+02  0.35782861598E+01 -0.57705009980E+02  0.62500000000E+02  0.47000000000E+01 0. -1.
         -5    1    1    0    0  501 -0.23269888083E+02 -0.35782861598E+01  0.57705009980E+02  0.62500000000E+02  0.47000000000E+01 0. -1.
</event>
<event>
 3    0  0.4607503E-005  0.9118800E+02  0.7546771E-02  0.1235069E+00
         25   -1    0    0    0    0  0.00000000000E+00  0.00000000000E+00  0.99999998245E-14  0.12500000000E+03  0.12500000000E+03 0.  0.
          5    1    1    0  501    0 -0.33116896292E+02 -0.12634838946E+02 -0.51261993960E+02  0.62500000000E+02  0.47000000000E+01 0.  1.
         -5    1    1    0    0  501  0.33116896292E+02  0.12634838946E+02  0.51261993960E+02  0.62500000000E+02  0.47000000000E+01 0.  1.
</event>
<event>
 3    0  0.4607503E-005  0.9118800E+02  0.7546771E-02  0.1235069E+00
         25   -1    0    0    0    0  0.00000000000E+00  0.00000000000E+00  0.99999998245E-14  0.12500000000E+03  0.12500000000E+03 0.  0.
          5    1    1    0  501    0 -0.57042557447E+02  0.22895947729E+02 -0.10299622200E+02  0.62500000000E+02  0.47000000000E+01 0.  1.
         -5    1    1    0    0  501  0.57042557447E+02 -0.22895947729E+02  0.10299622200E+02  0.62500000000E+02  0.47000000000E+01 0.  1.
</event>
<event>
 3    0  0.4607503E-005  0.9118800E+02  0.7546771E-02  0.1235069E+00
         25   -1    0    0    0    0  0.00000000000E+00  0.00000000000E+00  0.99999998245E-14  0.12500000000E+03  0.12500000000E+03 0.  0.
          5    1    1    0  501    0 -0.33217269355E+02 -0.26576183980E+02 -0.45546453886E+02  0.62500000000E+02  0.47000000000E+01 0. -1.
         -5    1    1    0    0  501  0.33217269355E+02  0.26576183980E+02  0.45546453886E+02  0.62500000000E+02  0.47000000000E+01 0. -1.
</event>
<event>
 3    0  0.4607503E-005  0.9118800E+02  0.7546771E-02  0.1235069E+00
         25   -1    0    0    0    0  0.00000000000E+00  0.00000000000E+00  0.99999998245E-14  0.12500000000E+03  0.12500000000E+03 0.  0.
          5    1    1    0  501    0 -0.51104506962E+02  0.35558073539E+02  0.28482932399E+01  0.62500000000E+02  0.47000000000E+01 0. -1.
         -5    1    1    0    0  501  0.51104506962E+02 -0.35558073539E+02 -0.28482932399E+01  0.62500000000E+02  0.47000000000E+01 0. -1.
</event>
<event>
 3    0  0.4607503E-005  0.9118800E+02  0.7546771E-02  0.1235069E+00
         25   -1    0    0    0    0  0.00000000000E+00  0.00000000000E+00  0.99999998245E-14  0.12500000000E+03  0.12500000000E+03 0.  0.
          5    1    1    0  501    0  0.16319106799E+02 -0.21385372129E+02  0.56218436586E+02  0.62500000000E+02  0.47000000000E+01 0.  1.
         -5    1    1    0    0  501 -0.16319106799E+02  0.21385372129E+02 -0.56218436586E+02  0.62500000000E+02  0.47000000000E+01 0.  1.
</event>
<event>
 3    0  0.4607503E-005  0.9118800E+02  0.7546771E-02  0.1235069E+00
         25   -1    0    0    0    0  0.00000000000E+00  0.00000000000E+00  0.99999998245E-14  0.12500000000E+03  0.12500000000E+03 0.  0.
          5    1    1    0  501    0  0.24177791075E+02  0.53420374596E+02  0.21115349791E+02  0.62500000000E+02  0.47000000000E+01 0.  1.
         -5    1    1    0    0  501 -0.24177791075E+02 -0.53420374596E+02 -0.21115349791E+02  0.62500000000E+02  0.47000000000E+01 0.  1.
</event>
<event>
 3    0  0.4607503E-005  0.9118800E+02  0.7546771E-02  0.1235069E+00
         25   -1    0    0    0    0  0.00000000000E+00  0.00000000000E+00  0.99999998245E-14  0.12500000000E+03  0.12500000000E+03 0.  0.
          5    1    1    0  501    0 -0.12929662056E+02 -0.53373040834E+02  0.29466970514E+02  0.62500000000E+02  0.47000000000E+01 0. -1.
         -5    1    1    0    0  501  0.12929662056E+02  0.53373040834E+02 -0.29466970514E+02  0.62500000000E+02  0.47000000000E+01 0. -1.
</event>
<event>
 3    0  0.4607503E-005  0.9118800E+02  0.7546771E-02  0.1235069E+00
         25   -1    0    0    0    0  0.00000000000E+00  0.00000000000E+00  0.99999998245E-14  0.12500000000E+03  0.12500000000E+03 0.  0.
          5    1    1    0  501    0 -0.26340166642E+02 -0.20855032148E+02 -0.52492125651E+02  0.62500000000E+02  0.47000000000E+01 0. -1.
         -5    1    1    0    0  501  0.26340166642E+02  0.20855032148E+02  0.52492125651E+02  0.62500000000E+02  0.47000000000E+01 0. -1.
</event>
<event>
 3    0  0.4607503E-005  0.9118800E+02  0.7546771E-02  0.1235069E+00
         25   -1    0    0    0    0  0.00000000000E+00  0.00000000000E+00  0.99999998245E-14  0.12500000000E+03  0.12500000000E+03 0.  0.
          5    1    1    0  501    0 -0.25745836448E+02 -0.56686341235E+02  0.28232291742E+01  0.62500000000E+02  0.47000000000E+01 0.  1.
         -5    1    1    0    0  501  0.25745836448E+02  0.56686341235E+02 -0.28232291742E+01  0.62500000000E+02  0.47000000000E+01 0.  1.
</event>
<event>
 3    0  0.4607503E-005  0.9118800E+02  0.7546771E-02  0.1235069E+00
         25   -1    0    0    0    0  0.00000000000E+00  0.00000000000E+00  0.99999998245E-14  0.12500000000E+03  0.12500000000E+03 0.  0.
          5    1    1    0  501    0 -0.21727428273E+02  0.57800013736E+02 -0.84402175811E+01  0.62500000000E+02  0.47000000000E+01 0.  1.
         -5    1    1    0    0  501  0.21727428273E+02 -0.57800013736E+02  0.84402175811E+01  0.62500000000E+02  0.47000000000E+01 0.  1.
</event>
<event>
 3    0  0.4607503E-005  0.9118800E+02  0.7546771E-02  0.1235069E+00
         25   -1    0    0    0    0  0.00000000000E+00  0.00000000000E+00  0.99999998245E-14  0.12500000000E+03  0.12500000000E+03 0.  0.
          5    1    1    0  501    0  0.19345908049E+02  0.50621394535E+02 -0.30779380388E+02  0.62500000000E+02  0.47000000000E+01 0.  1.
         -5    1    1    0    0  501 -0.19345908049E+02 -0.50621394535E+02  0.30779380388E+02  0.62500000000E+02  0.47000000000E+01 0.  1.
</event>
<event>
 3    0  0.4607503E-005  0.9118800E+02  0.7546771E-02  0.1235069E+00
         25   -1    0    0    0    0  0.00000000000E+00  0.00000000000E+00  0.99999998245E-14  0.12500000000E+03  0.12500000000E+03 0.  0.
          5    1    1    0  501    0  0.41709118448E+02 -0.24832116019E+02  0.39088047436E+02  0.62500000000E+02  0.47000000000E+01 0.  1.
         -5    1    1    0    0  501 -0.41709118448E+02  0.24832116019E+02 -0.39088047436E+02  0.62500000000E+02  0.47000000000E+01 0.  1.
</event>
<event>
 3    0  0.4607503E-005  0.9118800E+02  0.7546771E-02  0.1235069E+00
         25   -1    0    0    0    0  0.00000000000E+00  0.00000000000E+00  0.99999998245E-14  0.12500000000E+03  0.12500000000E+03 0.  0.
          5    1    1    0  501    0 -0.54452108495E+02 -0.28080465268E+02 -0.11428707312E+02  0.62500000000E+02  0.47000000000E+01 0. -1.
         -5    1    1    0    0  501  0.54452108495E+02  0.28080465268E+02  0.11428707312E+02  0.62500000000E+02  0.47000000000E+01 0. -1.
</event>
<event>
 3    0  0.4607503E-005  0.9118800E+02  0.7546771E-02  0.1235069E+00
         25   -1    0    0    0    0  0.00000000000E+00  0.00000000000E+00  0.99999998245E-14  0.12500000000E+03  0.12500000000E+03 0.  0.
          5    1    1    0  501    0  0.40713005143E+02 -0.35251862566E+02 -0.31367457625E+02  0.62500000000E+02  0.47000000000E+01 0.  1.
         -5    1    1    0    0  501 -0.40713005143E+02  0.35251862566E+02  0.31367457625E+02  0.62500000000E+02  0.47000000000E+01 0.  1.
</event>
<event>
 3    0  0.4607503E-005  0.9118800E+02  0.7546771E-02  0.1235069E+00
         25   -1    0    0    0    0  0.00000000000E+00  0.00000000000E+00  0.99999998245E-14  0.12500000000E+03  0.12500000000E+03 0.  0.
          5    1    1    0  501    0  0.60943557948E+02  0.12321310365E+02  0.42694326924E+01  0.62500000000E+02  0.47000000000E+01 0.  1.
         -5    1    1    0    0  501 -0.60943557948E+02 -0.12321310365E+02 -0.42694326924E+01  0.62500000000E+02  0.47000000000E+01 0.  1.
</event>
<event>
 3    0  0.4607503E-005  0.9118800E+02  0.7546771E-02  0.1235069E+00
         25   -1    0    0    0    0  0.00000000000E+00  0.00000000000E+00  0.99999998245E-14  0.12500000000E+03  0.12500000000E+03 0.  0.
          5    1    1    0  501    0  0.57090381026E+02 -0.13454657602E+02  0.21067049701E+02  0.62500000000E+02  0.47000000000E+01 0. -1.
         -5    1    1    0    0  501 -0.57090381026E+02  0.13454657602E+02 -0.21067049701E+02  0.62500000000E+02  0.47000000000E+01 0. -1.
</event>
<event>
 3    0  0.4607503E-005  0.9118800E+02  0.7546771E-02  0.1235069E+00
         25   -1    0    0    0    0  0.00000000000E+00  0.00000000000E+00  0.99999998245E-14  0.12500000000E+03  0.12500000000E+03 0.  0.
          5    1    1    0  501    0 -0.44128813142E+02  0.23341051588E+02 -0.37309558580E+02  0.62500000000E+02  0.47000000000E+01 0.  1.
         -5    1    1    0    0  501  0.44128813142E+02 -0.23341051588E+02  0.37309558580E+02  0.62500000000E+02  0.47000000000E+01 0.  1.
</event>
<event>
 3    0  0.4607503E-005  0.9118800E+02  0.7546771E-02  0.1235069E+00
         25   -1    0    0    0    0  0.00000000000E+00  0.00000000000E+00  0.99999998245E-14  0.12500000000E+03  0.12500000000E+03 0.  0.
          5    1    1    0  501    0  0.38499642755E+02 -0.25625624743E+02  0.41776367294E+02  0.62500000000E+02  0.47000000000E+01 0.  1.
         -5    1    1    0    0  501 -0.38499642755E+02  0.25625624743E+02 -0.41776367294E+02  0.62500000000E+02  0.47000000000E+01 0.  1.
</event>
<event>
 3    0  0.4607503E-005  0.9118800E+02  0.7546771E-02  0.1235069E+00
         25   -1    0    0    0    0  0.00000000000E+00  0.00000000000E+00  0.99999998245E-14  0.12500000000E+03  0.12500000000E+03 0.  0.
          5    1    1    0  501    0  0.95890687732E+01  0.51315801592E+02 -0.34042594893E+02  0.62500000000E+02  0.47000000000E+01 0. -1.
         -5    1    1    0    0  501 -0.95890687732E+01 -0.51315801592E+02  0.34042594893E+02  0.62500000000E+02  0.47000000000E+01 0. -1.
</event>
<event>
 3    0  0.4607503E-005  0.9118800E+02  0.7546771E-02  0.1235069E+00
         25   -1    0    0    0    0  0.00000000000E+00  0.00000000000E+00  0.99999998245E-14  0.12500000000E+03  0.12500000000E+03 0.  0.
          5    1    1    0  501    0 -0.30557654346E+02  0.32418493987E+02 -0.43582462167E+02  0.62500000000E+02  0.47000000000E+01 0. -1.
         -5    1    1    0    0  501  0.30557654346E+02 -0.32418493987E+02  0.43582462167E+02  0.62500000000E+02  0.47000000000E+01 0. -1.
</event>
<event>
 3    0  0.4607503E-005  0.9118800E+02  0.7546771E-02  0.1235069E+00
         25   -1    0    0    0    0  0.00000000000E+00  0.00000000000E+00  0.99999998245E-14  0.12500000000E+03  0.12500000000E+03 0.  0.
          5    1    1    0  501    0 -0.29195679997E+02 -0.51371033004E+02 -0.19818911112E+02  0.62500000000E+02  0.47000000000E+01 0. -1.
         -5    1    1    0    0  501  0.29195679997E+02  0.51371033004E+02  0.19818911112E+02  0.62500000000E+02  0.47000000000E+01 0. -1.
</event>
<event>
 3    0  0.4607503E-005  0.9118800E+02  0.7546771E-02  0.1235069E+00
         25   -1    0    0    0    0  0.00000000000E+00  0.00000000000E+00  0.99999998245E-14  0.12500000000E+03  0.12500000000E+03 0.  0.
          5    1    1    0  501    0  0.35569267574E+02  0.49271208777E+02 -0.13832396392E+02  0.62500000000E+02  0.47000000000E+01 0. -1.
         -5    1    1    0    0  501 -0.35569267574E+02 -0.49271208777E+02  0.13832396392E+02  0.62500000000E+02  0.47000000000E+01 0. -1.
</event>
<event>
 3    0  0.4607503E-005  0.9118800E+02  0.7546771E-02  0.1235069E+00
         25   -1    0    0    0    0  0.00000000000E+00  0.00000000000E+00  0.99999998245E-14  0.12500000000E+03  0.12500000000E+03 0.  0.
          5    1    1    0  501    0  0.29012936703E+02  0.50209987380E+02  0.22833455085E+02  0.62500000000E+02  0.47000000000E+01 0.  1.
         -5    1    1    0    0  501 -0.29012936703E+02 -0.50209987380E+02 -0.22833455085E+02  0.62500000000E+02  0.47000000000E+01 0.  1.
</event>
<event>
 3    0  0.4607503E-005  0.9118800E+02  0.7546771E-02  0.1235069E+00
         25   -1    0    0    0    0  0.00000000000E+00  0.00000000000E+00  0.99999998245E-14  0.12500000000E+03  0.12500000000E+03 0.  0.
          5    1    1    0  501    0 -0.10605895105E+02  0.34395712288E+01 -0.61317569577E+02  0.62500000000E+02  0.47000000000E+01 0.  1.
         -5    1    1    0    0  501  0.10605895105E+02 -0.34395712288E+01  0.61317569577E+02  0.62500000000E+02  0.47000000000E+01 0.  1.
</event>
<event>
 3    0  0.4607503E-005  0.9118800E+02  0.7546771E-02  0.1235069E+00
         25   -1    0    0    0    0  0.00000000000E+00  0.00000000000E+00  0.99999998245E-14  0.12500000000E+03  0.12500000000E+03 0.  0.
          5    1    1    0  501    0 -0.12540497838E+02  0.44335417788E+02  0.41967447427E+02  0.62500000000E+02  0.47000000000E+01 0.  1.
         -5    1    1    0    0  501  0.12540497838E+02 -0.44335417788E+02 -0.41967447427E+02  0.62500000000E+02  0.47000000000E+01 0.  1.
</event>
<event>
 3    0  0.4607503E-005  0.9118800E+02  0.7546771E-02  0.1235069E+00
         25   -1    0    0    0    0  0.00000000000E+00  0.00000000000E+00  0.99999998245E-14  0.12500000000E+03  0.12500000000E+03 0.  0.
          5    1    1    0  501    0  0.22738301748E+02 -0.53251254474E+02  0.23052842138E+02  0.62500000000E+02  0.47000000000E+01 0.  1.
         -5    1    1    0    0  501 -0.22738301748E+02  0.53251254474E+02 -0.23052842138E+02  0.62500000000E+02  0.47000000000E+01 0.  1.
</event>
<event>
 3    0  0.4607503E-005  0.9118800E+02  0.7546771E-02  0.1235069E+00
         25   -1    0    0    0    0  0.00000000000E+00  0.00000000000E+00  0.99999998245E-14  0.12500000000E+03  0.12500000000E+03 0.  0.
          5    1    1    0  501    0  0.62191534586E+01 -0.36799668506E+02 -0.49912588874E+02  0.62500000000E+02  0.47000000000E+01 0.  1.
         -5    1    1    0    0  501 -0.62191534586E+01  0.36799668506E+02  0.49912588874E+02  0.62500000000E+02  0.47000000000E+01 0.  1.
</event>
<event>
 3    0  0.4607503E-005  0.9118800E+02  0.7546771E-02  0.1235069E+00
         25   -1    0    0    0    0  0.00000000000E+00  0.00000000000E+00  0.99999998245E-14  0.12500000000E+03  0.12500000000E+03 0.  0.
          5    1    1    0  501    0  0.35631515457E+02 -0.49841333277E+02  0.11419133217E+02  0.62500000000E+02  0.47000000000E+01 0. -1.
         -5    1    1    0    0  501 -0.35631515457E+02  0.49841333277E+02 -0.11419133217E+02  0.62500000000E+02  0.47000000000E+01 0. -1.
</event>
<event>
 3    0  0.4607503E-005  0.9118800E+02  0.7546771E-02  0.1235069E+00
         25   -1    0    0    0    0  0.00000000000E+00  0.00000000000E+00  0.99999998245E-14  0.12500000000E+03  0.12500000000E+03 0.  0.
          5    1    1    0  501    0  0.90929554282E+00 -0.60686217238E+02 -0.14160374960E+02  0.62500000000E+02  0.47000000000E+01 0.  1.
         -5    1    1    0    0  501 -0.90929554282E+00  0.60686217238E+02  0.14160374960E+02  0.62500000000E+02  0.47000000000E+01 0.  1.
</event>
<event>
 3    0  0.4607503E-005  0.9118800E+02  0.7546771E-02  0.1235069E+00
         25   -1    0    0    0    0  0.00000000000E+00  0.00000000000E+00  0.99999998245E-14  0.12500000000E+03  0.12500000000E+03 0.  0.
          5    1    1    0  501    0  0.57056052936E+02 -0.31091777654E+01 -0.24881716922E+02  0.62500000000E+02  0.47000000000E+01 0.  1.
         -5    1    1    0    0  501 -0.57056052936E+02  0.31091777654E+01  0.24881716922E+02  0.62500000000E+02  0.47000000000E+01 0.  1.
</event>
<event>
 3    0  0.4607503E-005  0.9118800E+02  0.7546771E-02  0.1235069E+00
         25   -1    0    0    0    0  0.00000000000E+00  0.00000000000E+00  0.99999998245E-14  0.12500000000E+03  0.12500000000E+03 0.  0.
          5    1    1    0  501    0 -0.13487698519E+02 -0.58547889019E+02  0.16564621338E+02  0.62500000000E+02  0.47000000000E+01 0. -1.
         -5    1    1    0    0  501  0.13487698519E+02  0.58547889019E+02 -0.16564621338E+02  0.62500000000E+02  0.47000000000E+01 0. -1.
</event>
<event>
 3    0  0.4607503E-005  0.9118800E+02  0.7546771E-02  0.1235069E+00
         25   -1    0    0    0    0  0.00000000000E+00  0.00000000000E+00  0.99999998245E-14  0.12500000000E+03  0.12500000000E+03 0.  0.
          5    1    1    0  501    0  0.29459084255E+02 -0.11972776653E+02  0.53600139683E+02  0.62500000000E+02  0.47000000000E+01 0.  1.
         -5    1    1    0    0  501 -0.29459084255E+02  0.11972776653E+02 -0.53600139683E+02  0.62500000000E+02  0.47000000000E+01 0.  1.
</event>
<event>
 3    0  0.4607503E-005  0.9118800E+02  0.7546771E-02  0.1235069E+00
         25   -1    0    0    0    0  0.00000000000E+00  0.00000000000E+00  0.99999998245E-14  0.12500000000E+03  0.12500000000E+03 0.  0.
          5    1    1    0  501    0 -0.34290106592E+02  0.51947489362E+02  0.31316032512E+01  0.62500000000E+02  0.47000000000E+01 0. -1.
         -5    1    1    0    0  501  0.34290106592E+02 -0.51947489362E+02 -0.31316032512E+01  0.62500000000E+02  0.47000000000E+01 0. -1.
</event>
<event>
 3    0  0.4607503E-005  0.9118800E+02  0.7546771E-02  0.1235069E+00
         25   -1    0    0    0    0  0.00000000000E+00  0.00000000000E+00  0.99999998245E-14  0.12500000000E+03  0.12500000000E+03 0.  0.
          5    1    1    0  501    0 -0.17380130530E+02  0.48159920636E+02  0.35534674715E+02  0.62500000000E+02  0.47000000000E+01 0. -1.
         -5    1    1    0    0  501  0.17380130530E+02 -0.48159920636E+02 -0.35534674715E+02  0.62500000000E+02  0.47000000000E+01 0. -1.
</event>
<event>
 3    0  0.4607503E-005  0.9118800E+02  0.7546771E-02  0.1235069E+00
         25   -1    0    0    0    0  0.00000000000E+00  0.00000000000E+00  0.99999998245E-14  0.12500000000E+03  0.12500000000E+03 0.  0.
          5    1    1    0  501    0  0.61364744625E+02 -0.92741744385E+01 -0.57024385692E+01  0.62500000000E+02  0.47000000000E+01 0.  1.
         -5    1    1    0    0  501 -0.61364744625E+02  0.92741744385E+01  0.57024385692E+01  0.62500000000E+02  0.47000000000E+01 0.  1.
</event>
<event>
 3    0  0.4607503E-005  0.9118800E+02  0.7546771E-02  0.1235069E+00
         25   -1    0    0    0    0  0.00000000000E+00  0.00000000000E+00  0.99999998245E-14  0.12500000000E+03  0.12500000000E+03 0.  0.
          5    1    1    0  501    0 -0.32974433231E+02  0.13207067139E+02 -0.51209570694E+02  0.62500000000E+02  0.47000000000E+01 0. -1.
         -5    1    1    0    0  501  0.32974433231E+02 -0.13207067139E+02  0.51209570694E+02  0.62500000000E+02  0.47000000000E+01 0. -1.
</event>
<event>
 3    0  0.4607503E-005  0.9118800E+02  0.7546771E-02  0.1235069E+00
         25   -1    0    0    0    0  0.00000000000E+00  0.00000000000E+00  0.99999998245E-14  0.12500000000E+03  0.12500000000E+03 0.  0.
          5    1    1    0  501    0  0.25398355897E+02 -0.56013299758E+02  0.10079373391E+02  0.62500000000E+02  0.47000000000E+01 0.  1.
         -5    1    1    0    0  501 -0.25398355897E+02  0.56013299758E+02 -0.10079373391E+02  0.62500000000E+02  0.47000000000E+01 0.  1.
</event>
<event>
 3    0  0.4607503E-005  0.9118800E+02  0.7546771E-02  0.1235069E+00
         25   -1    0    0    0    0  0.00000000000E+00  0.00000000000E+00  0.99999998245E-14  0.12500000000E+03  0.12500000000E+03 0.  0.
          5    1    1    0  501    0 -0.35427579085E+02 -0.48320988381E+02  0.17150181401E+02  0.62500000000E+02  0.47000000000E+01 0.  1.
         -5    1    1    0    0  501  0.35427579085E+02  0.48320988381E+02 -0.17150181401E+02  0.62500000000E+02  0.47000000000E+01 0.  1.
</event>
<event>
 3    0  0.4607503E-005  0.9118800E+02  0.7546771E-02  0.1235069E+00
         25   -1    0    0    0    0  0.00000000000E+00  0.00000000000E+00  0.99999998245E-14  0.12500000000E+03  0.12500000000E+03 0.  0.
          5    1    1    0  501    0 -0.18960880650E+02  0.37369655729E+02 -0.46131917754E+02  0.62500000000E+02  0.47000000000E+01 0. -1.
         -5    1    1    0    0  501  0.18960880650E+02 -0.37369655729E+02  0.46131917754E+02  0.62500000000E+02  0.47000000000E+01 0. -1.
</event>
<event>
 3    0  0.4607503E-005  0.9118800E+02  0.7546771E-02  0.1235069E+00
         25   -1    0    0    0    0  0.00000000000E+00  0.00000000000E+00  0.99999998245E-14  0.12500000000E+03  0.12500000000E+03 0.  0.
          5    1    1    0  501    0 -0.48590532373E+02  0.17038112805E+02  0.35111577517E+02  0.62500000000E+02  0.47000000000E+01 0.  1.
         -5    1    1    0    0  501  0.48590532373E+02 -0.17038112805E+02 -0.35111577517E+02  0.62500000000E+02  0.47000000000E+01 0.  1.
</event>
<event>
 3    0  0.4607503E-005  0.9118800E+02  0.7546771E-02  0.1235069E+00
         25   -1    0    0    0    0  0.00000000000E+00  0.00000000000E+00  0.99999998245E-14  0.12500000000E+03  0.12500000000E+03 0.  0.
          5    1    1    0  501    0  0.77749403143E+01  0.56223667441E+02  0.25741202820E+02  0.62500000000E+02  0.47000000000E+01 0.  1.
         -5    1    1    0    0  501 -0.77749403143E+01 -0.56223667441E+02 -0.25741202820E+02  0.62500000000E+02  0.47000000000E+01 0.  1.
</event>
<event>
 3    0  0.4607503E-005  0.9118800E+02  0.7546771E-02  0.1235069E+00
         25   -1    0    0    0    0  0.00000000000E+00  0.00000000000E+00  0.99999998245E-14  0.12500000000E+03  0.12500000000E+03 0.  0.
          5    1    1    0  501    0 -0.61630372127E+02 -0.84362852518E+01  0.38322738129E+01  0.62500000000E+02  0.47000000000E+01 0. -1.
         -5    1    1    0    0  501  0.61630372127E+02  0.84362852518E+01 -0.38322738129E+01  0.62500000000E+02  0.47000000000E+01 0. -1.
</event>
<event>
 3    0  0.4607503E-005  0.9118800E+02  0.7546771E-02  0.1235069E+00
         25   -1    0    0    0    0  0.00000000000E+00  0.00000000000E+00  0.99999998245E-14  0.12500000000E+03  0.12500000000E+03 0.  0.
          5    1    1    0  501    0 -0.33824300418E+02 -0.52294660489E+02 -0.23119657401E+01  0.62500000000E+02  0.47000000000E+01 0. -1.
         -5    1    1    0    0  501  0.33824300418E+02  0.52294660489E+02  0.23119657401E+01  0.62500000000E+02  0.47000000000E+01 0. -1.
</event>
<event>
 3    0  0.4607503E-005  0.9118800E+02  0.7546771E-02  0.1235069E+00
         25   -1    0    0    0    0  0.00000000000E+00  0.00000000000E+00  0.99999998245E-14  0.12500000000E+03  0.12500000000E+03 0.  0.
          5    1    1    0  501    0 -0.49741210093E+02 -0.74978432059E+01  0.36793401117E+02  0.62500000000E+02  0.47000000000E+01 0. -1.
         -5    1    1    0    0  501  0.49741210093E+02  0.74978432059E+01 -0.36793401117E+02  0.62500000000E+02  0.47000000000E+01 0. -1.
</event>
<event>
 3    0  0.4607503E-005  0.9118800E+02  0.7546771E-02  0.1235069E+00
         25   -1    0    0    0    0  0.00000000000E+00  0.00000000000E+00  0.99999998245E-14  0.12500000000E+03  0.12500000000E+03 0.  0.
          5    1    1    0  501    0 -0.58307040199E+02  0.74285753443E+01 -0.20718719352E+02  0.62500000000E+02  0.47000000000E+01 0. -1.
         -5    1    1    0    0  501  0.58307040199E+02 -0.74285753443E+01  0.20718719352E+02  0.62500000000E+02  0.47000000000E+01 0. -1.
</event>
<event>
 3    0  0.4607503E-005  0.9118800E+02  0.7546771E-02  0.1235069E+00
         25   -1    0    0    0    0  0.00000000000E+00  0.00000000000E+00  0.99999998245E-14  0.12500000000E+03  0.12500000000E+03 0.  0.
          5    1    1    0  501    0  0.52251539621E+02  0.33877605346E+02 -0.24988924062E+01  0.62500000000E+02  0.47000000000E+01 0.  1.
         -5    1    1    0    0  501 -0.52251539621E+02 -0.33877605346E+02  0.24988924062E+01  0.62500000000E+02  0.47000000000E+01 0.  1.
</event>
<event>
 3    0  0.4607503E-005  0.9118800E+02  0.7546771E-02  0.1235069E+00
         25   -1    0    0    0    0  0.00000000000E+00  0.00000000000E+00  0.99999998245E-14  0.12500000000E+03  0.12500000000E+03 0.  0.
          5    1    1    0  501    0  0.60180292308E+02  0.99489563153E+00  0.16171042033E+02  0.62500000000E+02  0.47000000000E+01 0. -1.
         -5    1    1    0    0  501 -0.60180292308E+02 -0.99489563153E+00 -0.16171042033E+02  0.62500000000E+02  0.47000000000E+01 0. -1.
</event>
<event>
 3    0  0.4607503E-005  0.9118800E+02  0.7546771E-02  0.1235069E+00
         25   -1    0    0    0    0  0.00000000000E+00  0.00000000000E+00  0.99999998245E-14  0.12500000000E+03  0.12500000000E+03 0.  0.
          5    1    1    0  501    0 -0.17219097427E+02  0.50753559072E+02 -0.31807843771E+02  0.62500000000E+02  0.47000000000E+01 0. -1.
         -5    1    1    0    0  501  0.17219097427E+02 -0.50753559072E+02  0.31807843771E+02  0.62500000000E+02  0.47000000000E+01 0. -1.
</event>
<event>
 3    0  0.4607503E-005  0.9118800E+02  0.7546771E-02  0.1235069E+00
         25   -1    0    0    0    0  0.00000000000E+00  0.00000000000E+00  0.99999998245E-14  0.12500000000E+03  0.12500000000E+03 0.  0.
          5    1    1    0  501    0  0.45448239363E+02  0.39789596550E+02  0.15342931438E+02  0.62500000000E+02  0.47000000000E+01 0.  1.
         -5    1    1    0    0  501 -0.45448239363E+02 -0.39789596550E+02 -0.15342931438E+02  0.62500000000E+02  0.47000000000E+01 0.  1.
</event>
<event>
 3    0  0.4607503E-005  0.9118800E+02  0.7546771E-02  0.1235069E+00
         25   -1    0    0    0    0  0.00000000000E+00  0.00000000000E+00  0.99999998245E-14  0.12500000000E+03  0.12500000000E+03 0.  0.
          5    1    1    0  501    0 -0.52100355571E+02 -0.17334819906E+02 -0.29482485787E+02  0.62500000000E+02  0.47000000000E+01 0.  1.
         -5    1    1    0    0  501  0.52100355571E+02  0.17334819906E+02  0.29482485787E+02  0.62500000000E+02  0.47000000000E+01 0.  1.
</event>
<event>
 3    0  0.4607503E-005  0.9118800E+02  0.7546771E-02  0.1235069E+00
         25   -1    0    0    0    0  0.00000000000E+00  0.00000000000E+00  0.99999998245E-14  0.12500000000E+03  0.12500000000E+03 0.  0.
          5    1    1    0  501    0 -0.18139660766E+02  0.18658337476E+02 -0.56630196450E+02  0.62500000000E+02  0.47000000000E+01 0.  1.
         -5    1    1    0    0  501  0.18139660766E+02 -0.18658337476E+02  0.56630196450E+02  0.62500000000E+02  0.47000000000E+01 0.  1.
</event>
<event>
 3    0  0.4607503E-005  0.9118800E+02  0.7546771E-02  0.1235069E+00
         25   -1    0    0    0    0  0.00000000000E+00  0.00000000000E+00  0.99999998245E-14  0.12500000000E+03  0.12500000000E+03 0.  0.
          5    1    1    0  501    0  0.13911979321E+02 -0.41921170727E+02  0.43968537345E+02  0.62500000000E+02  0.47000000000E+01 0.  1.
         -5    1    1    0    0  501 -0.13911979321E+02  0.41921170727E+02 -0.43968537345E+02  0.62500000000E+02  0.47000000000E+01 0.  1.
</event>
<event>
 3    0  0.4607503E-005  0.9118800E+02  0.7546771E-02  0.1235069E+00
         25   -1    0    0    0    0  0.00000000000E+00  0.00000000000E+00  0.99999998245E-14  0.12500000000E+03  0.12500000000E+03 0.  0.
          5    1    1    0  501    0  0.60951722779E+02 -0.11554531714E+02 -0.59615675056E+01  0.62500000000E+02  0.47000000000E+01 0. -1.
         -5    1    1    0    0  501 -0.60951722779E+02  0.11554531714E+02  0.59615675056E+01  0.62500000000E+02  0.47000000000E+01 0. -1.
</event>
<event>
 3    0  0.4607503E-005  0.9118800E+02  0.7546771E-02  0.1235069E+00
         25   -1    0    0    0    0  0.00000000000E+00  0.00000000000E+00  0.99999998245E-14  0.12500000000E+03  0.12500000000E+03 0.  0.
          5    1    1    0  501    0 -0.43623124827E+02 -0.14149659357E+02 -0.42201541683E+02  0.62500000000E+02  0.47000000000E+01 0. -1.
         -5    1    1    0    0  501  0.43623124827E+02  0.14149659357E+02  0.42201541683E+02  0.62500000000E+02  0.47000000000E+01 0. -1.
</event>
<event>
 3    0  0.4607503E-005  0.9118800E+02  0.7546771E-02  0.1235069E+00
         25   -1    0    0    0    0  0.00000000000E+00  0.00000000000E+00  0.99999998245E-14  0.12500000000E+03  0.12500000000E+03 0.  0.
          5    1    1    0  501    0 -0.34334474561E+02 -0.50647635069E+02 -0.11837268204E+02  0.62500000000E+02  0.47000000000E+01 0.  1.
         -5    1    1    0    0  501  0.34334474561E+02  0.50647635069E+02  0.11837268204E+02  0.62500000000E+02  0.47000000000E+01 0.  1.
</event>
<event>
 3    0  0.4607503E-005  0.9118800E+02  0.7546771E-02  0.1235069E+00
         25   -1    0    0    0    0  0.00000000000E+00  0.00000000000E+00  0.99999998245E-14  0.12500000000E+03  0.12500000000E+03 0.  0.
          5    1    1    0  501    0  0.61978942623E+02  0.52553535414E+01  0.38925480639E+01  0.62500000000E+02  0.47000000000E+01 0. -1.
         -5    1    1    0    0  501 -0.61978942623E+02 -0.52553535414E+01 -0.38925480639E+01  0.62500000000E+02  0.47000000000E+01 0. -1.
</event>
<event>
 3    0  0.4607503E-005  0.9118800E+02  0.7546771E-02  0.1235069E+00
         25   -1    0    0    0    0  0.00000000000E+00  0.00000000000E+00  0.99999998245E-14  0.12500000000E+03  0.12500000000E+03 0.  0.
          5    1    1    0  501    0 -0.55758923791E+02  0.24739865949E+02  0.12768768556E+02  0.62500000000E+02  0.47000000000E+01 0.  1.
         -5    1    1    0    0  501  0.55758923791E+02 -0.24739865949E+02 -0.12768768556E+02  0.62500000000E+02  0.47000000000E+01 0.  1.
</event>
<event>
 3    0  0.4607503E-005  0.9118800E+02  0.7546771E-02  0.1235069E+00
         25   -1    0    0    0    0  0.00000000000E+00  0.00000000000E+00  0.99999998245E-14  0.12500000000E+03  0.12500000000E+03 0.  0.
          5    1    1    0  501    0 -0.39988713268E+02 -0.15622247051E+02 -0.45177518837E+02  0.62500000000E+02  0.47000000000E+01 0. -1.
         -5    1    1    0    0  501  0.39988713268E+02  0.15622247051E+02  0.45177518837E+02  0.62500000000E+02  0.47000000000E+01 0. -1.
</event>
<event>
 3    0  0.4607503E-005  0.9118800E+02  0.7546771E-02  0.1235069E+00
         25   -1    0    0    0    0  0.00000000000E+00  0.00000000000E+00  0.99999998245E-14  0.12500000000E+03  0.12500000000E+03 0.  0.
          5    1    1    0  501    0  0.44924377284E+02  0.25827495115E+02  0.34625147245E+02  0.62500000000E+02  0.47000000000E+01 0.  1.
         -5    1    1    0    0  501 -0.44924377284E+02 -0.25827495115E+02 -0.34625147245E+02  0.62500000000E+02  0.47000000000E+01 0.  1.
</event>
<event>
 3    0  0.4607503E-005  0.9118800E+02  0.7546771E-02  0.1235069E+00
         25   -1    0    0    0    0  0.00000000000E+00  0.00000000000E+00  0.99999998245E-14  0.12500000000E+03  0.12500000000E+03 0.  0.
          5    1    1    0  501    0 -0.29518075123E+02  0.34395927767E+02 -0.42775733706E+02  0.62500000000E+02  0.47000000000E+01 0.  1.
         -5    1    1    0    0  501  0.29518075123E+02 -0.34395927767E+02  0.42775733706E+02  0.62500000000E+02  0.47000000000E+01 0.  1.
</event>
<event>
 3    0  0.4607503E-005  0.9118800E+02  0.7546771E-02  0.1235069E+00
         25   -1    0    0    0    0  0.00000000000E+00  0.00000000000E+00  0.99999998245E-14  0.12500000000E+03  0.12500000000E+03 0.  0.
          5    1    1    0  501    0 -0.23785107276E+02  0.55251878387E+02 -0.16299036983E+02  0.62500000000E+02  0.47000000000E+01 0. -1.
         -5    1    1    0    0  501  0.23785107276E+02 -0.55251878387E+02  0.16299036983E+02  0.62500000000E+02  0.47000000000E+01 0. -1.
</event>
<event>
 3    0  0.4607503E-005  0.9118800E+02  0.7546771E-02  0.1235069E+00
         25   -1    0    0    0    0  0.00000000000E+00  0.00000000000E+00  0.99999998245E-14  0.12500000000E+03  0.12500000000E+03 0.  0.
          5    1    1    0  501    0 -0.48964776150E+02 -0.38536080894E+02 -0.12574442065E+01  0.62500000000E+02  0.47000000000E+01 0.  1.
         -5    1    1    0    0  501  0.48964776150E+02  0.38536080894E+02  0.12574442065E+01  0.62500000000E+02  0.47000000000E+01 0.  1.
</event>
<event>
 3    0  0.4607503E-005  0.9118800E+02  0.7546771E-02  0.1235069E+00
         25   -1    0    0    0    0  0.00000000000E+00  0.00000000000E+00  0.99999998245E-14  0.12500000000E+03  0.12500000000E+03 0.  0.
          5    1    1    0  501    0 -0.65609295570E+01 -0.39503106498E+01 -0.61850701282E+02  0.62500000000E+02  0.47000000000E+01 0.  1.
         -5    1    1    0    0  501  0.65609295570E+01  0.39503106498E+01  0.61850701282E+02  0.62500000000E+02  0.47000000000E+01 0.  1.
</event>
<event>
 3    0  0.4607503E-005  0.9118800E+02  0.7546771E-02  0.1235069E+00
         25   -1    0    0    0    0  0.00000000000E+00  0.00000000000E+00  0.99999998245E-14  0.12500000000E+03  0.12500000000E+03 0.  0.
          5    1    1    0  501    0 -0.61053959699E+02 -0.71135861873E+01 -0.10294216657E+02  0.62500000000E+02  0.47000000000E+01 0.  1.
         -5    1    1    0    0  501  0.61053959699E+02  0.71135861873E+01  0.10294216657E+02  0.62500000000E+02  0.47000000000E+01 0.  1.
</event>
<event>
 3    0  0.4607503E-005  0.9118800E+02  0.7546771E-02  0.1235069E+00
         25   -1    0    0    0    0  0.00000000000E+00  0.00000000000E+00  0.99999998245E-14  0.12500000000E+03  0.12500000000E+03 0.  0.
          5    1    1    0  501    0 -0.17231841126E+02  0.58123618649E+02  0.14452287242E+02  0.62500000000E+02  0.47000000000E+01 0.  1.
         -5    1    1    0    0  501  0.17231841126E+02 -0.58123618649E+02 -0.14452287242E+02  0.62500000000E+02  0.47000000000E+01 0.  1.
</event>
<event>
 3    0  0.4607503E-005  0.9118800E+02  0.7546771E-02  0.1235069E+00
         25   -1    0    0    0    0  0.00000000000E+00  0.00000000000E+00  0.99999998245E-14  0.12500000000E+03  0.12500000000E+03 0.  0.
          5    1    1    0  501    0  0.12476408081E+02  0.49764863338E+02 -0.35383013132E+02  0.62500000000E+02  0.47000000000E+01 0.  1.
         -5    1    1    0    0  501 -0.12476408081E+02 -0.49764863338E+02  0.35383013132E+02  0.62500000000E+02  0.47000000000E+01 0.  1.
</event>
<event>
 3    0  0.4607503E-005  0.9118800E+02  0.7546771E-02  0.1235069E+00
         25   -1    0    0    0    0  0.00000000000E+00  0.00000000000E+00  0.99999998245E-14  0.12500000000E+03  0.12500000000E+03 0.  0.
          5    1    1    0  501    0 -0.49765936007E+02  0.31130616724E+02  0.20937915746E+02  0.62500000000E+02  0.47000000000E+01 0. -1.
         -5    1    1    0    0  501  0.49765936007E+02 -0.31130616724E+02 -0.20937915746E+02  0.62500000000E+02  0.47000000000E+01 0. -1.
</event>
<event>
 3    0  0.4607503E-005  0.9118800E+02  0.7546771E-02  0.1235069E+00
         25   -1    0    0    0    0  0.00000000000E+00  0.00000000000E+00  0.99999998245E-14  0.12500000000E+03  0.12500000000E+03 0.  0.
          5    1    1    0  501    0  0.29671143716E+02  0.54805663297E+02  0.35000166074E+00  0.62500000000E+02  0.47000000000E+01 0. -1.
         -5    1    1    0    0  501 -0.29671143716E+02 -0.54805663297E+02 -0.35000166074E+00  0.62500000000E+02  0.47000000000E+01 0. -1.
</event>
<event>
 3    0  0.4607503E-005  0.9118800E+02  0.7546771E-02  0.1235069E+00
         25   -1    0    0    0    0  0.00000000000E+00  0.00000000000E+00  0.99999998245E-14  0.12500000000E+03  0.12500000000E+03 0.  0.
          5    1    1    0  501    0 -0.84124717385E+01 -0.46300767159E+02 -0.40861097387E+02  0.62500000000E+02  0.47000000000E+01 0.  1.
         -5    1    1    0    0  501  0.84124717385E+01  0.46300767159E+02  0.40861097387E+02  0.62500000000E+02  0.47000000000E+01 0.  1.
</event>
<event>
 3    0  0.4607503E-005  0.9118800E+02  0.7546771E-02  0.1235069E+00
         25   -1    0    0    0    0  0.00000000000E+00  0.00000000000E+00  0.99999998245E-14  0.12500000000E+03  0.12500000000E+03 0.  0.
          5    1    1    0  501    0  0.48514036388E+02  0.30977709332E+02 -0.23894137312E+02  0.62500000000E+02  0.47000000000E+01 0. -1.
         -5    1    1    0    0  501 -0.48514036388E+02 -0.30977709332E+02  0.23894137312E+02  0.62500000000E+02  0.47000000000E+01 0. -1.
</event>
<event>
 3    0  0.4607503E-005  0.9118800E+02  0.7546771E-02  0.1235069E+00
         25   -1    0    0    0    0  0.00000000000E+00  0.00000000000E+00  0.99999998245E-14  0.12500000000E+03  0.12500000000E+03 0.  0.
          5    1    1    0  501    0 -0.27819855796E+02 -0.41491979999E+02 -0.37264342464E+02  0.62500000000E+02  0.47000000000E+01 0. -1.
         -5    1    1    0    0  501  0.27819855796E+02  0.41491979999E+02  0.37264342464E+02  0.62500000000E+02  0.47000000000E+01 0. -1.
</event>
<event>
 3    0  0.4607503E-005  0.9118800E+02  0.7546771E-02  0.1235069E+00
         25   -1    0    0    0    0  0.00000000000E+00  0.00000000000E+00  0.99999998245E-14  0.12500000000E+03  0.12500000000E+03 0.  0.
          5    1    1    0  501    0  0.46588142716E+02  0.41381042660E+02 -0.11464146932E+01  0.62500000000E+02  0.47000000000E+01 0.  1.
         -5    1    1    0    0  501 -0.46588142716E+02 -0.41381042660E+02  0.11464146932E+01  0.62500000000E+02  0.47000000000E+01 0.  1.
</event>
<event>
 3    0  0.4607503E-005  0.9118800E+02  0.7546771E-02  0.1235069E+00
         25   -1    0    0    0    0  0.00000000000E+00  0.00000000000E+00  0.99999998245E-14  0.12500000000E+03  0.12500000000E+03 0.  0.
          5    1    1    0  501    0 -0.37011398393E+02  0.24677605374E+02 -0.43650110905E+02  0.62500000000E+02  0.47000000000E+01 0. -1.
         -5    1    1    0    0  501  0.37011398393E+02 -0.24677605374E+02  0.43650110905E+02  0.62500000000E+02  0.47000000000E+01 0. -1.
</event>
<event>
 3    0  0.4607503E-005  0.9118800E+02  0.7546771E-02  0.1235069E+00
         25   -1    0    0    0    0  0.00000000000E+00  0.00000000000E+00  0.99999998245E-14  0.12500000000E+03  0.12500000000E+03 0.  0.
          5    1    1    0  501    0  0.60343372060E+02  0.13887171076E+02  0.70699312496E+01  0.62500000000E+02  0.47000000000E+01 0.  1.
         -5    1    1    0    0  501 -0.60343372060E+02 -0.13887171076E+02 -0.70699312496E+01  0.62500000000E+02  0.47000000000E+01 0.  1.
</event>
<event>
 3    0  0.4607503E-005  0.9118800E+02  0.7546771E-02  0.1235069E+00
         25   -1    0    0    0    0  0.00000000000E+00  0.00000000000E+00  0.99999998245E-14  0.12500000000E+03  0.12500000000E+03 0.  0.
          5    1    1    0  501    0  0.37340609507E+02 -0.43303358836E+02  0.24792297093E+02  0.62500000000E+02  0.47000000000E+01 0. -1.
         -5    1    1    0    0  501 -0.37340609507E+02  0.43303358836E+02 -0.24792297093E+02  0.62500000000E+02  0.47000000000E+01 0. -1.
</event>
<event>
 3    0  0.4607503E-005  0.9118800E+02  0.7546771E-02  0.1235069E+00
         25   -1    0    0    0    0  0.00000000000E+00  0.00000000000E+00  0.99999998245E-14  0.12500000000E+03  0.12500000000E+03 0.  0.
          5    1    1    0  501    0 -0.83727610816E+01  0.17478801461E+02 -0.59233000695E+02  0.62500000000E+02  0.47000000000E+01 0.  1.
         -5    1    1    0    0  501  0.83727610816E+01 -0.17478801461E+02  0.59233000695E+02  0.62500000000E+02  0.47000000000E+01 0.  1.
</event>
<event>
 3    0  0.4607503E-005  0.9118800E+02  0.7546771E-02  0.1235069E+00
         25   -1    0    0    0    0  0.00000000000E+00  0.00000000000E+00  0.99999998245E-14  0.12500000000E+03  0.12500000000E+03 0.  0.
          5    1    1    0  501    0 -0.14839853590E+02  0.56434407832E+02  0.21888269873E+02  0.62500000000E+02  0.47000000000E+01 0. -1.
         -5    1    1    0    0  501  0.14839853590E+02 -0.56434407832E+02 -0.21888269873E+02  0.62500000000E+02  0.47000000000E+01 0. -1.
</event>
<event>
 3    0  0.4607503E-005  0.9118800E+02  0.7546771E-02  0.1235069E+00
         25   -1    0    0    0    0  0.00000000000E+00  0.00000000000E+00  0.99999998245E-14  0.12500000000E+03  0.12500000000E+03 0.  0.
          5    1    1    0  501    0  0.53571690332E+02  0.88978203460E+01 -0.30578796380E+02  0.62500000000E+02  0.47000000000E+01 0. -1.
         -5    1    1    0    0  501 -0.53571690332E+02 -0.88978203460E+01  0.30578796380E+02  0.62500000000E+02  0.47000000000E+01 0. -1.
</event>
<event>
 3    0  0.4607503E-005  0.9118800E+02  0.7546771E-02  0.1235069E+00
         25   -1    0    0    0    0  0.00000000000E+00  0.00000000000E+00  0.99999998245E-14  0.12500000000E+03  0.12500000000E+03 0.  0.
          5    1    1    0  501    0 -0.61637803348E+02 -0.58140804648E+01  0.71510605341E+01  0.62500000000E+02  0.47000000000E+01 0. -1.
         -5    1    1    0    0  501  0.61637803348E+02  0.58140804648E+01 -0.71510605341E+01  0.62500000000E+02  0.47000000000E+01 0. -1.
</event>
<event>
 3    0  0.4607503E-005  0.9118800E+02  0.7546771E-02  0.1235069E+00
         25   -1    0    0    0    0  0.00000000000E+00  0.00000000000E+00  0.99999998245E-14  0.12500000000E+03  0.12500000000E+03 0.  0.
          5    1    1    0  501    0  0.61301845780E+02  0.70601545866E+01  0.87405904369E+01  0.62500000000E+02  0.47000000000E+01 0. -1.
         -5    1    1    0    0  501 -0.61301845780E+02 -0.70601545866E+01 -0.87405904369E+01  0.62500000000E+02  0.47000000000E+01 0. -1.
</event>
<event>
 3    0  0.4607503E-005  0.9118800E+02  0.7546771E-02  0.1235069E+00
         25   -1    0    0    0    0  0.00000000000E+00  0.00000000000E+00  0.99999998245E-14  0.12500000000E+03  0.12500000000E+03 0.  0.
          5    1    1    0  501    0 -0.18086173085E+02  0.42452462880E+02 -0.41890795391E+02  0.62500000000E+02  0.47000000000E+01 0. -1.
         -5    1    1    0    0  501  0.18086173085E+02 -0.42452462880E+02  0.41890795391E+02  0.62500000000E+02  0.47000000000E+01 0. -1.
</event>
<event>
 3    0  0.4607503E-005  0.9118800E+02  0.7546771E-02  0.1235069E+00
         25   -1    0    0    0    0  0.00000000000E+00  0.00000000000E+00  0.99999998245E-14  0.12500000000E+03  0.12500000000E+03 0.  0.
          5    1    1    0  501    0 -0.54608534153E+02 -0.63475968696E+01  0.29356021727E+02  0.62500000000E+02  0.47000000000E+01 0. -1.
         -5    1    1    0    0  501  0.54608534153E+02  0.63475968696E+01 -0.29356021727E+02  0.62500000000E+02  0.47000000000E+01 0. -1.
</event>
<event>
 3    0  0.4607503E-005  0.9118800E+02  0.7546771E-02  0.1235069E+00
         25   -1    0    0    0    0  0.00000000000E+00  0.00000000000E+00  0.99999998245E-14  0.12500000000E+03  0.12500000000E+03 0.  0.
          5    1    1    0  501    0 -0.53397291073E+02  0.29300480646E+02  0.13204966490E+02  0.62500000000E+02  0.47000000000E+01 0. -1.
         -5    1    1    0    0  501  0.53397291073E+02 -0.29300480646E+02 -0.13204966490E+02  0.62500000000E+02  0.47000000000E+01 0. -1.
</event>
<event>
 3    0  0.4607503E-005  0.9118800E+02  0.7546771E-02  0.1235069E+00
         25   -1    0    0    0    0  0.00000000000E+00  0.00000000000E+00  0.99999998245E-14  0.12500000000E+03  0.12500000000E+03 0.  0.
          5    1    1    0  501    0  0.79384173230E+01 -0.45767940311E+01  0.61645717506E+02  0.62500000000E+02  0.47000000000E+01 0. -1.
         -5    1    1    0    0  501 -0.79384173230E+01  0.45767940311E+01 -0.61645717506E+02  0.62500000000E+02  0.47000000000E+01 0. -1.
</event>
<event>
 3    0  0.4607503E-005  0.9118800E+02  0.7546771E-02  0.1235069E+00
         25   -1    0    0    0    0  0.00000000000E+00  0.00000000000E+00  0.99999998245E-14  0.12500000000E+03  0.12500000000E+03 0.  0.
          5    1    1    0  501    0 -0.13009431417E+02 -0.58785732263E+02  0.16098210351E+02  0.62500000000E+02  0.47000000000E+01 0.  1.
         -5    1    1    0    0  501  0.13009431417E+02  0.58785732263E+02 -0.16098210351E+02  0.62500000000E+02  0.47000000000E+01 0.  1.
</event>
<event>
 3    0  0.4607503E-005  0.9118800E+02  0.7546771E-02  0.1235069E+00
         25   -1    0    0    0    0  0.00000000000E+00  0.00000000000E+00  0.99999998245E-14  0.12500000000E+03  0.12500000000E+03 0.  0.
          5    1    1    0  501    0 -0.81174714412E+01  0.43500827291E+02  0.43885586272E+02  0.62500000000E+02  0.47000000000E+01 0.  1.
         -5    1    1    0    0  501  0.81174714412E+01 -0.43500827291E+02 -0.43885586272E+02  0.62500000000E+02  0.47000000000E+01 0.  1.
</event>
<event>
 3    0  0.4607503E-005  0.9118800E+02  0.7546771E-02  0.1235069E+00
         25   -1    0    0    0    0  0.00000000000E+00  0.00000000000E+00  0.99999998245E-14  0.12500000000E+03  0.12500000000E+03 0.  0.
          5    1    1    0  501    0  0.34458444595E+02  0.50392225720E+02 -0.12545883114E+02  0.62500000000E+02  0.47000000000E+01 0. -1.
         -5    1    1    0    0  501 -0.34458444595E+02 -0.50392225720E+02  0.12545883114E+02  0.62500000000E+02  0.47000000000E+01 0. -1.
</event>
<event>
 3    0  0.4607503E-005  0.9118800E+02  0.7546771E-02  0.1235069E+00
         25   -1    0    0    0    0  0.00000000000E+00  0.00000000000E+00  0.99999998245E-14  0.12500000000E+03  0.12500000000E+03 0.  0.
          5    1    1    0  501    0 -0.18989952819E+02 -0.57771335617E+02  0.13638712291E+02  0.62500000000E+02  0.47000000000E+01 0. -1.
         -5    1    1    0    0  501  0.18989952819E+02  0.57771335617E+02 -0.13638712291E+02  0.62500000000E+02  0.47000000000E+01 0. -1.
</event>
<event>
 3    0  0.4607503E-005  0.9118800E+02  0.7546771E-02  0.1235069E+00
         25   -1    0    0    0    0  0.00000000000E+00  0.00000000000E+00  0.99999998245E-14  0.12500000000E+03  0.12500000000E+03 0.  0.
          5    1    1    0  501    0 -0.50225394240E+01  0.13129210454E+02  0.60717031635E+02  0.62500000000E+02  0.47000000000E+01 0. -1.
         -5    1    1    0    0  501  0.50225394240E+01 -0.13129210454E+02 -0.60717031635E+02  0.62500000000E+02  0.47000000000E+01 0. -1.
</event>
<event>
 3    0  0.4607503E-005  0.9118800E+02  0.7546771E-02  0.1235069E+00
         25   -1    0    0    0    0  0.00000000000E+00  0.00000000000E+00  0.99999998245E-14  0.12500000000E+03  0.12500000000E+03 0.  0.
          5    1    1    0  501    0 -0.10459021546E+02  0.32993325002E+02 -0.51828653982E+02  0.62500000000E+02  0.47000000000E+01 0.  1.
         -5    1    1    0    0  501  0.10459021546E+02 -0.32993325002E+02  0.51828653982E+02  0.62500000000E+02  0.47000000000E+01 0.  1.
</event>
<event>
 3    0  0.4607503E-005  0.9118800E+02  0.7546771E-02  0.1235069E+00
         25   -1    0    0    0    0  0.00000000000E+00  0.00000000000E+00  0.99999998245E-14  0.12500000000E+03  0.12500000000E+03 0.  0.
          5    1    1    0  501    0 -0.33707774202E+02  0.70523207221E+01 -0.51944304122E+02  0.62500000000E+02  0.47000000000E+01 0. -1.
         -5    1    1    0    0  501  0.33707774202E+02 -0.70523207221E+01  0.51944304122E+02  0.62500000000E+02  0.47000000000E+01 0. -1.
</event>
<event>
 3    0  0.4607503E-005  0.9118800E+02  0.7546771E-02  0.1235069E+00
         25   -1    0    0    0    0  0.00000000000E+00  0.00000000000E+00  0.99999998245E-14  0.12500000000E+03  0.12500000000E+03 0.  0.
          5    1    1    0  501    0  0.26735323682E+02 -0.21101802200E+02 -0.52192877019E+02  0.62500000000E+02  0.47000000000E+01 0.  1.
         -5    1    1    0    0  501 -0.26735323682E+02  0.21101802200E+02  0.52192877019E+02  0.62500000000E+02  0.47000000000E+01 0.  1.
</event>
<event>
 3    0  0.4607503E-005  0.9118800E+02  0.7546771E-02  0.1235069E+00
         25   -1    0    0    0    0  0.00000000000E+00  0.00000000000E+00  0.99999998245E-14  0.12500000000E+03  0.12500000000E+03 0.  0.
          5    1    1    0  501    0 -0.28503327311E+02  0.19387918232E+02 -0.51921372852E+02  0.62500000000E+02  0.47000000000E+01 0.  1.
         -5    1    1    0    0  501  0.28503327311E+02 -0.19387918232E+02  0.51921372852E+02  0.62500000000E+02  0.47000000000E+01 0.  1.
</event>
<event>
 3    0  0.4607503E-005  0.9118800E+02  0.7546771E-02  0.1235069E+00
         25   -1    0    0    0    0  0.00000000000E+00  0.00000000000E+00  0.99999998245E-14  0.12500000000E+03  0.12500000000E+03 0.  0.
          5    1    1    0  501    0  0.34985470672E+02 -0.43479537371E+02 -0.27743587941E+02  0.62500000000E+02  0.47000000000E+01 0. -1.
         -5    1    1    0    0  501 -0.34985470672E+02  0.43479537371E+02  0.27743587941E+02  0.62500000000E+02  0.47000000000E+01 0. -1.
</event>
<event>
 3    0  0.4607503E-005  0.9118800E+02  0.7546771E-02  0.1235069E+00
         25   -1    0    0    0    0  0.00000000000E+00  0.00000000000E+00  0.99999998245E-14  0.12500000000E+03  0.12500000000E+03 0.  0.
          5    1    1    0  501    0 -0.21942936543E+02  0.31900002906E+01 -0.58245097940E+02  0.62500000000E+02  0.47000000000E+01 0. -1.
         -5    1    1    0    0  501  0.21942936543E+02 -0.31900002906E+01  0.58245097940E+02  0.62500000000E+02  0.47000000000E+01 0. -1.
</event>
<event>
 3    0  0.4607503E-005  0.9118800E+02  0.7546771E-02  0.1235069E+00
         25   -1    0    0    0    0  0.00000000000E+00  0.00000000000E+00  0.99999998245E-14  0.12500000000E+03  0.12500000000E+03 0.  0.
          5    1    1    0  501    0 -0.59943883924E+02  0.56742867979E+00  0.17046078870E+02  0.62500000000E+02  0.47000000000E+01 0. -1.
         -5    1    1    0    0  501  0.59943883924E+02 -0.56742867979E+00 -0.17046078870E+02  0.62500000000E+02  0.47000000000E+01 0. -1.
</event>
<event>
 3    0  0.4607503E-005  0.9118800E+02  0.7546771E-02  0.1235069E+00
         25   -1    0    0    0    0  0.00000000000E+00  0.00000000000E+00  0.99999998245E-14  0.12500000000E+03  0.12500000000E+03 0.  0.
          5    1    1    0  501    0 -0.35785240301E+02 -0.20365422004E+02  0.46784892468E+02  0.62500000000E+02  0.47000000000E+01 0.  1.
         -5    1    1    0    0  501  0.35785240301E+02  0.20365422004E+02 -0.46784892468E+02  0.62500000000E+02  0.47000000000E+01 0.  1.
</event>
<event>
 3    0  0.4607503E-005  0.9118800E+02  0.7546771E-02  0.1235069E+00
         25   -1    0    0    0    0  0.00000000000E+00  0.00000000000E+00  0.99999998245E-14  0.12500000000E+03  0.12500000000E+03 0.  0.
          5    1    1    0  501    0  0.89581944585E+01 -0.47513806748E+02 -0.39323643275E+02  0.62500000000E+02  0.47000000000E+01 0. -1.
         -5    1    1    0    0  501 -0.89581944585E+01  0.47513806748E+02  0.39323643275E+02  0.62500000000E+02  0.47000000000E+01 0. -1.
</event>
<event>
 3    0  0.4607503E-005  0.9118800E+02  0.7546771E-02  0.1235069E+00
         25   -1    0    0    0    0  0.00000000000E+00  0.00000000000E+00  0.99999998245E-14  0.12500000000E+03  0.12500000000E+03 0.  0.
          5    1    1    0  501    0 -0.58899341344E+02  0.19553839078E+02  0.57162021051E+01  0.62500000000E+02  0.47000000000E+01 0. -1.
         -5    1    1    0    0  501  0.58899341344E+02 -0.19553839078E+02 -0.57162021051E+01  0.62500000000E+02  0.47000000000E+01 0. -1.
</event>
<event>
 3    0  0.4607503E-005  0.9118800E+02  0.7546771E-02  0.1235069E+00
         25   -1    0    0    0    0  0.00000000000E+00  0.00000000000E+00  0.99999998245E-14  0.12500000000E+03  0.12500000000E+03 0.  0.
          5    1    1    0  501    0 -0.54349172333E+02  0.26886642235E+02  0.14402636428E+02  0.62500000000E+02  0.47000000000E+01 0.  1.
         -5    1    1    0    0  501  0.54349172333E+02 -0.26886642235E+02 -0.14402636428E+02  0.62500000000E+02  0.47000000000E+01 0.  1.
</event>
<event>
 3    0  0.4607503E-005  0.9118800E+02  0.7546771E-02  0.1235069E+00
         25   -1    0    0    0    0  0.00000000000E+00  0.00000000000E+00  0.99999998245E-14  0.12500000000E+03  0.12500000000E+03 0.  0.
          5    1    1    0  501    0 -0.35694537427E+02 -0.49136670573E+02  0.13987408724E+02  0.62500000000E+02  0.47000000000E+01 0. -1.
         -5    1    1    0    0  501  0.35694537427E+02  0.49136670573E+02 -0.13987408724E+02  0.62500000000E+02  0.47000000000E+01 0. -1.
</event>
<event>
 3    0  0.4607503E-005  0.9118800E+02  0.7546771E-02  0.1235069E+00
         25   -1    0    0    0    0  0.00000000000E+00  0.00000000000E+00  0.99999998245E-14  0.12500000000E+03  0.12500000000E+03 0.  0.
          5    1    1    0  501    0 -0.15924896177E+02 -0.21419465384E+01  0.60216025664E+02  0.62500000000E+02  0.47000000000E+01 0.  1.
         -5    1    1    0    0  501  0.15924896177E+02  0.21419465384E+01 -0.60216025664E+02  0.62500000000E+02  0.47000000000E+01 0.  1.
</event>
<event>
 3    0  0.4607503E-005  0.9118800E+02  0.7546771E-02  0.1235069E+00
         25   -1    0    0    0    0  0.00000000000E+00  0.00000000000E+00  0.99999998245E-14  0.12500000000E+03  0.12500000000E+03 0.  0.
          5    1    1    0  501    0 -0.56835433399E+02  0.19445906485E+02  0.16605728871E+02  0.62500000000E+02  0.47000000000E+01 0.  1.
         -5    1    1    0    0  501  0.56835433399E+02 -0.19445906485E+02 -0.16605728871E+02  0.62500000000E+02  0.47000000000E+01 0.  1.
</event>
<event>
 3    0  0.4607503E-005  0.9118800E+02  0.7546771E-02  0.1235069E+00
         25   -1    0    0    0    0  0.00000000000E+00  0.00000000000E+00  0.99999998245E-14  0.12500000000E+03  0.12500000000E+03 0.  0.
          5    1    1    0  501    0 -0.62176985918E+02 -0.16753846746E+01 -0.39211616000E+01  0.62500000000E+02  0.47000000000E+01 0. -1.
         -5    1    1    0    0  501  0.62176985918E+02  0.16753846746E+01  0.39211616000E+01  0.62500000000E+02  0.47000000000E+01 0. -1.
</event>
<event>
 3    0  0.4607503E-005  0.9118800E+02  0.7546771E-02  0.1235069E+00
         25   -1    0    0    0    0  0.00000000000E+00  0.00000000000E+00  0.99999998245E-14  0.12500000000E+03  0.12500000000E+03 0.  0.
          5    1    1    0  501    0  0.61561093679E+02 -0.92080913770E+01 -0.30988382039E+01  0.62500000000E+02  0.47000000000E+01 0. -1.
         -5    1    1    0    0  501 -0.61561093679E+02  0.92080913770E+01  0.30988382039E+01  0.62500000000E+02  0.47000000000E+01 0. -1.
</event>
<event>
 3    0  0.4607503E-005  0.9118800E+02  0.7546771E-02  0.1235069E+00
         25   -1    0    0    0    0  0.00000000000E+00  0.00000000000E+00  0.99999998245E-14  0.12500000000E+03  0.12500000000E+03 0.  0.
          5    1    1    0  501    0 -0.61308156098E+02  0.10603548249E+02  0.36103684625E+01  0.62500000000E+02  0.47000000000E+01 0.  1.
         -5    1    1    0    0  501  0.61308156098E+02 -0.10603548249E+02 -0.36103684625E+01  0.62500000000E+02  0.47000000000E+01 0.  1.
</event>
<event>
 3    0  0.4607503E-005  0.9118800E+02  0.7546771E-02  0.1235069E+00
         25   -1    0    0    0    0  0.00000000000E+00  0.00000000000E+00  0.99999998245E-14  0.12500000000E+03  0.12500000000E+03 0.  0.
          5    1    1    0  501    0  0.30043408260E+02 -0.13223097717E+02  0.52978328653E+02  0.62500000000E+02  0.47000000000E+01 0.  1.
         -5    1    1    0    0  501 -0.30043408260E+02  0.13223097717E+02 -0.52978328653E+02  0.62500000000E+02  0.47000000000E+01 0.  1.
</event>
<event>
 3    0  0.4607503E-005  0.9118800E+02  0.7546771E-02  0.1235069E+00
         25   -1    0    0    0    0  0.00000000000E+00  0.00000000000E+00  0.99999998245E-14  0.12500000000E+03  0.12500000000E+03 0.  0.
          5    1    1    0  501    0 -0.42285700257E+02  0.30294240956E+02  0.34326935760E+02  0.62500000000E+02  0.47000000000E+01 0.  1.
         -5    1    1    0    0  501  0.42285700257E+02 -0.30294240956E+02 -0.34326935760E+02  0.62500000000E+02  0.47000000000E+01 0.  1.
</event>
<event>
 3    0  0.4607503E-005  0.9118800E+02  0.7546771E-02  0.1235069E+00
         25   -1    0    0    0    0  0.00000000000E+00  0.00000000000E+00  0.99999998245E-14  0.12500000000E+03  0.12500000000E+03 0.  0.
          5    1    1    0  501    0 -0.25127791758E+02 -0.49078284731E+02  0.29052986925E+02  0.62500000000E+02  0.47000000000E+01 0. -1.
         -5    1    1    0    0  501  0.25127791758E+02  0.49078284731E+02 -0.29052986925E+02  0.62500000000E+02  0.47000000000E+01 0. -1.
</event>
<event>
 3    0  0.4607503E-005  0.9118800E+02  0.7546771E-02  0.1235069E+00
         25   -1    0    0    0    0  0.00000000000E+00  0.00000000000E+00  0.99999998245E-14  0.12500000000E+03  0.12500000000E+03 0.  0.
          5    1    1    0  501    0  0.33852170803E+02  0.51666202703E+02 -0.82942166719E+01  0.62500000000E+02  0.47000000000E+01 0. -1.
         -5    1    1    0    0  501 -0.33852170803E+02 -0.51666202703E+02  0.82942166719E+01  0.62500000000E+02  0.47000000000E+01 0. -1.
</event>
<event>
 3    0  0.4607503E-005  0.9118800E+02  0.7546771E-02  0.1235069E+00
         25   -1    0    0    0    0  0.00000000000E+00  0.00000000000E+00  0.99999998245E-14  0.12500000000E+03  0.12500000000E+03 0.  0.
          5    1    1    0  501    0  0.46641176706E+02  0.93114392453E+01  0.40274777897E+02  0.62500000000E+02  0.47000000000E+01 0.  1.
         -5    1    1    0    0  501 -0.46641176706E+02 -0.93114392453E+01 -0.40274777897E+02  0.62500000000E+02  0.47000000000E+01 0.  1.
</event>
<event>
 3    0  0.4607503E-005  0.9118800E+02  0.7546771E-02  0.1235069E+00
         25   -1    0    0    0    0  0.00000000000E+00  0.00000000000E+00  0.99999998245E-14  0.12500000000E+03  0.12500000000E+03 0.  0.
          5    1    1    0  501    0 -0.11743077818E+02 -0.55016805550E+02  0.26821842412E+02  0.62500000000E+02  0.47000000000E+01 0.  1.
         -5    1    1    0    0  501  0.11743077818E+02  0.55016805550E+02 -0.26821842412E+02  0.62500000000E+02  0.47000000000E+01 0.  1.
</event>
<event>
 3    0  0.4607503E-005  0.9118800E+02  0.7546771E-02  0.1235069E+00
         25   -1    0    0    0    0  0.00000000000E+00  0.00000000000E+00  0.99999998245E-14  0.12500000000E+03  0.12500000000E+03 0.  0.
          5    1    1    0  501    0  0.34227810903E+02 -0.10576334639E+02  0.50997628439E+02  0.62500000000E+02  0.47000000000E+01 0. -1.
         -5    1    1    0    0  501 -0.34227810903E+02  0.10576334639E+02 -0.50997628439E+02  0.62500000000E+02  0.47000000000E+01 0. -1.
</event>
<event>
 3    0  0.4607503E-005  0.9118800E+02  0.7546771E-02  0.1235069E+00
         25   -1    0    0    0    0  0.00000000000E+00  0.00000000000E+00  0.99999998245E-14  0.12500000000E+03  0.12500000000E+03 0.  0.
          5    1    1    0  501    0 -0.43817418976E+02  0.24509661010E+02  0.36925198868E+02  0.62500000000E+02  0.47000000000E+01 0. -1.
         -5    1    1    0    0  501  0.43817418976E+02 -0.24509661010E+02 -0.36925198868E+02  0.62500000000E+02  0.47000000000E+01 0. -1.
</event>
<event>
 3    0  0.4607503E-005  0.9118800E+02  0.7546771E-02  0.1235069E+00
         25   -1    0    0    0    0  0.00000000000E+00  0.00000000000E+00  0.99999998245E-14  0.12500000000E+03  0.12500000000E+03 0.  0.
          5    1    1    0  501    0  0.31310219241E+02  0.45848554577E+02  0.28315017468E+02  0.62500000000E+02  0.47000000000E+01 0. -1.
         -5    1    1    0    0  501 -0.31310219241E+02 -0.45848554577E+02 -0.28315017468E+02  0.62500000000E+02  0.47000000000E+01 0. -1.
</event>
<event>
 3    0  0.4607503E-005  0.9118800E+02  0.7546771E-02  0.1235069E+00
         25   -1    0    0    0    0  0.00000000000E+00  0.00000000000E+00  0.99999998245E-14  0.12500000000E+03  0.12500000000E+03 0.  0.
          5    1    1    0  501    0  0.32136378580E+02 -0.20437467924E+02 -0.49332778926E+02  0.62500000000E+02  0.47000000000E+01 0. -1.
         -5    1    1    0    0  501 -0.32136378580E+02  0.20437467924E+02  0.49332778926E+02  0.62500000000E+02  0.47000000000E+01 0. -1.
</event>
<event>
 3    0  0.4607503E-005  0.9118800E+02  0.7546771E-02  0.1235069E+00
         25   -1    0    0    0    0  0.00000000000E+00  0.00000000000E+00  0.99999998245E-14  0.12500000000E+03  0.12500000000E+03 0.  0.
          5    1    1    0  501    0 -0.70067359034E+01  0.31505262892E+02  0.53314951581E+02  0.62500000000E+02  0.47000000000E+01 0. -1.
         -5    1    1    0    0  501  0.70067359034E+01 -0.31505262892E+02 -0.53314951581E+02  0.62500000000E+02  0.47000000000E+01 0. -1.
</event>
<event>
 3    0  0.4607503E-005  0.9118800E+02  0.7546771E-02  0.1235069E+00
         25   -1    0    0    0    0  0.00000000000E+00  0.00000000000E+00  0.99999998245E-14  0.12500000000E+03  0.12500000000E+03 0.  0.
          5    1    1    0  501    0  0.38442030463E+01  0.48443145514E+02  0.39021068100E+02  0.62500000000E+02  0.47000000000E+01 0. -1.
         -5    1    1    0    0  501 -0.38442030463E+01 -0.48443145514E+02 -0.39021068100E+02  0.62500000000E+02  0.47000000000E+01 0. -1.
</event>
<event>
 3    0  0.4607503E-005  0.9118800E+02  0.7546771E-02  0.1235069E+00
         25   -1    0    0    0    0  0.00000000000E+00  0.00000000000E+00  0.99999998245E-14  0.12500000000E+03  0.12500000000E+03 0.  0.
          5    1    1    0  501    0 -0.10488117591E+02 -0.26187348325E+01  0.61378348114E+02  0.62500000000E+02  0.47000000000E+01 0. -1.
         -5    1    1    0    0  501  0.10488117591E+02  0.26187348325E+01 -0.61378348114E+02  0.62500000000E+02  0.47000000000E+01 0. -1.
</event>
<event>
 3    0  0.4607503E-005  0.9118800E+02  0.7546771E-02  0.1235069E+00
         25   -1    0    0    0    0  0.00000000000E+00  0.00000000000E+00  0.99999998245E-14  0.12500000000E+03  0.12500000000E+03 0.  0.
          5    1    1    0  501    0 -0.19898973074E+02 -0.55635825895E+02 -0.19820336718E+02  0.62500000000E+02  0.47000000000E+01 0. -1.
         -5    1    1    0    0  501  0.19898973074E+02  0.55635825895E+02  0.19820336718E+02  0.62500000000E+02  0.47000000000E+01 0. -1.
</event>
<event>
 3    0  0.4607503E-005  0.9118800E+02  0.7546771E-02  0.1235069E+00
         25   -1    0    0    0    0  0.00000000000E+00  0.00000000000E+00  0.99999998245E-14  0.12500000000E+03  0.12500000000E+03 0.  0.
          5    1    1    0  501    0 -0.59360899885E+01 -0.62018215057E+02  0.16321264668E+01  0.62500000000E+02  0.47000000000E+01 0. -1.
         -5    1    1    0    0  501  0.59360899885E+01  0.62018215057E+02 -0.16321264668E+01  0.62500000000E+02  0.47000000000E+01 0. -1.
</event>
<event>
 3    0  0.4607503E-005  0.9118800E+02  0.7546771E-02  0.1235069E+00
         25   -1    0    0    0    0  0.00000000000E+00  0.00000000000E+00  0.99999998245E-14  0.12500000000E+03  0.12500000000E+03 0.  0.
          5    1    1    0  501    0  0.22808952044E+02  0.48278069991E+02 -0.32142490019E+02  0.62500000000E+02  0.47000000000E+01 0.  1.
         -5    1    1    0    0  501 -0.22808952044E+02 -0.48278069991E+02  0.32142490019E+02  0.62500000000E+02  0.47000000000E+01 0.  1.
</event>
<event>
 3    0  0.4607503E-005  0.9118800E+02  0.7546771E-02  0.1235069E+00
         25   -1    0    0    0    0  0.00000000000E+00  0.00000000000E+00  0.99999998245E-14  0.12500000000E+03  0.12500000000E+03 0.  0.
          5    1    1    0  501    0  0.32471821960E+02  0.30917476216E+02  0.43287994214E+02  0.62500000000E+02  0.47000000000E+01 0. -1.
         -5    1    1    0    0  501 -0.32471821960E+02 -0.30917476216E+02 -0.43287994214E+02  0.62500000000E+02  0.47000000000E+01 0. -1.
</event>
<event>
 3    0  0.4607503E-005  0.9118800E+02  0.7546771E-02  0.1235069E+00
         25   -1    0    0    0    0  0.00000000000E+00  0.00000000000E+00  0.99999998245E-14  0.12500000000E+03  0.12500000000E+03 0.  0.
          5    1    1    0  501    0 -0.24514827143E+02  0.20703552136E+02  0.53427953162E+02  0.62500000000E+02  0.47000000000E+01 0.  1.
         -5    1    1    0    0  501  0.24514827143E+02 -0.20703552136E+02 -0.53427953162E+02  0.62500000000E+02  0.47000000000E+01 0.  1.
</event>
<event>
 3    0  0.4607503E-005  0.9118800E+02  0.7546771E-02  0.1235069E+00
         25   -1    0    0    0    0  0.00000000000E+00  0.00000000000E+00  0.99999998245E-14  0.12500000000E+03  0.12500000000E+03 0.  0.
          5    1    1    0  501    0 -0.13531907708E+02 -0.55814453990E+02  0.24203185731E+02  0.62500000000E+02  0.47000000000E+01 0. -1.
         -5    1    1    0    0  501  0.13531907708E+02  0.55814453990E+02 -0.24203185731E+02  0.62500000000E+02  0.47000000000E+01 0. -1.
</event>
<event>
 3    0  0.4607503E-005  0.9118800E+02  0.7546771E-02  0.1235069E+00
         25   -1    0    0    0    0  0.00000000000E+00  0.00000000000E+00  0.99999998245E-14  0.12500000000E+03  0.12500000000E+03 0.  0.
          5    1    1    0  501    0  0.11260526761E+02 -0.25313239300E+02  0.55826521056E+02  0.62500000000E+02  0.47000000000E+01 0. -1.
         -5    1    1    0    0  501 -0.11260526761E+02  0.25313239300E+02 -0.55826521056E+02  0.62500000000E+02  0.47000000000E+01 0. -1.
</event>
<event>
 3    0  0.4607503E-005  0.9118800E+02  0.7546771E-02  0.1235069E+00
         25   -1    0    0    0    0  0.00000000000E+00  0.00000000000E+00  0.99999998245E-14  0.12500000000E+03  0.12500000000E+03 0.  0.
          5    1    1    0  501    0  0.12699390101E+02  0.60937037011E+02  0.30924118969E+01  0.62500000000E+02  0.47000000000E+01 0.  1.
         -5    1    1    0    0  501 -0.12699390101E+02 -0.60937037011E+02 -0.30924118969E+01  0.62500000000E+02  0.47000000000E+01 0.  1.
</event>
<event>
 3    0  0.4607503E-005  0.9118800E+02  0.7546771E-02  0.1235069E+00
         25   -1    0    0    0    0  0.00000000000E+00  0.00000000000E+00  0.99999998245E-14  0.12500000000E+03  0.12500000000E+03 0.  0.
          5    1    1    0  501    0 -0.23466227626E+02  0.55934931303E+02 -0.14310123030E+02  0.62500000000E+02  0.47000000000E+01 0.  1.
         -5    1    1    0    0  501  0.23466227626E+02 -0.55934931303E+02  0.14310123030E+02  0.62500000000E+02  0.47000000000E+01 0.  1.
</event>
<event>
 3    0  0.4607503E-005  0.9118800E+02  0.7546771E-02  0.1235069E+00
         25   -1    0    0    0    0  0.00000000000E+00  0.00000000000E+00  0.99999998245E-14  0.12500000000E+03  0.12500000000E+03 0.  0.
          5    1    1    0  501    0 -0.16998469892E+02  0.39785837803E+02  0.44858657265E+02  0.62500000000E+02  0.47000000000E+01 0. -1.
         -5    1    1    0    0  501  0.16998469892E+02 -0.39785837803E+02 -0.44858657265E+02  0.62500000000E+02  0.47000000000E+01 0. -1.
</event>
<event>
 3    0  0.4607503E-005  0.9118800E+02  0.7546771E-02  0.1235069E+00
         25   -1    0    0    0    0  0.00000000000E+00  0.00000000000E+00  0.99999998245E-14  0.12500000000E+03  0.12500000000E+03 0.  0.
          5    1    1    0  501    0 -0.41435254791E+01  0.44564898620E+02  0.43370047355E+02  0.62500000000E+02  0.47000000000E+01 0. -1.
         -5    1    1    0    0  501  0.41435254791E+01 -0.44564898620E+02 -0.43370047355E+02  0.62500000000E+02  0.47000000000E+01 0. -1.
</event>
<event>
 3    0  0.4607503E-005  0.9118800E+02  0.7546771E-02  0.1235069E+00
         25   -1    0    0    0    0  0.00000000000E+00  0.00000000000E+00  0.99999998245E-14  0.12500000000E+03  0.12500000000E+03 0.  0.
          5    1    1    0  501    0  0.34366864906E+02 -0.27097347045E+02 -0.44371301306E+02  0.62500000000E+02  0.47000000000E+01 0. -1.
         -5    1    1    0    0  501 -0.34366864906E+02  0.27097347045E+02  0.44371301306E+02  0.62500000000E+02  0.47000000000E+01 0. -1.
</event>
<event>
 3    0  0.4607503E-005  0.9118800E+02  0.7546771E-02  0.1235069E+00
         25   -1    0    0    0    0  0.00000000000E+00  0.00000000000E+00  0.99999998245E-14  0.12500000000E+03  0.12500000000E+03 0.  0.
          5    1    1    0  501    0 -0.41463765457E+01  0.52711272190E+02  0.32992261906E+02  0.62500000000E+02  0.47000000000E+01 0.  1.
         -5    1    1    0    0  501  0.41463765457E+01 -0.52711272190E+02 -0.32992261906E+02  0.62500000000E+02  0.47000000000E+01 0.  1.
</event>
<event>
 3    0  0.4607503E-005  0.9118800E+02  0.7546771E-02  0.1235069E+00
         25   -1    0    0    0    0  0.00000000000E+00  0.00000000000E+00  0.99999998245E-14  0.12500000000E+03  0.12500000000E+03 0.  0.
          5    1    1    0  501    0  0.45966136740E+02 -0.26366466791E+02  0.32803714762E+02  0.62500000000E+02  0.47000000000E+01 0.  1.
         -5    1    1    0    0  501 -0.45966136740E+02  0.26366466791E+02 -0.32803714762E+02  0.62500000000E+02  0.47000000000E+01 0.  1.
</event>
<event>
 3    0  0.4607503E-005  0.9118800E+02  0.7546771E-02  0.1235069E+00
         25   -1    0    0    0    0  0.00000000000E+00  0.00000000000E+00  0.99999998245E-14  0.12500000000E+03  0.12500000000E+03 0.  0.
          5    1    1    0  501    0  0.11758879015E+02  0.59958336177E+02 -0.12283594232E+02  0.62500000000E+02  0.47000000000E+01 0.  1.
         -5    1    1    0    0  501 -0.11758879015E+02 -0.59958336177E+02  0.12283594232E+02  0.62500000000E+02  0.47000000000E+01 0.  1.
</event>
<event>
 3    0  0.4607503E-005  0.9118800E+02  0.7546771E-02  0.1235069E+00
         25   -1    0    0    0    0  0.00000000000E+00  0.00000000000E+00  0.99999998245E-14  0.12500000000E+03  0.12500000000E+03 0.  0.
          5    1    1    0  501    0  0.25801411490E+02  0.22989252335E+02 -0.51864645397E+02  0.62500000000E+02  0.47000000000E+01 0. -1.
         -5    1    1    0    0  501 -0.25801411490E+02 -0.22989252335E+02  0.51864645397E+02  0.62500000000E+02  0.47000000000E+01 0. -1.
</event>
<event>
 3    0  0.4607503E-005  0.9118800E+02  0.7546771E-02  0.1235069E+00
         25   -1    0    0    0    0  0.00000000000E+00  0.00000000000E+00  0.99999998245E-14  0.12500000000E+03  0.12500000000E+03 0.  0.
          5    1    1    0  501    0  0.48383927962E+02  0.29247540235E+02  0.26224738419E+02  0.62500000000E+02  0.47000000000E+01 0.  1.
         -5    1    1    0    0  501 -0.48383927962E+02 -0.29247540235E+02 -0.26224738419E+02  0.62500000000E+02  0.47000000000E+01 0.  1.
</event>
<event>
 3    0  0.4607503E-005  0.9118800E+02  0.7546771E-02  0.1235069E+00
         25   -1    0    0    0    0  0.00000000000E+00  0.00000000000E+00  0.99999998245E-14  0.12500000000E+03  0.12500000000E+03 0.  0.
          5    1    1    0  501    0 -0.19418292368E+02 -0.17804938850E+02  0.56480740736E+02  0.62500000000E+02  0.47000000000E+01 0. -1.
         -5    1    1    0    0  501  0.19418292368E+02  0.17804938850E+02 -0.56480740736E+02  0.62500000000E+02  0.47000000000E+01 0. -1.
</event>
<event>
 3    0  0.4607503E-005  0.9118800E+02  0.7546771E-02  0.1235069E+00
         25   -1    0    0    0    0  0.00000000000E+00  0.00000000000E+00  0.99999998245E-14  0.12500000000E+03  0.12500000000E+03 0.  0.
          5    1    1    0  501    0  0.29996844715E+02 -0.11364737432E+02  0.53433997139E+02  0.62500000000E+02  0.47000000000E+01 0.  1.
         -5    1    1    0    0  501 -0.29996844715E+02  0.11364737432E+02 -0.53433997139E+02  0.62500000000E+02  0.47000000000E+01 0.  1.
</event>
<event>
 3    0  0.4607503E-005  0.9118800E+02  0.7546771E-02  0.1235069E+00
         25   -1    0    0    0    0  0.00000000000E+00  0.00000000000E+00  0.99999998245E-14  0.12500000000E+03  0.12500000000E+03 0.  0.
          5    1    1    0  501    0  0.18651702028E+02  0.25719175472E+02  0.53617143010E+02  0.62500000000E+02  0.47000000000E+01 0.  1.
         -5    1    1    0    0  501 -0.18651702028E+02 -0.25719175472E+02 -0.53617143010E+02  0.62500000000E+02  0.47000000000E+01 0.  1.
</event>
<event>
 3    0  0.4607503E-005  0.9118800E+02  0.7546771E-02  0.1235069E+00
         25   -1    0    0    0    0  0.00000000000E+00  0.00000000000E+00  0.99999998245E-14  0.12500000000E+03  0.12500000000E+03 0.  0.
          5    1    1    0  501    0 -0.50829237906E+01  0.56922404708E+02  0.24862898624E+02  0.62500000000E+02  0.47000000000E+01 0.  1.
         -5    1    1    0    0  501  0.50829237906E+01 -0.56922404708E+02 -0.24862898624E+02  0.62500000000E+02  0.47000000000E+01 0.  1.
</event>
<event>
 3    0  0.4607503E-005  0.9118800E+02  0.7546771E-02  0.1235069E+00
         25   -1    0    0    0    0  0.00000000000E+00  0.00000000000E+00  0.99999998245E-14  0.12500000000E+03  0.12500000000E+03 0.  0.
          5    1    1    0  501    0  0.23330461404E+02 -0.53992513535E+02 -0.20607233022E+02  0.62500000000E+02  0.47000000000E+01 0.  1.
         -5    1    1    0    0  501 -0.23330461404E+02  0.53992513535E+02  0.20607233022E+02  0.62500000000E+02  0.47000000000E+01 0.  1.
</event>
<event>
 3    0  0.4607503E-005  0.9118800E+02  0.7546771E-02  0.1235069E+00
         25   -1    0    0    0    0  0.00000000000E+00  0.00000000000E+00  0.99999998245E-14  0.12500000000E+03  0.12500000000E+03 0.  0.
          5    1    1    0  501    0  0.92553187180E+01  0.59543393313E+02  0.15908594790E+02  0.62500000000E+02  0.47000000000E+01 0.  1.
         -5    1    1    0    0  501 -0.92553187180E+01 -0.59543393313E+02 -0.15908594790E+02  0.62500000000E+02  0.47000000000E+01 0.  1.
</event>
<event>
 3    0  0.4607503E-005  0.9118800E+02  0.7546771E-02  0.1235069E+00
         25   -1    0    0    0    0  0.00000000000E+00  0.00000000000E+00  0.99999998245E-14  0.12500000000E+03  0.12500000000E+03 0.  0.
          5    1    1    0  501    0  0.53171288689E+02 -0.15152738775E+02 -0.28764015137E+02  0.62500000000E+02  0.47000000000E+01 0. -1.
         -5    1    1    0    0  501 -0.53171288689E+02  0.15152738775E+02  0.28764015137E+02  0.62500000000E+02  0.47000000000E+01 0. -1.
</event>
<event>
 3    0  0.4607503E-005  0.9118800E+02  0.7546771E-02  0.1235069E+00
         25   -1    0    0    0    0  0.00000000000E+00  0.00000000000E+00  0.99999998245E-14  0.12500000000E+03  0.12500000000E+03 0.  0.
          5    1    1    0  501    0  0.53801873137E+02 -0.18869231934E+02 -0.25168840521E+02  0.62500000000E+02  0.47000000000E+01 0. -1.
         -5    1    1    0    0  501 -0.53801873137E+02  0.18869231934E+02  0.25168840521E+02  0.62500000000E+02  0.47000000000E+01 0. -1.
</event>
<event>
 3    0  0.4607503E-005  0.9118800E+02  0.7546771E-02  0.1235069E+00
         25   -1    0    0    0    0  0.00000000000E+00  0.00000000000E+00  0.99999998245E-14  0.12500000000E+03  0.12500000000E+03 0.  0.
          5    1    1    0  501    0  0.20928155493E+02 -0.48373814360E+02  0.33258779170E+02  0.62500000000E+02  0.47000000000E+01 0. -1.
         -5    1    1    0    0  501 -0.20928155493E+02  0.48373814360E+02 -0.33258779170E+02  0.62500000000E+02  0.47000000000E+01 0. -1.
</event>
<event>
 3    0  0.4607503E-005  0.9118800E+02  0.7546771E-02  0.1235069E+00
         25   -1    0    0    0    0  0.00000000000E+00  0.00000000000E+00  0.99999998245E-14  0.12500000000E+03  0.12500000000E+03 0.  0.
          5    1    1    0  501    0  0.25543655909E+01 -0.69491241771E+01 -0.61881700765E+02  0.62500000000E+02  0.47000000000E+01 0.  1.
         -5    1    1    0    0  501 -0.25543655909E+01  0.69491241771E+01  0.61881700765E+02  0.62500000000E+02  0.47000000000E+01 0.  1.
</event>
<event>
 3    0  0.4607503E-005  0.9118800E+02  0.7546771E-02  0.1235069E+00
         25   -1    0    0    0    0  0.00000000000E+00  0.00000000000E+00  0.99999998245E-14  0.12500000000E+03  0.12500000000E+03 0.  0.
          5    1    1    0  501    0  0.55709241159E+02  0.27933448727E+02 -0.60240495321E+00  0.62500000000E+02  0.47000000000E+01 0. -1.
         -5    1    1    0    0  501 -0.55709241159E+02 -0.27933448727E+02  0.60240495321E+00  0.62500000000E+02  0.47000000000E+01 0. -1.
</event>
<event>
 3    0  0.4607503E-005  0.9118800E+02  0.7546771E-02  0.1235069E+00
         25   -1    0    0    0    0  0.00000000000E+00  0.00000000000E+00  0.99999998245E-14  0.12500000000E+03  0.12500000000E+03 0.  0.
          5    1    1    0  501    0 -0.11145018449E+02  0.56803354269E+02 -0.23093884636E+02  0.62500000000E+02  0.47000000000E+01 0. -1.
         -5    1    1    0    0  501  0.11145018449E+02 -0.56803354269E+02  0.23093884636E+02  0.62500000000E+02  0.47000000000E+01 0. -1.
</event>
<event>
 3    0  0.4607503E-005  0.9118800E+02  0.7546771E-02  0.1235069E+00
         25   -1    0    0    0    0  0.00000000000E+00  0.00000000000E+00  0.99999998245E-14  0.12500000000E+03  0.12500000000E+03 0.  0.
          5    1    1    0  501    0 -0.57491987442E+01  0.20423812353E+02 -0.58600124597E+02  0.62500000000E+02  0.47000000000E+01 0. -1.
         -5    1    1    0    0  501  0.57491987442E+01 -0.20423812353E+02  0.58600124597E+02  0.62500000000E+02  0.47000000000E+01 0. -1.
</event>
<event>
 3    0  0.4607503E-005  0.9118800E+02  0.7546771E-02  0.1235069E+00
         25   -1    0    0    0    0  0.00000000000E+00  0.00000000000E+00  0.99999998245E-14  0.12500000000E+03  0.12500000000E+03 0.  0.
          5    1    1    0  501    0 -0.45259654035E+02 -0.62850354445E+01 -0.42381859871E+02  0.62500000000E+02  0.47000000000E+01 0.  1.
         -5    1    1    0    0  501  0.45259654035E+02  0.62850354445E+01  0.42381859871E+02  0.62500000000E+02  0.47000000000E+01 0.  1.
</event>
<event>
 3    0  0.4607503E-005  0.9118800E+02  0.7546771E-02  0.1235069E+00
         25   -1    0    0    0    0  0.00000000000E+00  0.00000000000E+00  0.99999998245E-14  0.12500000000E+03  0.12500000000E+03 0.  0.
          5    1    1    0  501    0  0.59982715534E+01 -0.53081701548E+02 -0.32101615212E+02  0.62500000000E+02  0.47000000000E+01 0. -1.
         -5    1    1    0    0  501 -0.59982715534E+01  0.53081701548E+02  0.32101615212E+02  0.62500000000E+02  0.47000000000E+01 0. -1.
</event>
<event>
 3    0  0.4607503E-005  0.9118800E+02  0.7546771E-02  0.1235069E+00
         25   -1    0    0    0    0  0.00000000000E+00  0.00000000000E+00  0.99999998245E-14  0.12500000000E+03  0.12500000000E+03 0.  0.
          5    1    1    0  501    0 -0.45867987238E+02 -0.36714392013E+02  0.20792815248E+02  0.62500000000E+02  0.47000000000E+01 0.  1.
         -5    1    1    0    0  501  0.45867987238E+02  0.36714392013E+02 -0.20792815248E+02  0.62500000000E+02  0.47000000000E+01 0.  1.
</event>
<event>
 3    0  0.4607503E-005  0.9118800E+02  0.7546771E-02  0.1235069E+00
         25   -1    0    0    0    0  0.00000000000E+00  0.00000000000E+00  0.99999998245E-14  0.12500000000E+03  0.12500000000E+03 0.  0.
          5    1    1    0  501    0 -0.47361106148E+02  0.22853987388E+02 -0.33448182087E+02  0.62500000000E+02  0.47000000000E+01 0.  1.
         -5    1    1    0    0  501  0.47361106148E+02 -0.22853987388E+02  0.33448182087E+02  0.62500000000E+02  0.47000000000E+01 0.  1.
</event>
<event>
 3    0  0.4607503E-005  0.9118800E+02  0.7546771E-02  0.1235069E+00
         25   -1    0    0    0    0  0.00000000000E+00  0.00000000000E+00  0.99999998245E-14  0.12500000000E+03  0.12500000000E+03 0.  0.
          5    1    1    0  501    0  0.48845121547E+02 -0.10333214614E+02  0.37303334660E+02  0.62500000000E+02  0.47000000000E+01 0. -1.
         -5    1    1    0    0  501 -0.48845121547E+02  0.10333214614E+02 -0.37303334660E+02  0.62500000000E+02  0.47000000000E+01 0. -1.
</event>
<event>
 3    0  0.4607503E-005  0.9118800E+02  0.7546771E-02  0.1235069E+00
         25   -1    0    0    0    0  0.00000000000E+00  0.00000000000E+00  0.99999998245E-14  0.12500000000E+03  0.12500000000E+03 0.  0.
          5    1    1    0  501    0  0.20358711044E+02  0.57896186406E+02  0.10849630605E+02  0.62500000000E+02  0.47000000000E+01 0.  1.
         -5    1    1    0    0  501 -0.20358711044E+02 -0.57896186406E+02 -0.10849630605E+02  0.62500000000E+02  0.47000000000E+01 0.  1.
</event>
<event>
 3    0  0.4607503E-005  0.9118800E+02  0.7546771E-02  0.1235069E+00
         25   -1    0    0    0    0  0.00000000000E+00  0.00000000000E+00  0.99999998245E-14  0.12500000000E+03  0.12500000000E+03 0.  0.
          5    1    1    0  501    0  0.51775720002E+01  0.62094237629E+02  0.12877893811E+01  0.62500000000E+02  0.47000000000E+01 0.  1.
         -5    1    1    0    0  501 -0.51775720002E+01 -0.62094237629E+02 -0.12877893811E+01  0.62500000000E+02  0.47000000000E+01 0.  1.
</event>
<event>
 3    0  0.4607503E-005  0.9118800E+02  0.7546771E-02  0.1235069E+00
         25   -1    0    0    0    0  0.00000000000E+00  0.00000000000E+00  0.99999998245E-14  0.12500000000E+03  0.12500000000E+03 0.  0.
          5    1    1    0  501    0  0.54242975012E+02 -0.29306706259E+02  0.91091508991E+01  0.62500000000E+02  0.47000000000E+01 0. -1.
         -5    1    1    0    0  501 -0.54242975012E+02  0.29306706259E+02 -0.91091508991E+01  0.62500000000E+02  0.47000000000E+01 0. -1.
</event>
<event>
 3    0  0.4607503E-005  0.9118800E+02  0.7546771E-02  0.1235069E+00
         25   -1    0    0    0    0  0.00000000000E+00  0.00000000000E+00  0.99999998245E-14  0.12500000000E+03  0.12500000000E+03 0.  0.
          5    1    1    0  501    0 -0.40275856742E+02 -0.45939384112E+02 -0.12312122119E+02  0.62500000000E+02  0.47000000000E+01 0.  1.
         -5    1    1    0    0  501  0.40275856742E+02  0.45939384112E+02  0.12312122119E+02  0.62500000000E+02  0.47000000000E+01 0.  1.
</event>
<event>
 3    0  0.4607503E-005  0.9118800E+02  0.7546771E-02  0.1235069E+00
         25   -1    0    0    0    0  0.00000000000E+00  0.00000000000E+00  0.99999998245E-14  0.12500000000E+03  0.12500000000E+03 0.  0.
          5    1    1    0  501    0  0.16944646139E+02 -0.17937694159E+02  0.57230045391E+02  0.62500000000E+02  0.47000000000E+01 0. -1.
         -5    1    1    0    0  501 -0.16944646139E+02  0.17937694159E+02 -0.57230045391E+02  0.62500000000E+02  0.47000000000E+01 0. -1.
</event>
<event>
 3    0  0.4607503E-005  0.9118800E+02  0.7546771E-02  0.1235069E+00
         25   -1    0    0    0    0  0.00000000000E+00  0.00000000000E+00  0.99999998245E-14  0.12500000000E+03  0.12500000000E+03 0.  0.
          5    1    1    0  501    0 -0.23570522239E+02 -0.76716778085E+01 -0.57181604044E+02  0.62500000000E+02  0.47000000000E+01 0.  1.
         -5    1    1    0    0  501  0.23570522239E+02  0.76716778085E+01  0.57181604044E+02  0.62500000000E+02  0.47000000000E+01 0.  1.
</event>
<event>
 3    0  0.4607503E-005  0.9118800E+02  0.7546771E-02  0.1235069E+00
         25   -1    0    0    0    0  0.00000000000E+00  0.00000000000E+00  0.99999998245E-14  0.12500000000E+03  0.12500000000E+03 0.  0.
          5    1    1    0  501    0  0.39063845108E+02  0.30064864173E+02 -0.38135022587E+02  0.62500000000E+02  0.47000000000E+01 0. -1.
         -5    1    1    0    0  501 -0.39063845108E+02 -0.30064864173E+02  0.38135022587E+02  0.62500000000E+02  0.47000000000E+01 0. -1.
</event>
<event>
 3    0  0.4607503E-005  0.9118800E+02  0.7546771E-02  0.1235069E+00
         25   -1    0    0    0    0  0.00000000000E+00  0.00000000000E+00  0.99999998245E-14  0.12500000000E+03  0.12500000000E+03 0.  0.
          5    1    1    0  501    0 -0.47750109655E+02  0.38833416276E+02  0.98006534601E+01  0.62500000000E+02  0.47000000000E+01 0.  1.
         -5    1    1    0    0  501  0.47750109655E+02 -0.38833416276E+02 -0.98006534601E+01  0.62500000000E+02  0.47000000000E+01 0.  1.
</event>
<event>
 3    0  0.4607503E-005  0.9118800E+02  0.7546771E-02  0.1235069E+00
         25   -1    0    0    0    0  0.00000000000E+00  0.00000000000E+00  0.99999998245E-14  0.12500000000E+03  0.12500000000E+03 0.  0.
          5    1    1    0  501    0  0.47936090431E+02 -0.32011278534E+02 -0.23697453044E+02  0.62500000000E+02  0.47000000000E+01 0. -1.
         -5    1    1    0    0  501 -0.47936090431E+02  0.32011278534E+02  0.23697453044E+02  0.62500000000E+02  0.47000000000E+01 0. -1.
</event>
<event>
 3    0  0.4607503E-005  0.9118800E+02  0.7546771E-02  0.1235069E+00
         25   -1    0    0    0    0  0.00000000000E+00  0.00000000000E+00  0.99999998245E-14  0.12500000000E+03  0.12500000000E+03 0.  0.
          5    1    1    0  501    0  0.23578648036E+02  0.35228579105E+02  0.45685386843E+02  0.62500000000E+02  0.47000000000E+01 0. -1.
         -5    1    1    0    0  501 -0.23578648036E+02 -0.35228579105E+02 -0.45685386843E+02  0.62500000000E+02  0.47000000000E+01 0. -1.
</event>
<event>
 3    0  0.4607503E-005  0.9118800E+02  0.7546771E-02  0.1235069E+00
         25   -1    0    0    0    0  0.00000000000E+00  0.00000000000E+00  0.99999998245E-14  0.12500000000E+03  0.12500000000E+03 0.  0.
          5    1    1    0  501    0 -0.39727370000E+02 -0.46456544043E+02 -0.12152595955E+02  0.62500000000E+02  0.47000000000E+01 0.  1.
         -5    1    1    0    0  501  0.39727370000E+02  0.46456544043E+02  0.12152595955E+02  0.62500000000E+02  0.47000000000E+01 0.  1.
</event>
<event>
 3    0  0.4607503E-005  0.9118800E+02  0.7546771E-02  0.1235069E+00
         25   -1    0    0    0    0  0.00000000000E+00  0.00000000000E+00  0.99999998245E-14  0.12500000000E+03  0.12500000000E+03 0.  0.
          5    1    1    0  501    0 -0.21377037249E+02 -0.58534005946E+02  0.97592334566E+00  0.62500000000E+02  0.47000000000E+01 0. -1.
         -5    1    1    0    0  501  0.21377037249E+02  0.58534005946E+02 -0.97592334566E+00  0.62500000000E+02  0.47000000000E+01 0. -1.
</event>
<event>
 3    0  0.4607503E-005  0.9118800E+02  0.7546771E-02  0.1235069E+00
         25   -1    0    0    0    0  0.00000000000E+00  0.00000000000E+00  0.99999998245E-14  0.12500000000E+03  0.12500000000E+03 0.  0.
          5    1    1    0  501    0 -0.18765240604E+02  0.95033766037E+01  0.58666102463E+02  0.62500000000E+02  0.47000000000E+01 0.  1.
         -5    1    1    0    0  501  0.18765240604E+02 -0.95033766037E+01 -0.58666102463E+02  0.62500000000E+02  0.47000000000E+01 0.  1.
</event>
<event>
 3    0  0.4607503E-005  0.9118800E+02  0.7546771E-02  0.1235069E+00
         25   -1    0    0    0    0  0.00000000000E+00  0.00000000000E+00  0.99999998245E-14  0.12500000000E+03  0.12500000000E+03 0.  0.
          5    1    1    0  501    0 -0.21001312392E+02  0.58242211236E+02 -0.71379064245E+01  0.62500000000E+02  0.47000000000E+01 0. -1.
         -5    1    1    0    0  501  0.21001312392E+02 -0.58242211236E+02  0.71379064245E+01  0.62500000000E+02  0.47000000000E+01 0. -1.
</event>
<event>
 3    0  0.4607503E-005  0.9118800E+02  0.7546771E-02  0.1235069E+00
         25   -1    0    0    0    0  0.00000000000E+00  0.00000000000E+00  0.99999998245E-14  0.12500000000E+03  0.12500000000E+03 0.  0.
          5    1    1    0  501    0 -0.58455271527E+02 -0.18150456823E+02  0.11734655844E+02  0.62500000000E+02  0.47000000000E+01 0. -1.
         -5    1    1    0    0  501  0.58455271527E+02  0.18150456823E+02 -0.11734655844E+02  0.62500000000E+02  0.47000000000E+01 0. -1.
</event>
<event>
 3    0  0.4607503E-005  0.9118800E+02  0.7546771E-02  0.1235069E+00
         25   -1    0    0    0    0  0.00000000000E+00  0.00000000000E+00  0.99999998245E-14  0.12500000000E+03  0.12500000000E+03 0.  0.
          5    1    1    0  501    0  0.24919636381E+02 -0.51623389481E+02  0.24458073945E+02  0.62500000000E+02  0.47000000000E+01 0. -1.
         -5    1    1    0    0  501 -0.24919636381E+02  0.51623389481E+02 -0.24458073945E+02  0.62500000000E+02  0.47000000000E+01 0. -1.
</event>
<event>
 3    0  0.4607503E-005  0.9118800E+02  0.7546771E-02  0.1235069E+00
         25   -1    0    0    0    0  0.00000000000E+00  0.00000000000E+00  0.99999998245E-14  0.12500000000E+03  0.12500000000E+03 0.  0.
          5    1    1    0  501    0 -0.51449607183E+02  0.26238770998E+01 -0.35074395072E+02  0.62500000000E+02  0.47000000000E+01 0.  1.
         -5    1    1    0    0  501  0.51449607183E+02 -0.26238770998E+01  0.35074395072E+02  0.62500000000E+02  0.47000000000E+01 0.  1.
</event>
<event>
 3    0  0.4607503E-005  0.9118800E+02  0.7546771E-02  0.1235069E+00
         25   -1    0    0    0    0  0.00000000000E+00  0.00000000000E+00  0.99999998245E-14  0.12500000000E+03  0.12500000000E+03 0.  0.
          5    1    1    0  501    0  0.92579706891E+01  0.56334057960E+02 -0.24998477803E+02  0.62500000000E+02  0.47000000000E+01 0. -1.
         -5    1    1    0    0  501 -0.92579706891E+01 -0.56334057960E+02  0.24998477803E+02  0.62500000000E+02  0.47000000000E+01 0. -1.
</event>
<event>
 3    0  0.4607503E-005  0.9118800E+02  0.7546771E-02  0.1235069E+00
         25   -1    0    0    0    0  0.00000000000E+00  0.00000000000E+00  0.99999998245E-14  0.12500000000E+03  0.12500000000E+03 0.  0.
          5    1    1    0  501    0 -0.29883539311E+02  0.22259288329E+02 -0.49956562745E+02  0.62500000000E+02  0.47000000000E+01 0. -1.
         -5    1    1    0    0  501  0.29883539311E+02 -0.22259288329E+02  0.49956562745E+02  0.62500000000E+02  0.47000000000E+01 0. -1.
</event>
<event>
 3    0  0.4607503E-005  0.9118800E+02  0.7546771E-02  0.1235069E+00
         25   -1    0    0    0    0  0.00000000000E+00  0.00000000000E+00  0.99999998245E-14  0.12500000000E+03  0.12500000000E+03 0.  0.
          5    1    1    0  501    0  0.54048123000E+02 -0.24190052306E+02  0.19437123492E+02  0.62500000000E+02  0.47000000000E+01 0.  1.
         -5    1    1    0    0  501 -0.54048123000E+02  0.24190052306E+02 -0.19437123492E+02  0.62500000000E+02  0.47000000000E+01 0.  1.
</event>
<event>
 3    0  0.4607503E-005  0.9118800E+02  0.7546771E-02  0.1235069E+00
         25   -1    0    0    0    0  0.00000000000E+00  0.00000000000E+00  0.99999998245E-14  0.12500000000E+03  0.12500000000E+03 0.  0.
          5    1    1    0  501    0 -0.35598427886E+02 -0.36480383437E+02 -0.35862146566E+02  0.62500000000E+02  0.47000000000E+01 0.  1.
         -5    1    1    0    0  501  0.35598427886E+02  0.36480383437E+02  0.35862146566E+02  0.62500000000E+02  0.47000000000E+01 0.  1.
</event>
<event>
 3    0  0.4607503E-005  0.9118800E+02  0.7546771E-02  0.1235069E+00
         25   -1    0    0    0    0  0.00000000000E+00  0.00000000000E+00  0.99999998245E-14  0.12500000000E+03  0.12500000000E+03 0.  0.
          5    1    1    0  501    0  0.50037071006E+02 -0.34047268075E+02 -0.14873972629E+02  0.62500000000E+02  0.47000000000E+01 0.  1.
         -5    1    1    0    0  501 -0.50037071006E+02  0.34047268075E+02  0.14873972629E+02  0.62500000000E+02  0.47000000000E+01 0.  1.
</event>
<event>
 3    0  0.4607503E-005  0.9118800E+02  0.7546771E-02  0.1235069E+00
         25   -1    0    0    0    0  0.00000000000E+00  0.00000000000E+00  0.99999998245E-14  0.12500000000E+03  0.12500000000E+03 0.  0.
          5    1    1    0  501    0  0.14348133866E+02 -0.53968114681E+01 -0.60408322941E+02  0.62500000000E+02  0.47000000000E+01 0. -1.
         -5    1    1    0    0  501 -0.14348133866E+02  0.53968114681E+01  0.60408322941E+02  0.62500000000E+02  0.47000000000E+01 0. -1.
</event>
<event>
 3    0  0.4607503E-005  0.9118800E+02  0.7546771E-02  0.1235069E+00
         25   -1    0    0    0    0  0.00000000000E+00  0.00000000000E+00  0.99999998245E-14  0.12500000000E+03  0.12500000000E+03 0.  0.
          5    1    1    0  501    0  0.35764278535E+02  0.41118234191E+02 -0.30238505219E+02  0.62500000000E+02  0.47000000000E+01 0.  1.
         -5    1    1    0    0  501 -0.35764278535E+02 -0.41118234191E+02  0.30238505219E+02  0.62500000000E+02  0.47000000000E+01 0.  1.
</event>
<event>
 3    0  0.4607503E-005  0.9118800E+02  0.7546771E-02  0.1235069E+00
         25   -1    0    0    0    0  0.00000000000E+00  0.00000000000E+00  0.99999998245E-14  0.12500000000E+03  0.12500000000E+03 0.  0.
          5    1    1    0  501    0  0.27586704422E+02 -0.14933218434E+02  0.53852880390E+02  0.62500000000E+02  0.47000000000E+01 0. -1.
         -5    1    1    0    0  501 -0.27586704422E+02  0.14933218434E+02 -0.53852880390E+02  0.62500000000E+02  0.47000000000E+01 0. -1.
</event>
<event>
 3    0  0.4607503E-005  0.9118800E+02  0.7546771E-02  0.1235069E+00
         25   -1    0    0    0    0  0.00000000000E+00  0.00000000000E+00  0.99999998245E-14  0.12500000000E+03  0.12500000000E+03 0.  0.
          5    1    1    0  501    0 -0.58397268046E+02  0.17179869551E+02  0.13370533535E+02  0.62500000000E+02  0.47000000000E+01 0. -1.
         -5    1    1    0    0  501  0.58397268046E+02 -0.17179869551E+02 -0.13370533535E+02  0.62500000000E+02  0.47000000000E+01 0. -1.
</event>
<event>
 3    0  0.4607503E-005  0.9118800E+02  0.7546771E-02  0.1235069E+00
         25   -1    0    0    0    0  0.00000000000E+00  0.00000000000E+00  0.99999998245E-14  0.12500000000E+03  0.12500000000E+03 0.  0.
          5    1    1    0  501    0  0.60975156823E+01 -0.43132544626E+02 -0.44570886199E+02  0.62500000000E+02  0.47000000000E+01 0.  1.
         -5    1    1    0    0  501 -0.60975156823E+01  0.43132544626E+02  0.44570886199E+02  0.62500000000E+02  0.47000000000E+01 0.  1.
</event>
<event>
 3    0  0.4607503E-005  0.9118800E+02  0.7546771E-02  0.1235069E+00
         25   -1    0    0    0    0  0.00000000000E+00  0.00000000000E+00  0.99999998245E-14  0.12500000000E+03  0.12500000000E+03 0.  0.
          5    1    1    0  501    0  0.11151873803E+02 -0.21634995600E+02 -0.57373536374E+02  0.62500000000E+02  0.47000000000E+01 0.  1.
         -5    1    1    0    0  501 -0.11151873803E+02  0.21634995600E+02  0.57373536374E+02  0.62500000000E+02  0.47000000000E+01 0.  1.
</event>
<event>
 3    0  0.4607503E-005  0.9118800E+02  0.7546771E-02  0.1235069E+00
         25   -1    0    0    0    0  0.00000000000E+00  0.00000000000E+00  0.99999998245E-14  0.12500000000E+03  0.12500000000E+03 0.  0.
          5    1    1    0  501    0  0.33387210266E+01  0.60893398562E+02  0.12845503240E+02  0.62500000000E+02  0.47000000000E+01 0. -1.
         -5    1    1    0    0  501 -0.33387210266E+01 -0.60893398562E+02 -0.12845503240E+02  0.62500000000E+02  0.47000000000E+01 0. -1.
</event>
<event>
 3    0  0.4607503E-005  0.9118800E+02  0.7546771E-02  0.1235069E+00
         25   -1    0    0    0    0  0.00000000000E+00  0.00000000000E+00  0.99999998245E-14  0.12500000000E+03  0.12500000000E+03 0.  0.
          5    1    1    0  501    0 -0.16128480139E+02  0.55344233472E+02 -0.23686450765E+02  0.62500000000E+02  0.47000000000E+01 0. -1.
         -5    1    1    0    0  501  0.16128480139E+02 -0.55344233472E+02  0.23686450765E+02  0.62500000000E+02  0.47000000000E+01 0. -1.
</event>
<event>
 3    0  0.4607503E-005  0.9118800E+02  0.7546771E-02  0.1235069E+00
         25   -1    0    0    0    0  0.00000000000E+00  0.00000000000E+00  0.99999998245E-14  0.12500000000E+03  0.12500000000E+03 0.  0.
          5    1    1    0  501    0  0.57848226992E+02 -0.17749411832E+02  0.14923170354E+02  0.62500000000E+02  0.47000000000E+01 0. -1.
         -5    1    1    0    0  501 -0.57848226992E+02  0.17749411832E+02 -0.14923170354E+02  0.62500000000E+02  0.47000000000E+01 0. -1.
</event>
<event>
 3    0  0.4607503E-005  0.9118800E+02  0.7546771E-02  0.1235069E+00
         25   -1    0    0    0    0  0.00000000000E+00  0.00000000000E+00  0.99999998245E-14  0.12500000000E+03  0.12500000000E+03 0.  0.
          5    1    1    0  501    0  0.58962823256E+02 -0.20021129345E+02  0.25884075196E+01  0.62500000000E+02  0.47000000000E+01 0.  1.
         -5    1    1    0    0  501 -0.58962823256E+02  0.20021129345E+02 -0.25884075196E+01  0.62500000000E+02  0.47000000000E+01 0.  1.
</event>
<event>
 3    0  0.4607503E-005  0.9118800E+02  0.7546771E-02  0.1235069E+00
         25   -1    0    0    0    0  0.00000000000E+00  0.00000000000E+00  0.99999998245E-14  0.12500000000E+03  0.12500000000E+03 0.  0.
          5    1    1    0  501    0  0.57535316003E+02 -0.16755705845E+02  0.17119980553E+02  0.62500000000E+02  0.47000000000E+01 0.  1.
         -5    1    1    0    0  501 -0.57535316003E+02  0.16755705845E+02 -0.17119980553E+02  0.62500000000E+02  0.47000000000E+01 0.  1.
</event>
<event>
 3    0  0.4607503E-005  0.9118800E+02  0.7546771E-02  0.1235069E+00
         25   -1    0    0    0    0  0.00000000000E+00  0.00000000000E+00  0.99999998245E-14  0.12500000000E+03  0.12500000000E+03 0.  0.
          5    1    1    0  501    0 -0.38732504579E+02  0.48527951357E+02 -0.53843315348E+01  0.62500000000E+02  0.47000000000E+01 0.  1.
         -5    1    1    0    0  501  0.38732504579E+02 -0.48527951357E+02  0.53843315348E+01  0.62500000000E+02  0.47000000000E+01 0.  1.
</event>
<event>
 3    0  0.4607503E-005  0.9118800E+02  0.7546771E-02  0.1235069E+00
         25   -1    0    0    0    0  0.00000000000E+00  0.00000000000E+00  0.99999998245E-14  0.12500000000E+03  0.12500000000E+03 0.  0.
          5    1    1    0  501    0 -0.45055469518E+02 -0.32256161500E+02 -0.28525509843E+02  0.62500000000E+02  0.47000000000E+01 0. -1.
         -5    1    1    0    0  501  0.45055469518E+02  0.32256161500E+02  0.28525509843E+02  0.62500000000E+02  0.47000000000E+01 0. -1.
</event>
<event>
 3    0  0.4607503E-005  0.9118800E+02  0.7546771E-02  0.1235069E+00
         25   -1    0    0    0    0  0.00000000000E+00  0.00000000000E+00  0.99999998245E-14  0.12500000000E+03  0.12500000000E+03 0.  0.
          5    1    1    0  501    0 -0.10699845694E+02 -0.56048668368E+02 -0.25064318789E+02  0.62500000000E+02  0.47000000000E+01 0.  1.
         -5    1    1    0    0  501  0.10699845694E+02  0.56048668368E+02  0.25064318789E+02  0.62500000000E+02  0.47000000000E+01 0.  1.
</event>
<event>
 3    0  0.4607503E-005  0.9118800E+02  0.7546771E-02  0.1235069E+00
         25   -1    0    0    0    0  0.00000000000E+00  0.00000000000E+00  0.99999998245E-14  0.12500000000E+03  0.12500000000E+03 0.  0.
          5    1    1    0  501    0 -0.52919640703E+02  0.15793549924E+02  0.28883133637E+02  0.62500000000E+02  0.47000000000E+01 0.  1.
         -5    1    1    0    0  501  0.52919640703E+02 -0.15793549924E+02 -0.28883133637E+02  0.62500000000E+02  0.47000000000E+01 0.  1.
</event>
<event>
 3    0  0.4607503E-005  0.9118800E+02  0.7546771E-02  0.1235069E+00
         25   -1    0    0    0    0  0.00000000000E+00  0.00000000000E+00  0.99999998245E-14  0.12500000000E+03  0.12500000000E+03 0.  0.
          5    1    1    0  501    0 -0.23661165831E+02  0.57547310984E+02  0.35519332880E+01  0.62500000000E+02  0.47000000000E+01 0. -1.
         -5    1    1    0    0  501  0.23661165831E+02 -0.57547310984E+02 -0.35519332880E+01  0.62500000000E+02  0.47000000000E+01 0. -1.
</event>
<event>
 3    0  0.4607503E-005  0.9118800E+02  0.7546771E-02  0.1235069E+00
         25   -1    0    0    0    0  0.00000000000E+00  0.00000000000E+00  0.99999998245E-14  0.12500000000E+03  0.12500000000E+03 0.  0.
          5    1    1    0  501    0  0.52992182325E+02 -0.31924321555E+02  0.75383224729E+01  0.62500000000E+02  0.47000000000E+01 0. -1.
         -5    1    1    0    0  501 -0.52992182325E+02  0.31924321555E+02 -0.75383224729E+01  0.62500000000E+02  0.47000000000E+01 0. -1.
</event>
<event>
 3    0  0.4607503E-005  0.9118800E+02  0.7546771E-02  0.1235069E+00
         25   -1    0    0    0    0  0.00000000000E+00  0.00000000000E+00  0.99999998245E-14  0.12500000000E+03  0.12500000000E+03 0.  0.
          5    1    1    0  501    0 -0.26225867455E+02 -0.52573640810E+02 -0.20793656922E+02  0.62500000000E+02  0.47000000000E+01 0.  1.
         -5    1    1    0    0  501  0.26225867455E+02  0.52573640810E+02  0.20793656922E+02  0.62500000000E+02  0.47000000000E+01 0.  1.
</event>
<event>
 3    0  0.4607503E-005  0.9118800E+02  0.7546771E-02  0.1235069E+00
         25   -1    0    0    0    0  0.00000000000E+00  0.00000000000E+00  0.99999998245E-14  0.12500000000E+03  0.12500000000E+03 0.  0.
          5    1    1    0  501    0 -0.51607327771E+02  0.94405650698E+01  0.33641038205E+02  0.62500000000E+02  0.47000000000E+01 0. -1.
         -5    1    1    0    0  501  0.51607327771E+02 -0.94405650698E+01 -0.33641038205E+02  0.62500000000E+02  0.47000000000E+01 0. -1.
</event>
<event>
 3    0  0.4607503E-005  0.9118800E+02  0.7546771E-02  0.1235069E+00
         25   -1    0    0    0    0  0.00000000000E+00  0.00000000000E+00  0.99999998245E-14  0.12500000000E+03  0.12500000000E+03 0.  0.
          5    1    1    0  501    0  0.42420215050E+02  0.40492136220E+02  0.21096735753E+02  0.62500000000E+02  0.47000000000E+01 0.  1.
         -5    1    1    0    0  501 -0.42420215050E+02 -0.40492136220E+02 -0.21096735753E+02  0.62500000000E+02  0.47000000000E+01 0.  1.
</event>
<event>
 3    0  0.4607503E-005  0.9118800E+02  0.7546771E-02  0.1235069E+00
         25   -1    0    0    0    0  0.00000000000E+00  0.00000000000E+00  0.99999998245E-14  0.12500000000E+03  0.12500000000E+03 0.  0.
          5    1    1    0  501    0  0.51855012433E+00 -0.27156312684E+02 -0.56093010146E+02  0.62500000000E+02  0.47000000000E+01 0.  1.
         -5    1    1    0    0  501 -0.51855012433E+00  0.27156312684E+02  0.56093010146E+02  0.62500000000E+02  0.47000000000E+01 0.  1.
</event>
<event>
 3    0  0.4607503E-005  0.9118800E+02  0.7546771E-02  0.1235069E+00
         25   -1    0    0    0    0  0.00000000000E+00  0.00000000000E+00  0.99999998245E-14  0.12500000000E+03  0.12500000000E+03 0.  0.
          5    1    1    0  501    0 -0.46786966362E+02 -0.97249837841E+01 -0.40007055241E+02  0.62500000000E+02  0.47000000000E+01 0. -1.
         -5    1    1    0    0  501  0.46786966362E+02  0.97249837841E+01  0.40007055241E+02  0.62500000000E+02  0.47000000000E+01 0. -1.
</event>
<event>
 3    0  0.4607503E-005  0.9118800E+02  0.7546771E-02  0.1235069E+00
         25   -1    0    0    0    0  0.00000000000E+00  0.00000000000E+00  0.99999998245E-14  0.12500000000E+03  0.12500000000E+03 0.  0.
          5    1    1    0  501    0  0.27911205652E+02  0.22824973890E+02  0.50834487958E+02  0.62500000000E+02  0.47000000000E+01 0.  1.
         -5    1    1    0    0  501 -0.27911205652E+02 -0.22824973890E+02 -0.50834487958E+02  0.62500000000E+02  0.47000000000E+01 0.  1.
</event>
<event>
 3    0  0.4607503E-005  0.9118800E+02  0.7546771E-02  0.1235069E+00
         25   -1    0    0    0    0  0.00000000000E+00  0.00000000000E+00  0.99999998245E-14  0.12500000000E+03  0.12500000000E+03 0.  0.
          5    1    1    0  501    0  0.59744485802E+02  0.11321104034E+02  0.13659759138E+02  0.62500000000E+02  0.47000000000E+01 0.  1.
         -5    1    1    0    0  501 -0.59744485802E+02 -0.11321104034E+02 -0.13659759138E+02  0.62500000000E+02  0.47000000000E+01 0.  1.
</event>
<event>
 3    0  0.4607503E-005  0.9118800E+02  0.7546771E-02  0.1235069E+00
         25   -1    0    0    0    0  0.00000000000E+00  0.00000000000E+00  0.99999998245E-14  0.12500000000E+03  0.12500000000E+03 0.  0.
          5    1    1    0  501    0  0.53507756850E+02  0.30061121617E+02  0.10835539855E+02  0.62500000000E+02  0.47000000000E+01 0. -1.
         -5    1    1    0    0  501 -0.53507756850E+02 -0.30061121617E+02 -0.10835539855E+02  0.62500000000E+02  0.47000000000E+01 0. -1.
</event>
<event>
 3    0  0.4607503E-005  0.9118800E+02  0.7546771E-02  0.1235069E+00
         25   -1    0    0    0    0  0.00000000000E+00  0.00000000000E+00  0.99999998245E-14  0.12500000000E+03  0.12500000000E+03 0.  0.
          5    1    1    0  501    0  0.55129437421E+02 -0.19478660048E+02  0.21575146172E+02  0.62500000000E+02  0.47000000000E+01 0. -1.
         -5    1    1    0    0  501 -0.55129437421E+02  0.19478660048E+02 -0.21575146172E+02  0.62500000000E+02  0.47000000000E+01 0. -1.
</event>
<event>
 3    0  0.4607503E-005  0.9118800E+02  0.7546771E-02  0.1235069E+00
         25   -1    0    0    0    0  0.00000000000E+00  0.00000000000E+00  0.99999998245E-14  0.12500000000E+03  0.12500000000E+03 0.  0.
          5    1    1    0  501    0 -0.36543322360E+02  0.59927968526E+01  0.50128155530E+02  0.62500000000E+02  0.47000000000E+01 0. -1.
         -5    1    1    0    0  501  0.36543322360E+02 -0.59927968526E+01 -0.50128155530E+02  0.62500000000E+02  0.47000000000E+01 0. -1.
</event>
<event>
 3    0  0.4607503E-005  0.9118800E+02  0.7546771E-02  0.1235069E+00
         25   -1    0    0    0    0  0.00000000000E+00  0.00000000000E+00  0.99999998245E-14  0.12500000000E+03  0.12500000000E+03 0.  0.
          5    1    1    0  501    0 -0.57582271370E+02  0.13826773389E+02  0.19423242818E+02  0.62500000000E+02  0.47000000000E+01 0.  1.
         -5    1    1    0    0  501  0.57582271370E+02 -0.13826773389E+02 -0.19423242818E+02  0.62500000000E+02  0.47000000000E+01 0.  1.
</event>
<event>
 3    0  0.4607503E-005  0.9118800E+02  0.7546771E-02  0.1235069E+00
         25   -1    0    0    0    0  0.00000000000E+00  0.00000000000E+00  0.99999998245E-14  0.12500000000E+03  0.12500000000E+03 0.  0.
          5    1    1    0  501    0 -0.45381704309E+02  0.34848447032E+02  0.24703170920E+02  0.62500000000E+02  0.47000000000E+01 0. -1.
         -5    1    1    0    0  501  0.45381704309E+02 -0.34848447032E+02 -0.24703170920E+02  0.62500000000E+02  0.47000000000E+01 0. -1.
</event>
<event>
 3    0  0.4607503E-005  0.9118800E+02  0.7546771E-02  0.1235069E+00
         25   -1    0    0    0    0  0.00000000000E+00  0.00000000000E+00  0.99999998245E-14  0.12500000000E+03  0.12500000000E+03 0.  0.
          5    1    1    0  501    0 -0.48293871891E+02 -0.10437653493E+02  0.37985751636E+02  0.62500000000E+02  0.47000000000E+01 0.  1.
         -5    1    1    0    0  501  0.48293871891E+02  0.10437653493E+02 -0.37985751636E+02  0.62500000000E+02  0.47000000000E+01 0.  1.
</event>
<event>
 3    0  0.4607503E-005  0.9118800E+02  0.7546771E-02  0.1235069E+00
         25   -1    0    0    0    0  0.00000000000E+00  0.00000000000E+00  0.99999998245E-14  0.12500000000E+03  0.12500000000E+03 0.  0.
          5    1    1    0  501    0 -0.28943427112E+02  0.40064642975E+02  0.37963961995E+02  0.62500000000E+02  0.47000000000E+01 0. -1.
         -5    1    1    0    0  501  0.28943427112E+02 -0.40064642975E+02 -0.37963961995E+02  0.62500000000E+02  0.47000000000E+01 0. -1.
</event>
<event>
 3    0  0.4607503E-005  0.9118800E+02  0.7546771E-02  0.1235069E+00
         25   -1    0    0    0    0  0.00000000000E+00  0.00000000000E+00  0.99999998245E-14  0.12500000000E+03  0.12500000000E+03 0.  0.
          5    1    1    0  501    0 -0.65161272572E+01 -0.61246369273E+02  0.95174753184E+01  0.62500000000E+02  0.47000000000E+01 0.  1.
         -5    1    1    0    0  501  0.65161272572E+01  0.61246369273E+02 -0.95174753184E+01  0.62500000000E+02  0.47000000000E+01 0.  1.
</event>
<event>
 3    0  0.4607503E-005  0.9118800E+02  0.7546771E-02  0.1235069E+00
         25   -1    0    0    0    0  0.00000000000E+00  0.00000000000E+00  0.99999998245E-14  0.12500000000E+03  0.12500000000E+03 0.  0.
          5    1    1    0  501    0 -0.17903055926E+01  0.62236299268E+02 -0.27564214583E+01  0.62500000000E+02  0.47000000000E+01 0.  1.
         -5    1    1    0    0  501  0.17903055926E+01 -0.62236299268E+02  0.27564214583E+01  0.62500000000E+02  0.47000000000E+01 0.  1.
</event>
<event>
 3    0  0.4607503E-005  0.9118800E+02  0.7546771E-02  0.1235069E+00
         25   -1    0    0    0    0  0.00000000000E+00  0.00000000000E+00  0.99999998245E-14  0.12500000000E+03  0.12500000000E+03 0.  0.
          5    1    1    0  501    0 -0.13644094634E+02 -0.60586933898E+02  0.52174823801E+01  0.62500000000E+02  0.47000000000E+01 0. -1.
         -5    1    1    0    0  501  0.13644094634E+02  0.60586933898E+02 -0.52174823801E+01  0.62500000000E+02  0.47000000000E+01 0. -1.
</event>
<event>
 3    0  0.4607503E-005  0.9118800E+02  0.7546771E-02  0.1235069E+00
         25   -1    0    0    0    0  0.00000000000E+00  0.00000000000E+00  0.99999998245E-14  0.12500000000E+03  0.12500000000E+03 0.  0.
          5    1    1    0  501    0  0.24834562883E+01 -0.17768647006E+02  0.59684735305E+02  0.62500000000E+02  0.47000000000E+01 0.  1.
         -5    1    1    0    0  501 -0.24834562883E+01  0.17768647006E+02 -0.59684735305E+02  0.62500000000E+02  0.47000000000E+01 0.  1.
</event>
<event>
 3    0  0.4607503E-005  0.9118800E+02  0.7546771E-02  0.1235069E+00
         25   -1    0    0    0    0  0.00000000000E+00  0.00000000000E+00  0.99999998245E-14  0.12500000000E+03  0.12500000000E+03 0.  0.
          5    1    1    0  501    0  0.57037903669E+02 -0.22508214253E+02 -0.11145305569E+02  0.62500000000E+02  0.47000000000E+01 0.  1.
         -5    1    1    0    0  501 -0.57037903669E+02  0.22508214253E+02  0.11145305569E+02  0.62500000000E+02  0.47000000000E+01 0.  1.
</event>
<event>
 3    0  0.4607503E-005  0.9118800E+02  0.7546771E-02  0.1235069E+00
         25   -1    0    0    0    0  0.00000000000E+00  0.00000000000E+00  0.99999998245E-14  0.12500000000E+03  0.12500000000E+03 0.  0.
          5    1    1    0  501    0  0.28447488777E+02 -0.49577144473E+02 -0.24839628181E+02  0.62500000000E+02  0.47000000000E+01 0. -1.
         -5    1    1    0    0  501 -0.28447488777E+02  0.49577144473E+02  0.24839628181E+02  0.62500000000E+02  0.47000000000E+01 0. -1.
</event>
<event>
 3    0  0.4607503E-005  0.9118800E+02  0.7546771E-02  0.1235069E+00
         25   -1    0    0    0    0  0.00000000000E+00  0.00000000000E+00  0.99999998245E-14  0.12500000000E+03  0.12500000000E+03 0.  0.
          5    1    1    0  501    0 -0.43319362191E+02  0.20637353041E+02 -0.39770498096E+02  0.62500000000E+02  0.47000000000E+01 0.  1.
         -5    1    1    0    0  501  0.43319362191E+02 -0.20637353041E+02  0.39770498096E+02  0.62500000000E+02  0.47000000000E+01 0.  1.
</event>
<event>
 3    0  0.4607503E-005  0.9118800E+02  0.7546771E-02  0.1235069E+00
         25   -1    0    0    0    0  0.00000000000E+00  0.00000000000E+00  0.99999998245E-14  0.12500000000E+03  0.12500000000E+03 0.  0.
          5    1    1    0  501    0  0.72939980373E+01  0.72055834726E+01 -0.61473873796E+02  0.62500000000E+02  0.47000000000E+01 0.  1.
         -5    1    1    0    0  501 -0.72939980373E+01 -0.72055834726E+01  0.61473873796E+02  0.62500000000E+02  0.47000000000E+01 0.  1.
</event>
<event>
 3    0  0.4607503E-005  0.9118800E+02  0.7546771E-02  0.1235069E+00
         25   -1    0    0    0    0  0.00000000000E+00  0.00000000000E+00  0.99999998245E-14  0.12500000000E+03  0.12500000000E+03 0.  0.
          5    1    1    0  501    0  0.55444976070E+02 -0.27959742025E+02  0.53167146276E+01  0.62500000000E+02  0.47000000000E+01 0.  1.
         -5    1    1    0    0  501 -0.55444976070E+02  0.27959742025E+02 -0.53167146276E+01  0.62500000000E+02  0.47000000000E+01 0.  1.
</event>
<event>
 3    0  0.4607503E-005  0.9118800E+02  0.7546771E-02  0.1235069E+00
         25   -1    0    0    0    0  0.00000000000E+00  0.00000000000E+00  0.99999998245E-14  0.12500000000E+03  0.12500000000E+03 0.  0.
          5    1    1    0  501    0  0.12203616160E+02  0.33591999978E+01  0.61024155283E+02  0.62500000000E+02  0.47000000000E+01 0.  1.
         -5    1    1    0    0  501 -0.12203616160E+02 -0.33591999978E+01 -0.61024155283E+02  0.62500000000E+02  0.47000000000E+01 0.  1.
</event>
<event>
 3    0  0.4607503E-005  0.9118800E+02  0.7546771E-02  0.1235069E+00
         25   -1    0    0    0    0  0.00000000000E+00  0.00000000000E+00  0.99999998245E-14  0.12500000000E+03  0.12500000000E+03 0.  0.
          5    1    1    0  501    0 -0.22739278099E+01 -0.62163222114E+02 -0.38370651207E+01  0.62500000000E+02  0.47000000000E+01 0.  1.
         -5    1    1    0    0  501  0.22739278099E+01  0.62163222114E+02  0.38370651207E+01  0.62500000000E+02  0.47000000000E+01 0.  1.
</event>
<event>
 3    0  0.4607503E-005  0.9118800E+02  0.7546771E-02  0.1235069E+00
         25   -1    0    0    0    0  0.00000000000E+00  0.00000000000E+00  0.99999998245E-14  0.12500000000E+03  0.12500000000E+03 0.  0.
          5    1    1    0  501    0 -0.11550714081E+02 -0.51802906221E+02  0.32668025825E+02  0.62500000000E+02  0.47000000000E+01 0. -1.
         -5    1    1    0    0  501  0.11550714081E+02  0.51802906221E+02 -0.32668025825E+02  0.62500000000E+02  0.47000000000E+01 0. -1.
</event>
<event>
 3    0  0.4607503E-005  0.9118800E+02  0.7546771E-02  0.1235069E+00
         25   -1    0    0    0    0  0.00000000000E+00  0.00000000000E+00  0.99999998245E-14  0.12500000000E+03  0.12500000000E+03 0.  0.
          5    1    1    0  501    0 -0.50352306355E+02 -0.24911594146E+02  0.26985509479E+02  0.62500000000E+02  0.47000000000E+01 0.  1.
         -5    1    1    0    0  501  0.50352306355E+02  0.24911594146E+02 -0.26985509479E+02  0.62500000000E+02  0.47000000000E+01 0.  1.
</event>
<event>
 3    0  0.4607503E-005  0.9118800E+02  0.7546771E-02  0.1235069E+00
         25   -1    0    0    0    0  0.00000000000E+00  0.00000000000E+00  0.99999998245E-14  0.12500000000E+03  0.12500000000E+03 0.  0.
          5    1    1    0  501    0 -0.26118876150E+01  0.13735126776E+02  0.60734539889E+02  0.62500000000E+02  0.47000000000E+01 0.  1.
         -5    1    1    0    0  501  0.26118876150E+01 -0.13735126776E+02 -0.60734539889E+02  0.62500000000E+02  0.47000000000E+01 0.  1.
</event>
<event>
 3    0  0.4607503E-005  0.9118800E+02  0.7546771E-02  0.1235069E+00
         25   -1    0    0    0    0  0.00000000000E+00  0.00000000000E+00  0.99999998245E-14  0.12500000000E+03  0.12500000000E+03 0.  0.
          5    1    1    0  501    0  0.38201826230E+02 -0.34060576230E+02 -0.35562024964E+02  0.62500000000E+02  0.47000000000E+01 0. -1.
         -5    1    1    0    0  501 -0.38201826230E+02  0.34060576230E+02  0.35562024964E+02  0.62500000000E+02  0.47000000000E+01 0. -1.
</event>
<event>
 3    0  0.4607503E-005  0.9118800E+02  0.7546771E-02  0.1235069E+00
         25   -1    0    0    0    0  0.00000000000E+00  0.00000000000E+00  0.99999998245E-14  0.12500000000E+03  0.12500000000E+03 0.  0.
          5    1    1    0  501    0  0.92536044396E+01 -0.20732487360E+02  0.58040458068E+02  0.62500000000E+02  0.47000000000E+01 0. -1.
         -5    1    1    0    0  501 -0.92536044396E+01  0.20732487360E+02 -0.58040458068E+02  0.62500000000E+02  0.47000000000E+01 0. -1.
</event>
<event>
 3    0  0.4607503E-005  0.9118800E+02  0.7546771E-02  0.1235069E+00
         25   -1    0    0    0    0  0.00000000000E+00  0.00000000000E+00  0.99999998245E-14  0.12500000000E+03  0.12500000000E+03 0.  0.
          5    1    1    0  501    0  0.25703952234E+02 -0.99555075089E+01 -0.55895927489E+02  0.62500000000E+02  0.47000000000E+01 0. -1.
         -5    1    1    0    0  501 -0.25703952234E+02  0.99555075089E+01  0.55895927489E+02  0.62500000000E+02  0.47000000000E+01 0. -1.
</event>
<event>
 3    0  0.4607503E-005  0.9118800E+02  0.7546771E-02  0.1235069E+00
         25   -1    0    0    0    0  0.00000000000E+00  0.00000000000E+00  0.99999998245E-14  0.12500000000E+03  0.12500000000E+03 0.  0.
          5    1    1    0  501    0 -0.25552872282E+02 -0.52965306680E+02 -0.20637029981E+02  0.62500000000E+02  0.47000000000E+01 0. -1.
         -5    1    1    0    0  501  0.25552872282E+02  0.52965306680E+02  0.20637029981E+02  0.62500000000E+02  0.47000000000E+01 0. -1.
</event>
<event>
 3    0  0.4607503E-005  0.9118800E+02  0.7546771E-02  0.1235069E+00
         25   -1    0    0    0    0  0.00000000000E+00  0.00000000000E+00  0.99999998245E-14  0.12500000000E+03  0.12500000000E+03 0.  0.
          5    1    1    0  501    0 -0.14298378560E+01  0.33086311281E+02 -0.52795942738E+02  0.62500000000E+02  0.47000000000E+01 0.  1.
         -5    1    1    0    0  501  0.14298378560E+01 -0.33086311281E+02  0.52795942738E+02  0.62500000000E+02  0.47000000000E+01 0.  1.
</event>
<event>
 3    0  0.4607503E-005  0.9118800E+02  0.7546771E-02  0.1235069E+00
         25   -1    0    0    0    0  0.00000000000E+00  0.00000000000E+00  0.99999998245E-14  0.12500000000E+03  0.12500000000E+03 0.  0.
          5    1    1    0  501    0  0.27618525470E+02  0.33843666342E+02 -0.44452033692E+02  0.62500000000E+02  0.47000000000E+01 0.  1.
         -5    1    1    0    0  501 -0.27618525470E+02 -0.33843666342E+02  0.44452033692E+02  0.62500000000E+02  0.47000000000E+01 0.  1.
</event>
<event>
 3    0  0.4607503E-005  0.9118800E+02  0.7546771E-02  0.1235069E+00
         25   -1    0    0    0    0  0.00000000000E+00  0.00000000000E+00  0.99999998245E-14  0.12500000000E+03  0.12500000000E+03 0.  0.
          5    1    1    0  501    0 -0.31257439165E+02 -0.45654485421E+02  0.28684498562E+02  0.62500000000E+02  0.47000000000E+01 0.  1.
         -5    1    1    0    0  501  0.31257439165E+02  0.45654485421E+02 -0.28684498562E+02  0.62500000000E+02  0.47000000000E+01 0.  1.
</event>
<event>
 3    0  0.4607503E-005  0.9118800E+02  0.7546771E-02  0.1235069E+00
         25   -1    0    0    0    0  0.00000000000E+00  0.00000000000E+00  0.99999998245E-14  0.12500000000E+03  0.12500000000E+03 0.  0.
          5    1    1    0  501    0  0.29257327461E+02 -0.42526511699E+02  0.34923696720E+02  0.62500000000E+02  0.47000000000E+01 0.  1.
         -5    1    1    0    0  501 -0.29257327461E+02  0.42526511699E+02 -0.34923696720E+02  0.62500000000E+02  0.47000000000E+01 0.  1.
</event>
<event>
 3    0  0.4607503E-005  0.9118800E+02  0.7546771E-02  0.1235069E+00
         25   -1    0    0    0    0  0.00000000000E+00  0.00000000000E+00  0.99999998245E-14  0.12500000000E+03  0.12500000000E+03 0.  0.
          5    1    1    0  501    0  0.24529884636E+02  0.55122371692E+02  0.15619503794E+02  0.62500000000E+02  0.47000000000E+01 0. -1.
         -5    1    1    0    0  501 -0.24529884636E+02 -0.55122371692E+02 -0.15619503794E+02  0.62500000000E+02  0.47000000000E+01 0. -1.
</event>
<event>
 3    0  0.4607503E-005  0.9118800E+02  0.7546771E-02  0.1235069E+00
         25   -1    0    0    0    0  0.00000000000E+00  0.00000000000E+00  0.99999998245E-14  0.12500000000E+03  0.12500000000E+03 0.  0.
          5    1    1    0  501    0  0.23521405871E+02  0.55333009450E+02 -0.16406143088E+02  0.62500000000E+02  0.47000000000E+01 0. -1.
         -5    1    1    0    0  501 -0.23521405871E+02 -0.55333009450E+02  0.16406143088E+02  0.62500000000E+02  0.47000000000E+01 0. -1.
</event>
<event>
 3    0  0.4607503E-005  0.9118800E+02  0.7546771E-02  0.1235069E+00
         25   -1    0    0    0    0  0.00000000000E+00  0.00000000000E+00  0.99999998245E-14  0.12500000000E+03  0.12500000000E+03 0.  0.
          5    1    1    0  501    0 -0.25193137316E+02 -0.14859820863E+02  0.55033185952E+02  0.62500000000E+02  0.47000000000E+01 0. -1.
         -5    1    1    0    0  501  0.25193137316E+02  0.14859820863E+02 -0.55033185952E+02  0.62500000000E+02  0.47000000000E+01 0. -1.
</event>
<event>
 3    0  0.4607503E-005  0.9118800E+02  0.7546771E-02  0.1235069E+00
         25   -1    0    0    0    0  0.00000000000E+00  0.00000000000E+00  0.99999998245E-14  0.12500000000E+03  0.12500000000E+03 0.  0.
          5    1    1    0  501    0  0.15187194438E+02 -0.59276722313E+02  0.11822830327E+02  0.62500000000E+02  0.47000000000E+01 0. -1.
         -5    1    1    0    0  501 -0.15187194438E+02  0.59276722313E+02 -0.11822830327E+02  0.62500000000E+02  0.47000000000E+01 0. -1.
</event>
<event>
 3    0  0.4607503E-005  0.9118800E+02  0.7546771E-02  0.1235069E+00
         25   -1    0    0    0    0  0.00000000000E+00  0.00000000000E+00  0.99999998245E-14  0.12500000000E+03  0.12500000000E+03 0.  0.
          5    1    1    0  501    0  0.48813756822E+02 -0.23042092553E+02 -0.31151871785E+02  0.62500000000E+02  0.47000000000E+01 0. -1.
         -5    1    1    0    0  501 -0.48813756822E+02  0.23042092553E+02  0.31151871785E+02  0.62500000000E+02  0.47000000000E+01 0. -1.
</event>
<event>
 3    0  0.4607503E-005  0.9118800E+02  0.7546771E-02  0.1235069E+00
         25   -1    0    0    0    0  0.00000000000E+00  0.00000000000E+00  0.99999998245E-14  0.12500000000E+03  0.12500000000E+03 0.  0.
          5    1    1    0  501    0 -0.30286446600E+01 -0.30081076482E+02 -0.54498771997E+02  0.62500000000E+02  0.47000000000E+01 0.  1.
         -5    1    1    0    0  501  0.30286446600E+01  0.30081076482E+02  0.54498771997E+02  0.62500000000E+02  0.47000000000E+01 0.  1.
</event>
<event>
 3    0  0.4607503E-005  0.9118800E+02  0.7546771E-02  0.1235069E+00
         25   -1    0    0    0    0  0.00000000000E+00  0.00000000000E+00  0.99999998245E-14  0.12500000000E+03  0.12500000000E+03 0.  0.
          5    1    1    0  501    0 -0.22857329849E+02 -0.57913611832E+02  0.27777755135E+01  0.62500000000E+02  0.47000000000E+01 0. -1.
         -5    1    1    0    0  501  0.22857329849E+02  0.57913611832E+02 -0.27777755135E+01  0.62500000000E+02  0.47000000000E+01 0. -1.
</event>
<event>
 3    0  0.4607503E-005  0.9118800E+02  0.7546771E-02  0.1235069E+00
         25   -1    0    0    0    0  0.00000000000E+00  0.00000000000E+00  0.99999998245E-14  0.12500000000E+03  0.12500000000E+03 0.  0.
          5    1    1    0  501    0  0.55353887676E+02  0.11213699543E+02 -0.26350712737E+02  0.62500000000E+02  0.47000000000E+01 0. -1.
         -5    1    1    0    0  501 -0.55353887676E+02 -0.11213699543E+02  0.26350712737E+02  0.62500000000E+02  0.47000000000E+01 0. -1.
</event>
<event>
 3    0  0.4607503E-005  0.9118800E+02  0.7546771E-02  0.1235069E+00
         25   -1    0    0    0    0  0.00000000000E+00  0.00000000000E+00  0.99999998245E-14  0.12500000000E+03  0.12500000000E+03 0.  0.
          5    1    1    0  501    0 -0.11755477552E+02 -0.61133549414E+02  0.29424281720E+01  0.62500000000E+02  0.47000000000E+01 0. -1.
         -5    1    1    0    0  501  0.11755477552E+02  0.61133549414E+02 -0.29424281720E+01  0.62500000000E+02  0.47000000000E+01 0. -1.
</event>
<event>
 3    0  0.4607503E-005  0.9118800E+02  0.7546771E-02  0.1235069E+00
         25   -1    0    0    0    0  0.00000000000E+00  0.00000000000E+00  0.99999998245E-14  0.12500000000E+03  0.12500000000E+03 0.  0.
          5    1    1    0  501    0  0.35008738067E+02  0.47097719277E+02 -0.20984591916E+02  0.62500000000E+02  0.47000000000E+01 0. -1.
         -5    1    1    0    0  501 -0.35008738067E+02 -0.47097719277E+02  0.20984591916E+02  0.62500000000E+02  0.47000000000E+01 0. -1.
</event>
<event>
 3    0  0.4607503E-005  0.9118800E+02  0.7546771E-02  0.1235069E+00
         25   -1    0    0    0    0  0.00000000000E+00  0.00000000000E+00  0.99999998245E-14  0.12500000000E+03  0.12500000000E+03 0.  0.
          5    1    1    0  501    0  0.38375679367E+02 -0.34487340659E+02  0.34958411969E+02  0.62500000000E+02  0.47000000000E+01 0.  1.
         -5    1    1    0    0  501 -0.38375679367E+02  0.34487340659E+02 -0.34958411969E+02  0.62500000000E+02  0.47000000000E+01 0.  1.
</event>
<event>
 3    0  0.4607503E-005  0.9118800E+02  0.7546771E-02  0.1235069E+00
         25   -1    0    0    0    0  0.00000000000E+00  0.00000000000E+00  0.99999998245E-14  0.12500000000E+03  0.12500000000E+03 0.  0.
          5    1    1    0  501    0  0.30179378190E+02 -0.99157785071E+01  0.53619422495E+02  0.62500000000E+02  0.47000000000E+01 0.  1.
         -5    1    1    0    0  501 -0.30179378190E+02  0.99157785071E+01 -0.53619422495E+02  0.62500000000E+02  0.47000000000E+01 0.  1.
</event>
<event>
 3    0  0.4607503E-005  0.9118800E+02  0.7546771E-02  0.1235069E+00
         25   -1    0    0    0    0  0.00000000000E+00  0.00000000000E+00  0.99999998245E-14  0.12500000000E+03  0.12500000000E+03 0.  0.
          5    1    1    0  501    0  0.49912986854E+02  0.13185684016E+01 -0.37297655699E+02  0.62500000000E+02  0.47000000000E+01 0. -1.
         -5    1    1    0    0  501 -0.49912986854E+02 -0.13185684016E+01  0.37297655699E+02  0.62500000000E+02  0.47000000000E+01 0. -1.
</event>
<event>
 3    0  0.4607503E-005  0.9118800E+02  0.7546771E-02  0.1235069E+00
         25   -1    0    0    0    0  0.00000000000E+00  0.00000000000E+00  0.99999998245E-14  0.12500000000E+03  0.12500000000E+03 0.  0.
          5    1    1    0  501    0  0.24045818838E+02 -0.70610816293E+01 -0.57062244283E+02  0.62500000000E+02  0.47000000000E+01 0. -1.
         -5    1    1    0    0  501 -0.24045818838E+02  0.70610816293E+01  0.57062244283E+02  0.62500000000E+02  0.47000000000E+01 0. -1.
</event>
<event>
 3    0  0.4607503E-005  0.9118800E+02  0.7546771E-02  0.1235069E+00
         25   -1    0    0    0    0  0.00000000000E+00  0.00000000000E+00  0.99999998245E-14  0.12500000000E+03  0.12500000000E+03 0.  0.
          5    1    1    0  501    0 -0.22041264647E+02 -0.52256976634E+02  0.25837009228E+02  0.62500000000E+02  0.47000000000E+01 0.  1.
         -5    1    1    0    0  501  0.22041264647E+02  0.52256976634E+02 -0.25837009228E+02  0.62500000000E+02  0.47000000000E+01 0.  1.
</event>
<event>
 3    0  0.4607503E-005  0.9118800E+02  0.7546771E-02  0.1235069E+00
         25   -1    0    0    0    0  0.00000000000E+00  0.00000000000E+00  0.99999998245E-14  0.12500000000E+03  0.12500000000E+03 0.  0.
          5    1    1    0  501    0  0.31110119387E+02  0.47049333676E+02 -0.26508124649E+02  0.62500000000E+02  0.47000000000E+01 0. -1.
         -5    1    1    0    0  501 -0.31110119387E+02 -0.47049333676E+02  0.26508124649E+02  0.62500000000E+02  0.47000000000E+01 0. -1.
</event>
<event>
 3    0  0.4607503E-005  0.9118800E+02  0.7546771E-02  0.1235069E+00
         25   -1    0    0    0    0  0.00000000000E+00  0.00000000000E+00  0.99999998245E-14  0.12500000000E+03  0.12500000000E+03 0.  0.
          5    1    1    0  501    0 -0.31885787336E+02 -0.50226042057E+02 -0.18568825091E+02  0.62500000000E+02  0.47000000000E+01 0. -1.
         -5    1    1    0    0  501  0.31885787336E+02  0.50226042057E+02  0.18568825091E+02  0.62500000000E+02  0.47000000000E+01 0. -1.
</event>
<event>
 3    0  0.4607503E-005  0.9118800E+02  0.7546771E-02  0.1235069E+00
         25   -1    0    0    0    0  0.00000000000E+00  0.00000000000E+00  0.99999998245E-14  0.12500000000E+03  0.12500000000E+03 0.  0.
          5    1    1    0  501    0  0.36670636659E+02  0.50343281182E+02 -0.22312433571E+01  0.62500000000E+02  0.47000000000E+01 0.  1.
         -5    1    1    0    0  501 -0.36670636659E+02 -0.50343281182E+02  0.22312433571E+01  0.62500000000E+02  0.47000000000E+01 0.  1.
</event>
<event>
 3    0  0.4607503E-005  0.9118800E+02  0.7546771E-02  0.1235069E+00
         25   -1    0    0    0    0  0.00000000000E+00  0.00000000000E+00  0.99999998245E-14  0.12500000000E+03  0.12500000000E+03 0.  0.
          5    1    1    0  501    0 -0.38944511686E+02 -0.48467858100E+02  0.42838931734E+01  0.62500000000E+02  0.47000000000E+01 0. -1.
         -5    1    1    0    0  501  0.38944511686E+02  0.48467858100E+02 -0.42838931734E+01  0.62500000000E+02  0.47000000000E+01 0. -1.
</event>
<event>
 3    0  0.4607503E-005  0.9118800E+02  0.7546771E-02  0.1235069E+00
         25   -1    0    0    0    0  0.00000000000E+00  0.00000000000E+00  0.99999998245E-14  0.12500000000E+03  0.12500000000E+03 0.  0.
          5    1    1    0  501    0  0.39611084852E+02 -0.46960526994E+02 -0.10480022009E+02  0.62500000000E+02  0.47000000000E+01 0.  1.
         -5    1    1    0    0  501 -0.39611084852E+02  0.46960526994E+02  0.10480022009E+02  0.62500000000E+02  0.47000000000E+01 0.  1.
</event>
<event>
 3    0  0.4607503E-005  0.9118800E+02  0.7546771E-02  0.1235069E+00
         25   -1    0    0    0    0  0.00000000000E+00  0.00000000000E+00  0.99999998245E-14  0.12500000000E+03  0.12500000000E+03 0.  0.
          5    1    1    0  501    0 -0.39955075391E+02 -0.40591685642E+02  0.25299545593E+02  0.62500000000E+02  0.47000000000E+01 0.  1.
         -5    1    1    0    0  501  0.39955075391E+02  0.40591685642E+02 -0.25299545593E+02  0.62500000000E+02  0.47000000000E+01 0.  1.
</event>
<event>
 3    0  0.4607503E-005  0.9118800E+02  0.7546771E-02  0.1235069E+00
         25   -1    0    0    0    0  0.00000000000E+00  0.00000000000E+00  0.99999998245E-14  0.12500000000E+03  0.12500000000E+03 0.  0.
          5    1    1    0  501    0 -0.60377165234E+02 -0.15450371841E+02 -0.20959065094E+00  0.62500000000E+02  0.47000000000E+01 0. -1.
         -5    1    1    0    0  501  0.60377165234E+02  0.15450371841E+02  0.20959065094E+00  0.62500000000E+02  0.47000000000E+01 0. -1.
</event>
<event>
 3    0  0.4607503E-005  0.9118800E+02  0.7546771E-02  0.1235069E+00
         25   -1    0    0    0    0  0.00000000000E+00  0.00000000000E+00  0.99999998245E-14  0.12500000000E+03  0.12500000000E+03 0.  0.
          5    1    1    0  501    0  0.15046345996E+02 -0.27141643142E+02 -0.54047189379E+02  0.62500000000E+02  0.47000000000E+01 0.  1.
         -5    1    1    0    0  501 -0.15046345996E+02  0.27141643142E+02  0.54047189379E+02  0.62500000000E+02  0.47000000000E+01 0.  1.
</event>
<event>
 3    0  0.4607503E-005  0.9118800E+02  0.7546771E-02  0.1235069E+00
         25   -1    0    0    0    0  0.00000000000E+00  0.00000000000E+00  0.99999998245E-14  0.12500000000E+03  0.12500000000E+03 0.  0.
          5    1    1    0  501    0 -0.67592660227E+01 -0.18549180001E+01 -0.61927631975E+02  0.62500000000E+02  0.47000000000E+01 0.  1.
         -5    1    1    0    0  501  0.67592660227E+01  0.18549180001E+01  0.61927631975E+02  0.62500000000E+02  0.47000000000E+01 0.  1.
</event>
<event>
 3    0  0.4607503E-005  0.9118800E+02  0.7546771E-02  0.1235069E+00
         25   -1    0    0    0    0  0.00000000000E+00  0.00000000000E+00  0.99999998245E-14  0.12500000000E+03  0.12500000000E+03 0.  0.
          5    1    1    0  501    0  0.60230888427E+02  0.15982915309E+02  0.97288103976E+00  0.62500000000E+02  0.47000000000E+01 0. -1.
         -5    1    1    0    0  501 -0.60230888427E+02 -0.15982915309E+02 -0.97288103976E+00  0.62500000000E+02  0.47000000000E+01 0. -1.
</event>
<event>
 3    0  0.4607503E-005  0.9118800E+02  0.7546771E-02  0.1235069E+00
         25   -1    0    0    0    0  0.00000000000E+00  0.00000000000E+00  0.99999998245E-14  0.12500000000E+03  0.12500000000E+03 0.  0.
          5    1    1    0  501    0  0.35490731704E+02 -0.37028392128E+02  0.35404323740E+02  0.62500000000E+02  0.47000000000E+01 0.  1.
         -5    1    1    0    0  501 -0.35490731704E+02  0.37028392128E+02 -0.35404323740E+02  0.62500000000E+02  0.47000000000E+01 0.  1.
</event>
<event>
 3    0  0.4607503E-005  0.9118800E+02  0.7546771E-02  0.1235069E+00
         25   -1    0    0    0    0  0.00000000000E+00  0.00000000000E+00  0.99999998245E-14  0.12500000000E+03  0.12500000000E+03 0.  0.
          5    1    1    0  501    0 -0.50465453239E+02  0.36479530251E+02  0.25771887904E+01  0.62500000000E+02  0.47000000000E+01 0.  1.
         -5    1    1    0    0  501  0.50465453239E+02 -0.36479530251E+02 -0.25771887904E+01  0.62500000000E+02  0.47000000000E+01 0.  1.
</event>
<event>
 3    0  0.4607503E-005  0.9118800E+02  0.7546771E-02  0.1235069E+00
         25   -1    0    0    0    0  0.00000000000E+00  0.00000000000E+00  0.99999998245E-14  0.12500000000E+03  0.12500000000E+03 0.  0.
          5    1    1    0  501    0 -0.23714819093E+01 -0.57536765251E+02  0.23833940464E+02  0.62500000000E+02  0.47000000000E+01 0. -1.
         -5    1    1    0    0  501  0.23714819093E+01  0.57536765251E+02 -0.23833940464E+02  0.62500000000E+02  0.47000000000E+01 0. -1.
</event>
<event>
 3    0  0.4607503E-005  0.9118800E+02  0.7546771E-02  0.1235069E+00
         25   -1    0    0    0    0  0.00000000000E+00  0.00000000000E+00  0.99999998245E-14  0.12500000000E+03  0.12500000000E+03 0.  0.
          5    1    1    0  501    0 -0.30322446182E+02 -0.30345810978E+02 -0.45208859902E+02  0.62500000000E+02  0.47000000000E+01 0.  1.
         -5    1    1    0    0  501  0.30322446182E+02  0.30345810978E+02  0.45208859902E+02  0.62500000000E+02  0.47000000000E+01 0.  1.
</event>
<event>
 3    0  0.4607503E-005  0.9118800E+02  0.7546771E-02  0.1235069E+00
         25   -1    0    0    0    0  0.00000000000E+00  0.00000000000E+00  0.99999998245E-14  0.12500000000E+03  0.12500000000E+03 0.  0.
          5    1    1    0  501    0  0.30203354776E+02  0.47544544843E+02  0.26672712947E+02  0.62500000000E+02  0.47000000000E+01 0.  1.
         -5    1    1    0    0  501 -0.30203354776E+02 -0.47544544843E+02 -0.26672712947E+02  0.62500000000E+02  0.47000000000E+01 0.  1.
</event>
<event>
 3    0  0.4607503E-005  0.9118800E+02  0.7546771E-02  0.1235069E+00
         25   -1    0    0    0    0  0.00000000000E+00  0.00000000000E+00  0.99999998245E-14  0.12500000000E+03  0.12500000000E+03 0.  0.
          5    1    1    0  501    0  0.28359969593E+02  0.20910523633E+02  0.51406440512E+02  0.62500000000E+02  0.47000000000E+01 0.  1.
         -5    1    1    0    0  501 -0.28359969593E+02 -0.20910523633E+02 -0.51406440512E+02  0.62500000000E+02  0.47000000000E+01 0.  1.
</event>
<event>
 3    0  0.4607503E-005  0.9118800E+02  0.7546771E-02  0.1235069E+00
         25   -1    0    0    0    0  0.00000000000E+00  0.00000000000E+00  0.99999998245E-14  0.12500000000E+03  0.12500000000E+03 0.  0.
          5    1    1    0  501    0  0.55718925308E+02 -0.24414736178E+02  0.13545553510E+02  0.62500000000E+02  0.47000000000E+01 0. -1.
         -5    1    1    0    0  501 -0.55718925308E+02  0.24414736178E+02 -0.13545553510E+02  0.62500000000E+02  0.47000000000E+01 0. -1.
</event>
<event>
 3    0  0.4607503E-005  0.9118800E+02  0.7546771E-02  0.1235069E+00
         25   -1    0    0    0    0  0.00000000000E+00  0.00000000000E+00  0.99999998245E-14  0.12500000000E+03  0.12500000000E+03 0.  0.
          5    1    1    0  501    0 -0.60392865888E+02 -0.59178266781E+01 -0.14207078419E+02  0.62500000000E+02  0.47000000000E+01 0.  1.
         -5    1    1    0    0  501  0.60392865888E+02  0.59178266781E+01  0.14207078419E+02  0.62500000000E+02  0.47000000000E+01 0.  1.
</event>
<event>
 3    0  0.4607503E-005  0.9118800E+02  0.7546771E-02  0.1235069E+00
         25   -1    0    0    0    0  0.00000000000E+00  0.00000000000E+00  0.99999998245E-14  0.12500000000E+03  0.12500000000E+03 0.  0.
          5    1    1    0  501    0  0.36290216033E+02 -0.43426235686E+02  0.26102533870E+02  0.62500000000E+02  0.47000000000E+01 0. -1.
         -5    1    1    0    0  501 -0.36290216033E+02  0.43426235686E+02 -0.26102533870E+02  0.62500000000E+02  0.47000000000E+01 0. -1.
</event>
<event>
 3    0  0.4607503E-005  0.9118800E+02  0.7546771E-02  0.1235069E+00
         25   -1    0    0    0    0  0.00000000000E+00  0.00000000000E+00  0.99999998245E-14  0.12500000000E+03  0.12500000000E+03 0.  0.
          5    1    1    0  501    0  0.50492284160E+02  0.16741155640E+02 -0.32471879344E+02  0.62500000000E+02  0.47000000000E+01 0. -1.
         -5    1    1    0    0  501 -0.50492284160E+02 -0.16741155640E+02  0.32471879344E+02  0.62500000000E+02  0.47000000000E+01 0. -1.
</event>
<event>
 3    0  0.4607503E-005  0.9118800E+02  0.7546771E-02  0.1235069E+00
         25   -1    0    0    0    0  0.00000000000E+00  0.00000000000E+00  0.99999998245E-14  0.12500000000E+03  0.12500000000E+03 0.  0.
          5    1    1    0  501    0 -0.32012819359E+02 -0.46610263593E+02  0.26207302884E+02  0.62500000000E+02  0.47000000000E+01 0. -1.
         -5    1    1    0    0  501  0.32012819359E+02  0.46610263593E+02 -0.26207302884E+02  0.62500000000E+02  0.47000000000E+01 0. -1.
</event>
<event>
 3    0  0.4607503E-005  0.9118800E+02  0.7546771E-02  0.1235069E+00
         25   -1    0    0    0    0  0.00000000000E+00  0.00000000000E+00  0.99999998245E-14  0.12500000000E+03  0.12500000000E+03 0.  0.
          5    1    1    0  501    0  0.38018965782E+02 -0.42704008943E+02  0.24800924601E+02  0.62500000000E+02  0.47000000000E+01 0.  1.
         -5    1    1    0    0  501 -0.38018965782E+02  0.42704008943E+02 -0.24800924601E+02  0.62500000000E+02  0.47000000000E+01 0.  1.
</event>
<event>
 3    0  0.4607503E-005  0.9118800E+02  0.7546771E-02  0.1235069E+00
         25   -1    0    0    0    0  0.00000000000E+00  0.00000000000E+00  0.99999998245E-14  0.12500000000E+03  0.12500000000E+03 0.  0.
          5    1    1    0  501    0  0.58169743323E+02 -0.27625964507E+01 -0.22199302299E+02  0.62500000000E+02  0.47000000000E+01 0.  1.
         -5    1    1    0    0  501 -0.58169743323E+02  0.27625964507E+01  0.22199302299E+02  0.62500000000E+02  0.47000000000E+01 0.  1.
</event>
<event>
 3    0  0.4607503E-005  0.9118800E+02  0.7546771E-02  0.1235069E+00
         25   -1    0    0    0    0  0.00000000000E+00  0.00000000000E+00  0.99999998245E-14  0.12500000000E+03  0.12500000000E+03 0.  0.
          5    1    1    0  501    0  0.10840831131E+02  0.56204733103E+02  0.24650849016E+02  0.62500000000E+02  0.47000000000E+01 0. -1.
         -5    1    1    0    0  501 -0.10840831131E+02 -0.56204733103E+02 -0.24650849016E+02  0.62500000000E+02  0.47000000000E+01 0. -1.
</event>
<event>
 3    0  0.4607503E-005  0.9118800E+02  0.7546771E-02  0.1235069E+00
         25   -1    0    0    0    0  0.00000000000E+00  0.00000000000E+00  0.99999998245E-14  0.12500000000E+03  0.12500000000E+03 0.  0.
          5    1    1    0  501    0 -0.39715709610E+02  0.47816320727E+02  0.45190576726E+01  0.62500000000E+02  0.47000000000E+01 0.  1.
         -5    1    1    0    0  501  0.39715709610E+02 -0.47816320727E+02 -0.45190576726E+01  0.62500000000E+02  0.47000000000E+01 0.  1.
</event>
<event>
 3    0  0.4607503E-005  0.9118800E+02  0.7546771E-02  0.1235069E+00
         25   -1    0    0    0    0  0.00000000000E+00  0.00000000000E+00  0.99999998245E-14  0.12500000000E+03  0.12500000000E+03 0.  0.
          5    1    1    0  501    0  0.24005345802E+02  0.26975100977E+02  0.50796134698E+02  0.62500000000E+02  0.47000000000E+01 0.  1.
         -5    1    1    0    0  501 -0.24005345802E+02 -0.26975100977E+02 -0.50796134698E+02  0.62500000000E+02  0.47000000000E+01 0.  1.
</event>
<event>
 3    0  0.4607503E-005  0.9118800E+02  0.7546771E-02  0.1235069E+00
         25   -1    0    0    0    0  0.00000000000E+00  0.00000000000E+00  0.99999998245E-14  0.12500000000E+03  0.12500000000E+03 0.  0.
          5    1    1    0  501    0 -0.91909838672E+01  0.10714806276E+02  0.60703202074E+02  0.62500000000E+02  0.47000000000E+01 0.  1.
         -5    1    1    0    0  501  0.91909838672E+01 -0.10714806276E+02 -0.60703202074E+02  0.62500000000E+02  0.47000000000E+01 0.  1.
</event>
<event>
 3    0  0.4607503E-005  0.9118800E+02  0.7546771E-02  0.1235069E+00
         25   -1    0    0    0    0  0.00000000000E+00  0.00000000000E+00  0.99999998245E-14  0.12500000000E+03  0.12500000000E+03 0.  0.
          5    1    1    0  501    0 -0.39505236021E+01 -0.61729957466E+02 -0.76135218247E+01  0.62500000000E+02  0.47000000000E+01 0.  1.
         -5    1    1    0    0  501  0.39505236021E+01  0.61729957466E+02  0.76135218247E+01  0.62500000000E+02  0.47000000000E+01 0.  1.
</event>
<event>
 3    0  0.4607503E-005  0.9118800E+02  0.7546771E-02  0.1235069E+00
         25   -1    0    0    0    0  0.00000000000E+00  0.00000000000E+00  0.99999998245E-14  0.12500000000E+03  0.12500000000E+03 0.  0.
          5    1    1    0  501    0  0.45694847326E+02 -0.39321794773E+02  0.15809408076E+02  0.62500000000E+02  0.47000000000E+01 0. -1.
         -5    1    1    0    0  501 -0.45694847326E+02  0.39321794773E+02 -0.15809408076E+02  0.62500000000E+02  0.47000000000E+01 0. -1.
</event>
<event>
 3    0  0.4607503E-005  0.9118800E+02  0.7546771E-02  0.1235069E+00
         25   -1    0    0    0    0  0.00000000000E+00  0.00000000000E+00  0.99999998245E-14  0.12500000000E+03  0.12500000000E+03 0.  0.
          5    1    1    0  501    0 -0.22885753382E+02  0.21560568999E+02  0.53810260700E+02  0.62500000000E+02  0.47000000000E+01 0.  1.
         -5    1    1    0    0  501  0.22885753382E+02 -0.21560568999E+02 -0.53810260700E+02  0.62500000000E+02  0.47000000000E+01 0.  1.
</event>
<event>
 3    0  0.4607503E-005  0.9118800E+02  0.7546771E-02  0.1235069E+00
         25   -1    0    0    0    0  0.00000000000E+00  0.00000000000E+00  0.99999998245E-14  0.12500000000E+03  0.12500000000E+03 0.  0.
          5    1    1    0  501    0 -0.55208544159E+02 -0.84281286842E+01  0.27661223740E+02  0.62500000000E+02  0.47000000000E+01 0.  1.
         -5    1    1    0    0  501  0.55208544159E+02  0.84281286842E+01 -0.27661223740E+02  0.62500000000E+02  0.47000000000E+01 0.  1.
</event>
<event>
 3    0  0.4607503E-005  0.9118800E+02  0.7546771E-02  0.1235069E+00
         25   -1    0    0    0    0  0.00000000000E+00  0.00000000000E+00  0.99999998245E-14  0.12500000000E+03  0.12500000000E+03 0.  0.
          5    1    1    0  501    0  0.87022868001E+01 -0.57959350647E+02 -0.21193014815E+02  0.62500000000E+02  0.47000000000E+01 0. -1.
         -5    1    1    0    0  501 -0.87022868001E+01  0.57959350647E+02  0.21193014815E+02  0.62500000000E+02  0.47000000000E+01 0. -1.
</event>
<event>
 3    0  0.4607503E-005  0.9118800E+02  0.7546771E-02  0.1235069E+00
         25   -1    0    0    0    0  0.00000000000E+00  0.00000000000E+00  0.99999998245E-14  0.12500000000E+03  0.12500000000E+03 0.  0.
          5    1    1    0  501    0 -0.14855367928E+02  0.48424132235E+02  0.36312277001E+02  0.62500000000E+02  0.47000000000E+01 0. -1.
         -5    1    1    0    0  501  0.14855367928E+02 -0.48424132235E+02 -0.36312277001E+02  0.62500000000E+02  0.47000000000E+01 0. -1.
</event>
<event>
 3    0  0.4607503E-005  0.9118800E+02  0.7546771E-02  0.1235069E+00
         25   -1    0    0    0    0  0.00000000000E+00  0.00000000000E+00  0.99999998245E-14  0.12500000000E+03  0.12500000000E+03 0.  0.
          5    1    1    0  501    0 -0.42202256851E+02 -0.70188925537E+00 -0.45854518514E+02  0.62500000000E+02  0.47000000000E+01 0. -1.
         -5    1    1    0    0  501  0.42202256851E+02  0.70188925537E+00  0.45854518514E+02  0.62500000000E+02  0.47000000000E+01 0. -1.
</event>
<event>
 3    0  0.4607503E-005  0.9118800E+02  0.7546771E-02  0.1235069E+00
         25   -1    0    0    0    0  0.00000000000E+00  0.00000000000E+00  0.99999998245E-14  0.12500000000E+03  0.12500000000E+03 0.  0.
          5    1    1    0  501    0 -0.28208607205E+01  0.49088738435E+02 -0.38294888741E+02  0.62500000000E+02  0.47000000000E+01 0. -1.
         -5    1    1    0    0  501  0.28208607205E+01 -0.49088738435E+02  0.38294888741E+02  0.62500000000E+02  0.47000000000E+01 0. -1.
</event>
<event>
 3    0  0.4607503E-005  0.9118800E+02  0.7546771E-02  0.1235069E+00
         25   -1    0    0    0    0  0.00000000000E+00  0.00000000000E+00  0.99999998245E-14  0.12500000000E+03  0.12500000000E+03 0.  0.
          5    1    1    0  501    0 -0.28126295333E+01  0.76784061812E+01  0.61784230946E+02  0.62500000000E+02  0.47000000000E+01 0.  1.
         -5    1    1    0    0  501  0.28126295333E+01 -0.76784061812E+01 -0.61784230946E+02  0.62500000000E+02  0.47000000000E+01 0.  1.
</event>
<event>
 3    0  0.4607503E-005  0.9118800E+02  0.7546771E-02  0.1235069E+00
         25   -1    0    0    0    0  0.00000000000E+00  0.00000000000E+00  0.99999998245E-14  0.12500000000E+03  0.12500000000E+03 0.  0.
          5    1    1    0  501    0  0.46933814347E+02 -0.10174226152E+02 -0.39722313541E+02  0.62500000000E+02  0.47000000000E+01 0.  1.
         -5    1    1    0    0  501 -0.46933814347E+02  0.10174226152E+02  0.39722313541E+02  0.62500000000E+02  0.47000000000E+01 0.  1.
</event>
<event>
 3    0  0.4607503E-005  0.9118800E+02  0.7546771E-02  0.1235069E+00
         25   -1    0    0    0    0  0.00000000000E+00  0.00000000000E+00  0.99999998245E-14  0.12500000000E+03  0.12500000000E+03 0.  0.
          5    1    1    0  501    0  0.48909804156E+02  0.38626185184E+02  0.94210081347E-01  0.62500000000E+02  0.47000000000E+01 0. -1.
         -5    1    1    0    0  501 -0.48909804156E+02 -0.38626185184E+02 -0.94210081347E-01  0.62500000000E+02  0.47000000000E+01 0. -1.
</event>
<event>
 3    0  0.4607503E-005  0.9118800E+02  0.7546771E-02  0.1235069E+00
         25   -1    0    0    0    0  0.00000000000E+00  0.00000000000E+00  0.99999998245E-14  0.12500000000E+03  0.12500000000E+03 0.  0.
          5    1    1    0  501    0 -0.49818856678E+02  0.12981936664E+02  0.35124220130E+02  0.62500000000E+02  0.47000000000E+01 0.  1.
         -5    1    1    0    0  501  0.49818856678E+02 -0.12981936664E+02 -0.35124220130E+02  0.62500000000E+02  0.47000000000E+01 0.  1.
</event>
<event>
 3    0  0.4607503E-005  0.9118800E+02  0.7546771E-02  0.1235069E+00
         25   -1    0    0    0    0  0.00000000000E+00  0.00000000000E+00  0.99999998245E-14  0.12500000000E+03  0.12500000000E+03 0.  0.
          5    1    1    0  501    0 -0.94555388523E+01 -0.93033571306E+01 -0.60894994303E+02  0.62500000000E+02  0.47000000000E+01 0.  1.
         -5    1    1    0    0  501  0.94555388523E+01  0.93033571306E+01  0.60894994303E+02  0.62500000000E+02  0.47000000000E+01 0.  1.
</event>
<event>
 3    0  0.4607503E-005  0.9118800E+02  0.7546771E-02  0.1235069E+00
         25   -1    0    0    0    0  0.00000000000E+00  0.00000000000E+00  0.99999998245E-14  0.12500000000E+03  0.12500000000E+03 0.  0.
          5    1    1    0  501    0 -0.31348128906E+02 -0.26826439505E+02  0.46709709457E+02  0.62500000000E+02  0.47000000000E+01 0.  1.
         -5    1    1    0    0  501  0.31348128906E+02  0.26826439505E+02 -0.46709709457E+02  0.62500000000E+02  0.47000000000E+01 0.  1.
</event>
<event>
 3    0  0.4607503E-005  0.9118800E+02  0.7546771E-02  0.1235069E+00
         25   -1    0    0    0    0  0.00000000000E+00  0.00000000000E+00  0.99999998245E-14  0.12500000000E+03  0.12500000000E+03 0.  0.
          5    1    1    0  501    0  0.52810140344E+02 -0.13428426767E+01 -0.33067292758E+02  0.62500000000E+02  0.47000000000E+01 0.  1.
         -5    1    1    0    0  501 -0.52810140344E+02  0.13428426767E+01  0.33067292758E+02  0.62500000000E+02  0.47000000000E+01 0.  1.
</event>
<event>
 3    0  0.4607503E-005  0.9118800E+02  0.7546771E-02  0.1235069E+00
         25   -1    0    0    0    0  0.00000000000E+00  0.00000000000E+00  0.99999998245E-14  0.12500000000E+03  0.12500000000E+03 0.  0.
          5    1    1    0  501    0 -0.22181558779E+01  0.16942013112E+02 -0.59935031294E+02  0.62500000000E+02  0.47000000000E+01 0. -1.
         -5    1    1    0    0  501  0.22181558779E+01 -0.16942013112E+02  0.59935031294E+02  0.62500000000E+02  0.47000000000E+01 0. -1.
</event>
<event>
 3    0  0.4607503E-005  0.9118800E+02  0.7546771E-02  0.1235069E+00
         25   -1    0    0    0    0  0.00000000000E+00  0.00000000000E+00  0.99999998245E-14  0.12500000000E+03  0.12500000000E+03 0.  0.
          5    1    1    0  501    0 -0.25683932882E+02 -0.18811622787E+02 -0.53578152635E+02  0.62500000000E+02  0.47000000000E+01 0. -1.
         -5    1    1    0    0  501  0.25683932882E+02  0.18811622787E+02  0.53578152635E+02  0.62500000000E+02  0.47000000000E+01 0. -1.
</event>
<event>
 3    0  0.4607503E-005  0.9118800E+02  0.7546771E-02  0.1235069E+00
         25   -1    0    0    0    0  0.00000000000E+00  0.00000000000E+00  0.99999998245E-14  0.12500000000E+03  0.12500000000E+03 0.  0.
          5    1    1    0  501    0 -0.54651124675E+02 -0.29653136682E+02 -0.42551212290E+01  0.62500000000E+02  0.47000000000E+01 0. -1.
         -5    1    1    0    0  501  0.54651124675E+02  0.29653136682E+02  0.42551212290E+01  0.62500000000E+02  0.47000000000E+01 0. -1.
</event>
<event>
 3    0  0.4607503E-005  0.9118800E+02  0.7546771E-02  0.1235069E+00
         25   -1    0    0    0    0  0.00000000000E+00  0.00000000000E+00  0.99999998245E-14  0.12500000000E+03  0.12500000000E+03 0.  0.
          5    1    1    0  501    0  0.60511061781E+02 -0.24472356367E+01 -0.14716740125E+02  0.62500000000E+02  0.47000000000E+01 0. -1.
         -5    1    1    0    0  501 -0.60511061781E+02  0.24472356367E+01  0.14716740125E+02  0.62500000000E+02  0.47000000000E+01 0. -1.
</event>
<event>
 3    0  0.4607503E-005  0.9118800E+02  0.7546771E-02  0.1235069E+00
         25   -1    0    0    0    0  0.00000000000E+00  0.00000000000E+00  0.99999998245E-14  0.12500000000E+03  0.12500000000E+03 0.  0.
          5    1    1    0  501    0  0.11207877180E+02  0.49063626138E+02  0.36760088130E+02  0.62500000000E+02  0.47000000000E+01 0. -1.
         -5    1    1    0    0  501 -0.11207877180E+02 -0.49063626138E+02 -0.36760088130E+02  0.62500000000E+02  0.47000000000E+01 0. -1.
</event>
<event>
 3    0  0.4607503E-005  0.9118800E+02  0.7546771E-02  0.1235069E+00
         25   -1    0    0    0    0  0.00000000000E+00  0.00000000000E+00  0.99999998245E-14  0.12500000000E+03  0.12500000000E+03 0.  0.
          5    1    1    0  501    0 -0.38565753909E+02 -0.20051268506E+02  0.44663063674E+02  0.62500000000E+02  0.47000000000E+01 0.  1.
         -5    1    1    0    0  501  0.38565753909E+02  0.20051268506E+02 -0.44663063674E+02  0.62500000000E+02  0.47000000000E+01 0.  1.
</event>
<event>
 3    0  0.4607503E-005  0.9118800E+02  0.7546771E-02  0.1235069E+00
         25   -1    0    0    0    0  0.00000000000E+00  0.00000000000E+00  0.99999998245E-14  0.12500000000E+03  0.12500000000E+03 0.  0.
          5    1    1    0  501    0  0.55420557861E+01  0.55768189254E+02 -0.27264531629E+02  0.62500000000E+02  0.47000000000E+01 0. -1.
         -5    1    1    0    0  501 -0.55420557861E+01 -0.55768189254E+02  0.27264531629E+02  0.62500000000E+02  0.47000000000E+01 0. -1.
</event>
<event>
 3    0  0.4607503E-005  0.9118800E+02  0.7546771E-02  0.1235069E+00
         25   -1    0    0    0    0  0.00000000000E+00  0.00000000000E+00  0.99999998245E-14  0.12500000000E+03  0.12500000000E+03 0.  0.
          5    1    1    0  501    0  0.56321071385E+02 -0.64550937123E+01 -0.25892637626E+02  0.62500000000E+02  0.47000000000E+01 0. -1.
         -5    1    1    0    0  501 -0.56321071385E+02  0.64550937123E+01  0.25892637626E+02  0.62500000000E+02  0.47000000000E+01 0. -1.
</event>
<event>
 3    0  0.4607503E-005  0.9118800E+02  0.7546771E-02  0.1235069E+00
         25   -1    0    0    0    0  0.00000000000E+00  0.00000000000E+00  0.99999998245E-14  0.12500000000E+03  0.12500000000E+03 0.  0.
          5    1    1    0  501    0  0.13244681250E+02  0.59821615523E+02  0.11406696927E+02  0.62500000000E+02  0.47000000000E+01 0.  1.
         -5    1    1    0    0  501 -0.13244681250E+02 -0.59821615523E+02 -0.11406696927E+02  0.62500000000E+02  0.47000000000E+01 0.  1.
</event>
<event>
 3    0  0.4607503E-005  0.9118800E+02  0.7546771E-02  0.1235069E+00
         25   -1    0    0    0    0  0.00000000000E+00  0.00000000000E+00  0.99999998245E-14  0.12500000000E+03  0.12500000000E+03 0.  0.
          5    1    1    0  501    0 -0.57667501856E+02 -0.23339179511E+02  0.37285291313E+01  0.62500000000E+02  0.47000000000E+01 0.  1.
         -5    1    1    0    0  501  0.57667501856E+02  0.23339179511E+02 -0.37285291313E+01  0.62500000000E+02  0.47000000000E+01 0.  1.
</event>
<event>
 3    0  0.4607503E-005  0.9118800E+02  0.7546771E-02  0.1235069E+00
         25   -1    0    0    0    0  0.00000000000E+00  0.00000000000E+00  0.99999998245E-14  0.12500000000E+03  0.12500000000E+03 0.  0.
          5    1    1    0  501    0  0.26940056422E+02  0.21686246031E+02  0.51846890872E+02  0.62500000000E+02  0.47000000000E+01 0. -1.
         -5    1    1    0    0  501 -0.26940056422E+02 -0.21686246031E+02 -0.51846890872E+02  0.62500000000E+02  0.47000000000E+01 0. -1.
</event>
<event>
 3    0  0.4607503E-005  0.9118800E+02  0.7546771E-02  0.1235069E+00
         25   -1    0    0    0    0  0.00000000000E+00  0.00000000000E+00  0.99999998245E-14  0.12500000000E+03  0.12500000000E+03 0.  0.
          5    1    1    0  501    0 -0.30465585029E+02 -0.53549105845E+02  0.94075178484E+01  0.62500000000E+02  0.47000000000E+01 0. -1.
         -5    1    1    0    0  501  0.30465585029E+02  0.53549105845E+02 -0.94075178484E+01  0.62500000000E+02  0.47000000000E+01 0. -1.
</event>
<event>
 3    0  0.4607503E-005  0.9118800E+02  0.7546771E-02  0.1235069E+00
         25   -1    0    0    0    0  0.00000000000E+00  0.00000000000E+00  0.99999998245E-14  0.12500000000E+03  0.12500000000E+03 0.  0.
          5    1    1    0  501    0  0.34698483041E+02 -0.43720390453E+02  0.27725488873E+02  0.62500000000E+02  0.47000000000E+01 0. -1.
         -5    1    1    0    0  501 -0.34698483041E+02  0.43720390453E+02 -0.27725488873E+02  0.62500000000E+02  0.47000000000E+01 0. -1.
</event>
<event>
 3    0  0.4607503E-005  0.9118800E+02  0.7546771E-02  0.1235069E+00
         25   -1    0    0    0    0  0.00000000000E+00  0.00000000000E+00  0.99999998245E-14  0.12500000000E+03  0.12500000000E+03 0.  0.
          5    1    1    0  501    0  0.26222056569E+02  0.50805752490E+02  0.24806032799E+02  0.62500000000E+02  0.47000000000E+01 0. -1.
         -5    1    1    0    0  501 -0.26222056569E+02 -0.50805752490E+02 -0.24806032799E+02  0.62500000000E+02  0.47000000000E+01 0. -1.
</event>
<event>
 3    0  0.4607503E-005  0.9118800E+02  0.7546771E-02  0.1235069E+00
         25   -1    0    0    0    0  0.00000000000E+00  0.00000000000E+00  0.99999998245E-14  0.12500000000E+03  0.12500000000E+03 0.  0.
          5    1    1    0  501    0  0.23937637864E+02  0.18278853883E+02  0.54562193818E+02  0.62500000000E+02  0.47000000000E+01 0.  1.
         -5    1    1    0    0  501 -0.23937637864E+02 -0.18278853883E+02 -0.54562193818E+02  0.62500000000E+02  0.47000000000E+01 0.  1.
</event>
<event>
 3    0  0.4607503E-005  0.9118800E+02  0.7546771E-02  0.1235069E+00
         25   -1    0    0    0    0  0.00000000000E+00  0.00000000000E+00  0.99999998245E-14  0.12500000000E+03  0.12500000000E+03 0.  0.
          5    1    1    0  501    0  0.63101424979E+01  0.59845170171E+02  0.16214120663E+02  0.62500000000E+02  0.47000000000E+01 0.  1.
         -5    1    1    0    0  501 -0.63101424979E+01 -0.59845170171E+02 -0.16214120663E+02  0.62500000000E+02  0.47000000000E+01 0.  1.
</event>
<event>
 3    0  0.4607503E-005  0.9118800E+02  0.7546771E-02  0.1235069E+00
         25   -1    0    0    0    0  0.00000000000E+00  0.00000000000E+00  0.99999998245E-14  0.12500000000E+03  0.12500000000E+03 0.  0.
          5    1    1    0  501    0 -0.52209714895E+02 -0.25614099419E+02  0.22410345413E+02  0.62500000000E+02  0.47000000000E+01 0.  1.
         -5    1    1    0    0  501  0.52209714895E+02  0.25614099419E+02 -0.22410345413E+02  0.62500000000E+02  0.47000000000E+01 0.  1.
</event>
<event>
 3    0  0.4607503E-005  0.9118800E+02  0.7546771E-02  0.1235069E+00
         25   -1    0    0    0    0  0.00000000000E+00  0.00000000000E+00  0.99999998245E-14  0.12500000000E+03  0.12500000000E+03 0.  0.
          5    1    1    0  501    0  0.23950343502E+02  0.36747677182E+02 -0.44273573019E+02  0.62500000000E+02  0.47000000000E+01 0.  1.
         -5    1    1    0    0  501 -0.23950343502E+02 -0.36747677182E+02  0.44273573019E+02  0.62500000000E+02  0.47000000000E+01 0.  1.
</event>
<event>
 3    0  0.4607503E-005  0.9118800E+02  0.7546771E-02  0.1235069E+00
         25   -1    0    0    0    0  0.00000000000E+00  0.00000000000E+00  0.99999998245E-14  0.12500000000E+03  0.12500000000E+03 0.  0.
          5    1    1    0  501    0  0.59164400347E+01  0.55129143607E+02  0.28459326458E+02  0.62500000000E+02  0.47000000000E+01 0.  1.
         -5    1    1    0    0  501 -0.59164400347E+01 -0.55129143607E+02 -0.28459326458E+02  0.62500000000E+02  0.47000000000E+01 0.  1.
</event>
<event>
 3    0  0.4607503E-005  0.9118800E+02  0.7546771E-02  0.1235069E+00
         25   -1    0    0    0    0  0.00000000000E+00  0.00000000000E+00  0.99999998245E-14  0.12500000000E+03  0.12500000000E+03 0.  0.
          5    1    1    0  501    0  0.52406237727E+02 -0.33724581803E+02 -0.63152951645E+00  0.62500000000E+02  0.47000000000E+01 0. -1.
         -5    1    1    0    0  501 -0.52406237727E+02  0.33724581803E+02  0.63152951645E+00  0.62500000000E+02  0.47000000000E+01 0. -1.
</event>
<event>
 3    0  0.4607503E-005  0.9118800E+02  0.7546771E-02  0.1235069E+00
         25   -1    0    0    0    0  0.00000000000E+00  0.00000000000E+00  0.99999998245E-14  0.12500000000E+03  0.12500000000E+03 0.  0.
          5    1    1    0  501    0  0.42289142787E+02 -0.10630380441E+01  0.45767437687E+02  0.62500000000E+02  0.47000000000E+01 0.  1.
         -5    1    1    0    0  501 -0.42289142787E+02  0.10630380441E+01 -0.45767437687E+02  0.62500000000E+02  0.47000000000E+01 0.  1.
</event>
<event>
 3    0  0.4607503E-005  0.9118800E+02  0.7546771E-02  0.1235069E+00
         25   -1    0    0    0    0  0.00000000000E+00  0.00000000000E+00  0.99999998245E-14  0.12500000000E+03  0.12500000000E+03 0.  0.
          5    1    1    0  501    0  0.38054130570E+02 -0.46190336785E+02 -0.17392410251E+02  0.62500000000E+02  0.47000000000E+01 0.  1.
         -5    1    1    0    0  501 -0.38054130570E+02  0.46190336785E+02  0.17392410251E+02  0.62500000000E+02  0.47000000000E+01 0.  1.
</event>
<event>
 3    0  0.4607503E-005  0.9118800E+02  0.7546771E-02  0.1235069E+00
         25   -1    0    0    0    0  0.00000000000E+00  0.00000000000E+00  0.99999998245E-14  0.12500000000E+03  0.12500000000E+03 0.  0.
          5    1    1    0  501    0 -0.50039282491E+02 -0.37121842765E+02 -0.14829017172E+01  0.62500000000E+02  0.47000000000E+01 0. -1.
         -5    1    1    0    0  501  0.50039282491E+02  0.37121842765E+02  0.14829017172E+01  0.62500000000E+02  0.47000000000E+01 0. -1.
</event>
<event>
 3    0  0.4607503E-005  0.9118800E+02  0.7546771E-02  0.1235069E+00
         25   -1    0    0    0    0  0.00000000000E+00  0.00000000000E+00  0.99999998245E-14  0.12500000000E+03  0.12500000000E+03 0.  0.
          5    1    1    0  501    0 -0.60759188539E+02 -0.58724648031E+01 -0.12569612771E+02  0.62500000000E+02  0.47000000000E+01 0. -1.
         -5    1    1    0    0  501  0.60759188539E+02  0.58724648031E+01  0.12569612771E+02  0.62500000000E+02  0.47000000000E+01 0. -1.
</event>
<event>
 3    0  0.4607503E-005  0.9118800E+02  0.7546771E-02  0.1235069E+00
         25   -1    0    0    0    0  0.00000000000E+00  0.00000000000E+00  0.99999998245E-14  0.12500000000E+03  0.12500000000E+03 0.  0.
          5    1    1    0  501    0 -0.21128962084E+02  0.53158756994E+02  0.24736077218E+02  0.62500000000E+02  0.47000000000E+01 0.  1.
         -5    1    1    0    0  501  0.21128962084E+02 -0.53158756994E+02 -0.24736077218E+02  0.62500000000E+02  0.47000000000E+01 0.  1.
</event>
<event>
 3    0  0.4607503E-005  0.9118800E+02  0.7546771E-02  0.1235069E+00
         25   -1    0    0    0    0  0.00000000000E+00  0.00000000000E+00  0.99999998245E-14  0.12500000000E+03  0.12500000000E+03 0.  0.
          5    1    1    0  501    0 -0.31698001197E+02  0.37387264645E+02  0.38491416738E+02  0.62500000000E+02  0.47000000000E+01 0.  1.
         -5    1    1    0    0  501  0.31698001197E+02 -0.37387264645E+02 -0.38491416738E+02  0.62500000000E+02  0.47000000000E+01 0.  1.
</event>
<event>
 3    0  0.4607503E-005  0.9118800E+02  0.7546771E-02  0.1235069E+00
         25   -1    0    0    0    0  0.00000000000E+00  0.00000000000E+00  0.99999998245E-14  0.12500000000E+03  0.12500000000E+03 0.  0.
          5    1    1    0  501    0 -0.98937241901E+01 -0.29062530245E+02 -0.54236920611E+02  0.62500000000E+02  0.47000000000E+01 0. -1.
         -5    1    1    0    0  501  0.98937241901E+01  0.29062530245E+02  0.54236920611E+02  0.62500000000E+02  0.47000000000E+01 0. -1.
</event>
<event>
 3    0  0.4607503E-005  0.9118800E+02  0.7546771E-02  0.1235069E+00
         25   -1    0    0    0    0  0.00000000000E+00  0.00000000000E+00  0.99999998245E-14  0.12500000000E+03  0.12500000000E+03 0.  0.
          5    1    1    0  501    0 -0.21841996029E+02  0.16028808071E+01 -0.58348247468E+02  0.62500000000E+02  0.47000000000E+01 0. -1.
         -5    1    1    0    0  501  0.21841996029E+02 -0.16028808071E+01  0.58348247468E+02  0.62500000000E+02  0.47000000000E+01 0. -1.
</event>
<event>
 3    0  0.4607503E-005  0.9118800E+02  0.7546771E-02  0.1235069E+00
         25   -1    0    0    0    0  0.00000000000E+00  0.00000000000E+00  0.99999998245E-14  0.12500000000E+03  0.12500000000E+03 0.  0.
          5    1    1    0  501    0 -0.59214904833E+02 -0.18467465194E+02 -0.60586941621E+01  0.62500000000E+02  0.47000000000E+01 0.  1.
         -5    1    1    0    0  501  0.59214904833E+02  0.18467465194E+02  0.60586941621E+01  0.62500000000E+02  0.47000000000E+01 0.  1.
</event>
<event>
 3    0  0.4607503E-005  0.9118800E+02  0.7546771E-02  0.1235069E+00
         25   -1    0    0    0    0  0.00000000000E+00  0.00000000000E+00  0.99999998245E-14  0.12500000000E+03  0.12500000000E+03 0.  0.
          5    1    1    0  501    0 -0.13886940679E+02 -0.60313735833E+02  0.73188898337E+01  0.62500000000E+02  0.47000000000E+01 0. -1.
         -5    1    1    0    0  501  0.13886940679E+02  0.60313735833E+02 -0.73188898337E+01  0.62500000000E+02  0.47000000000E+01 0. -1.
</event>
<event>
 3    0  0.4607503E-005  0.9118800E+02  0.7546771E-02  0.1235069E+00
         25   -1    0    0    0    0  0.00000000000E+00  0.00000000000E+00  0.99999998245E-14  0.12500000000E+03  0.12500000000E+03 0.  0.
          5    1    1    0  501    0 -0.24604827906E+02  0.55998429322E+02 -0.11955683049E+02  0.62500000000E+02  0.47000000000E+01 0.  1.
         -5    1    1    0    0  501  0.24604827906E+02 -0.55998429322E+02  0.11955683049E+02  0.62500000000E+02  0.47000000000E+01 0.  1.
</event>
<event>
 3    0  0.4607503E-005  0.9118800E+02  0.7546771E-02  0.1235069E+00
         25   -1    0    0    0    0  0.00000000000E+00  0.00000000000E+00  0.99999998245E-14  0.12500000000E+03  0.12500000000E+03 0.  0.
          5    1    1    0  501    0 -0.77255503033E+01  0.57661766930E+02  0.22351655576E+02  0.62500000000E+02  0.47000000000E+01 0. -1.
         -5    1    1    0    0  501  0.77255503033E+01 -0.57661766930E+02 -0.22351655576E+02  0.62500000000E+02  0.47000000000E+01 0. -1.
</event>
<event>
 3    0  0.4607503E-005  0.9118800E+02  0.7546771E-02  0.1235069E+00
         25   -1    0    0    0    0  0.00000000000E+00  0.00000000000E+00  0.99999998245E-14  0.12500000000E+03  0.12500000000E+03 0.  0.
          5    1    1    0  501    0  0.21030540041E+02 -0.50602027363E+02 -0.29686886201E+02  0.62500000000E+02  0.47000000000E+01 0. -1.
         -5    1    1    0    0  501 -0.21030540041E+02  0.50602027363E+02  0.29686886201E+02  0.62500000000E+02  0.47000000000E+01 0. -1.
</event>
<event>
 3    0  0.4607503E-005  0.9118800E+02  0.7546771E-02  0.1235069E+00
         25   -1    0    0    0    0  0.00000000000E+00  0.00000000000E+00  0.99999998245E-14  0.12500000000E+03  0.12500000000E+03 0.  0.
          5    1    1    0  501    0 -0.38660977041E+02 -0.34614214240E+02 -0.34515866305E+02  0.62500000000E+02  0.47000000000E+01 0.  1.
         -5    1    1    0    0  501  0.38660977041E+02  0.34614214240E+02  0.34515866305E+02  0.62500000000E+02  0.47000000000E+01 0.  1.
</event>
<event>
 3    0  0.4607503E-005  0.9118800E+02  0.7546771E-02  0.1235069E+00
         25   -1    0    0    0    0  0.00000000000E+00  0.00000000000E+00  0.99999998245E-14  0.12500000000E+03  0.12500000000E+03 0.  0.
          5    1    1    0  501    0  0.54122834054E+02  0.30650256316E+02  0.39294556608E+01  0.62500000000E+02  0.47000000000E+01 0.  1.
         -5    1    1    0    0  501 -0.54122834054E+02 -0.30650256316E+02 -0.39294556608E+01  0.62500000000E+02  0.47000000000E+01 0.  1.
</event>
<event>
 3    0  0.4607503E-005  0.9118800E+02  0.7546771E-02  0.1235069E+00
         25   -1    0    0    0    0  0.00000000000E+00  0.00000000000E+00  0.99999998245E-14  0.12500000000E+03  0.12500000000E+03 0.  0.
          5    1    1    0  501    0 -0.18108435399E+01 -0.53526949594E+02 -0.31870778353E+02  0.62500000000E+02  0.47000000000E+01 0.  1.
         -5    1    1    0    0  501  0.18108435399E+01  0.53526949594E+02  0.31870778353E+02  0.62500000000E+02  0.47000000000E+01 0.  1.
</event>
<event>
 3    0  0.4607503E-005  0.9118800E+02  0.7546771E-02  0.1235069E+00
         25   -1    0    0    0    0  0.00000000000E+00  0.00000000000E+00  0.99999998245E-14  0.12500000000E+03  0.12500000000E+03 0.  0.
          5    1    1    0  501    0 -0.33387216384E+02 -0.12726218456E+02  0.51063657780E+02  0.62500000000E+02  0.47000000000E+01 0.  1.
         -5    1    1    0    0  501  0.33387216384E+02  0.12726218456E+02 -0.51063657780E+02  0.62500000000E+02  0.47000000000E+01 0.  1.
</event>
<event>
 3    0  0.4607503E-005  0.9118800E+02  0.7546771E-02  0.1235069E+00
         25   -1    0    0    0    0  0.00000000000E+00  0.00000000000E+00  0.99999998245E-14  0.12500000000E+03  0.12500000000E+03 0.  0.
          5    1    1    0  501    0 -0.23509433339E+02  0.26895455704E+02 -0.51069570260E+02  0.62500000000E+02  0.47000000000E+01 0.  1.
         -5    1    1    0    0  501  0.23509433339E+02 -0.26895455704E+02  0.51069570260E+02  0.62500000000E+02  0.47000000000E+01 0.  1.
</event>
<event>
 3    0  0.4607503E-005  0.9118800E+02  0.7546771E-02  0.1235069E+00
         25   -1    0    0    0    0  0.00000000000E+00  0.00000000000E+00  0.99999998245E-14  0.12500000000E+03  0.12500000000E+03 0.  0.
          5    1    1    0  501    0  0.60879908866E+02  0.28256625384E+01  0.13031205917E+02  0.62500000000E+02  0.47000000000E+01 0. -1.
         -5    1    1    0    0  501 -0.60879908866E+02 -0.28256625384E+01 -0.13031205917E+02  0.62500000000E+02  0.47000000000E+01 0. -1.
</event>
<event>
 3    0  0.4607503E-005  0.9118800E+02  0.7546771E-02  0.1235069E+00
         25   -1    0    0    0    0  0.00000000000E+00  0.00000000000E+00  0.99999998245E-14  0.12500000000E+03  0.12500000000E+03 0.  0.
          5    1    1    0  501    0 -0.29802111358E+02 -0.89654369485E+01  0.53996435983E+02  0.62500000000E+02  0.47000000000E+01 0. -1.
         -5    1    1    0    0  501  0.29802111358E+02  0.89654369485E+01 -0.53996435983E+02  0.62500000000E+02  0.47000000000E+01 0. -1.
</event>
<event>
 3    0  0.4607503E-005  0.9118800E+02  0.7546771E-02  0.1235069E+00
         25   -1    0    0    0    0  0.00000000000E+00  0.00000000000E+00  0.99999998245E-14  0.12500000000E+03  0.12500000000E+03 0.  0.
          5    1    1    0  501    0 -0.22509929710E+02 -0.54063673611E+02  0.21320934786E+02  0.62500000000E+02  0.47000000000E+01 0.  1.
         -5    1    1    0    0  501  0.22509929710E+02  0.54063673611E+02 -0.21320934786E+02  0.62500000000E+02  0.47000000000E+01 0.  1.
</event>
<event>
 3    0  0.4607503E-005  0.9118800E+02  0.7546771E-02  0.1235069E+00
         25   -1    0    0    0    0  0.00000000000E+00  0.00000000000E+00  0.99999998245E-14  0.12500000000E+03  0.12500000000E+03 0.  0.
          5    1    1    0  501    0  0.39083333335E+02 -0.48444935378E+02  0.31211042420E+01  0.62500000000E+02  0.47000000000E+01 0.  1.
         -5    1    1    0    0  501 -0.39083333335E+02  0.48444935378E+02 -0.31211042420E+01  0.62500000000E+02  0.47000000000E+01 0.  1.
</event>
<event>
 3    0  0.4607503E-005  0.9118800E+02  0.7546771E-02  0.1235069E+00
         25   -1    0    0    0    0  0.00000000000E+00  0.00000000000E+00  0.99999998245E-14  0.12500000000E+03  0.12500000000E+03 0.  0.
          5    1    1    0  501    0  0.33434637596E+00  0.35857987064E+02  0.50973061280E+02  0.62500000000E+02  0.47000000000E+01 0.  1.
         -5    1    1    0    0  501 -0.33434637596E+00 -0.35857987064E+02 -0.50973061280E+02  0.62500000000E+02  0.47000000000E+01 0.  1.
</event>
<event>
 3    0  0.4607503E-005  0.9118800E+02  0.7546771E-02  0.1235069E+00
         25   -1    0    0    0    0  0.00000000000E+00  0.00000000000E+00  0.99999998245E-14  0.12500000000E+03  0.12500000000E+03 0.  0.
          5    1    1    0  501    0 -0.57436576765E+02 -0.14334872076E+02  0.19486176949E+02  0.62500000000E+02  0.47000000000E+01 0.  1.
         -5    1    1    0    0  501  0.57436576765E+02  0.14334872076E+02 -0.19486176949E+02  0.62500000000E+02  0.47000000000E+01 0.  1.
</event>
<event>
 3    0  0.4607503E-005  0.9118800E+02  0.7546771E-02  0.1235069E+00
         25   -1    0    0    0    0  0.00000000000E+00  0.00000000000E+00  0.99999998245E-14  0.12500000000E+03  0.12500000000E+03 0.  0.
          5    1    1    0  501    0  0.13318037006E+02 -0.30174126988E+02  0.52880165949E+02  0.62500000000E+02  0.47000000000E+01 0. -1.
         -5    1    1    0    0  501 -0.13318037006E+02  0.30174126988E+02 -0.52880165949E+02  0.62500000000E+02  0.47000000000E+01 0. -1.
</event>
<event>
 3    0  0.4607503E-005  0.9118800E+02  0.7546771E-02  0.1235069E+00
         25   -1    0    0    0    0  0.00000000000E+00  0.00000000000E+00  0.99999998245E-14  0.12500000000E+03  0.12500000000E+03 0.  0.
          5    1    1    0  501    0  0.30135911010E+02 -0.21575650013E+02 -0.50104672378E+02  0.62500000000E+02  0.47000000000E+01 0.  1.
         -5    1    1    0    0  501 -0.30135911010E+02  0.21575650013E+02  0.50104672378E+02  0.62500000000E+02  0.47000000000E+01 0.  1.
</event>
<event>
 3    0  0.4607503E-005  0.9118800E+02  0.7546771E-02  0.1235069E+00
         25   -1    0    0    0    0  0.00000000000E+00  0.00000000000E+00  0.99999998245E-14  0.12500000000E+03  0.12500000000E+03 0.  0.
          5    1    1    0  501    0 -0.62285879914E+02 -0.21308498200E+01 -0.29772862901E+00  0.62500000000E+02  0.47000000000E+01 0.  1.
         -5    1    1    0    0  501  0.62285879914E+02  0.21308498200E+01  0.29772862901E+00  0.62500000000E+02  0.47000000000E+01 0.  1.
</event>
<event>
 3    0  0.4607503E-005  0.9118800E+02  0.7546771E-02  0.1235069E+00
         25   -1    0    0    0    0  0.00000000000E+00  0.00000000000E+00  0.99999998245E-14  0.12500000000E+03  0.12500000000E+03 0.  0.
          5    1    1    0  501    0  0.39025757314E+02 -0.43337973127E+02  0.21976586435E+02  0.62500000000E+02  0.47000000000E+01 0. -1.
         -5    1    1    0    0  501 -0.39025757314E+02  0.43337973127E+02 -0.21976586435E+02  0.62500000000E+02  0.47000000000E+01 0. -1.
</event>
<event>
 3    0  0.4607503E-005  0.9118800E+02  0.7546771E-02  0.1235069E+00
         25   -1    0    0    0    0  0.00000000000E+00  0.00000000000E+00  0.99999998245E-14  0.12500000000E+03  0.12500000000E+03 0.  0.
          5    1    1    0  501    0  0.46162884923E+02  0.67488300052E+01 -0.41323133342E+02  0.62500000000E+02  0.47000000000E+01 0. -1.
         -5    1    1    0    0  501 -0.46162884923E+02 -0.67488300052E+01  0.41323133342E+02  0.62500000000E+02  0.47000000000E+01 0. -1.
</event>
<event>
 3    0  0.4607503E-005  0.9118800E+02  0.7546771E-02  0.1235069E+00
         25   -1    0    0    0    0  0.00000000000E+00  0.00000000000E+00  0.99999998245E-14  0.12500000000E+03  0.12500000000E+03 0.  0.
          5    1    1    0  501    0 -0.50077065448E+01  0.61782232514E+02  0.64837196687E+01  0.62500000000E+02  0.47000000000E+01 0.  1.
         -5    1    1    0    0  501  0.50077065448E+01 -0.61782232514E+02 -0.64837196687E+01  0.62500000000E+02  0.47000000000E+01 0.  1.
</event>
<event>
 3    0  0.4607503E-005  0.9118800E+02  0.7546771E-02  0.1235069E+00
         25   -1    0    0    0    0  0.00000000000E+00  0.00000000000E+00  0.99999998245E-14  0.12500000000E+03  0.12500000000E+03 0.  0.
          5    1    1    0  501    0 -0.60461763381E+02  0.13138224580E+02  0.74781163242E+01  0.62500000000E+02  0.47000000000E+01 0. -1.
         -5    1    1    0    0  501  0.60461763381E+02 -0.13138224580E+02 -0.74781163242E+01  0.62500000000E+02  0.47000000000E+01 0. -1.
</event>
<event>
 3    0  0.4607503E-005  0.9118800E+02  0.7546771E-02  0.1235069E+00
         25   -1    0    0    0    0  0.00000000000E+00  0.00000000000E+00  0.99999998245E-14  0.12500000000E+03  0.12500000000E+03 0.  0.
          5    1    1    0  501    0  0.19194134540E+01  0.34915525625E+02  0.51588583256E+02  0.62500000000E+02  0.47000000000E+01 0. -1.
         -5    1    1    0    0  501 -0.19194134540E+01 -0.34915525625E+02 -0.51588583256E+02  0.62500000000E+02  0.47000000000E+01 0. -1.
</event>
<event>
 3    0  0.4607503E-005  0.9118800E+02  0.7546771E-02  0.1235069E+00
         25   -1    0    0    0    0  0.00000000000E+00  0.00000000000E+00  0.99999998245E-14  0.12500000000E+03  0.12500000000E+03 0.  0.
          5    1    1    0  501    0 -0.31710438181E+02  0.36559880853E+02 -0.39268094204E+02  0.62500000000E+02  0.47000000000E+01 0. -1.
         -5    1    1    0    0  501  0.31710438181E+02 -0.36559880853E+02  0.39268094204E+02  0.62500000000E+02  0.47000000000E+01 0. -1.
</event>
<event>
 3    0  0.4607503E-005  0.9118800E+02  0.7546771E-02  0.1235069E+00
         25   -1    0    0    0    0  0.00000000000E+00  0.00000000000E+00  0.99999998245E-14  0.12500000000E+03  0.12500000000E+03 0.  0.
          5    1    1    0  501    0  0.45538350103E+02 -0.36168313355E+02  0.22411420726E+02  0.62500000000E+02  0.47000000000E+01 0. -1.
         -5    1    1    0    0  501 -0.45538350103E+02  0.36168313355E+02 -0.22411420726E+02  0.62500000000E+02  0.47000000000E+01 0. -1.
</event>
<event>
 3    0  0.4607503E-005  0.9118800E+02  0.7546771E-02  0.1235069E+00
         25   -1    0    0    0    0  0.00000000000E+00  0.00000000000E+00  0.99999998245E-14  0.12500000000E+03  0.12500000000E+03 0.  0.
          5    1    1    0  501    0  0.22782265948E+02  0.48802326100E+02  0.31360186949E+02  0.62500000000E+02  0.47000000000E+01 0. -1.
         -5    1    1    0    0  501 -0.22782265948E+02 -0.48802326100E+02 -0.31360186949E+02  0.62500000000E+02  0.47000000000E+01 0. -1.
</event>
<event>
 3    0  0.4607503E-005  0.9118800E+02  0.7546771E-02  0.1235069E+00
         25   -1    0    0    0    0  0.00000000000E+00  0.00000000000E+00  0.99999998245E-14  0.12500000000E+03  0.12500000000E+03 0.  0.
          5    1    1    0  501    0 -0.16156489352E+02  0.28603143696E+02  0.52962137632E+02  0.62500000000E+02  0.47000000000E+01 0. -1.
         -5    1    1    0    0  501  0.16156489352E+02 -0.28603143696E+02 -0.52962137632E+02  0.62500000000E+02  0.47000000000E+01 0. -1.
</event>
<event>
 3    0  0.4607503E-005  0.9118800E+02  0.7546771E-02  0.1235069E+00
         25   -1    0    0    0    0  0.00000000000E+00  0.00000000000E+00  0.99999998245E-14  0.12500000000E+03  0.12500000000E+03 0.  0.
          5    1    1    0  501    0  0.20011645717E+02  0.54817189043E+02  0.21880809427E+02  0.62500000000E+02  0.47000000000E+01 0. -1.
         -5    1    1    0    0  501 -0.20011645717E+02 -0.54817189043E+02 -0.21880809427E+02  0.62500000000E+02  0.47000000000E+01 0. -1.
</event>
<event>
 3    0  0.4607503E-005  0.9118800E+02  0.7546771E-02  0.1235069E+00
         25   -1    0    0    0    0  0.00000000000E+00  0.00000000000E+00  0.99999998245E-14  0.12500000000E+03  0.12500000000E+03 0.  0.
          5    1    1    0  501    0 -0.21507370773E+02  0.49948332446E+02  0.30442685300E+02  0.62500000000E+02  0.47000000000E+01 0. -1.
         -5    1    1    0    0  501  0.21507370773E+02 -0.49948332446E+02 -0.30442685300E+02  0.62500000000E+02  0.47000000000E+01 0. -1.
</event>
<event>
 3    0  0.4607503E-005  0.9118800E+02  0.7546771E-02  0.1235069E+00
         25   -1    0    0    0    0  0.00000000000E+00  0.00000000000E+00  0.99999998245E-14  0.12500000000E+03  0.12500000000E+03 0.  0.
          5    1    1    0  501    0  0.54407328856E+02 -0.30340995113E+02 -0.18511029790E+01  0.62500000000E+02  0.47000000000E+01 0.  1.
         -5    1    1    0    0  501 -0.54407328856E+02  0.30340995113E+02  0.18511029790E+01  0.62500000000E+02  0.47000000000E+01 0.  1.
</event>
<event>
 3    0  0.4607503E-005  0.9118800E+02  0.7546771E-02  0.1235069E+00
         25   -1    0    0    0    0  0.00000000000E+00  0.00000000000E+00  0.99999998245E-14  0.12500000000E+03  0.12500000000E+03 0.  0.
          5    1    1    0  501    0 -0.35905164562E+02  0.50250089874E+02  0.83610780043E+01  0.62500000000E+02  0.47000000000E+01 0. -1.
         -5    1    1    0    0  501  0.35905164562E+02 -0.50250089874E+02 -0.83610780043E+01  0.62500000000E+02  0.47000000000E+01 0. -1.
</event>
<event>
 3    0  0.4607503E-005  0.9118800E+02  0.7546771E-02  0.1235069E+00
         25   -1    0    0    0    0  0.00000000000E+00  0.00000000000E+00  0.99999998245E-14  0.12500000000E+03  0.12500000000E+03 0.  0.
          5    1    1    0  501    0 -0.51827217932E+02 -0.71536390498E+01  0.33866280129E+02  0.62500000000E+02  0.47000000000E+01 0. -1.
         -5    1    1    0    0  501  0.51827217932E+02  0.71536390498E+01 -0.33866280129E+02  0.62500000000E+02  0.47000000000E+01 0. -1.
</event>
<event>
 3    0  0.4607503E-005  0.9118800E+02  0.7546771E-02  0.1235069E+00
         25   -1    0    0    0    0  0.00000000000E+00  0.00000000000E+00  0.99999998245E-14  0.12500000000E+03  0.12500000000E+03 0.  0.
          5    1    1    0  501    0 -0.34701296368E+02  0.38092680183E+02  0.35056065764E+02  0.62500000000E+02  0.47000000000E+01 0. -1.
         -5    1    1    0    0  501  0.34701296368E+02 -0.38092680183E+02 -0.35056065764E+02  0.62500000000E+02  0.47000000000E+01 0. -1.
</event>
<event>
 3    0  0.4607503E-005  0.9118800E+02  0.7546771E-02  0.1235069E+00
         25   -1    0    0    0    0  0.00000000000E+00  0.00000000000E+00  0.99999998245E-14  0.12500000000E+03  0.12500000000E+03 0.  0.
          5    1    1    0  501    0 -0.55411173153E+02  0.83209971890E+01 -0.27285946852E+02  0.62500000000E+02  0.47000000000E+01 0.  1.
         -5    1    1    0    0  501  0.55411173153E+02 -0.83209971890E+01  0.27285946852E+02  0.62500000000E+02  0.47000000000E+01 0.  1.
</event>
<event>
 3    0  0.4607503E-005  0.9118800E+02  0.7546771E-02  0.1235069E+00
         25   -1    0    0    0    0  0.00000000000E+00  0.00000000000E+00  0.99999998245E-14  0.12500000000E+03  0.12500000000E+03 0.  0.
          5    1    1    0  501    0  0.58394887719E+02  0.40842377005E+01 -0.21389625774E+02  0.62500000000E+02  0.47000000000E+01 0. -1.
         -5    1    1    0    0  501 -0.58394887719E+02 -0.40842377005E+01  0.21389625774E+02  0.62500000000E+02  0.47000000000E+01 0. -1.
</event>
<event>
 3    0  0.4607503E-005  0.9118800E+02  0.7546771E-02  0.1235069E+00
         25   -1    0    0    0    0  0.00000000000E+00  0.00000000000E+00  0.99999998245E-14  0.12500000000E+03  0.12500000000E+03 0.  0.
          5    1    1    0  501    0  0.10283617031E+02 -0.59766899910E+02 -0.14364013922E+02  0.62500000000E+02  0.47000000000E+01 0.  1.
         -5    1    1    0    0  501 -0.10283617031E+02  0.59766899910E+02  0.14364013922E+02  0.62500000000E+02  0.47000000000E+01 0.  1.
</event>
<event>
 3    0  0.4607503E-005  0.9118800E+02  0.7546771E-02  0.1235069E+00
         25   -1    0    0    0    0  0.00000000000E+00  0.00000000000E+00  0.99999998245E-14  0.12500000000E+03  0.12500000000E+03 0.  0.
          5    1    1    0  501    0 -0.38197029069E+02 -0.49221969510E+02 -0.15312373617E+01  0.62500000000E+02  0.47000000000E+01 0. -1.
         -5    1    1    0    0  501  0.38197029069E+02  0.49221969510E+02  0.15312373617E+01  0.62500000000E+02  0.47000000000E+01 0. -1.
</event>
<event>
 3    0  0.4607503E-005  0.9118800E+02  0.7546771E-02  0.1235069E+00
         25   -1    0    0    0    0  0.00000000000E+00  0.00000000000E+00  0.99999998245E-14  0.12500000000E+03  0.12500000000E+03 0.  0.
          5    1    1    0  501    0  0.37087197071E+02  0.49294572922E+02  0.88738319706E+01  0.62500000000E+02  0.47000000000E+01 0. -1.
         -5    1    1    0    0  501 -0.37087197071E+02 -0.49294572922E+02 -0.88738319706E+01  0.62500000000E+02  0.47000000000E+01 0. -1.
</event>
<event>
 3    0  0.4607503E-005  0.9118800E+02  0.7546771E-02  0.1235069E+00
         25   -1    0    0    0    0  0.00000000000E+00  0.00000000000E+00  0.99999998245E-14  0.12500000000E+03  0.12500000000E+03 0.  0.
          5    1    1    0  501    0 -0.53034406302E+02  0.88457728356E+01 -0.31516091940E+02  0.62500000000E+02  0.47000000000E+01 0.  1.
         -5    1    1    0    0  501  0.53034406302E+02 -0.88457728356E+01  0.31516091940E+02  0.62500000000E+02  0.47000000000E+01 0.  1.
</event>
<event>
 3    0  0.4607503E-005  0.9118800E+02  0.7546771E-02  0.1235069E+00
         25   -1    0    0    0    0  0.00000000000E+00  0.00000000000E+00  0.99999998245E-14  0.12500000000E+03  0.12500000000E+03 0.  0.
          5    1    1    0  501    0  0.56152960338E+02  0.22074036138E+00 -0.27036203857E+02  0.62500000000E+02  0.47000000000E+01 0.  1.
         -5    1    1    0    0  501 -0.56152960338E+02 -0.22074036138E+00  0.27036203857E+02  0.62500000000E+02  0.47000000000E+01 0.  1.
</event>
<event>
 3    0  0.4607503E-005  0.9118800E+02  0.7546771E-02  0.1235069E+00
         25   -1    0    0    0    0  0.00000000000E+00  0.00000000000E+00  0.99999998245E-14  0.12500000000E+03  0.12500000000E+03 0.  0.
          5    1    1    0  501    0 -0.35542129937E+02  0.47243958923E+02 -0.19721190249E+02  0.62500000000E+02  0.47000000000E+01 0. -1.
         -5    1    1    0    0  501  0.35542129937E+02 -0.47243958923E+02  0.19721190249E+02  0.62500000000E+02  0.47000000000E+01 0. -1.
</event>
<event>
 3    0  0.4607503E-005  0.9118800E+02  0.7546771E-02  0.1235069E+00
         25   -1    0    0    0    0  0.00000000000E+00  0.00000000000E+00  0.99999998245E-14  0.12500000000E+03  0.12500000000E+03 0.  0.
          5    1    1    0  501    0  0.10433711935E+02  0.51156968145E+02 -0.34033252350E+02  0.62500000000E+02  0.47000000000E+01 0. -1.
         -5    1    1    0    0  501 -0.10433711935E+02 -0.51156968145E+02  0.34033252350E+02  0.62500000000E+02  0.47000000000E+01 0. -1.
</event>
<event>
 3    0  0.4607503E-005  0.9118800E+02  0.7546771E-02  0.1235069E+00
         25   -1    0    0    0    0  0.00000000000E+00  0.00000000000E+00  0.99999998245E-14  0.12500000000E+03  0.12500000000E+03 0.  0.
          5    1    1    0  501    0  0.59159891648E+02 -0.85848034156E+01 -0.17622950107E+02  0.62500000000E+02  0.47000000000E+01 0. -1.
         -5    1    1    0    0  501 -0.59159891648E+02  0.85848034156E+01  0.17622950107E+02  0.62500000000E+02  0.47000000000E+01 0. -1.
</event>
<event>
 3    0  0.4607503E-005  0.9118800E+02  0.7546771E-02  0.1235069E+00
         25   -1    0    0    0    0  0.00000000000E+00  0.00000000000E+00  0.99999998245E-14  0.12500000000E+03  0.12500000000E+03 0.  0.
          5    1    1    0  501    0 -0.31217585949E+02 -0.50712308016E+02 -0.18381625153E+02  0.62500000000E+02  0.47000000000E+01 0.  1.
         -5    1    1    0    0  501  0.31217585949E+02  0.50712308016E+02  0.18381625153E+02  0.62500000000E+02  0.47000000000E+01 0.  1.
</event>
<event>
 3    0  0.4607503E-005  0.9118800E+02  0.7546771E-02  0.1235069E+00
         25   -1    0    0    0    0  0.00000000000E+00  0.00000000000E+00  0.99999998245E-14  0.12500000000E+03  0.12500000000E+03 0.  0.
          5    1    1    0  501    0 -0.50476292695E+02  0.22389646099E+02  0.28896498461E+02  0.62500000000E+02  0.47000000000E+01 0. -1.
         -5    1    1    0    0  501  0.50476292695E+02 -0.22389646099E+02 -0.28896498461E+02  0.62500000000E+02  0.47000000000E+01 0. -1.
</event>
<event>
 3    0  0.4607503E-005  0.9118800E+02  0.7546771E-02  0.1235069E+00
         25   -1    0    0    0    0  0.00000000000E+00  0.00000000000E+00  0.99999998245E-14  0.12500000000E+03  0.12500000000E+03 0.  0.
          5    1    1    0  501    0 -0.56875037488E+02 -0.24121544222E+02  0.82183462474E+01  0.62500000000E+02  0.47000000000E+01 0.  1.
         -5    1    1    0    0  501  0.56875037488E+02  0.24121544222E+02 -0.82183462474E+01  0.62500000000E+02  0.47000000000E+01 0.  1.
</event>
<event>
 3    0  0.4607503E-005  0.9118800E+02  0.7546771E-02  0.1235069E+00
         25   -1    0    0    0    0  0.00000000000E+00  0.00000000000E+00  0.99999998245E-14  0.12500000000E+03  0.12500000000E+03 0.  0.
          5    1    1    0  501    0 -0.53592435031E+02  0.31164197219E+02  0.63877788913E+01  0.62500000000E+02  0.47000000000E+01 0.  1.
         -5    1    1    0    0  501  0.53592435031E+02 -0.31164197219E+02 -0.63877788913E+01  0.62500000000E+02  0.47000000000E+01 0.  1.
</event>
<event>
 3    0  0.4607503E-005  0.9118800E+02  0.7546771E-02  0.1235069E+00
         25   -1    0    0    0    0  0.00000000000E+00  0.00000000000E+00  0.99999998245E-14  0.12500000000E+03  0.12500000000E+03 0.  0.
          5    1    1    0  501    0 -0.25967353826E+02 -0.56609858284E+02 -0.22760668511E+01  0.62500000000E+02  0.47000000000E+01 0.  1.
         -5    1    1    0    0  501  0.25967353826E+02  0.56609858284E+02  0.22760668511E+01  0.62500000000E+02  0.47000000000E+01 0.  1.
</event>
<event>
 3    0  0.4607503E-005  0.9118800E+02  0.7546771E-02  0.1235069E+00
         25   -1    0    0    0    0  0.00000000000E+00  0.00000000000E+00  0.99999998245E-14  0.12500000000E+03  0.12500000000E+03 0.  0.
          5    1    1    0  501    0 -0.67744247559E+00  0.15734783841E+02  0.60300229263E+02  0.62500000000E+02  0.47000000000E+01 0. -1.
         -5    1    1    0    0  501  0.67744247559E+00 -0.15734783841E+02 -0.60300229263E+02  0.62500000000E+02  0.47000000000E+01 0. -1.
</event>
<event>
 3    0  0.4607503E-005  0.9118800E+02  0.7546771E-02  0.1235069E+00
         25   -1    0    0    0    0  0.00000000000E+00  0.00000000000E+00  0.99999998245E-14  0.12500000000E+03  0.12500000000E+03 0.  0.
          5    1    1    0  501    0 -0.40156626263E+01  0.56954066122E+02 -0.24985371838E+02  0.62500000000E+02  0.47000000000E+01 0.  1.
         -5    1    1    0    0  501  0.40156626263E+01 -0.56954066122E+02  0.24985371838E+02  0.62500000000E+02  0.47000000000E+01 0.  1.
</event>
<event>
 3    0  0.4607503E-005  0.9118800E+02  0.7546771E-02  0.1235069E+00
         25   -1    0    0    0    0  0.00000000000E+00  0.00000000000E+00  0.99999998245E-14  0.12500000000E+03  0.12500000000E+03 0.  0.
          5    1    1    0  501    0  0.20635587379E+01  0.43121357581E+02  0.44949418747E+02  0.62500000000E+02  0.47000000000E+01 0. -1.
         -5    1    1    0    0  501 -0.20635587379E+01 -0.43121357581E+02 -0.44949418747E+02  0.62500000000E+02  0.47000000000E+01 0. -1.
</event>
<event>
 3    0  0.4607503E-005  0.9118800E+02  0.7546771E-02  0.1235069E+00
         25   -1    0    0    0    0  0.00000000000E+00  0.00000000000E+00  0.99999998245E-14  0.12500000000E+03  0.12500000000E+03 0.  0.
          5    1    1    0  501    0 -0.23453765900E+02  0.56242973624E+02 -0.13069383420E+02  0.62500000000E+02  0.47000000000E+01 0. -1.
         -5    1    1    0    0  501  0.23453765900E+02 -0.56242973624E+02  0.13069383420E+02  0.62500000000E+02  0.47000000000E+01 0. -1.
</event>
<event>
 3    0  0.4607503E-005  0.9118800E+02  0.7546771E-02  0.1235069E+00
         25   -1    0    0    0    0  0.00000000000E+00  0.00000000000E+00  0.99999998245E-14  0.12500000000E+03  0.12500000000E+03 0.  0.
          5    1    1    0  501    0  0.57824934546E+02  0.51629749798E+01  0.22666729673E+02  0.62500000000E+02  0.47000000000E+01 0.  1.
         -5    1    1    0    0  501 -0.57824934546E+02 -0.51629749798E+01 -0.22666729673E+02  0.62500000000E+02  0.47000000000E+01 0.  1.
</event>
<event>
 3    0  0.4607503E-005  0.9118800E+02  0.7546771E-02  0.1235069E+00
         25   -1    0    0    0    0  0.00000000000E+00  0.00000000000E+00  0.99999998245E-14  0.12500000000E+03  0.12500000000E+03 0.  0.
          5    1    1    0  501    0  0.18297471064E+02  0.54138661237E+02  0.24867004486E+02  0.62500000000E+02  0.47000000000E+01 0.  1.
         -5    1    1    0    0  501 -0.18297471064E+02 -0.54138661237E+02 -0.24867004486E+02  0.62500000000E+02  0.47000000000E+01 0.  1.
</event>
<event>
 3    0  0.4607503E-005  0.9118800E+02  0.7546771E-02  0.1235069E+00
         25   -1    0    0    0    0  0.00000000000E+00  0.00000000000E+00  0.99999998245E-14  0.12500000000E+03  0.12500000000E+03 0.  0.
          5    1    1    0  501    0  0.24279022903E+02  0.86320671552E+01 -0.56746598695E+02  0.62500000000E+02  0.47000000000E+01 0.  1.
         -5    1    1    0    0  501 -0.24279022903E+02 -0.86320671552E+01  0.56746598695E+02  0.62500000000E+02  0.47000000000E+01 0.  1.
</event>
<event>
 3    0  0.4607503E-005  0.9118800E+02  0.7546771E-02  0.1235069E+00
         25   -1    0    0    0    0  0.00000000000E+00  0.00000000000E+00  0.99999998245E-14  0.12500000000E+03  0.12500000000E+03 0.  0.
          5    1    1    0  501    0 -0.53471391834E+02  0.16264112467E+02 -0.27576237978E+02  0.62500000000E+02  0.47000000000E+01 0.  1.
         -5    1    1    0    0  501  0.53471391834E+02 -0.16264112467E+02  0.27576237978E+02  0.62500000000E+02  0.47000000000E+01 0.  1.
</event>
<event>
 3    0  0.4607503E-005  0.9118800E+02  0.7546771E-02  0.1235069E+00
         25   -1    0    0    0    0  0.00000000000E+00  0.00000000000E+00  0.99999998245E-14  0.12500000000E+03  0.12500000000E+03 0.  0.
          5    1    1    0  501    0  0.40740113856E+02  0.47159930646E+02 -0.58657009512E+00  0.62500000000E+02  0.47000000000E+01 0.  1.
         -5    1    1    0    0  501 -0.40740113856E+02 -0.47159930646E+02  0.58657009512E+00  0.62500000000E+02  0.47000000000E+01 0.  1.
</event>
<event>
 3    0  0.4607503E-005  0.9118800E+02  0.7546771E-02  0.1235069E+00
         25   -1    0    0    0    0  0.00000000000E+00  0.00000000000E+00  0.99999998245E-14  0.12500000000E+03  0.12500000000E+03 0.  0.
          5    1    1    0  501    0  0.18210582298E+02  0.58023582948E+02  0.13630792869E+02  0.62500000000E+02  0.47000000000E+01 0. -1.
         -5    1    1    0    0  501 -0.18210582298E+02 -0.58023582948E+02 -0.13630792869E+02  0.62500000000E+02  0.47000000000E+01 0. -1.
</event>
<event>
 3    0  0.4607503E-005  0.9118800E+02  0.7546771E-02  0.1235069E+00
         25   -1    0    0    0    0  0.00000000000E+00  0.00000000000E+00  0.99999998245E-14  0.12500000000E+03  0.12500000000E+03 0.  0.
          5    1    1    0  501    0  0.60532816642E+02 -0.10812231806E+02  0.10150554308E+02  0.62500000000E+02  0.47000000000E+01 0. -1.
         -5    1    1    0    0  501 -0.60532816642E+02  0.10812231806E+02 -0.10150554308E+02  0.62500000000E+02  0.47000000000E+01 0. -1.
</event>
<event>
 3    0  0.4607503E-005  0.9118800E+02  0.7546771E-02  0.1235069E+00
         25   -1    0    0    0    0  0.00000000000E+00  0.00000000000E+00  0.99999998245E-14  0.12500000000E+03  0.12500000000E+03 0.  0.
          5    1    1    0  501    0  0.42682773094E+00  0.38878023385E+02  0.48708080600E+02  0.62500000000E+02  0.47000000000E+01 0. -1.
         -5    1    1    0    0  501 -0.42682773094E+00 -0.38878023385E+02 -0.48708080600E+02  0.62500000000E+02  0.47000000000E+01 0. -1.
</event>
<event>
 3    0  0.4607503E-005  0.9118800E+02  0.7546771E-02  0.1235069E+00
         25   -1    0    0    0    0  0.00000000000E+00  0.00000000000E+00  0.99999998245E-14  0.12500000000E+03  0.12500000000E+03 0.  0.
          5    1    1    0  501    0  0.17879932727E+01 -0.30597247032E+02  0.54265749365E+02  0.62500000000E+02  0.47000000000E+01 0.  1.
         -5    1    1    0    0  501 -0.17879932727E+01  0.30597247032E+02 -0.54265749365E+02  0.62500000000E+02  0.47000000000E+01 0.  1.
</event>
<event>
 3    0  0.4607503E-005  0.9118800E+02  0.7546771E-02  0.1235069E+00
         25   -1    0    0    0    0  0.00000000000E+00  0.00000000000E+00  0.99999998245E-14  0.12500000000E+03  0.12500000000E+03 0.  0.
          5    1    1    0  501    0  0.34748479477E+02  0.27107881969E+02 -0.44066607644E+02  0.62500000000E+02  0.47000000000E+01 0.  1.
         -5    1    1    0    0  501 -0.34748479477E+02 -0.27107881969E+02  0.44066607644E+02  0.62500000000E+02  0.47000000000E+01 0.  1.
</event>
<event>
 3    0  0.4607503E-005  0.9118800E+02  0.7546771E-02  0.1235069E+00
         25   -1    0    0    0    0  0.00000000000E+00  0.00000000000E+00  0.99999998245E-14  0.12500000000E+03  0.12500000000E+03 0.  0.
          5    1    1    0  501    0  0.60713933937E+02  0.13648184327E+02  0.34212995273E+01  0.62500000000E+02  0.47000000000E+01 0.  1.
         -5    1    1    0    0  501 -0.60713933937E+02 -0.13648184327E+02 -0.34212995273E+01  0.62500000000E+02  0.47000000000E+01 0.  1.
</event>
<event>
 3    0  0.4607503E-005  0.9118800E+02  0.7546771E-02  0.1235069E+00
         25   -1    0    0    0    0  0.00000000000E+00  0.00000000000E+00  0.99999998245E-14  0.12500000000E+03  0.12500000000E+03 0.  0.
          5    1    1    0  501    0 -0.18416549316E+01  0.51057443409E+02 -0.35691816705E+02  0.62500000000E+02  0.47000000000E+01 0. -1.
         -5    1    1    0    0  501  0.18416549316E+01 -0.51057443409E+02  0.35691816705E+02  0.62500000000E+02  0.47000000000E+01 0. -1.
</event>
<event>
 3    0  0.4607503E-005  0.9118800E+02  0.7546771E-02  0.1235069E+00
         25   -1    0    0    0    0  0.00000000000E+00  0.00000000000E+00  0.99999998245E-14  0.12500000000E+03  0.12500000000E+03 0.  0.
          5    1    1    0  501    0 -0.39375841388E+01 -0.60902829933E+02 -0.12629360129E+02  0.62500000000E+02  0.47000000000E+01 0.  1.
         -5    1    1    0    0  501  0.39375841388E+01  0.60902829933E+02  0.12629360129E+02  0.62500000000E+02  0.47000000000E+01 0.  1.
</event>
<event>
 3    0  0.4607503E-005  0.9118800E+02  0.7546771E-02  0.1235069E+00
         25   -1    0    0    0    0  0.00000000000E+00  0.00000000000E+00  0.99999998245E-14  0.12500000000E+03  0.12500000000E+03 0.  0.
          5    1    1    0  501    0  0.23521787027E+02 -0.10582644362E+02 -0.56735290370E+02  0.62500000000E+02  0.47000000000E+01 0.  1.
         -5    1    1    0    0  501 -0.23521787027E+02  0.10582644362E+02  0.56735290370E+02  0.62500000000E+02  0.47000000000E+01 0.  1.
</event>
<event>
 3    0  0.4607503E-005  0.9118800E+02  0.7546771E-02  0.1235069E+00
         25   -1    0    0    0    0  0.00000000000E+00  0.00000000000E+00  0.99999998245E-14  0.12500000000E+03  0.12500000000E+03 0.  0.
          5    1    1    0  501    0 -0.38331503725E+02 -0.48798439307E+02  0.57938021527E+01  0.62500000000E+02  0.47000000000E+01 0. -1.
         -5    1    1    0    0  501  0.38331503725E+02  0.48798439307E+02 -0.57938021527E+01  0.62500000000E+02  0.47000000000E+01 0. -1.
</event>
<event>
 3    0  0.4607503E-005  0.9118800E+02  0.7546771E-02  0.1235069E+00
         25   -1    0    0    0    0  0.00000000000E+00  0.00000000000E+00  0.99999998245E-14  0.12500000000E+03  0.12500000000E+03 0.  0.
          5    1    1    0  501    0 -0.24113351339E+02  0.20905767815E+02 -0.53531814459E+02  0.62500000000E+02  0.47000000000E+01 0.  1.
         -5    1    1    0    0  501  0.24113351339E+02 -0.20905767815E+02  0.53531814459E+02  0.62500000000E+02  0.47000000000E+01 0.  1.
</event>
<event>
 3    0  0.4607503E-005  0.9118800E+02  0.7546771E-02  0.1235069E+00
         25   -1    0    0    0    0  0.00000000000E+00  0.00000000000E+00  0.99999998245E-14  0.12500000000E+03  0.12500000000E+03 0.  0.
          5    1    1    0  501    0 -0.25938717607E+02 -0.53951267303E+00  0.56666143816E+02  0.62500000000E+02  0.47000000000E+01 0. -1.
         -5    1    1    0    0  501  0.25938717607E+02  0.53951267303E+00 -0.56666143816E+02  0.62500000000E+02  0.47000000000E+01 0. -1.
</event>
<event>
 3    0  0.4607503E-005  0.9118800E+02  0.7546771E-02  0.1235069E+00
         25   -1    0    0    0    0  0.00000000000E+00  0.00000000000E+00  0.99999998245E-14  0.12500000000E+03  0.12500000000E+03 0.  0.
          5    1    1    0  501    0  0.58420368665E+02 -0.84920480298E+01 -0.19977628622E+02  0.62500000000E+02  0.47000000000E+01 0. -1.
         -5    1    1    0    0  501 -0.58420368665E+02  0.84920480298E+01  0.19977628622E+02  0.62500000000E+02  0.47000000000E+01 0. -1.
</event>
<event>
 3    0  0.4607503E-005  0.9118800E+02  0.7546771E-02  0.1235069E+00
         25   -1    0    0    0    0  0.00000000000E+00  0.00000000000E+00  0.99999998245E-14  0.12500000000E+03  0.12500000000E+03 0.  0.
          5    1    1    0  501    0 -0.10106659687E+02 -0.16246571465E+02  0.59313272929E+02  0.62500000000E+02  0.47000000000E+01 0.  1.
         -5    1    1    0    0  501  0.10106659687E+02  0.16246571465E+02 -0.59313272929E+02  0.62500000000E+02  0.47000000000E+01 0.  1.
</event>
<event>
 3    0  0.4607503E-005  0.9118800E+02  0.7546771E-02  0.1235069E+00
         25   -1    0    0    0    0  0.00000000000E+00  0.00000000000E+00  0.99999998245E-14  0.12500000000E+03  0.12500000000E+03 0.  0.
          5    1    1    0  501    0  0.61454728105E+02 -0.31355811310E+01  0.98815244004E+01  0.62500000000E+02  0.47000000000E+01 0. -1.
         -5    1    1    0    0  501 -0.61454728105E+02  0.31355811310E+01 -0.98815244004E+01  0.62500000000E+02  0.47000000000E+01 0. -1.
</event>
<event>
 3    0  0.4607503E-005  0.9118800E+02  0.7546771E-02  0.1235069E+00
         25   -1    0    0    0    0  0.00000000000E+00  0.00000000000E+00  0.99999998245E-14  0.12500000000E+03  0.12500000000E+03 0.  0.
          5    1    1    0  501    0 -0.47712870653E+02  0.39705516792E+02  0.55779844362E+01  0.62500000000E+02  0.47000000000E+01 0. -1.
         -5    1    1    0    0  501  0.47712870653E+02 -0.39705516792E+02 -0.55779844362E+01  0.62500000000E+02  0.47000000000E+01 0. -1.
</event>
<event>
 3    0  0.4607503E-005  0.9118800E+02  0.7546771E-02  0.1235069E+00
         25   -1    0    0    0    0  0.00000000000E+00  0.00000000000E+00  0.99999998245E-14  0.12500000000E+03  0.12500000000E+03 0.  0.
          5    1    1    0  501    0 -0.55221687574E+02 -0.15399944174E+02 -0.24445182368E+02  0.62500000000E+02  0.47000000000E+01 0. -1.
         -5    1    1    0    0  501  0.55221687574E+02  0.15399944174E+02  0.24445182368E+02  0.62500000000E+02  0.47000000000E+01 0. -1.
</event>
<event>
 3    0  0.4607503E-005  0.9118800E+02  0.7546771E-02  0.1235069E+00
         25   -1    0    0    0    0  0.00000000000E+00  0.00000000000E+00  0.99999998245E-14  0.12500000000E+03  0.12500000000E+03 0.  0.
          5    1    1    0  501    0  0.15418942694E+02 -0.43206468585E+02  0.42185510293E+02  0.62500000000E+02  0.47000000000E+01 0.  1.
         -5    1    1    0    0  501 -0.15418942694E+02  0.43206468585E+02 -0.42185510293E+02  0.62500000000E+02  0.47000000000E+01 0.  1.
</event>
<event>
 3    0  0.4607503E-005  0.9118800E+02  0.7546771E-02  0.1235069E+00
         25   -1    0    0    0    0  0.00000000000E+00  0.00000000000E+00  0.99999998245E-14  0.12500000000E+03  0.12500000000E+03 0.  0.
          5    1    1    0  501    0 -0.31768311446E+01  0.11428375350E+02  0.61183821234E+02  0.62500000000E+02  0.47000000000E+01 0. -1.
         -5    1    1    0    0  501  0.31768311446E+01 -0.11428375350E+02 -0.61183821234E+02  0.62500000000E+02  0.47000000000E+01 0. -1.
</event>
<event>
 3    0  0.4607503E-005  0.9118800E+02  0.7546771E-02  0.1235069E+00
         25   -1    0    0    0    0  0.00000000000E+00  0.00000000000E+00  0.99999998245E-14  0.12500000000E+03  0.12500000000E+03 0.  0.
          5    1    1    0  501    0 -0.32153947143E+02  0.53102499366E+02 -0.55143670781E+01  0.62500000000E+02  0.47000000000E+01 0. -1.
         -5    1    1    0    0  501  0.32153947143E+02 -0.53102499366E+02  0.55143670781E+01  0.62500000000E+02  0.47000000000E+01 0. -1.
</event>
<event>
 3    0  0.4607503E-005  0.9118800E+02  0.7546771E-02  0.1235069E+00
         25   -1    0    0    0    0  0.00000000000E+00  0.00000000000E+00  0.99999998245E-14  0.12500000000E+03  0.12500000000E+03 0.  0.
          5    1    1    0  501    0  0.18146109665E+02 -0.92542787263E+01 -0.58900229450E+02  0.62500000000E+02  0.47000000000E+01 0. -1.
         -5    1    1    0    0  501 -0.18146109665E+02  0.92542787263E+01  0.58900229450E+02  0.62500000000E+02  0.47000000000E+01 0. -1.
</event>
<event>
 3    0  0.4607503E-005  0.9118800E+02  0.7546771E-02  0.1235069E+00
         25   -1    0    0    0    0  0.00000000000E+00  0.00000000000E+00  0.99999998245E-14  0.12500000000E+03  0.12500000000E+03 0.  0.
          5    1    1    0  501    0 -0.59959757302E+02  0.16540906215E+02 -0.39224897516E+01  0.62500000000E+02  0.47000000000E+01 0.  1.
         -5    1    1    0    0  501  0.59959757302E+02 -0.16540906215E+02  0.39224897516E+01  0.62500000000E+02  0.47000000000E+01 0.  1.
</event>
<event>
 3    0  0.4607503E-005  0.9118800E+02  0.7546771E-02  0.1235069E+00
         25   -1    0    0    0    0  0.00000000000E+00  0.00000000000E+00  0.99999998245E-14  0.12500000000E+03  0.12500000000E+03 0.  0.
          5    1    1    0  501    0 -0.14536169669E+02 -0.45828403904E+02  0.39656237428E+02  0.62500000000E+02  0.47000000000E+01 0. -1.
         -5    1    1    0    0  501  0.14536169669E+02  0.45828403904E+02 -0.39656237428E+02  0.62500000000E+02  0.47000000000E+01 0. -1.
</event>
<event>
 3    0  0.4607503E-005  0.9118800E+02  0.7546771E-02  0.1235069E+00
         25   -1    0    0    0    0  0.00000000000E+00  0.00000000000E+00  0.99999998245E-14  0.12500000000E+03  0.12500000000E+03 0.  0.
          5    1    1    0  501    0 -0.16801348262E+01 -0.41410199326E+02  0.46546026026E+02  0.62500000000E+02  0.47000000000E+01 0. -1.
         -5    1    1    0    0  501  0.16801348262E+01  0.41410199326E+02 -0.46546026026E+02  0.62500000000E+02  0.47000000000E+01 0. -1.
</event>
<event>
 3    0  0.4607503E-005  0.9118800E+02  0.7546771E-02  0.1235069E+00
         25   -1    0    0    0    0  0.00000000000E+00  0.00000000000E+00  0.99999998245E-14  0.12500000000E+03  0.12500000000E+03 0.  0.
          5    1    1    0  501    0  0.17130937518E+02 -0.59219537842E+02 -0.91508096621E+01  0.62500000000E+02  0.47000000000E+01 0. -1.
         -5    1    1    0    0  501 -0.17130937518E+02  0.59219537842E+02  0.91508096621E+01  0.62500000000E+02  0.47000000000E+01 0. -1.
</event>
<event>
 3    0  0.4607503E-005  0.9118800E+02  0.7546771E-02  0.1235069E+00
         25   -1    0    0    0    0  0.00000000000E+00  0.00000000000E+00  0.99999998245E-14  0.12500000000E+03  0.12500000000E+03 0.  0.
          5    1    1    0  501    0  0.17308232648E+02 -0.45188022225E+02  0.39276299851E+02  0.62500000000E+02  0.47000000000E+01 0.  1.
         -5    1    1    0    0  501 -0.17308232648E+02  0.45188022225E+02 -0.39276299851E+02  0.62500000000E+02  0.47000000000E+01 0.  1.
</event>
<event>
 3    0  0.4607503E-005  0.9118800E+02  0.7546771E-02  0.1235069E+00
         25   -1    0    0    0    0  0.00000000000E+00  0.00000000000E+00  0.99999998245E-14  0.12500000000E+03  0.12500000000E+03 0.  0.
          5    1    1    0  501    0  0.48647076209E+02 -0.74033135152E+01 -0.38246737447E+02  0.62500000000E+02  0.47000000000E+01 0. -1.
         -5    1    1    0    0  501 -0.48647076209E+02  0.74033135152E+01  0.38246737447E+02  0.62500000000E+02  0.47000000000E+01 0. -1.
</event>
<event>
 3    0  0.4607503E-005  0.9118800E+02  0.7546771E-02  0.1235069E+00
         25   -1    0    0    0    0  0.00000000000E+00  0.00000000000E+00  0.99999998245E-14  0.12500000000E+03  0.12500000000E+03 0.  0.
          5    1    1    0  501    0 -0.10520096474E+02  0.48057058983E+02  0.38262339867E+02  0.62500000000E+02  0.47000000000E+01 0. -1.
         -5    1    1    0    0  501  0.10520096474E+02 -0.48057058983E+02 -0.38262339867E+02  0.62500000000E+02  0.47000000000E+01 0. -1.
</event>
<event>
 3    0  0.4607503E-005  0.9118800E+02  0.7546771E-02  0.1235069E+00
         25   -1    0    0    0    0  0.00000000000E+00  0.00000000000E+00  0.99999998245E-14  0.12500000000E+03  0.12500000000E+03 0.  0.
          5    1    1    0  501    0  0.89942347108E+01  0.44312296687E+02  0.42891538843E+02  0.62500000000E+02  0.47000000000E+01 0. -1.
         -5    1    1    0    0  501 -0.89942347108E+01 -0.44312296687E+02 -0.42891538843E+02  0.62500000000E+02  0.47000000000E+01 0. -1.
</event>
<event>
 3    0  0.4607503E-005  0.9118800E+02  0.7546771E-02  0.1235069E+00
         25   -1    0    0    0    0  0.00000000000E+00  0.00000000000E+00  0.99999998245E-14  0.12500000000E+03  0.12500000000E+03 0.  0.
          5    1    1    0  501    0  0.20520552414E+02  0.51771311619E+02  0.27978531447E+02  0.62500000000E+02  0.47000000000E+01 0. -1.
         -5    1    1    0    0  501 -0.20520552414E+02 -0.51771311619E+02 -0.27978531447E+02  0.62500000000E+02  0.47000000000E+01 0. -1.
</event>
<event>
 3    0  0.4607503E-005  0.9118800E+02  0.7546771E-02  0.1235069E+00
         25   -1    0    0    0    0  0.00000000000E+00  0.00000000000E+00  0.99999998245E-14  0.12500000000E+03  0.12500000000E+03 0.  0.
          5    1    1    0  501    0  0.49137736763E+02  0.35142961226E+02 -0.15317150588E+02  0.62500000000E+02  0.47000000000E+01 0.  1.
         -5    1    1    0    0  501 -0.49137736763E+02 -0.35142961226E+02  0.15317150588E+02  0.62500000000E+02  0.47000000000E+01 0.  1.
</event>
<event>
 3    0  0.4607503E-005  0.9118800E+02  0.7546771E-02  0.1235069E+00
         25   -1    0    0    0    0  0.00000000000E+00  0.00000000000E+00  0.99999998245E-14  0.12500000000E+03  0.12500000000E+03 0.  0.
          5    1    1    0  501    0  0.25089570090E+02  0.17677926118E+02  0.54241721957E+02  0.62500000000E+02  0.47000000000E+01 0. -1.
         -5    1    1    0    0  501 -0.25089570090E+02 -0.17677926118E+02 -0.54241721957E+02  0.62500000000E+02  0.47000000000E+01 0. -1.
</event>
<event>
 3    0  0.4607503E-005  0.9118800E+02  0.7546771E-02  0.1235069E+00
         25   -1    0    0    0    0  0.00000000000E+00  0.00000000000E+00  0.99999998245E-14  0.12500000000E+03  0.12500000000E+03 0.  0.
          5    1    1    0  501    0  0.32795097698E+02 -0.31728939048E+02 -0.42448981070E+02  0.62500000000E+02  0.47000000000E+01 0.  1.
         -5    1    1    0    0  501 -0.32795097698E+02  0.31728939048E+02  0.42448981070E+02  0.62500000000E+02  0.47000000000E+01 0.  1.
</event>
<event>
 3    0  0.4607503E-005  0.9118800E+02  0.7546771E-02  0.1235069E+00
         25   -1    0    0    0    0  0.00000000000E+00  0.00000000000E+00  0.99999998245E-14  0.12500000000E+03  0.12500000000E+03 0.  0.
          5    1    1    0  501    0  0.16291980623E+02  0.46105796473E+02  0.38639188643E+02  0.62500000000E+02  0.47000000000E+01 0.  1.
         -5    1    1    0    0  501 -0.16291980623E+02 -0.46105796473E+02 -0.38639188643E+02  0.62500000000E+02  0.47000000000E+01 0.  1.
</event>
<event>
 3    0  0.4607503E-005  0.9118800E+02  0.7546771E-02  0.1235069E+00
         25   -1    0    0    0    0  0.00000000000E+00  0.00000000000E+00  0.99999998245E-14  0.12500000000E+03  0.12500000000E+03 0.  0.
          5    1    1    0  501    0  0.24077795472E+01  0.11501178555E+02  0.61205273380E+02  0.62500000000E+02  0.47000000000E+01 0.  1.
         -5    1    1    0    0  501 -0.24077795472E+01 -0.11501178555E+02 -0.61205273380E+02  0.62500000000E+02  0.47000000000E+01 0.  1.
</event>
<event>
 3    0  0.4607503E-005  0.9118800E+02  0.7546771E-02  0.1235069E+00
         25   -1    0    0    0    0  0.00000000000E+00  0.00000000000E+00  0.99999998245E-14  0.12500000000E+03  0.12500000000E+03 0.  0.
          5    1    1    0  501    0 -0.16577293493E+01  0.58993839508E+02  0.20028450601E+02  0.62500000000E+02  0.47000000000E+01 0. -1.
         -5    1    1    0    0  501  0.16577293493E+01 -0.58993839508E+02 -0.20028450601E+02  0.62500000000E+02  0.47000000000E+01 0. -1.
</event>
<event>
 3    0  0.4607503E-005  0.9118800E+02  0.7546771E-02  0.1235069E+00
         25   -1    0    0    0    0  0.00000000000E+00  0.00000000000E+00  0.99999998245E-14  0.12500000000E+03  0.12500000000E+03 0.  0.
          5    1    1    0  501    0  0.61472853841E+02  0.44260210049E+01  0.92551919898E+01  0.62500000000E+02  0.47000000000E+01 0. -1.
         -5    1    1    0    0  501 -0.61472853841E+02 -0.44260210049E+01 -0.92551919898E+01  0.62500000000E+02  0.47000000000E+01 0. -1.
</event>
<event>
 3    0  0.4607503E-005  0.9118800E+02  0.7546771E-02  0.1235069E+00
         25   -1    0    0    0    0  0.00000000000E+00  0.00000000000E+00  0.99999998245E-14  0.12500000000E+03  0.12500000000E+03 0.  0.
          5    1    1    0  501    0  0.24598903884E+02  0.36213165175E+01 -0.57148403253E+02  0.62500000000E+02  0.47000000000E+01 0. -1.
         -5    1    1    0    0  501 -0.24598903884E+02 -0.36213165175E+01  0.57148403253E+02  0.62500000000E+02  0.47000000000E+01 0. -1.
</event>
<event>
 3    0  0.4607503E-005  0.9118800E+02  0.7546771E-02  0.1235069E+00
         25   -1    0    0    0    0  0.00000000000E+00  0.00000000000E+00  0.99999998245E-14  0.12500000000E+03  0.12500000000E+03 0.  0.
          5    1    1    0  501    0 -0.61831818488E+02 -0.17116495042E+00  0.78074915940E+01  0.62500000000E+02  0.47000000000E+01 0.  1.
         -5    1    1    0    0  501  0.61831818488E+02  0.17116495042E+00 -0.78074915940E+01  0.62500000000E+02  0.47000000000E+01 0.  1.
</event>
<event>
 3    0  0.4607503E-005  0.9118800E+02  0.7546771E-02  0.1235069E+00
         25   -1    0    0    0    0  0.00000000000E+00  0.00000000000E+00  0.99999998245E-14  0.12500000000E+03  0.12500000000E+03 0.  0.
          5    1    1    0  501    0  0.22579598223E+02 -0.56818977748E+02  0.12079963237E+02  0.62500000000E+02  0.47000000000E+01 0.  1.
         -5    1    1    0    0  501 -0.22579598223E+02  0.56818977748E+02 -0.12079963237E+02  0.62500000000E+02  0.47000000000E+01 0.  1.
</event>
<event>
 3    0  0.4607503E-005  0.9118800E+02  0.7546771E-02  0.1235069E+00
         25   -1    0    0    0    0  0.00000000000E+00  0.00000000000E+00  0.99999998245E-14  0.12500000000E+03  0.12500000000E+03 0.  0.
          5    1    1    0  501    0 -0.33380126003E+02 -0.14397762203E+02 -0.50622441976E+02  0.62500000000E+02  0.47000000000E+01 0.  1.
         -5    1    1    0    0  501  0.33380126003E+02  0.14397762203E+02  0.50622441976E+02  0.62500000000E+02  0.47000000000E+01 0.  1.
</event>
<event>
 3    0  0.4607503E-005  0.9118800E+02  0.7546771E-02  0.1235069E+00
         25   -1    0    0    0    0  0.00000000000E+00  0.00000000000E+00  0.99999998245E-14  0.12500000000E+03  0.12500000000E+03 0.  0.
          5    1    1    0  501    0  0.14102762356E+02  0.86643886465E-01  0.60706380116E+02  0.62500000000E+02  0.47000000000E+01 0.  1.
         -5    1    1    0    0  501 -0.14102762356E+02 -0.86643886465E-01 -0.60706380116E+02  0.62500000000E+02  0.47000000000E+01 0.  1.
</event>
<event>
 3    0  0.4607503E-005  0.9118800E+02  0.7546771E-02  0.1235069E+00
         25   -1    0    0    0    0  0.00000000000E+00  0.00000000000E+00  0.99999998245E-14  0.12500000000E+03  0.12500000000E+03 0.  0.
          5    1    1    0  501    0  0.18077238825E+02  0.34057745159E+02 -0.48963695032E+02  0.62500000000E+02  0.47000000000E+01 0. -1.
         -5    1    1    0    0  501 -0.18077238825E+02 -0.34057745159E+02  0.48963695032E+02  0.62500000000E+02  0.47000000000E+01 0. -1.
</event>
<event>
 3    0  0.4607503E-005  0.9118800E+02  0.7546771E-02  0.1235069E+00
         25   -1    0    0    0    0  0.00000000000E+00  0.00000000000E+00  0.99999998245E-14  0.12500000000E+03  0.12500000000E+03 0.  0.
          5    1    1    0  501    0 -0.44992139231E+02 -0.57231112028E+00 -0.43122382441E+02  0.62500000000E+02  0.47000000000E+01 0.  1.
         -5    1    1    0    0  501  0.44992139231E+02  0.57231112028E+00  0.43122382441E+02  0.62500000000E+02  0.47000000000E+01 0.  1.
</event>
<event>
 3    0  0.4607503E-005  0.9118800E+02  0.7546771E-02  0.1235069E+00
         25   -1    0    0    0    0  0.00000000000E+00  0.00000000000E+00  0.99999998245E-14  0.12500000000E+03  0.12500000000E+03 0.  0.
          5    1    1    0  501    0  0.12934492020E+02 -0.24734027604E+02  0.55723305669E+02  0.62500000000E+02  0.47000000000E+01 0. -1.
         -5    1    1    0    0  501 -0.12934492020E+02  0.24734027604E+02 -0.55723305669E+02  0.62500000000E+02  0.47000000000E+01 0. -1.
</event>
<event>
 3    0  0.4607503E-005  0.9118800E+02  0.7546771E-02  0.1235069E+00
         25   -1    0    0    0    0  0.00000000000E+00  0.00000000000E+00  0.99999998245E-14  0.12500000000E+03  0.12500000000E+03 0.  0.
          5    1    1    0  501    0 -0.44703933709E+02  0.39398922540E+02  0.18260427530E+02  0.62500000000E+02  0.47000000000E+01 0.  1.
         -5    1    1    0    0  501  0.44703933709E+02 -0.39398922540E+02 -0.18260427530E+02  0.62500000000E+02  0.47000000000E+01 0.  1.
</event>
<event>
 3    0  0.4607503E-005  0.9118800E+02  0.7546771E-02  0.1235069E+00
         25   -1    0    0    0    0  0.00000000000E+00  0.00000000000E+00  0.99999998245E-14  0.12500000000E+03  0.12500000000E+03 0.  0.
          5    1    1    0  501    0  0.60831136501E+02 -0.13053890962E+02  0.36508578092E+01  0.62500000000E+02  0.47000000000E+01 0. -1.
         -5    1    1    0    0  501 -0.60831136501E+02  0.13053890962E+02 -0.36508578092E+01  0.62500000000E+02  0.47000000000E+01 0. -1.
</event>
<event>
 3    0  0.4607503E-005  0.9118800E+02  0.7546771E-02  0.1235069E+00
         25   -1    0    0    0    0  0.00000000000E+00  0.00000000000E+00  0.99999998245E-14  0.12500000000E+03  0.12500000000E+03 0.  0.
          5    1    1    0  501    0  0.44181191767E+02 -0.32520344460E+02 -0.29573797360E+02  0.62500000000E+02  0.47000000000E+01 0. -1.
         -5    1    1    0    0  501 -0.44181191767E+02  0.32520344460E+02  0.29573797360E+02  0.62500000000E+02  0.47000000000E+01 0. -1.
</event>
<event>
 3    0  0.4607503E-005  0.9118800E+02  0.7546771E-02  0.1235069E+00
         25   -1    0    0    0    0  0.00000000000E+00  0.00000000000E+00  0.99999998245E-14  0.12500000000E+03  0.12500000000E+03 0.  0.
          5    1    1    0  501    0  0.55102297369E+02  0.15412396059E+02  0.24705361208E+02  0.62500000000E+02  0.47000000000E+01 0.  1.
         -5    1    1    0    0  501 -0.55102297369E+02 -0.15412396059E+02 -0.24705361208E+02  0.62500000000E+02  0.47000000000E+01 0.  1.
</event>
<event>
 3    0  0.4607503E-005  0.9118800E+02  0.7546771E-02  0.1235069E+00
         25   -1    0    0    0    0  0.00000000000E+00  0.00000000000E+00  0.99999998245E-14  0.12500000000E+03  0.12500000000E+03 0.  0.
          5    1    1    0  501    0 -0.42534370286E+02 -0.52456485451E+01  0.45248983587E+02  0.62500000000E+02  0.47000000000E+01 0. -1.
         -5    1    1    0    0  501  0.42534370286E+02  0.52456485451E+01 -0.45248983587E+02  0.62500000000E+02  0.47000000000E+01 0. -1.
</event>
<event>
 3    0  0.4607503E-005  0.9118800E+02  0.7546771E-02  0.1235069E+00
         25   -1    0    0    0    0  0.00000000000E+00  0.00000000000E+00  0.99999998245E-14  0.12500000000E+03  0.12500000000E+03 0.  0.
          5    1    1    0  501    0 -0.57070347740E+02  0.15841614529E+02  0.19395325673E+02  0.62500000000E+02  0.47000000000E+01 0.  1.
         -5    1    1    0    0  501  0.57070347740E+02 -0.15841614529E+02 -0.19395325673E+02  0.62500000000E+02  0.47000000000E+01 0.  1.
</event>
<event>
 3    0  0.4607503E-005  0.9118800E+02  0.7546771E-02  0.1235069E+00
         25   -1    0    0    0    0  0.00000000000E+00  0.00000000000E+00  0.99999998245E-14  0.12500000000E+03  0.12500000000E+03 0.  0.
          5    1    1    0  501    0 -0.34229051766E+02 -0.31585040434E+02  0.41411559208E+02  0.62500000000E+02  0.47000000000E+01 0. -1.
         -5    1    1    0    0  501  0.34229051766E+02  0.31585040434E+02 -0.41411559208E+02  0.62500000000E+02  0.47000000000E+01 0. -1.
</event>
<event>
 3    0  0.4607503E-005  0.9118800E+02  0.7546771E-02  0.1235069E+00
         25   -1    0    0    0    0  0.00000000000E+00  0.00000000000E+00  0.99999998245E-14  0.12500000000E+03  0.12500000000E+03 0.  0.
          5    1    1    0  501    0  0.59369247850E+02 -0.96950843139E+01 -0.16292874206E+02  0.62500000000E+02  0.47000000000E+01 0. -1.
         -5    1    1    0    0  501 -0.59369247850E+02  0.96950843139E+01  0.16292874206E+02  0.62500000000E+02  0.47000000000E+01 0. -1.
</event>
<event>
 3    0  0.4607503E-005  0.9118800E+02  0.7546771E-02  0.1235069E+00
         25   -1    0    0    0    0  0.00000000000E+00  0.00000000000E+00  0.99999998245E-14  0.12500000000E+03  0.12500000000E+03 0.  0.
          5    1    1    0  501    0 -0.13679919405E+02  0.60699944901E+02  0.35406911909E+01  0.62500000000E+02  0.47000000000E+01 0.  1.
         -5    1    1    0    0  501  0.13679919405E+02 -0.60699944901E+02 -0.35406911909E+01  0.62500000000E+02  0.47000000000E+01 0.  1.
</event>
<event>
 3    0  0.4607503E-005  0.9118800E+02  0.7546771E-02  0.1235069E+00
         25   -1    0    0    0    0  0.00000000000E+00  0.00000000000E+00  0.99999998245E-14  0.12500000000E+03  0.12500000000E+03 0.  0.
          5    1    1    0  501    0  0.43886226413E+02  0.28111538865E+02  0.34174559454E+02  0.62500000000E+02  0.47000000000E+01 0.  1.
         -5    1    1    0    0  501 -0.43886226413E+02 -0.28111538865E+02 -0.34174559454E+02  0.62500000000E+02  0.47000000000E+01 0.  1.
</event>
<event>
 3    0  0.4607503E-005  0.9118800E+02  0.7546771E-02  0.1235069E+00
         25   -1    0    0    0    0  0.00000000000E+00  0.00000000000E+00  0.99999998245E-14  0.12500000000E+03  0.12500000000E+03 0.  0.
          5    1    1    0  501    0 -0.61946910321E+01 -0.61937164706E+02  0.30940961903E+01  0.62500000000E+02  0.47000000000E+01 0.  1.
         -5    1    1    0    0  501  0.61946910321E+01  0.61937164706E+02 -0.30940961903E+01  0.62500000000E+02  0.47000000000E+01 0.  1.
</event>
<event>
 3    0  0.4607503E-005  0.9118800E+02  0.7546771E-02  0.1235069E+00
         25   -1    0    0    0    0  0.00000000000E+00  0.00000000000E+00  0.99999998245E-14  0.12500000000E+03  0.12500000000E+03 0.  0.
          5    1    1    0  501    0  0.18831886316E+02 -0.13545854473E+02 -0.57844877771E+02  0.62500000000E+02  0.47000000000E+01 0. -1.
         -5    1    1    0    0  501 -0.18831886316E+02  0.13545854473E+02  0.57844877771E+02  0.62500000000E+02  0.47000000000E+01 0. -1.
</event>
<event>
 3    0  0.4607503E-005  0.9118800E+02  0.7546771E-02  0.1235069E+00
         25   -1    0    0    0    0  0.00000000000E+00  0.00000000000E+00  0.99999998245E-14  0.12500000000E+03  0.12500000000E+03 0.  0.
          5    1    1    0  501    0 -0.38928039860E+02 -0.22242311178E+02 -0.43290268031E+02  0.62500000000E+02  0.47000000000E+01 0. -1.
         -5    1    1    0    0  501  0.38928039860E+02  0.22242311178E+02  0.43290268031E+02  0.62500000000E+02  0.47000000000E+01 0. -1.
</event>
<event>
 3    0  0.4607503E-005  0.9118800E+02  0.7546771E-02  0.1235069E+00
         25   -1    0    0    0    0  0.00000000000E+00  0.00000000000E+00  0.99999998245E-14  0.12500000000E+03  0.12500000000E+03 0.  0.
          5    1    1    0  501    0  0.18214214804E+01  0.57023485743E+02 -0.25083151667E+02  0.62500000000E+02  0.47000000000E+01 0.  1.
         -5    1    1    0    0  501 -0.18214214804E+01 -0.57023485743E+02  0.25083151667E+02  0.62500000000E+02  0.47000000000E+01 0.  1.
</event>
<event>
 3    0  0.4607503E-005  0.9118800E+02  0.7546771E-02  0.1235069E+00
         25   -1    0    0    0    0  0.00000000000E+00  0.00000000000E+00  0.99999998245E-14  0.12500000000E+03  0.12500000000E+03 0.  0.
          5    1    1    0  501    0  0.15302019916E+01  0.56409400433E+01  0.62048354348E+02  0.62500000000E+02  0.47000000000E+01 0.  1.
         -5    1    1    0    0  501 -0.15302019916E+01 -0.56409400433E+01 -0.62048354348E+02  0.62500000000E+02  0.47000000000E+01 0.  1.
</event>
<event>
 3    0  0.4607503E-005  0.9118800E+02  0.7546771E-02  0.1235069E+00
         25   -1    0    0    0    0  0.00000000000E+00  0.00000000000E+00  0.99999998245E-14  0.12500000000E+03  0.12500000000E+03 0.  0.
          5    1    1    0  501    0  0.49705617797E+02 -0.37364755726E+01 -0.37410564146E+02  0.62500000000E+02  0.47000000000E+01 0.  1.
         -5    1    1    0    0  501 -0.49705617797E+02  0.37364755726E+01  0.37410564146E+02  0.62500000000E+02  0.47000000000E+01 0.  1.
</event>
<event>
 3    0  0.4607503E-005  0.9118800E+02  0.7546771E-02  0.1235069E+00
         25   -1    0    0    0    0  0.00000000000E+00  0.00000000000E+00  0.99999998245E-14  0.12500000000E+03  0.12500000000E+03 0.  0.
          5    1    1    0  501    0 -0.87427987578E+00  0.50618043077E+02 -0.36348443567E+02  0.62500000000E+02  0.47000000000E+01 0. -1.
         -5    1    1    0    0  501  0.87427987578E+00 -0.50618043077E+02  0.36348443567E+02  0.62500000000E+02  0.47000000000E+01 0. -1.
</event>
<event>
 3    0  0.4607503E-005  0.9118800E+02  0.7546771E-02  0.1235069E+00
         25   -1    0    0    0    0  0.00000000000E+00  0.00000000000E+00  0.99999998245E-14  0.12500000000E+03  0.12500000000E+03 0.  0.
          5    1    1    0  501    0 -0.37620489457E+02 -0.48828017832E+02 -0.92023609836E+01  0.62500000000E+02  0.47000000000E+01 0.  1.
         -5    1    1    0    0  501  0.37620489457E+02  0.48828017832E+02  0.92023609836E+01  0.62500000000E+02  0.47000000000E+01 0.  1.
</event>
<event>
 3    0  0.4607503E-005  0.9118800E+02  0.7546771E-02  0.1235069E+00
         25   -1    0    0    0    0  0.00000000000E+00  0.00000000000E+00  0.99999998245E-14  0.12500000000E+03  0.12500000000E+03 0.  0.
          5    1    1    0  501    0 -0.43371606410E+02 -0.30384699225E+02 -0.32860824859E+02  0.62500000000E+02  0.47000000000E+01 0.  1.
         -5    1    1    0    0  501  0.43371606410E+02  0.30384699225E+02  0.32860824859E+02  0.62500000000E+02  0.47000000000E+01 0.  1.
</event>
<event>
 3    0  0.4607503E-005  0.9118800E+02  0.7546771E-02  0.1235069E+00
         25   -1    0    0    0    0  0.00000000000E+00  0.00000000000E+00  0.99999998245E-14  0.12500000000E+03  0.12500000000E+03 0.  0.
          5    1    1    0  501    0 -0.27075267837E+01 -0.25220331497E+02 -0.56927710106E+02  0.62500000000E+02  0.47000000000E+01 0. -1.
         -5    1    1    0    0  501  0.27075267837E+01  0.25220331497E+02  0.56927710106E+02  0.62500000000E+02  0.47000000000E+01 0. -1.
</event>
<event>
 3    0  0.4607503E-005  0.9118800E+02  0.7546771E-02  0.1235069E+00
         25   -1    0    0    0    0  0.00000000000E+00  0.00000000000E+00  0.99999998245E-14  0.12500000000E+03  0.12500000000E+03 0.  0.
          5    1    1    0  501    0  0.48168144872E+02  0.18825270946E+02 -0.34779289719E+02  0.62500000000E+02  0.47000000000E+01 0.  1.
         -5    1    1    0    0  501 -0.48168144872E+02 -0.18825270946E+02  0.34779289719E+02  0.62500000000E+02  0.47000000000E+01 0.  1.
</event>
<event>
 3    0  0.4607503E-005  0.9118800E+02  0.7546771E-02  0.1235069E+00
         25   -1    0    0    0    0  0.00000000000E+00  0.00000000000E+00  0.99999998245E-14  0.12500000000E+03  0.12500000000E+03 0.  0.
          5    1    1    0  501    0  0.14338115103E+02 -0.53175140577E+02  0.29171610855E+02  0.62500000000E+02  0.47000000000E+01 0.  1.
         -5    1    1    0    0  501 -0.14338115103E+02  0.53175140577E+02 -0.29171610855E+02  0.62500000000E+02  0.47000000000E+01 0.  1.
</event>
<event>
 3    0  0.4607503E-005  0.9118800E+02  0.7546771E-02  0.1235069E+00
         25   -1    0    0    0    0  0.00000000000E+00  0.00000000000E+00  0.99999998245E-14  0.12500000000E+03  0.12500000000E+03 0.  0.
          5    1    1    0  501    0  0.17748629673E+02 -0.37255903593E+02 -0.46702717182E+02  0.62500000000E+02  0.47000000000E+01 0. -1.
         -5    1    1    0    0  501 -0.17748629673E+02  0.37255903593E+02  0.46702717182E+02  0.62500000000E+02  0.47000000000E+01 0. -1.
</event>
<event>
 3    0  0.4607503E-005  0.9118800E+02  0.7546771E-02  0.1235069E+00
         25   -1    0    0    0    0  0.00000000000E+00  0.00000000000E+00  0.99999998245E-14  0.12500000000E+03  0.12500000000E+03 0.  0.
          5    1    1    0  501    0 -0.57207841735E+02  0.18741928377E+02 -0.16129568025E+02  0.62500000000E+02  0.47000000000E+01 0. -1.
         -5    1    1    0    0  501  0.57207841735E+02 -0.18741928377E+02  0.16129568025E+02  0.62500000000E+02  0.47000000000E+01 0. -1.
</event>
<event>
 3    0  0.4607503E-005  0.9118800E+02  0.7546771E-02  0.1235069E+00
         25   -1    0    0    0    0  0.00000000000E+00  0.00000000000E+00  0.99999998245E-14  0.12500000000E+03  0.12500000000E+03 0.  0.
          5    1    1    0  501    0 -0.23305523358E+02 -0.48708018615E+02 -0.31121399448E+02  0.62500000000E+02  0.47000000000E+01 0.  1.
         -5    1    1    0    0  501  0.23305523358E+02  0.48708018615E+02  0.31121399448E+02  0.62500000000E+02  0.47000000000E+01 0.  1.
</event>
<event>
 3    0  0.4607503E-005  0.9118800E+02  0.7546771E-02  0.1235069E+00
         25   -1    0    0    0    0  0.00000000000E+00  0.00000000000E+00  0.99999998245E-14  0.12500000000E+03  0.12500000000E+03 0.  0.
          5    1    1    0  501    0 -0.38668533478E+02 -0.30319749799E+02  0.38335587785E+02  0.62500000000E+02  0.47000000000E+01 0. -1.
         -5    1    1    0    0  501  0.38668533478E+02  0.30319749799E+02 -0.38335587785E+02  0.62500000000E+02  0.47000000000E+01 0. -1.
</event>
<event>
 3    0  0.4607503E-005  0.9118800E+02  0.7546771E-02  0.1235069E+00
         25   -1    0    0    0    0  0.00000000000E+00  0.00000000000E+00  0.99999998245E-14  0.12500000000E+03  0.12500000000E+03 0.  0.
          5    1    1    0  501    0 -0.51267668784E+02  0.85908836712E+01  0.34379977534E+02  0.62500000000E+02  0.47000000000E+01 0.  1.
         -5    1    1    0    0  501  0.51267668784E+02 -0.85908836712E+01 -0.34379977534E+02  0.62500000000E+02  0.47000000000E+01 0.  1.
</event>
<event>
 3    0  0.4607503E-005  0.9118800E+02  0.7546771E-02  0.1235069E+00
         25   -1    0    0    0    0  0.00000000000E+00  0.00000000000E+00  0.99999998245E-14  0.12500000000E+03  0.12500000000E+03 0.  0.
          5    1    1    0  501    0 -0.32723919376E+02 -0.36354510897E+02 -0.38621945033E+02  0.62500000000E+02  0.47000000000E+01 0.  1.
         -5    1    1    0    0  501  0.32723919376E+02  0.36354510897E+02  0.38621945033E+02  0.62500000000E+02  0.47000000000E+01 0.  1.
</event>
<event>
 3    0  0.4607503E-005  0.9118800E+02  0.7546771E-02  0.1235069E+00
         25   -1    0    0    0    0  0.00000000000E+00  0.00000000000E+00  0.99999998245E-14  0.12500000000E+03  0.12500000000E+03 0.  0.
          5    1    1    0  501    0  0.60930362915E+01 -0.61844636699E+02  0.47197267230E+01  0.62500000000E+02  0.47000000000E+01 0.  1.
         -5    1    1    0    0  501 -0.60930362915E+01  0.61844636699E+02 -0.47197267230E+01  0.62500000000E+02  0.47000000000E+01 0.  1.
</event>
<event>
 3    0  0.4607503E-005  0.9118800E+02  0.7546771E-02  0.1235069E+00
         25   -1    0    0    0    0  0.00000000000E+00  0.00000000000E+00  0.99999998245E-14  0.12500000000E+03  0.12500000000E+03 0.  0.
          5    1    1    0  501    0  0.18175875483E+02  0.59325393408E+02  0.58562144234E+01  0.62500000000E+02  0.47000000000E+01 0.  1.
         -5    1    1    0    0  501 -0.18175875483E+02 -0.59325393408E+02 -0.58562144234E+01  0.62500000000E+02  0.47000000000E+01 0.  1.
</event>
<event>
 3    0  0.4607503E-005  0.9118800E+02  0.7546771E-02  0.1235069E+00
         25   -1    0    0    0    0  0.00000000000E+00  0.00000000000E+00  0.99999998245E-14  0.12500000000E+03  0.12500000000E+03 0.  0.
          5    1    1    0  501    0  0.69772792058E+00  0.24891670772E+02  0.57132109203E+02  0.62500000000E+02  0.47000000000E+01 0. -1.
         -5    1    1    0    0  501 -0.69772792058E+00 -0.24891670772E+02 -0.57132109203E+02  0.62500000000E+02  0.47000000000E+01 0. -1.
</event>
<event>
 3    0  0.4607503E-005  0.9118800E+02  0.7546771E-02  0.1235069E+00
         25   -1    0    0    0    0  0.00000000000E+00  0.00000000000E+00  0.99999998245E-14  0.12500000000E+03  0.12500000000E+03 0.  0.
          5    1    1    0  501    0 -0.10278070536E+02 -0.32730166415E+02 -0.52031312423E+02  0.62500000000E+02  0.47000000000E+01 0. -1.
         -5    1    1    0    0  501  0.10278070536E+02  0.32730166415E+02  0.52031312423E+02  0.62500000000E+02  0.47000000000E+01 0. -1.
</event>
<event>
 3    0  0.4607503E-005  0.9118800E+02  0.7546771E-02  0.1235069E+00
         25   -1    0    0    0    0  0.00000000000E+00  0.00000000000E+00  0.99999998245E-14  0.12500000000E+03  0.12500000000E+03 0.  0.
          5    1    1    0  501    0  0.36030412523E+02  0.40038507402E+02 -0.31351033451E+02  0.62500000000E+02  0.47000000000E+01 0.  1.
         -5    1    1    0    0  501 -0.36030412523E+02 -0.40038507402E+02  0.31351033451E+02  0.62500000000E+02  0.47000000000E+01 0.  1.
</event>
<event>
 3    0  0.4607503E-005  0.9118800E+02  0.7546771E-02  0.1235069E+00
         25   -1    0    0    0    0  0.00000000000E+00  0.00000000000E+00  0.99999998245E-14  0.12500000000E+03  0.12500000000E+03 0.  0.
          5    1    1    0  501    0  0.15795382803E+02  0.42188632036E+01 -0.60140394706E+02  0.62500000000E+02  0.47000000000E+01 0. -1.
         -5    1    1    0    0  501 -0.15795382803E+02 -0.42188632036E+01  0.60140394706E+02  0.62500000000E+02  0.47000000000E+01 0. -1.
</event>
<event>
 3    0  0.4607503E-005  0.9118800E+02  0.7546771E-02  0.1235069E+00
         25   -1    0    0    0    0  0.00000000000E+00  0.00000000000E+00  0.99999998245E-14  0.12500000000E+03  0.12500000000E+03 0.  0.
          5    1    1    0  501    0  0.28348727646E+02 -0.53940753334E+02  0.13073055138E+02  0.62500000000E+02  0.47000000000E+01 0. -1.
         -5    1    1    0    0  501 -0.28348727646E+02  0.53940753334E+02 -0.13073055138E+02  0.62500000000E+02  0.47000000000E+01 0. -1.
</event>
<event>
 3    0  0.4607503E-005  0.9118800E+02  0.7546771E-02  0.1235069E+00
         25   -1    0    0    0    0  0.00000000000E+00  0.00000000000E+00  0.99999998245E-14  0.12500000000E+03  0.12500000000E+03 0.  0.
          5    1    1    0  501    0 -0.36716699754E+02  0.11689171535E+02  0.48983744528E+02  0.62500000000E+02  0.47000000000E+01 0.  1.
         -5    1    1    0    0  501  0.36716699754E+02 -0.11689171535E+02 -0.48983744528E+02  0.62500000000E+02  0.47000000000E+01 0.  1.
</event>
<event>
 3    0  0.4607503E-005  0.9118800E+02  0.7546771E-02  0.1235069E+00
         25   -1    0    0    0    0  0.00000000000E+00  0.00000000000E+00  0.99999998245E-14  0.12500000000E+03  0.12500000000E+03 0.  0.
          5    1    1    0  501    0  0.18035791090E+02 -0.23168336728E+02 -0.54973615608E+02  0.62500000000E+02  0.47000000000E+01 0.  1.
         -5    1    1    0    0  501 -0.18035791090E+02  0.23168336728E+02  0.54973615608E+02  0.62500000000E+02  0.47000000000E+01 0.  1.
</event>
<event>
 3    0  0.4607503E-005  0.9118800E+02  0.7546771E-02  0.1235069E+00
         25   -1    0    0    0    0  0.00000000000E+00  0.00000000000E+00  0.99999998245E-14  0.12500000000E+03  0.12500000000E+03 0.  0.
          5    1    1    0  501    0  0.52364285064E+02  0.20083563670E+02 -0.27180730676E+02  0.62500000000E+02  0.47000000000E+01 0.  1.
         -5    1    1    0    0  501 -0.52364285064E+02 -0.20083563670E+02  0.27180730676E+02  0.62500000000E+02  0.47000000000E+01 0.  1.
</event>
<event>
 3    0  0.4607503E-005  0.9118800E+02  0.7546771E-02  0.1235069E+00
         25   -1    0    0    0    0  0.00000000000E+00  0.00000000000E+00  0.99999998245E-14  0.12500000000E+03  0.12500000000E+03 0.  0.
          5    1    1    0  501    0 -0.35555723239E+02 -0.51151557457E+02 -0.18624485732E+01  0.62500000000E+02  0.47000000000E+01 0. -1.
         -5    1    1    0    0  501  0.35555723239E+02  0.51151557457E+02  0.18624485732E+01  0.62500000000E+02  0.47000000000E+01 0. -1.
</event>
<event>
 3    0  0.4607503E-005  0.9118800E+02  0.7546771E-02  0.1235069E+00
         25   -1    0    0    0    0  0.00000000000E+00  0.00000000000E+00  0.99999998245E-14  0.12500000000E+03  0.12500000000E+03 0.  0.
          5    1    1    0  501    0  0.62129645707E+02 -0.43094828938E+01  0.23442443438E+01  0.62500000000E+02  0.47000000000E+01 0.  1.
         -5    1    1    0    0  501 -0.62129645707E+02  0.43094828938E+01 -0.23442443438E+01  0.62500000000E+02  0.47000000000E+01 0.  1.
</event>
<event>
 3    0  0.4607503E-005  0.9118800E+02  0.7546771E-02  0.1235069E+00
         25   -1    0    0    0    0  0.00000000000E+00  0.00000000000E+00  0.99999998245E-14  0.12500000000E+03  0.12500000000E+03 0.  0.
          5    1    1    0  501    0  0.43435632226E+02 -0.30556228758E+02  0.32616295577E+02  0.62500000000E+02  0.47000000000E+01 0.  1.
         -5    1    1    0    0  501 -0.43435632226E+02  0.30556228758E+02 -0.32616295577E+02  0.62500000000E+02  0.47000000000E+01 0.  1.
</event>
<event>
 3    0  0.4607503E-005  0.9118800E+02  0.7546771E-02  0.1235069E+00
         25   -1    0    0    0    0  0.00000000000E+00  0.00000000000E+00  0.99999998245E-14  0.12500000000E+03  0.12500000000E+03 0.  0.
          5    1    1    0  501    0  0.41210744311E+02 -0.42273554357E+02 -0.19969505636E+02  0.62500000000E+02  0.47000000000E+01 0. -1.
         -5    1    1    0    0  501 -0.41210744311E+02  0.42273554357E+02  0.19969505636E+02  0.62500000000E+02  0.47000000000E+01 0. -1.
</event>
<event>
 3    0  0.4607503E-005  0.9118800E+02  0.7546771E-02  0.1235069E+00
         25   -1    0    0    0    0  0.00000000000E+00  0.00000000000E+00  0.99999998245E-14  0.12500000000E+03  0.12500000000E+03 0.  0.
          5    1    1    0  501    0 -0.43263577743E+02  0.70064875702E+01  0.44309502060E+02  0.62500000000E+02  0.47000000000E+01 0.  1.
         -5    1    1    0    0  501  0.43263577743E+02 -0.70064875702E+01 -0.44309502060E+02  0.62500000000E+02  0.47000000000E+01 0.  1.
</event>
<event>
 3    0  0.4607503E-005  0.9118800E+02  0.7546771E-02  0.1235069E+00
         25   -1    0    0    0    0  0.00000000000E+00  0.00000000000E+00  0.99999998245E-14  0.12500000000E+03  0.12500000000E+03 0.  0.
          5    1    1    0  501    0  0.23521440861E+02  0.43360743135E+02  0.38088683025E+02  0.62500000000E+02  0.47000000000E+01 0. -1.
         -5    1    1    0    0  501 -0.23521440861E+02 -0.43360743135E+02 -0.38088683025E+02  0.62500000000E+02  0.47000000000E+01 0. -1.
</event>
<event>
 3    0  0.4607503E-005  0.9118800E+02  0.7546771E-02  0.1235069E+00
         25   -1    0    0    0    0  0.00000000000E+00  0.00000000000E+00  0.99999998245E-14  0.12500000000E+03  0.12500000000E+03 0.  0.
          5    1    1    0  501    0  0.61394346206E+02  0.60369355916E+01  0.88571814164E+01  0.62500000000E+02  0.47000000000E+01 0. -1.
         -5    1    1    0    0  501 -0.61394346206E+02 -0.60369355916E+01 -0.88571814164E+01  0.62500000000E+02  0.47000000000E+01 0. -1.
</event>
<event>
 3    0  0.4607503E-005  0.9118800E+02  0.7546771E-02  0.1235069E+00
         25   -1    0    0    0    0  0.00000000000E+00  0.00000000000E+00  0.99999998245E-14  0.12500000000E+03  0.12500000000E+03 0.  0.
          5    1    1    0  501    0  0.58128145634E+02  0.82466779594E+01  0.20911025507E+02  0.62500000000E+02  0.47000000000E+01 0. -1.
         -5    1    1    0    0  501 -0.58128145634E+02 -0.82466779594E+01 -0.20911025507E+02  0.62500000000E+02  0.47000000000E+01 0. -1.
</event>
<event>
 3    0  0.4607503E-005  0.9118800E+02  0.7546771E-02  0.1235069E+00
         25   -1    0    0    0    0  0.00000000000E+00  0.00000000000E+00  0.99999998245E-14  0.12500000000E+03  0.12500000000E+03 0.  0.
          5    1    1    0  501    0 -0.22020269686E+02 -0.40749129883E+01 -0.58160663744E+02  0.62500000000E+02  0.47000000000E+01 0.  1.
         -5    1    1    0    0  501  0.22020269686E+02  0.40749129883E+01  0.58160663744E+02  0.62500000000E+02  0.47000000000E+01 0.  1.
</event>
<event>
 3    0  0.4607503E-005  0.9118800E+02  0.7546771E-02  0.1235069E+00
         25   -1    0    0    0    0  0.00000000000E+00  0.00000000000E+00  0.99999998245E-14  0.12500000000E+03  0.12500000000E+03 0.  0.
          5    1    1    0  501    0 -0.20348963106E+02 -0.41083534052E+01  0.58763944156E+02  0.62500000000E+02  0.47000000000E+01 0. -1.
         -5    1    1    0    0  501  0.20348963106E+02  0.41083534052E+01 -0.58763944156E+02  0.62500000000E+02  0.47000000000E+01 0. -1.
</event>
<event>
 3    0  0.4607503E-005  0.9118800E+02  0.7546771E-02  0.1235069E+00
         25   -1    0    0    0    0  0.00000000000E+00  0.00000000000E+00  0.99999998245E-14  0.12500000000E+03  0.12500000000E+03 0.  0.
          5    1    1    0  501    0  0.40490565980E+02 -0.24332499564E+02 -0.40652226650E+02  0.62500000000E+02  0.47000000000E+01 0. -1.
         -5    1    1    0    0  501 -0.40490565980E+02  0.24332499564E+02  0.40652226650E+02  0.62500000000E+02  0.47000000000E+01 0. -1.
</event>
<event>
 3    0  0.4607503E-005  0.9118800E+02  0.7546771E-02  0.1235069E+00
         25   -1    0    0    0    0  0.00000000000E+00  0.00000000000E+00  0.99999998245E-14  0.12500000000E+03  0.12500000000E+03 0.  0.
          5    1    1    0  501    0 -0.33107674304E+02  0.51940839431E+02  0.94968995667E+01  0.62500000000E+02  0.47000000000E+01 0. -1.
         -5    1    1    0    0  501  0.33107674304E+02 -0.51940839431E+02 -0.94968995667E+01  0.62500000000E+02  0.47000000000E+01 0. -1.
</event>
<event>
 3    0  0.4607503E-005  0.9118800E+02  0.7546771E-02  0.1235069E+00
         25   -1    0    0    0    0  0.00000000000E+00  0.00000000000E+00  0.99999998245E-14  0.12500000000E+03  0.12500000000E+03 0.  0.
          5    1    1    0  501    0  0.21470066432E+02  0.22270637349E+02  0.54103742564E+02  0.62500000000E+02  0.47000000000E+01 0.  1.
         -5    1    1    0    0  501 -0.21470066432E+02 -0.22270637349E+02 -0.54103742564E+02  0.62500000000E+02  0.47000000000E+01 0.  1.
</event>
<event>
 3    0  0.4607503E-005  0.9118800E+02  0.7546771E-02  0.1235069E+00
         25   -1    0    0    0    0  0.00000000000E+00  0.00000000000E+00  0.99999998245E-14  0.12500000000E+03  0.12500000000E+03 0.  0.
          5    1    1    0  501    0  0.23455662959E+02 -0.57710854758E+02 -0.18571801808E+01  0.62500000000E+02  0.47000000000E+01 0. -1.
         -5    1    1    0    0  501 -0.23455662959E+02  0.57710854758E+02  0.18571801808E+01  0.62500000000E+02  0.47000000000E+01 0. -1.
</event>
<event>
 3    0  0.4607503E-005  0.9118800E+02  0.7546771E-02  0.1235069E+00
         25   -1    0    0    0    0  0.00000000000E+00  0.00000000000E+00  0.99999998245E-14  0.12500000000E+03  0.12500000000E+03 0.  0.
          5    1    1    0  501    0 -0.60572934996E+02  0.13507349170E+02  0.57123606654E+01  0.62500000000E+02  0.47000000000E+01 0. -1.
         -5    1    1    0    0  501  0.60572934996E+02 -0.13507349170E+02 -0.57123606654E+01  0.62500000000E+02  0.47000000000E+01 0. -1.
</event>
<event>
 3    0  0.4607503E-005  0.9118800E+02  0.7546771E-02  0.1235069E+00
         25   -1    0    0    0    0  0.00000000000E+00  0.00000000000E+00  0.99999998245E-14  0.12500000000E+03  0.12500000000E+03 0.  0.
          5    1    1    0  501    0  0.12503251591E+02  0.45280975536E+02  0.40956830373E+02  0.62500000000E+02  0.47000000000E+01 0. -1.
         -5    1    1    0    0  501 -0.12503251591E+02 -0.45280975536E+02 -0.40956830373E+02  0.62500000000E+02  0.47000000000E+01 0. -1.
</event>
<event>
 3    0  0.4607503E-005  0.9118800E+02  0.7546771E-02  0.1235069E+00
         25   -1    0    0    0    0  0.00000000000E+00  0.00000000000E+00  0.99999998245E-14  0.12500000000E+03  0.12500000000E+03 0.  0.
          5    1    1    0  501    0 -0.53143276075E+02 -0.32041098210E+02 -0.57723681022E+01  0.62500000000E+02  0.47000000000E+01 0. -1.
         -5    1    1    0    0  501  0.53143276075E+02  0.32041098210E+02  0.57723681022E+01  0.62500000000E+02  0.47000000000E+01 0. -1.
</event>
<event>
 3    0  0.4607503E-005  0.9118800E+02  0.7546771E-02  0.1235069E+00
         25   -1    0    0    0    0  0.00000000000E+00  0.00000000000E+00  0.99999998245E-14  0.12500000000E+03  0.12500000000E+03 0.  0.
          5    1    1    0  501    0 -0.89843716612E+01  0.53539042771E+02  0.30610651169E+02  0.62500000000E+02  0.47000000000E+01 0.  1.
         -5    1    1    0    0  501  0.89843716612E+01 -0.53539042771E+02 -0.30610651169E+02  0.62500000000E+02  0.47000000000E+01 0.  1.
</event>
<event>
 3    0  0.4607503E-005  0.9118800E+02  0.7546771E-02  0.1235069E+00
         25   -1    0    0    0    0  0.00000000000E+00  0.00000000000E+00  0.99999998245E-14  0.12500000000E+03  0.12500000000E+03 0.  0.
          5    1    1    0  501    0  0.60057819676E+02 -0.13208729859E+01 -0.16597397094E+02  0.62500000000E+02  0.47000000000E+01 0.  1.
         -5    1    1    0    0  501 -0.60057819676E+02  0.13208729859E+01  0.16597397094E+02  0.62500000000E+02  0.47000000000E+01 0.  1.
</event>
<event>
 3    0  0.4607503E-005  0.9118800E+02  0.7546771E-02  0.1235069E+00
         25   -1    0    0    0    0  0.00000000000E+00  0.00000000000E+00  0.99999998245E-14  0.12500000000E+03  0.12500000000E+03 0.  0.
          5    1    1    0  501    0  0.41325584597E+02 -0.37578055185E+02 -0.27644996405E+02  0.62500000000E+02  0.47000000000E+01 0. -1.
         -5    1    1    0    0  501 -0.41325584597E+02  0.37578055185E+02  0.27644996405E+02  0.62500000000E+02  0.47000000000E+01 0. -1.
</event>
<event>
 3    0  0.4607503E-005  0.9118800E+02  0.7546771E-02  0.1235069E+00
         25   -1    0    0    0    0  0.00000000000E+00  0.00000000000E+00  0.99999998245E-14  0.12500000000E+03  0.12500000000E+03 0.  0.
          5    1    1    0  501    0  0.81406712618E+01  0.44678289613E+02 -0.42681845188E+02  0.62500000000E+02  0.47000000000E+01 0. -1.
         -5    1    1    0    0  501 -0.81406712618E+01 -0.44678289613E+02  0.42681845188E+02  0.62500000000E+02  0.47000000000E+01 0. -1.
</event>
<event>
 3    0  0.4607503E-005  0.9118800E+02  0.7546771E-02  0.1235069E+00
         25   -1    0    0    0    0  0.00000000000E+00  0.00000000000E+00  0.99999998245E-14  0.12500000000E+03  0.12500000000E+03 0.  0.
          5    1    1    0  501    0 -0.54905396188E+02  0.19728560849E+02 -0.21916691270E+02  0.62500000000E+02  0.47000000000E+01 0. -1.
         -5    1    1    0    0  501  0.54905396188E+02 -0.19728560849E+02  0.21916691270E+02  0.62500000000E+02  0.47000000000E+01 0. -1.
</event>
<event>
 3    0  0.4607503E-005  0.9118800E+02  0.7546771E-02  0.1235069E+00
         25   -1    0    0    0    0  0.00000000000E+00  0.00000000000E+00  0.99999998245E-14  0.12500000000E+03  0.12500000000E+03 0.  0.
          5    1    1    0  501    0  0.56199713027E+02  0.26939782260E+02 -0.19683657111E-01  0.62500000000E+02  0.47000000000E+01 0.  1.
         -5    1    1    0    0  501 -0.56199713027E+02 -0.26939782260E+02  0.19683657111E-01  0.62500000000E+02  0.47000000000E+01 0.  1.
</event>
<event>
 3    0  0.4607503E-005  0.9118800E+02  0.7546771E-02  0.1235069E+00
         25   -1    0    0    0    0  0.00000000000E+00  0.00000000000E+00  0.99999998245E-14  0.12500000000E+03  0.12500000000E+03 0.  0.
          5    1    1    0  501    0  0.21210825243E+02  0.37027984650E+02  0.45422343018E+02  0.62500000000E+02  0.47000000000E+01 0.  1.
         -5    1    1    0    0  501 -0.21210825243E+02 -0.37027984650E+02 -0.45422343018E+02  0.62500000000E+02  0.47000000000E+01 0.  1.
</event>
<event>
 3    0  0.4607503E-005  0.9118800E+02  0.7546771E-02  0.1235069E+00
         25   -1    0    0    0    0  0.00000000000E+00  0.00000000000E+00  0.99999998245E-14  0.12500000000E+03  0.12500000000E+03 0.  0.
          5    1    1    0  501    0 -0.58985426107E+02  0.69698057178E+01  0.18875945414E+02  0.62500000000E+02  0.47000000000E+01 0. -1.
         -5    1    1    0    0  501  0.58985426107E+02 -0.69698057178E+01 -0.18875945414E+02  0.62500000000E+02  0.47000000000E+01 0. -1.
</event>
<event>
 3    0  0.4607503E-005  0.9118800E+02  0.7546771E-02  0.1235069E+00
         25   -1    0    0    0    0  0.00000000000E+00  0.00000000000E+00  0.99999998245E-14  0.12500000000E+03  0.12500000000E+03 0.  0.
          5    1    1    0  501    0 -0.17459356827E+02  0.24843070296E+02  0.54425662306E+02  0.62500000000E+02  0.47000000000E+01 0. -1.
         -5    1    1    0    0  501  0.17459356827E+02 -0.24843070296E+02 -0.54425662306E+02  0.62500000000E+02  0.47000000000E+01 0. -1.
</event>
<event>
 3    0  0.4607503E-005  0.9118800E+02  0.7546771E-02  0.1235069E+00
         25   -1    0    0    0    0  0.00000000000E+00  0.00000000000E+00  0.99999998245E-14  0.12500000000E+03  0.12500000000E+03 0.  0.
          5    1    1    0  501    0  0.22290894381E+02 -0.65611568893E+01 -0.57829294030E+02  0.62500000000E+02  0.47000000000E+01 0.  1.
         -5    1    1    0    0  501 -0.22290894381E+02  0.65611568893E+01  0.57829294030E+02  0.62500000000E+02  0.47000000000E+01 0.  1.
</event>
<event>
 3    0  0.4607503E-005  0.9118800E+02  0.7546771E-02  0.1235069E+00
         25   -1    0    0    0    0  0.00000000000E+00  0.00000000000E+00  0.99999998245E-14  0.12500000000E+03  0.12500000000E+03 0.  0.
          5    1    1    0  501    0 -0.50136048125E+02  0.21686431491E+02 -0.30003922536E+02  0.62500000000E+02  0.47000000000E+01 0. -1.
         -5    1    1    0    0  501  0.50136048125E+02 -0.21686431491E+02  0.30003922536E+02  0.62500000000E+02  0.47000000000E+01 0. -1.
</event>
<event>
 3    0  0.4607503E-005  0.9118800E+02  0.7546771E-02  0.1235069E+00
         25   -1    0    0    0    0  0.00000000000E+00  0.00000000000E+00  0.99999998245E-14  0.12500000000E+03  0.12500000000E+03 0.  0.
          5    1    1    0  501    0 -0.26500413170E+02 -0.56394162105E+02 -0.12595960850E+01  0.62500000000E+02  0.47000000000E+01 0.  1.
         -5    1    1    0    0  501  0.26500413170E+02  0.56394162105E+02  0.12595960850E+01  0.62500000000E+02  0.47000000000E+01 0.  1.
</event>
<event>
 3    0  0.4607503E-005  0.9118800E+02  0.7546771E-02  0.1235069E+00
         25   -1    0    0    0    0  0.00000000000E+00  0.00000000000E+00  0.99999998245E-14  0.12500000000E+03  0.12500000000E+03 0.  0.
          5    1    1    0  501    0  0.47035046921E+02 -0.20674932681E+02 -0.35276217481E+02  0.62500000000E+02  0.47000000000E+01 0.  1.
         -5    1    1    0    0  501 -0.47035046921E+02  0.20674932681E+02  0.35276217481E+02  0.62500000000E+02  0.47000000000E+01 0.  1.
</event>
<event>
 3    0  0.4607503E-005  0.9118800E+02  0.7546771E-02  0.1235069E+00
         25   -1    0    0    0    0  0.00000000000E+00  0.00000000000E+00  0.99999998245E-14  0.12500000000E+03  0.12500000000E+03 0.  0.
          5    1    1    0  501    0  0.45421255804E+02 -0.29419758421E+02  0.30911928695E+02  0.62500000000E+02  0.47000000000E+01 0.  1.
         -5    1    1    0    0  501 -0.45421255804E+02  0.29419758421E+02 -0.30911928695E+02  0.62500000000E+02  0.47000000000E+01 0.  1.
</event>
<event>
 3    0  0.4607503E-005  0.9118800E+02  0.7546771E-02  0.1235069E+00
         25   -1    0    0    0    0  0.00000000000E+00  0.00000000000E+00  0.99999998245E-14  0.12500000000E+03  0.12500000000E+03 0.  0.
          5    1    1    0  501    0  0.11571704905E+02 -0.15293298020E+02 -0.59298993931E+02  0.62500000000E+02  0.47000000000E+01 0.  1.
         -5    1    1    0    0  501 -0.11571704905E+02  0.15293298020E+02  0.59298993931E+02  0.62500000000E+02  0.47000000000E+01 0.  1.
</event>
<event>
 3    0  0.4607503E-005  0.9118800E+02  0.7546771E-02  0.1235069E+00
         25   -1    0    0    0    0  0.00000000000E+00  0.00000000000E+00  0.99999998245E-14  0.12500000000E+03  0.12500000000E+03 0.  0.
          5    1    1    0  501    0  0.80971407958E+01  0.54584268158E+02 -0.28968154593E+02  0.62500000000E+02  0.47000000000E+01 0. -1.
         -5    1    1    0    0  501 -0.80971407958E+01 -0.54584268158E+02  0.28968154593E+02  0.62500000000E+02  0.47000000000E+01 0. -1.
</event>
<event>
 3    0  0.4607503E-005  0.9118800E+02  0.7546771E-02  0.1235069E+00
         25   -1    0    0    0    0  0.00000000000E+00  0.00000000000E+00  0.99999998245E-14  0.12500000000E+03  0.12500000000E+03 0.  0.
          5    1    1    0  501    0  0.14502572620E+02  0.58298762143E+02 -0.16585828892E+02  0.62500000000E+02  0.47000000000E+01 0. -1.
         -5    1    1    0    0  501 -0.14502572620E+02 -0.58298762143E+02  0.16585828892E+02  0.62500000000E+02  0.47000000000E+01 0. -1.
</event>
<event>
 3    0  0.4607503E-005  0.9118800E+02  0.7546771E-02  0.1235069E+00
         25   -1    0    0    0    0  0.00000000000E+00  0.00000000000E+00  0.99999998245E-14  0.12500000000E+03  0.12500000000E+03 0.  0.
          5    1    1    0  501    0 -0.25182318919E+02  0.13916807241E+02 -0.55284114265E+02  0.62500000000E+02  0.47000000000E+01 0. -1.
         -5    1    1    0    0  501  0.25182318919E+02 -0.13916807241E+02  0.55284114265E+02  0.62500000000E+02  0.47000000000E+01 0. -1.
</event>
<event>
 3    0  0.4607503E-005  0.9118800E+02  0.7546771E-02  0.1235069E+00
         25   -1    0    0    0    0  0.00000000000E+00  0.00000000000E+00  0.99999998245E-14  0.12500000000E+03  0.12500000000E+03 0.  0.
          5    1    1    0  501    0  0.33351531755E+02 -0.51997048976E+02  0.82548305502E+01  0.62500000000E+02  0.47000000000E+01 0. -1.
         -5    1    1    0    0  501 -0.33351531755E+02  0.51997048976E+02 -0.82548305502E+01  0.62500000000E+02  0.47000000000E+01 0. -1.
</event>
<event>
 3    0  0.4607503E-005  0.9118800E+02  0.7546771E-02  0.1235069E+00
         25   -1    0    0    0    0  0.00000000000E+00  0.00000000000E+00  0.99999998245E-14  0.12500000000E+03  0.12500000000E+03 0.  0.
          5    1    1    0  501    0  0.61468216570E+02 -0.59711172887E+01 -0.83764019757E+01  0.62500000000E+02  0.47000000000E+01 0. -1.
         -5    1    1    0    0  501 -0.61468216570E+02  0.59711172887E+01  0.83764019757E+01  0.62500000000E+02  0.47000000000E+01 0. -1.
</event>
<event>
 3    0  0.4607503E-005  0.9118800E+02  0.7546771E-02  0.1235069E+00
         25   -1    0    0    0    0  0.00000000000E+00  0.00000000000E+00  0.99999998245E-14  0.12500000000E+03  0.12500000000E+03 0.  0.
          5    1    1    0  501    0  0.48866087590E+02 -0.27767529171E+02  0.26930091114E+02  0.62500000000E+02  0.47000000000E+01 0.  1.
         -5    1    1    0    0  501 -0.48866087590E+02  0.27767529171E+02 -0.26930091114E+02  0.62500000000E+02  0.47000000000E+01 0.  1.
</event>
<event>
 3    0  0.4607503E-005  0.9118800E+02  0.7546771E-02  0.1235069E+00
         25   -1    0    0    0    0  0.00000000000E+00  0.00000000000E+00  0.99999998245E-14  0.12500000000E+03  0.12500000000E+03 0.  0.
          5    1    1    0  501    0 -0.21490839212E+02 -0.46511233605E+02  0.35482516519E+02  0.62500000000E+02  0.47000000000E+01 0. -1.
         -5    1    1    0    0  501  0.21490839212E+02  0.46511233605E+02 -0.35482516519E+02  0.62500000000E+02  0.47000000000E+01 0. -1.
</event>
<event>
 3    0  0.4607503E-005  0.9118800E+02  0.7546771E-02  0.1235069E+00
         25   -1    0    0    0    0  0.00000000000E+00  0.00000000000E+00  0.99999998245E-14  0.12500000000E+03  0.12500000000E+03 0.  0.
          5    1    1    0  501    0  0.23238430249E+02  0.54350011348E+02  0.19753774982E+02  0.62500000000E+02  0.47000000000E+01 0.  1.
         -5    1    1    0    0  501 -0.23238430249E+02 -0.54350011348E+02 -0.19753774982E+02  0.62500000000E+02  0.47000000000E+01 0.  1.
</event>
<event>
 3    0  0.4607503E-005  0.9118800E+02  0.7546771E-02  0.1235069E+00
         25   -1    0    0    0    0  0.00000000000E+00  0.00000000000E+00  0.99999998245E-14  0.12500000000E+03  0.12500000000E+03 0.  0.
          5    1    1    0  501    0 -0.51811583664E+02  0.28059577163E+02  0.20307139820E+02  0.62500000000E+02  0.47000000000E+01 0.  1.
         -5    1    1    0    0  501  0.51811583664E+02 -0.28059577163E+02 -0.20307139820E+02  0.62500000000E+02  0.47000000000E+01 0.  1.
</event>
<event>
 3    0  0.4607503E-005  0.9118800E+02  0.7546771E-02  0.1235069E+00
         25   -1    0    0    0    0  0.00000000000E+00  0.00000000000E+00  0.99999998245E-14  0.12500000000E+03  0.12500000000E+03 0.  0.
          5    1    1    0  501    0 -0.14803102553E+02  0.44625711227E+02 -0.40909339426E+02  0.62500000000E+02  0.47000000000E+01 0. -1.
         -5    1    1    0    0  501  0.14803102553E+02 -0.44625711227E+02  0.40909339426E+02  0.62500000000E+02  0.47000000000E+01 0. -1.
</event>
<event>
 3    0  0.4607503E-005  0.9118800E+02  0.7546771E-02  0.1235069E+00
         25   -1    0    0    0    0  0.00000000000E+00  0.00000000000E+00  0.99999998245E-14  0.12500000000E+03  0.12500000000E+03 0.  0.
          5    1    1    0  501    0  0.81410605718E+01 -0.19447970091E+02  0.58648611169E+02  0.62500000000E+02  0.47000000000E+01 0. -1.
         -5    1    1    0    0  501 -0.81410605718E+01  0.19447970091E+02 -0.58648611169E+02  0.62500000000E+02  0.47000000000E+01 0. -1.
</event>
<event>
 3    0  0.4607503E-005  0.9118800E+02  0.7546771E-02  0.1235069E+00
         25   -1    0    0    0    0  0.00000000000E+00  0.00000000000E+00  0.99999998245E-14  0.12500000000E+03  0.12500000000E+03 0.  0.
          5    1    1    0  501    0  0.15385352155E+02 -0.12058604397E+01 -0.60382090388E+02  0.62500000000E+02  0.47000000000E+01 0.  1.
         -5    1    1    0    0  501 -0.15385352155E+02  0.12058604397E+01  0.60382090388E+02  0.62500000000E+02  0.47000000000E+01 0.  1.
</event>
<event>
 3    0  0.4607503E-005  0.9118800E+02  0.7546771E-02  0.1235069E+00
         25   -1    0    0    0    0  0.00000000000E+00  0.00000000000E+00  0.99999998245E-14  0.12500000000E+03  0.12500000000E+03 0.  0.
          5    1    1    0  501    0 -0.51352013552E+02  0.20717183347E+02 -0.28599458358E+02  0.62500000000E+02  0.47000000000E+01 0. -1.
         -5    1    1    0    0  501  0.51352013552E+02 -0.20717183347E+02  0.28599458358E+02  0.62500000000E+02  0.47000000000E+01 0. -1.
</event>
<event>
 3    0  0.4607503E-005  0.9118800E+02  0.7546771E-02  0.1235069E+00
         25   -1    0    0    0    0  0.00000000000E+00  0.00000000000E+00  0.99999998245E-14  0.12500000000E+03  0.12500000000E+03 0.  0.
          5    1    1    0  501    0 -0.56778857913E+02  0.68355968331E+01 -0.24770868173E+02  0.62500000000E+02  0.47000000000E+01 0.  1.
         -5    1    1    0    0  501  0.56778857913E+02 -0.68355968331E+01  0.24770868173E+02  0.62500000000E+02  0.47000000000E+01 0.  1.
</event>
<event>
 3    0  0.4607503E-005  0.9118800E+02  0.7546771E-02  0.1235069E+00
         25   -1    0    0    0    0  0.00000000000E+00  0.00000000000E+00  0.99999998245E-14  0.12500000000E+03  0.12500000000E+03 0.  0.
          5    1    1    0  501    0  0.18188765920E+02  0.21791906678E+02 -0.55483705695E+02  0.62500000000E+02  0.47000000000E+01 0. -1.
         -5    1    1    0    0  501 -0.18188765920E+02 -0.21791906678E+02  0.55483705695E+02  0.62500000000E+02  0.47000000000E+01 0. -1.
</event>
<event>
 3    0  0.4607503E-005  0.9118800E+02  0.7546771E-02  0.1235069E+00
         25   -1    0    0    0    0  0.00000000000E+00  0.00000000000E+00  0.99999998245E-14  0.12500000000E+03  0.12500000000E+03 0.  0.
          5    1    1    0  501    0 -0.44251949619E+02 -0.33022361447E+02 -0.28904127721E+02  0.62500000000E+02  0.47000000000E+01 0. -1.
         -5    1    1    0    0  501  0.44251949619E+02  0.33022361447E+02  0.28904127721E+02  0.62500000000E+02  0.47000000000E+01 0. -1.
</event>
<event>
 3    0  0.4607503E-005  0.9118800E+02  0.7546771E-02  0.1235069E+00
         25   -1    0    0    0    0  0.00000000000E+00  0.00000000000E+00  0.99999998245E-14  0.12500000000E+03  0.12500000000E+03 0.  0.
          5    1    1    0  501    0  0.55237047336E+02  0.10228060305E+02  0.26989171606E+02  0.62500000000E+02  0.47000000000E+01 0.  1.
         -5    1    1    0    0  501 -0.55237047336E+02 -0.10228060305E+02 -0.26989171606E+02  0.62500000000E+02  0.47000000000E+01 0.  1.
</event>
<event>
 3    0  0.4607503E-005  0.9118800E+02  0.7546771E-02  0.1235069E+00
         25   -1    0    0    0    0  0.00000000000E+00  0.00000000000E+00  0.99999998245E-14  0.12500000000E+03  0.12500000000E+03 0.  0.
          5    1    1    0  501    0  0.44164332137E+02  0.10036447632E+02 -0.42812865891E+02  0.62500000000E+02  0.47000000000E+01 0.  1.
         -5    1    1    0    0  501 -0.44164332137E+02 -0.10036447632E+02  0.42812865891E+02  0.62500000000E+02  0.47000000000E+01 0.  1.
</event>
<event>
 3    0  0.4607503E-005  0.9118800E+02  0.7546771E-02  0.1235069E+00
         25   -1    0    0    0    0  0.00000000000E+00  0.00000000000E+00  0.99999998245E-14  0.12500000000E+03  0.12500000000E+03 0.  0.
          5    1    1    0  501    0  0.55823432126E+02  0.24862810597E+02 -0.12237037017E+02  0.62500000000E+02  0.47000000000E+01 0. -1.
         -5    1    1    0    0  501 -0.55823432126E+02 -0.24862810597E+02  0.12237037017E+02  0.62500000000E+02  0.47000000000E+01 0. -1.
</event>
<event>
 3    0  0.4607503E-005  0.9118800E+02  0.7546771E-02  0.1235069E+00
         25   -1    0    0    0    0  0.00000000000E+00  0.00000000000E+00  0.99999998245E-14  0.12500000000E+03  0.12500000000E+03 0.  0.
          5    1    1    0  501    0  0.14706702430E+02  0.23567083116E+02 -0.55789474787E+02  0.62500000000E+02  0.47000000000E+01 0.  1.
         -5    1    1    0    0  501 -0.14706702430E+02 -0.23567083116E+02  0.55789474787E+02  0.62500000000E+02  0.47000000000E+01 0.  1.
</event>
<event>
 3    0  0.4607503E-005  0.9118800E+02  0.7546771E-02  0.1235069E+00
         25   -1    0    0    0    0  0.00000000000E+00  0.00000000000E+00  0.99999998245E-14  0.12500000000E+03  0.12500000000E+03 0.  0.
          5    1    1    0  501    0  0.53167709386E+02 -0.15981649378E+02 -0.28318572736E+02  0.62500000000E+02  0.47000000000E+01 0.  1.
         -5    1    1    0    0  501 -0.53167709386E+02  0.15981649378E+02  0.28318572736E+02  0.62500000000E+02  0.47000000000E+01 0.  1.
</event>
<event>
 3    0  0.4607503E-005  0.9118800E+02  0.7546771E-02  0.1235069E+00
         25   -1    0    0    0    0  0.00000000000E+00  0.00000000000E+00  0.99999998245E-14  0.12500000000E+03  0.12500000000E+03 0.  0.
          5    1    1    0  501    0  0.53787318862E+02  0.29172372264E+02  0.11834569116E+02  0.62500000000E+02  0.47000000000E+01 0.  1.
         -5    1    1    0    0  501 -0.53787318862E+02 -0.29172372264E+02 -0.11834569116E+02  0.62500000000E+02  0.47000000000E+01 0.  1.
</event>
<event>
 3    0  0.4607503E-005  0.9118800E+02  0.7546771E-02  0.1235069E+00
         25   -1    0    0    0    0  0.00000000000E+00  0.00000000000E+00  0.99999998245E-14  0.12500000000E+03  0.12500000000E+03 0.  0.
          5    1    1    0  501    0  0.44837711423E+02  0.23402440188E+02 -0.36415181279E+02  0.62500000000E+02  0.47000000000E+01 0.  1.
         -5    1    1    0    0  501 -0.44837711423E+02 -0.23402440188E+02  0.36415181279E+02  0.62500000000E+02  0.47000000000E+01 0.  1.
</event>
<event>
 3    0  0.4607503E-005  0.9118800E+02  0.7546771E-02  0.1235069E+00
         25   -1    0    0    0    0  0.00000000000E+00  0.00000000000E+00  0.99999998245E-14  0.12500000000E+03  0.12500000000E+03 0.  0.
          5    1    1    0  501    0  0.52570123337E+02 -0.32902799430E+02 -0.61601884779E+01  0.62500000000E+02  0.47000000000E+01 0. -1.
         -5    1    1    0    0  501 -0.52570123337E+02  0.32902799430E+02  0.61601884779E+01  0.62500000000E+02  0.47000000000E+01 0. -1.
</event>
<event>
 3    0  0.4607503E-005  0.9118800E+02  0.7546771E-02  0.1235069E+00
         25   -1    0    0    0    0  0.00000000000E+00  0.00000000000E+00  0.99999998245E-14  0.12500000000E+03  0.12500000000E+03 0.  0.
          5    1    1    0  501    0 -0.15577098290E+02 -0.60253220538E+02  0.33261725209E+01  0.62500000000E+02  0.47000000000E+01 0.  1.
         -5    1    1    0    0  501  0.15577098290E+02  0.60253220538E+02 -0.33261725209E+01  0.62500000000E+02  0.47000000000E+01 0.  1.
</event>
<event>
 3    0  0.4607503E-005  0.9118800E+02  0.7546771E-02  0.1235069E+00
         25   -1    0    0    0    0  0.00000000000E+00  0.00000000000E+00  0.99999998245E-14  0.12500000000E+03  0.12500000000E+03 0.  0.
          5    1    1    0  501    0 -0.56857335188E+02 -0.24140452894E+02  0.82850449250E+01  0.62500000000E+02  0.47000000000E+01 0. -1.
         -5    1    1    0    0  501  0.56857335188E+02  0.24140452894E+02 -0.82850449250E+01  0.62500000000E+02  0.47000000000E+01 0. -1.
</event>
<event>
 3    0  0.4607503E-005  0.9118800E+02  0.7546771E-02  0.1235069E+00
         25   -1    0    0    0    0  0.00000000000E+00  0.00000000000E+00  0.99999998245E-14  0.12500000000E+03  0.12500000000E+03 0.  0.
          5    1    1    0  501    0 -0.17637422401E+01  0.49340225001E+02 -0.38034082218E+02  0.62500000000E+02  0.47000000000E+01 0.  1.
         -5    1    1    0    0  501  0.17637422401E+01 -0.49340225001E+02  0.38034082218E+02  0.62500000000E+02  0.47000000000E+01 0.  1.
</event>
<event>
 3    0  0.4607503E-005  0.9118800E+02  0.7546771E-02  0.1235069E+00
         25   -1    0    0    0    0  0.00000000000E+00  0.00000000000E+00  0.99999998245E-14  0.12500000000E+03  0.12500000000E+03 0.  0.
          5    1    1    0  501    0  0.37398445481E+02  0.41021540071E+02  0.28332834765E+02  0.62500000000E+02  0.47000000000E+01 0. -1.
         -5    1    1    0    0  501 -0.37398445481E+02 -0.41021540071E+02 -0.28332834765E+02  0.62500000000E+02  0.47000000000E+01 0. -1.
</event>
<event>
 3    0  0.4607503E-005  0.9118800E+02  0.7546771E-02  0.1235069E+00
         25   -1    0    0    0    0  0.00000000000E+00  0.00000000000E+00  0.99999998245E-14  0.12500000000E+03  0.12500000000E+03 0.  0.
          5    1    1    0  501    0  0.42797275239E+02  0.40796392622E+02 -0.19702984068E+02  0.62500000000E+02  0.47000000000E+01 0.  1.
         -5    1    1    0    0  501 -0.42797275239E+02 -0.40796392622E+02  0.19702984068E+02  0.62500000000E+02  0.47000000000E+01 0.  1.
</event>
<event>
 3    0  0.4607503E-005  0.9118800E+02  0.7546771E-02  0.1235069E+00
         25   -1    0    0    0    0  0.00000000000E+00  0.00000000000E+00  0.99999998245E-14  0.12500000000E+03  0.12500000000E+03 0.  0.
          5    1    1    0  501    0  0.11411581479E+02  0.32958347381E+02  0.51649619031E+02  0.62500000000E+02  0.47000000000E+01 0.  1.
         -5    1    1    0    0  501 -0.11411581479E+02 -0.32958347381E+02 -0.51649619031E+02  0.62500000000E+02  0.47000000000E+01 0.  1.
</event>
<event>
 3    0  0.4607503E-005  0.9118800E+02  0.7546771E-02  0.1235069E+00
         25   -1    0    0    0    0  0.00000000000E+00  0.00000000000E+00  0.99999998245E-14  0.12500000000E+03  0.12500000000E+03 0.  0.
          5    1    1    0  501    0 -0.20808095706E+01 -0.35031314541E+02  0.51503759407E+02  0.62500000000E+02  0.47000000000E+01 0.  1.
         -5    1    1    0    0  501  0.20808095706E+01  0.35031314541E+02 -0.51503759407E+02  0.62500000000E+02  0.47000000000E+01 0.  1.
</event>
<event>
 3    0  0.4607503E-005  0.9118800E+02  0.7546771E-02  0.1235069E+00
         25   -1    0    0    0    0  0.00000000000E+00  0.00000000000E+00  0.99999998245E-14  0.12500000000E+03  0.12500000000E+03 0.  0.
          5    1    1    0  501    0  0.48458499068E+02 -0.23322653245E+02 -0.31495836450E+02  0.62500000000E+02  0.47000000000E+01 0.  1.
         -5    1    1    0    0  501 -0.48458499068E+02  0.23322653245E+02  0.31495836450E+02  0.62500000000E+02  0.47000000000E+01 0.  1.
</event>
<event>
 3    0  0.4607503E-005  0.9118800E+02  0.7546771E-02  0.1235069E+00
         25   -1    0    0    0    0  0.00000000000E+00  0.00000000000E+00  0.99999998245E-14  0.12500000000E+03  0.12500000000E+03 0.  0.
          5    1    1    0  501    0 -0.35306844025E+02 -0.37882104071E+01  0.51217538275E+02  0.62500000000E+02  0.47000000000E+01 0. -1.
         -5    1    1    0    0  501  0.35306844025E+02  0.37882104071E+01 -0.51217538275E+02  0.62500000000E+02  0.47000000000E+01 0. -1.
</event>
<event>
 3    0  0.4607503E-005  0.9118800E+02  0.7546771E-02  0.1235069E+00
         25   -1    0    0    0    0  0.00000000000E+00  0.00000000000E+00  0.99999998245E-14  0.12500000000E+03  0.12500000000E+03 0.  0.
          5    1    1    0  501    0 -0.56832206287E+02  0.19566428644E+02 -0.16474683569E+02  0.62500000000E+02  0.47000000000E+01 0. -1.
         -5    1    1    0    0  501  0.56832206287E+02 -0.19566428644E+02  0.16474683569E+02  0.62500000000E+02  0.47000000000E+01 0. -1.
</event>
<event>
 3    0  0.4607503E-005  0.9118800E+02  0.7546771E-02  0.1235069E+00
         25   -1    0    0    0    0  0.00000000000E+00  0.00000000000E+00  0.99999998245E-14  0.12500000000E+03  0.12500000000E+03 0.  0.
          5    1    1    0  501    0  0.17068375124E+02 -0.28246796128E+01  0.59873631556E+02  0.62500000000E+02  0.47000000000E+01 0.  1.
         -5    1    1    0    0  501 -0.17068375124E+02  0.28246796128E+01 -0.59873631556E+02  0.62500000000E+02  0.47000000000E+01 0.  1.
</event>
<event>
 3    0  0.4607503E-005  0.9118800E+02  0.7546771E-02  0.1235069E+00
         25   -1    0    0    0    0  0.00000000000E+00  0.00000000000E+00  0.99999998245E-14  0.12500000000E+03  0.12500000000E+03 0.  0.
          5    1    1    0  501    0  0.65421490294E+01 -0.42115831738E+02  0.45471056763E+02  0.62500000000E+02  0.47000000000E+01 0. -1.
         -5    1    1    0    0  501 -0.65421490294E+01  0.42115831738E+02 -0.45471056763E+02  0.62500000000E+02  0.47000000000E+01 0. -1.
</event>
<event>
 3    0  0.4607503E-005  0.9118800E+02  0.7546771E-02  0.1235069E+00
         25   -1    0    0    0    0  0.00000000000E+00  0.00000000000E+00  0.99999998245E-14  0.12500000000E+03  0.12500000000E+03 0.  0.
          5    1    1    0  501    0  0.49335077306E+02 -0.33360721243E+02 -0.18364978228E+02  0.62500000000E+02  0.47000000000E+01 0.  1.
         -5    1    1    0    0  501 -0.49335077306E+02  0.33360721243E+02  0.18364978228E+02  0.62500000000E+02  0.47000000000E+01 0.  1.
</event>
<event>
 3    0  0.4607503E-005  0.9118800E+02  0.7546771E-02  0.1235069E+00
         25   -1    0    0    0    0  0.00000000000E+00  0.00000000000E+00  0.99999998245E-14  0.12500000000E+03  0.12500000000E+03 0.  0.
          5    1    1    0  501    0 -0.52590072122E+02  0.32003945367E+02 -0.97052457553E+01  0.62500000000E+02  0.47000000000E+01 0. -1.
         -5    1    1    0    0  501  0.52590072122E+02 -0.32003945367E+02  0.97052457553E+01  0.62500000000E+02  0.47000000000E+01 0. -1.
</event>
<event>
 3    0  0.4607503E-005  0.9118800E+02  0.7546771E-02  0.1235069E+00
         25   -1    0    0    0    0  0.00000000000E+00  0.00000000000E+00  0.99999998245E-14  0.12500000000E+03  0.12500000000E+03 0.  0.
          5    1    1    0  501    0  0.55480479500E+02  0.20676146727E+02  0.19456961505E+02  0.62500000000E+02  0.47000000000E+01 0. -1.
         -5    1    1    0    0  501 -0.55480479500E+02 -0.20676146727E+02 -0.19456961505E+02  0.62500000000E+02  0.47000000000E+01 0. -1.
</event>
<event>
 3    0  0.4607503E-005  0.9118800E+02  0.7546771E-02  0.1235069E+00
         25   -1    0    0    0    0  0.00000000000E+00  0.00000000000E+00  0.99999998245E-14  0.12500000000E+03  0.12500000000E+03 0.  0.
          5    1    1    0  501    0 -0.48786565342E+02 -0.15290997538E+02 -0.35640095909E+02  0.62500000000E+02  0.47000000000E+01 0. -1.
         -5    1    1    0    0  501  0.48786565342E+02  0.15290997538E+02  0.35640095909E+02  0.62500000000E+02  0.47000000000E+01 0. -1.
</event>
<event>
 3    0  0.4607503E-005  0.9118800E+02  0.7546771E-02  0.1235069E+00
         25   -1    0    0    0    0  0.00000000000E+00  0.00000000000E+00  0.99999998245E-14  0.12500000000E+03  0.12500000000E+03 0.  0.
          5    1    1    0  501    0 -0.20700882361E+02  0.56890739649E+02  0.14801257096E+02  0.62500000000E+02  0.47000000000E+01 0. -1.
         -5    1    1    0    0  501  0.20700882361E+02 -0.56890739649E+02 -0.14801257096E+02  0.62500000000E+02  0.47000000000E+01 0. -1.
</event>
<event>
 3    0  0.4607503E-005  0.9118800E+02  0.7546771E-02  0.1235069E+00
         25   -1    0    0    0    0  0.00000000000E+00  0.00000000000E+00  0.99999998245E-14  0.12500000000E+03  0.12500000000E+03 0.  0.
          5    1    1    0  501    0 -0.19346871299E+02  0.58464678926E+02 -0.95780942281E+01  0.62500000000E+02  0.47000000000E+01 0.  1.
         -5    1    1    0    0  501  0.19346871299E+02 -0.58464678926E+02  0.95780942281E+01  0.62500000000E+02  0.47000000000E+01 0.  1.
</event>
<event>
 3    0  0.4607503E-005  0.9118800E+02  0.7546771E-02  0.1235069E+00
         25   -1    0    0    0    0  0.00000000000E+00  0.00000000000E+00  0.99999998245E-14  0.12500000000E+03  0.12500000000E+03 0.  0.
          5    1    1    0  501    0 -0.56463234700E+02  0.16989149603E+02 -0.20184942975E+02  0.62500000000E+02  0.47000000000E+01 0.  1.
         -5    1    1    0    0  501  0.56463234700E+02 -0.16989149603E+02  0.20184942975E+02  0.62500000000E+02  0.47000000000E+01 0.  1.
</event>
<event>
 3    0  0.4607503E-005  0.9118800E+02  0.7546771E-02  0.1235069E+00
         25   -1    0    0    0    0  0.00000000000E+00  0.00000000000E+00  0.99999998245E-14  0.12500000000E+03  0.12500000000E+03 0.  0.
          5    1    1    0  501    0  0.98454279172E+01 -0.30890493642E+02  0.53225980044E+02  0.62500000000E+02  0.47000000000E+01 0.  1.
         -5    1    1    0    0  501 -0.98454279172E+01  0.30890493642E+02 -0.53225980044E+02  0.62500000000E+02  0.47000000000E+01 0.  1.
</event>
<event>
 3    0  0.4607503E-005  0.9118800E+02  0.7546771E-02  0.1235069E+00
         25   -1    0    0    0    0  0.00000000000E+00  0.00000000000E+00  0.99999998245E-14  0.12500000000E+03  0.12500000000E+03 0.  0.
          5    1    1    0  501    0  0.43835779748E+02 -0.43451661481E+02  0.86335119398E+01  0.62500000000E+02  0.47000000000E+01 0. -1.
         -5    1    1    0    0  501 -0.43835779748E+02  0.43451661481E+02 -0.86335119398E+01  0.62500000000E+02  0.47000000000E+01 0. -1.
</event>
<event>
 3    0  0.4607503E-005  0.9118800E+02  0.7546771E-02  0.1235069E+00
         25   -1    0    0    0    0  0.00000000000E+00  0.00000000000E+00  0.99999998245E-14  0.12500000000E+03  0.12500000000E+03 0.  0.
          5    1    1    0  501    0  0.33068752091E+02  0.27175527117E+02 -0.45300202660E+02  0.62500000000E+02  0.47000000000E+01 0. -1.
         -5    1    1    0    0  501 -0.33068752091E+02 -0.27175527117E+02  0.45300202660E+02  0.62500000000E+02  0.47000000000E+01 0. -1.
</event>
<event>
 3    0  0.4607503E-005  0.9118800E+02  0.7546771E-02  0.1235069E+00
         25   -1    0    0    0    0  0.00000000000E+00  0.00000000000E+00  0.99999998245E-14  0.12500000000E+03  0.12500000000E+03 0.  0.
          5    1    1    0  501    0 -0.61585111171E+02  0.32778051360E+01  0.89827654759E+01  0.62500000000E+02  0.47000000000E+01 0. -1.
         -5    1    1    0    0  501  0.61585111171E+02 -0.32778051360E+01 -0.89827654759E+01  0.62500000000E+02  0.47000000000E+01 0. -1.
</event>
<event>
 3    0  0.4607503E-005  0.9118800E+02  0.7546771E-02  0.1235069E+00
         25   -1    0    0    0    0  0.00000000000E+00  0.00000000000E+00  0.99999998245E-14  0.12500000000E+03  0.12500000000E+03 0.  0.
          5    1    1    0  501    0 -0.39364239187E+02  0.24506982591E+02 -0.41641619535E+02  0.62500000000E+02  0.47000000000E+01 0. -1.
         -5    1    1    0    0  501  0.39364239187E+02 -0.24506982591E+02  0.41641619535E+02  0.62500000000E+02  0.47000000000E+01 0. -1.
</event>
<event>
 3    0  0.4607503E-005  0.9118800E+02  0.7546771E-02  0.1235069E+00
         25   -1    0    0    0    0  0.00000000000E+00  0.00000000000E+00  0.99999998245E-14  0.12500000000E+03  0.12500000000E+03 0.  0.
          5    1    1    0  501    0  0.18913891991E+02 -0.51026462477E+02 -0.30376385842E+02  0.62500000000E+02  0.47000000000E+01 0. -1.
         -5    1    1    0    0  501 -0.18913891991E+02  0.51026462477E+02  0.30376385842E+02  0.62500000000E+02  0.47000000000E+01 0. -1.
</event>
<event>
 3    0  0.4607503E-005  0.9118800E+02  0.7546771E-02  0.1235069E+00
         25   -1    0    0    0    0  0.00000000000E+00  0.00000000000E+00  0.99999998245E-14  0.12500000000E+03  0.12500000000E+03 0.  0.
          5    1    1    0  501    0  0.34428066364E+02  0.49220625465E+02  0.16619214038E+02  0.62500000000E+02  0.47000000000E+01 0.  1.
         -5    1    1    0    0  501 -0.34428066364E+02 -0.49220625465E+02 -0.16619214038E+02  0.62500000000E+02  0.47000000000E+01 0.  1.
</event>
<event>
 3    0  0.4607503E-005  0.9118800E+02  0.7546771E-02  0.1235069E+00
         25   -1    0    0    0    0  0.00000000000E+00  0.00000000000E+00  0.99999998245E-14  0.12500000000E+03  0.12500000000E+03 0.  0.
          5    1    1    0  501    0 -0.51671023045E+02 -0.30218967353E+02 -0.17351639393E+02  0.62500000000E+02  0.47000000000E+01 0.  1.
         -5    1    1    0    0  501  0.51671023045E+02  0.30218967353E+02  0.17351639393E+02  0.62500000000E+02  0.47000000000E+01 0.  1.
</event>
<event>
 3    0  0.4607503E-005  0.9118800E+02  0.7546771E-02  0.1235069E+00
         25   -1    0    0    0    0  0.00000000000E+00  0.00000000000E+00  0.99999998245E-14  0.12500000000E+03  0.12500000000E+03 0.  0.
          5    1    1    0  501    0 -0.31321356144E+01 -0.24915724676E+02 -0.57039954333E+02  0.62500000000E+02  0.47000000000E+01 0.  1.
         -5    1    1    0    0  501  0.31321356144E+01  0.24915724676E+02  0.57039954333E+02  0.62500000000E+02  0.47000000000E+01 0.  1.
</event>
<event>
 3    0  0.4607503E-005  0.9118800E+02  0.7546771E-02  0.1235069E+00
         25   -1    0    0    0    0  0.00000000000E+00  0.00000000000E+00  0.99999998245E-14  0.12500000000E+03  0.12500000000E+03 0.  0.
          5    1    1    0  501    0  0.35345956988E+02 -0.38221908329E+02 -0.34262356141E+02  0.62500000000E+02  0.47000000000E+01 0.  1.
         -5    1    1    0    0  501 -0.35345956988E+02  0.38221908329E+02  0.34262356141E+02  0.62500000000E+02  0.47000000000E+01 0.  1.
</event>
<event>
 3    0  0.4607503E-005  0.9118800E+02  0.7546771E-02  0.1235069E+00
         25   -1    0    0    0    0  0.00000000000E+00  0.00000000000E+00  0.99999998245E-14  0.12500000000E+03  0.12500000000E+03 0.  0.
          5    1    1    0  501    0  0.24113595205E+01  0.61162757411E+02  0.11724438200E+02  0.62500000000E+02  0.47000000000E+01 0. -1.
         -5    1    1    0    0  501 -0.24113595205E+01 -0.61162757411E+02 -0.11724438200E+02  0.62500000000E+02  0.47000000000E+01 0. -1.
</event>
<event>
 3    0  0.4607503E-005  0.9118800E+02  0.7546771E-02  0.1235069E+00
         25   -1    0    0    0    0  0.00000000000E+00  0.00000000000E+00  0.99999998245E-14  0.12500000000E+03  0.12500000000E+03 0.  0.
          5    1    1    0  501    0  0.37129781897E+01  0.17355948582E+02 -0.59742320358E+02  0.62500000000E+02  0.47000000000E+01 0.  1.
         -5    1    1    0    0  501 -0.37129781897E+01 -0.17355948582E+02  0.59742320358E+02  0.62500000000E+02  0.47000000000E+01 0.  1.
</event>
<event>
 3    0  0.4607503E-005  0.9118800E+02  0.7546771E-02  0.1235069E+00
         25   -1    0    0    0    0  0.00000000000E+00  0.00000000000E+00  0.99999998245E-14  0.12500000000E+03  0.12500000000E+03 0.  0.
          5    1    1    0  501    0 -0.21371179705E+02  0.58003719272E+02 -0.79373313284E+01  0.62500000000E+02  0.47000000000E+01 0.  1.
         -5    1    1    0    0  501  0.21371179705E+02 -0.58003719272E+02  0.79373313284E+01  0.62500000000E+02  0.47000000000E+01 0.  1.
</event>
<event>
 3    0  0.4607503E-005  0.9118800E+02  0.7546771E-02  0.1235069E+00
         25   -1    0    0    0    0  0.00000000000E+00  0.00000000000E+00  0.99999998245E-14  0.12500000000E+03  0.12500000000E+03 0.  0.
          5    1    1    0  501    0  0.36323471235E+02  0.26269184347E+02  0.43297752727E+02  0.62500000000E+02  0.47000000000E+01 0.  1.
         -5    1    1    0    0  501 -0.36323471235E+02 -0.26269184347E+02 -0.43297752727E+02  0.62500000000E+02  0.47000000000E+01 0.  1.
</event>
<event>
 3    0  0.4607503E-005  0.9118800E+02  0.7546771E-02  0.1235069E+00
         25   -1    0    0    0    0  0.00000000000E+00  0.00000000000E+00  0.99999998245E-14  0.12500000000E+03  0.12500000000E+03 0.  0.
          5    1    1    0  501    0  0.51881736018E+02  0.89418106760E+01  0.33354002602E+02  0.62500000000E+02  0.47000000000E+01 0. -1.
         -5    1    1    0    0  501 -0.51881736018E+02 -0.89418106760E+01 -0.33354002602E+02  0.62500000000E+02  0.47000000000E+01 0. -1.
</event>
<event>
 3    0  0.4607503E-005  0.9118800E+02  0.7546771E-02  0.1235069E+00
         25   -1    0    0    0    0  0.00000000000E+00  0.00000000000E+00  0.99999998245E-14  0.12500000000E+03  0.12500000000E+03 0.  0.
          5    1    1    0  501    0  0.40819096089E+02 -0.42365520018E+02  0.20569980750E+02  0.62500000000E+02  0.47000000000E+01 0.  1.
         -5    1    1    0    0  501 -0.40819096089E+02  0.42365520018E+02 -0.20569980750E+02  0.62500000000E+02  0.47000000000E+01 0.  1.
</event>
<event>
 3    0  0.4607503E-005  0.9118800E+02  0.7546771E-02  0.1235069E+00
         25   -1    0    0    0    0  0.00000000000E+00  0.00000000000E+00  0.99999998245E-14  0.12500000000E+03  0.12500000000E+03 0.  0.
          5    1    1    0  501    0  0.59580503313E+02 -0.17276881843E+02  0.59860653804E+01  0.62500000000E+02  0.47000000000E+01 0. -1.
         -5    1    1    0    0  501 -0.59580503313E+02  0.17276881843E+02 -0.59860653804E+01  0.62500000000E+02  0.47000000000E+01 0. -1.
</event>
<event>
 3    0  0.4607503E-005  0.9118800E+02  0.7546771E-02  0.1235069E+00
         25   -1    0    0    0    0  0.00000000000E+00  0.00000000000E+00  0.99999998245E-14  0.12500000000E+03  0.12500000000E+03 0.  0.
          5    1    1    0  501    0  0.27749149377E+02  0.19034673544E+02  0.52457848907E+02  0.62500000000E+02  0.47000000000E+01 0.  1.
         -5    1    1    0    0  501 -0.27749149377E+02 -0.19034673544E+02 -0.52457848907E+02  0.62500000000E+02  0.47000000000E+01 0.  1.
</event>
<event>
 3    0  0.4607503E-005  0.9118800E+02  0.7546771E-02  0.1235069E+00
         25   -1    0    0    0    0  0.00000000000E+00  0.00000000000E+00  0.99999998245E-14  0.12500000000E+03  0.12500000000E+03 0.  0.
          5    1    1    0  501    0 -0.58331010566E+02  0.15669539306E+02 -0.15366155807E+02  0.62500000000E+02  0.47000000000E+01 0.  1.
         -5    1    1    0    0  501  0.58331010566E+02 -0.15669539306E+02  0.15366155807E+02  0.62500000000E+02  0.47000000000E+01 0.  1.
</event>
<event>
 3    0  0.4607503E-005  0.9118800E+02  0.7546771E-02  0.1235069E+00
         25   -1    0    0    0    0  0.00000000000E+00  0.00000000000E+00  0.99999998245E-14  0.12500000000E+03  0.12500000000E+03 0.  0.
          5    1    1    0  501    0 -0.69469807861E+00  0.46926162478E+02 -0.41007470901E+02  0.62500000000E+02  0.47000000000E+01 0. -1.
         -5    1    1    0    0  501  0.69469807861E+00 -0.46926162478E+02  0.41007470901E+02  0.62500000000E+02  0.47000000000E+01 0. -1.
</event>
<event>
 3    0  0.4607503E-005  0.9118800E+02  0.7546771E-02  0.1235069E+00
         25   -1    0    0    0    0  0.00000000000E+00  0.00000000000E+00  0.99999998245E-14  0.12500000000E+03  0.12500000000E+03 0.  0.
          5    1    1    0  501    0  0.17700956282E+02  0.58235786199E+02 -0.13395124205E+02  0.62500000000E+02  0.47000000000E+01 0. -1.
         -5    1    1    0    0  501 -0.17700956282E+02 -0.58235786199E+02  0.13395124205E+02  0.62500000000E+02  0.47000000000E+01 0. -1.
</event>
<event>
 3    0  0.4607503E-005  0.9118800E+02  0.7546771E-02  0.1235069E+00
         25   -1    0    0    0    0  0.00000000000E+00  0.00000000000E+00  0.99999998245E-14  0.12500000000E+03  0.12500000000E+03 0.  0.
          5    1    1    0  501    0 -0.26471684964E+01  0.61919659225E+02 -0.65656911566E+01  0.62500000000E+02  0.47000000000E+01 0.  1.
         -5    1    1    0    0  501  0.26471684964E+01 -0.61919659225E+02  0.65656911566E+01  0.62500000000E+02  0.47000000000E+01 0.  1.
</event>
<event>
 3    0  0.4607503E-005  0.9118800E+02  0.7546771E-02  0.1235069E+00
         25   -1    0    0    0    0  0.00000000000E+00  0.00000000000E+00  0.99999998245E-14  0.12500000000E+03  0.12500000000E+03 0.  0.
          5    1    1    0  501    0 -0.20101035063E+02 -0.44226313539E+02  0.39040255893E+02  0.62500000000E+02  0.47000000000E+01 0. -1.
         -5    1    1    0    0  501  0.20101035063E+02  0.44226313539E+02 -0.39040255893E+02  0.62500000000E+02  0.47000000000E+01 0. -1.
</event>
<event>
 3    0  0.4607503E-005  0.9118800E+02  0.7546771E-02  0.1235069E+00
         25   -1    0    0    0    0  0.00000000000E+00  0.00000000000E+00  0.99999998245E-14  0.12500000000E+03  0.12500000000E+03 0.  0.
          5    1    1    0  501    0  0.62063737007E+02  0.35568893315E+01  0.44273114824E+01  0.62500000000E+02  0.47000000000E+01 0.  1.
         -5    1    1    0    0  501 -0.62063737007E+02 -0.35568893315E+01 -0.44273114824E+01  0.62500000000E+02  0.47000000000E+01 0.  1.
</event>
<event>
 3    0  0.4607503E-005  0.9118800E+02  0.7546771E-02  0.1235069E+00
         25   -1    0    0    0    0  0.00000000000E+00  0.00000000000E+00  0.99999998245E-14  0.12500000000E+03  0.12500000000E+03 0.  0.
          5    1    1    0  501    0 -0.28790849489E+02 -0.54949588343E+02  0.59824515543E+01  0.62500000000E+02  0.47000000000E+01 0.  1.
         -5    1    1    0    0  501  0.28790849489E+02  0.54949588343E+02 -0.59824515543E+01  0.62500000000E+02  0.47000000000E+01 0.  1.
</event>
<event>
 3    0  0.4607503E-005  0.9118800E+02  0.7546771E-02  0.1235069E+00
         25   -1    0    0    0    0  0.00000000000E+00  0.00000000000E+00  0.99999998245E-14  0.12500000000E+03  0.12500000000E+03 0.  0.
          5    1    1    0  501    0  0.58501162056E+02  0.19990543040E+02 -0.78836683742E+01  0.62500000000E+02  0.47000000000E+01 0. -1.
         -5    1    1    0    0  501 -0.58501162056E+02 -0.19990543040E+02  0.78836683742E+01  0.62500000000E+02  0.47000000000E+01 0. -1.
</event>
<event>
 3    0  0.4607503E-005  0.9118800E+02  0.7546771E-02  0.1235069E+00
         25   -1    0    0    0    0  0.00000000000E+00  0.00000000000E+00  0.99999998245E-14  0.12500000000E+03  0.12500000000E+03 0.  0.
          5    1    1    0  501    0  0.62049079474E+01  0.24279214786E+02  0.57062937593E+02  0.62500000000E+02  0.47000000000E+01 0. -1.
         -5    1    1    0    0  501 -0.62049079474E+01 -0.24279214786E+02 -0.57062937593E+02  0.62500000000E+02  0.47000000000E+01 0. -1.
</event>
<event>
 3    0  0.4607503E-005  0.9118800E+02  0.7546771E-02  0.1235069E+00
         25   -1    0    0    0    0  0.00000000000E+00  0.00000000000E+00  0.99999998245E-14  0.12500000000E+03  0.12500000000E+03 0.  0.
          5    1    1    0  501    0 -0.35350827133E+02 -0.49717975997E+02  0.12751544368E+02  0.62500000000E+02  0.47000000000E+01 0.  1.
         -5    1    1    0    0  501  0.35350827133E+02  0.49717975997E+02 -0.12751544368E+02  0.62500000000E+02  0.47000000000E+01 0.  1.
</event>
<event>
 3    0  0.4607503E-005  0.9118800E+02  0.7546771E-02  0.1235069E+00
         25   -1    0    0    0    0  0.00000000000E+00  0.00000000000E+00  0.99999998245E-14  0.12500000000E+03  0.12500000000E+03 0.  0.
          5    1    1    0  501    0 -0.17706250472E+02 -0.24834164917E+02  0.54349912117E+02  0.62500000000E+02  0.47000000000E+01 0. -1.
         -5    1    1    0    0  501  0.17706250472E+02  0.24834164917E+02 -0.54349912117E+02  0.62500000000E+02  0.47000000000E+01 0. -1.
</event>
<event>
 3    0  0.4607503E-005  0.9118800E+02  0.7546771E-02  0.1235069E+00
         25   -1    0    0    0    0  0.00000000000E+00  0.00000000000E+00  0.99999998245E-14  0.12500000000E+03  0.12500000000E+03 0.  0.
          5    1    1    0  501    0  0.17222842816E+02 -0.32680980605E+02  0.50194493642E+02  0.62500000000E+02  0.47000000000E+01 0. -1.
         -5    1    1    0    0  501 -0.17222842816E+02  0.32680980605E+02 -0.50194493642E+02  0.62500000000E+02  0.47000000000E+01 0. -1.
</event>
<event>
 3    0  0.4607503E-005  0.9118800E+02  0.7546771E-02  0.1235069E+00
         25   -1    0    0    0    0  0.00000000000E+00  0.00000000000E+00  0.99999998245E-14  0.12500000000E+03  0.12500000000E+03 0.  0.
          5    1    1    0  501    0 -0.35317628906E+02 -0.39938987156E+02  0.32275414690E+02  0.62500000000E+02  0.47000000000E+01 0.  1.
         -5    1    1    0    0  501  0.35317628906E+02  0.39938987156E+02 -0.32275414690E+02  0.62500000000E+02  0.47000000000E+01 0.  1.
</event>
<event>
 3    0  0.4607503E-005  0.9118800E+02  0.7546771E-02  0.1235069E+00
         25   -1    0    0    0    0  0.00000000000E+00  0.00000000000E+00  0.99999998245E-14  0.12500000000E+03  0.12500000000E+03 0.  0.
          5    1    1    0  501    0 -0.61290786577E+02 -0.29112717232E+01  0.10914393145E+02  0.62500000000E+02  0.47000000000E+01 0.  1.
         -5    1    1    0    0  501  0.61290786577E+02  0.29112717232E+01 -0.10914393145E+02  0.62500000000E+02  0.47000000000E+01 0.  1.
</event>
<event>
 3    0  0.4607503E-005  0.9118800E+02  0.7546771E-02  0.1235069E+00
         25   -1    0    0    0    0  0.00000000000E+00  0.00000000000E+00  0.99999998245E-14  0.12500000000E+03  0.12500000000E+03 0.  0.
          5    1    1    0  501    0 -0.60527578449E+01 -0.32176062121E+02 -0.53030417204E+02  0.62500000000E+02  0.47000000000E+01 0. -1.
         -5    1    1    0    0  501  0.60527578449E+01  0.32176062121E+02  0.53030417204E+02  0.62500000000E+02  0.47000000000E+01 0. -1.
</event>
<event>
 3    0  0.4607503E-005  0.9118800E+02  0.7546771E-02  0.1235069E+00
         25   -1    0    0    0    0  0.00000000000E+00  0.00000000000E+00  0.99999998245E-14  0.12500000000E+03  0.12500000000E+03 0.  0.
          5    1    1    0  501    0 -0.54923533559E+02  0.27830751076E+02 -0.96444157888E+01  0.62500000000E+02  0.47000000000E+01 0.  1.
         -5    1    1    0    0  501  0.54923533559E+02 -0.27830751076E+02  0.96444157888E+01  0.62500000000E+02  0.47000000000E+01 0.  1.
</event>
<event>
 3    0  0.4607503E-005  0.9118800E+02  0.7546771E-02  0.1235069E+00
         25   -1    0    0    0    0  0.00000000000E+00  0.00000000000E+00  0.99999998245E-14  0.12500000000E+03  0.12500000000E+03 0.  0.
          5    1    1    0  501    0 -0.47125344090E+02  0.27545263530E+02  0.30076908109E+02  0.62500000000E+02  0.47000000000E+01 0.  1.
         -5    1    1    0    0  501  0.47125344090E+02 -0.27545263530E+02 -0.30076908109E+02  0.62500000000E+02  0.47000000000E+01 0.  1.
</event>
<event>
 3    0  0.4607503E-005  0.9118800E+02  0.7546771E-02  0.1235069E+00
         25   -1    0    0    0    0  0.00000000000E+00  0.00000000000E+00  0.99999998245E-14  0.12500000000E+03  0.12500000000E+03 0.  0.
          5    1    1    0  501    0 -0.48050420098E+02 -0.27570932968E+02  0.28551020711E+02  0.62500000000E+02  0.47000000000E+01 0.  1.
         -5    1    1    0    0  501  0.48050420098E+02  0.27570932968E+02 -0.28551020711E+02  0.62500000000E+02  0.47000000000E+01 0.  1.
</event>
<event>
 3    0  0.4607503E-005  0.9118800E+02  0.7546771E-02  0.1235069E+00
         25   -1    0    0    0    0  0.00000000000E+00  0.00000000000E+00  0.99999998245E-14  0.12500000000E+03  0.12500000000E+03 0.  0.
          5    1    1    0  501    0 -0.23710896822E+02 -0.29236268507E+02  0.49670856402E+02  0.62500000000E+02  0.47000000000E+01 0. -1.
         -5    1    1    0    0  501  0.23710896822E+02  0.29236268507E+02 -0.49670856402E+02  0.62500000000E+02  0.47000000000E+01 0. -1.
</event>
<event>
 3    0  0.4607503E-005  0.9118800E+02  0.7546771E-02  0.1235069E+00
         25   -1    0    0    0    0  0.00000000000E+00  0.00000000000E+00  0.99999998245E-14  0.12500000000E+03  0.12500000000E+03 0.  0.
          5    1    1    0  501    0  0.48037358424E+02 -0.35071970839E+02 -0.18615290949E+02  0.62500000000E+02  0.47000000000E+01 0. -1.
         -5    1    1    0    0  501 -0.48037358424E+02  0.35071970839E+02  0.18615290949E+02  0.62500000000E+02  0.47000000000E+01 0. -1.
</event>
<event>
 3    0  0.4607503E-005  0.9118800E+02  0.7546771E-02  0.1235069E+00
         25   -1    0    0    0    0  0.00000000000E+00  0.00000000000E+00  0.99999998245E-14  0.12500000000E+03  0.12500000000E+03 0.  0.
          5    1    1    0  501    0  0.54510064029E+01 -0.26285298044E+02  0.56245263231E+02  0.62500000000E+02  0.47000000000E+01 0. -1.
         -5    1    1    0    0  501 -0.54510064029E+01  0.26285298044E+02 -0.56245263231E+02  0.62500000000E+02  0.47000000000E+01 0. -1.
</event>
<event>
 3    0  0.4607503E-005  0.9118800E+02  0.7546771E-02  0.1235069E+00
         25   -1    0    0    0    0  0.00000000000E+00  0.00000000000E+00  0.99999998245E-14  0.12500000000E+03  0.12500000000E+03 0.  0.
          5    1    1    0  501    0  0.65639365611E+01  0.10445845305E+02  0.61089762258E+02  0.62500000000E+02  0.47000000000E+01 0. -1.
         -5    1    1    0    0  501 -0.65639365611E+01 -0.10445845305E+02 -0.61089762258E+02  0.62500000000E+02  0.47000000000E+01 0. -1.
</event>
<event>
 3    0  0.4607503E-005  0.9118800E+02  0.7546771E-02  0.1235069E+00
         25   -1    0    0    0    0  0.00000000000E+00  0.00000000000E+00  0.99999998245E-14  0.12500000000E+03  0.12500000000E+03 0.  0.
          5    1    1    0  501    0 -0.38346460364E+02  0.44466240117E+02 -0.20891684168E+02  0.62500000000E+02  0.47000000000E+01 0.  1.
         -5    1    1    0    0  501  0.38346460364E+02 -0.44466240117E+02  0.20891684168E+02  0.62500000000E+02  0.47000000000E+01 0.  1.
</event>
<event>
 3    0  0.4607503E-005  0.9118800E+02  0.7546771E-02  0.1235069E+00
         25   -1    0    0    0    0  0.00000000000E+00  0.00000000000E+00  0.99999998245E-14  0.12500000000E+03  0.12500000000E+03 0.  0.
          5    1    1    0  501    0  0.85162047619E+01  0.60733033455E+02  0.11096526658E+02  0.62500000000E+02  0.47000000000E+01 0.  1.
         -5    1    1    0    0  501 -0.85162047619E+01 -0.60733033455E+02 -0.11096526658E+02  0.62500000000E+02  0.47000000000E+01 0.  1.
</event>
<event>
 3    0  0.4607503E-005  0.9118800E+02  0.7546771E-02  0.1235069E+00
         25   -1    0    0    0    0  0.00000000000E+00  0.00000000000E+00  0.99999998245E-14  0.12500000000E+03  0.12500000000E+03 0.  0.
          5    1    1    0  501    0 -0.39720995857E+02 -0.18158822570E+02  0.44459640698E+02  0.62500000000E+02  0.47000000000E+01 0.  1.
         -5    1    1    0    0  501  0.39720995857E+02  0.18158822570E+02 -0.44459640698E+02  0.62500000000E+02  0.47000000000E+01 0.  1.
</event>
<event>
 3    0  0.4607503E-005  0.9118800E+02  0.7546771E-02  0.1235069E+00
         25   -1    0    0    0    0  0.00000000000E+00  0.00000000000E+00  0.99999998245E-14  0.12500000000E+03  0.12500000000E+03 0.  0.
          5    1    1    0  501    0 -0.44245812203E+02  0.41367711269E+02 -0.14669034287E+02  0.62500000000E+02  0.47000000000E+01 0.  1.
         -5    1    1    0    0  501  0.44245812203E+02 -0.41367711269E+02  0.14669034287E+02  0.62500000000E+02  0.47000000000E+01 0.  1.
</event>
<event>
 3    0  0.4607503E-005  0.9118800E+02  0.7546771E-02  0.1235069E+00
         25   -1    0    0    0    0  0.00000000000E+00  0.00000000000E+00  0.99999998245E-14  0.12500000000E+03  0.12500000000E+03 0.  0.
          5    1    1    0  501    0  0.62124610938E+02  0.48370511142E+01 -0.11382672357E+01  0.62500000000E+02  0.47000000000E+01 0. -1.
         -5    1    1    0    0  501 -0.62124610938E+02 -0.48370511142E+01  0.11382672357E+01  0.62500000000E+02  0.47000000000E+01 0. -1.
</event>
<event>
 3    0  0.4607503E-005  0.9118800E+02  0.7546771E-02  0.1235069E+00
         25   -1    0    0    0    0  0.00000000000E+00  0.00000000000E+00  0.99999998245E-14  0.12500000000E+03  0.12500000000E+03 0.  0.
          5    1    1    0  501    0  0.29155677043E+02  0.28875238030E+02  0.46907644632E+02  0.62500000000E+02  0.47000000000E+01 0.  1.
         -5    1    1    0    0  501 -0.29155677043E+02 -0.28875238030E+02 -0.46907644632E+02  0.62500000000E+02  0.47000000000E+01 0.  1.
</event>
<event>
 3    0  0.4607503E-005  0.9118800E+02  0.7546771E-02  0.1235069E+00
         25   -1    0    0    0    0  0.00000000000E+00  0.00000000000E+00  0.99999998245E-14  0.12500000000E+03  0.12500000000E+03 0.  0.
          5    1    1    0  501    0 -0.15809421780E+02  0.26791856493E+02  0.54003875867E+02  0.62500000000E+02  0.47000000000E+01 0. -1.
         -5    1    1    0    0  501  0.15809421780E+02 -0.26791856493E+02 -0.54003875867E+02  0.62500000000E+02  0.47000000000E+01 0. -1.
</event>
<event>
 3    0  0.4607503E-005  0.9118800E+02  0.7546771E-02  0.1235069E+00
         25   -1    0    0    0    0  0.00000000000E+00  0.00000000000E+00  0.99999998245E-14  0.12500000000E+03  0.12500000000E+03 0.  0.
          5    1    1    0  501    0 -0.27033109276E+02 -0.36618898601E+02 -0.42572611714E+02  0.62500000000E+02  0.47000000000E+01 0.  1.
         -5    1    1    0    0  501  0.27033109276E+02  0.36618898601E+02  0.42572611714E+02  0.62500000000E+02  0.47000000000E+01 0.  1.
</event>
<event>
 3    0  0.4607503E-005  0.9118800E+02  0.7546771E-02  0.1235069E+00
         25   -1    0    0    0    0  0.00000000000E+00  0.00000000000E+00  0.99999998245E-14  0.12500000000E+03  0.12500000000E+03 0.  0.
          5    1    1    0  501    0  0.17076214782E+02  0.52612159536E+02 -0.28714518239E+02  0.62500000000E+02  0.47000000000E+01 0.  1.
         -5    1    1    0    0  501 -0.17076214782E+02 -0.52612159536E+02  0.28714518239E+02  0.62500000000E+02  0.47000000000E+01 0.  1.
</event>
<event>
 3    0  0.4607503E-005  0.9118800E+02  0.7546771E-02  0.1235069E+00
         25   -1    0    0    0    0  0.00000000000E+00  0.00000000000E+00  0.99999998245E-14  0.12500000000E+03  0.12500000000E+03 0.  0.
          5    1    1    0  501    0  0.74644413933E+01  0.54535195204E+02  0.29229344823E+02  0.62500000000E+02  0.47000000000E+01 0.  1.
         -5    1    1    0    0  501 -0.74644413933E+01 -0.54535195204E+02 -0.29229344823E+02  0.62500000000E+02  0.47000000000E+01 0.  1.
</event>
<event>
 3    0  0.4607503E-005  0.9118800E+02  0.7546771E-02  0.1235069E+00
         25   -1    0    0    0    0  0.00000000000E+00  0.00000000000E+00  0.99999998245E-14  0.12500000000E+03  0.12500000000E+03 0.  0.
          5    1    1    0  501    0 -0.39749422793E+01  0.62148093552E+02 -0.24442384823E+01  0.62500000000E+02  0.47000000000E+01 0.  1.
         -5    1    1    0    0  501  0.39749422793E+01 -0.62148093552E+02  0.24442384823E+01  0.62500000000E+02  0.47000000000E+01 0.  1.
</event>
<event>
 3    0  0.4607503E-005  0.9118800E+02  0.7546771E-02  0.1235069E+00
         25   -1    0    0    0    0  0.00000000000E+00  0.00000000000E+00  0.99999998245E-14  0.12500000000E+03  0.12500000000E+03 0.  0.
          5    1    1    0  501    0 -0.43947196850E+02 -0.44136840136E+02 -0.21778961973E+01  0.62500000000E+02  0.47000000000E+01 0.  1.
         -5    1    1    0    0  501  0.43947196850E+02  0.44136840136E+02  0.21778961973E+01  0.62500000000E+02  0.47000000000E+01 0.  1.
</event>
<event>
 3    0  0.4607503E-005  0.9118800E+02  0.7546771E-02  0.1235069E+00
         25   -1    0    0    0    0  0.00000000000E+00  0.00000000000E+00  0.99999998245E-14  0.12500000000E+03  0.12500000000E+03 0.  0.
          5    1    1    0  501    0  0.54175521000E+02  0.18527461529E+02 -0.24615159834E+02  0.62500000000E+02  0.47000000000E+01 0.  1.
         -5    1    1    0    0  501 -0.54175521000E+02 -0.18527461529E+02  0.24615159834E+02  0.62500000000E+02  0.47000000000E+01 0.  1.
</event>
<event>
 3    0  0.4607503E-005  0.9118800E+02  0.7546771E-02  0.1235069E+00
         25   -1    0    0    0    0  0.00000000000E+00  0.00000000000E+00  0.99999998245E-14  0.12500000000E+03  0.12500000000E+03 0.  0.
          5    1    1    0  501    0  0.59042268608E+02  0.66594874578E+00 -0.19943094792E+02  0.62500000000E+02  0.47000000000E+01 0.  1.
         -5    1    1    0    0  501 -0.59042268608E+02 -0.66594874578E+00  0.19943094792E+02  0.62500000000E+02  0.47000000000E+01 0.  1.
</event>
<event>
 3    0  0.4607503E-005  0.9118800E+02  0.7546771E-02  0.1235069E+00
         25   -1    0    0    0    0  0.00000000000E+00  0.00000000000E+00  0.99999998245E-14  0.12500000000E+03  0.12500000000E+03 0.  0.
          5    1    1    0  501    0 -0.39634990502E+02  0.47760413346E+02 -0.56718995816E+01  0.62500000000E+02  0.47000000000E+01 0.  1.
         -5    1    1    0    0  501  0.39634990502E+02 -0.47760413346E+02  0.56718995816E+01  0.62500000000E+02  0.47000000000E+01 0.  1.
</event>
<event>
 3    0  0.4607503E-005  0.9118800E+02  0.7546771E-02  0.1235069E+00
         25   -1    0    0    0    0  0.00000000000E+00  0.00000000000E+00  0.99999998245E-14  0.12500000000E+03  0.12500000000E+03 0.  0.
          5    1    1    0  501    0  0.16548208368E+01  0.58425893981E+02 -0.21629527978E+02  0.62500000000E+02  0.47000000000E+01 0.  1.
         -5    1    1    0    0  501 -0.16548208368E+01 -0.58425893981E+02  0.21629527978E+02  0.62500000000E+02  0.47000000000E+01 0.  1.
</event>
<event>
 3    0  0.4607503E-005  0.9118800E+02  0.7546771E-02  0.1235069E+00
         25   -1    0    0    0    0  0.00000000000E+00  0.00000000000E+00  0.99999998245E-14  0.12500000000E+03  0.12500000000E+03 0.  0.
          5    1    1    0  501    0 -0.44847503350E+02 -0.34617102327E+02  0.25971478005E+02  0.62500000000E+02  0.47000000000E+01 0.  1.
         -5    1    1    0    0  501  0.44847503350E+02  0.34617102327E+02 -0.25971478005E+02  0.62500000000E+02  0.47000000000E+01 0.  1.
</event>
<event>
 3    0  0.4607503E-005  0.9118800E+02  0.7546771E-02  0.1235069E+00
         25   -1    0    0    0    0  0.00000000000E+00  0.00000000000E+00  0.99999998245E-14  0.12500000000E+03  0.12500000000E+03 0.  0.
          5    1    1    0  501    0  0.28429821450E+02 -0.50077368384E+02  0.23836157997E+02  0.62500000000E+02  0.47000000000E+01 0. -1.
         -5    1    1    0    0  501 -0.28429821450E+02  0.50077368384E+02 -0.23836157997E+02  0.62500000000E+02  0.47000000000E+01 0. -1.
</event>
<event>
 3    0  0.4607503E-005  0.9118800E+02  0.7546771E-02  0.1235069E+00
         25   -1    0    0    0    0  0.00000000000E+00  0.00000000000E+00  0.99999998245E-14  0.12500000000E+03  0.12500000000E+03 0.  0.
          5    1    1    0  501    0  0.19233947933E+02  0.59244495827E+02 -0.20748400277E+01  0.62500000000E+02  0.47000000000E+01 0.  1.
         -5    1    1    0    0  501 -0.19233947933E+02 -0.59244495827E+02  0.20748400277E+01  0.62500000000E+02  0.47000000000E+01 0.  1.
</event>
<event>
 3    0  0.4607503E-005  0.9118800E+02  0.7546771E-02  0.1235069E+00
         25   -1    0    0    0    0  0.00000000000E+00  0.00000000000E+00  0.99999998245E-14  0.12500000000E+03  0.12500000000E+03 0.  0.
          5    1    1    0  501    0 -0.27988669642E+02  0.51289978360E+02 -0.21682538861E+02  0.62500000000E+02  0.47000000000E+01 0.  1.
         -5    1    1    0    0  501  0.27988669642E+02 -0.51289978360E+02  0.21682538861E+02  0.62500000000E+02  0.47000000000E+01 0.  1.
</event>
<event>
 3    0  0.4607503E-005  0.9118800E+02  0.7546771E-02  0.1235069E+00
         25   -1    0    0    0    0  0.00000000000E+00  0.00000000000E+00  0.99999998245E-14  0.12500000000E+03  0.12500000000E+03 0.  0.
          5    1    1    0  501    0  0.55887968153E+02 -0.21521164049E+02 -0.17249188785E+02  0.62500000000E+02  0.47000000000E+01 0. -1.
         -5    1    1    0    0  501 -0.55887968153E+02  0.21521164049E+02  0.17249188785E+02  0.62500000000E+02  0.47000000000E+01 0. -1.
</event>
<event>
 3    0  0.4607503E-005  0.9118800E+02  0.7546771E-02  0.1235069E+00
         25   -1    0    0    0    0  0.00000000000E+00  0.00000000000E+00  0.99999998245E-14  0.12500000000E+03  0.12500000000E+03 0.  0.
          5    1    1    0  501    0 -0.48580792890E+02  0.38302305608E+02  0.75498309442E+01  0.62500000000E+02  0.47000000000E+01 0.  1.
         -5    1    1    0    0  501  0.48580792890E+02 -0.38302305608E+02 -0.75498309442E+01  0.62500000000E+02  0.47000000000E+01 0.  1.
</event>
<event>
 3    0  0.4607503E-005  0.9118800E+02  0.7546771E-02  0.1235069E+00
         25   -1    0    0    0    0  0.00000000000E+00  0.00000000000E+00  0.99999998245E-14  0.12500000000E+03  0.12500000000E+03 0.  0.
          5    1    1    0  501    0  0.40524278908E+02 -0.26414243068E+02 -0.39296699380E+02  0.62500000000E+02  0.47000000000E+01 0. -1.
         -5    1    1    0    0  501 -0.40524278908E+02  0.26414243068E+02  0.39296699380E+02  0.62500000000E+02  0.47000000000E+01 0. -1.
</event>
<event>
 3    0  0.4607503E-005  0.9118800E+02  0.7546771E-02  0.1235069E+00
         25   -1    0    0    0    0  0.00000000000E+00  0.00000000000E+00  0.99999998245E-14  0.12500000000E+03  0.12500000000E+03 0.  0.
          5    1    1    0  501    0  0.44178808840E+02  0.24466076547E+02  0.36521280754E+02  0.62500000000E+02  0.47000000000E+01 0.  1.
         -5    1    1    0    0  501 -0.44178808840E+02 -0.24466076547E+02 -0.36521280754E+02  0.62500000000E+02  0.47000000000E+01 0.  1.
</event>
<event>
 3    0  0.4607503E-005  0.9118800E+02  0.7546771E-02  0.1235069E+00
         25   -1    0    0    0    0  0.00000000000E+00  0.00000000000E+00  0.99999998245E-14  0.12500000000E+03  0.12500000000E+03 0.  0.
          5    1    1    0  501    0 -0.40803002880E+02 -0.30147059383E+02  0.36199858653E+02  0.62500000000E+02  0.47000000000E+01 0. -1.
         -5    1    1    0    0  501  0.40803002880E+02  0.30147059383E+02 -0.36199858653E+02  0.62500000000E+02  0.47000000000E+01 0. -1.
</event>
<event>
 3    0  0.4607503E-005  0.9118800E+02  0.7546771E-02  0.1235069E+00
         25   -1    0    0    0    0  0.00000000000E+00  0.00000000000E+00  0.99999998245E-14  0.12500000000E+03  0.12500000000E+03 0.  0.
          5    1    1    0  501    0  0.35755892389E+02 -0.19943638603E+02 -0.46988588389E+02  0.62500000000E+02  0.47000000000E+01 0.  1.
         -5    1    1    0    0  501 -0.35755892389E+02  0.19943638603E+02  0.46988588389E+02  0.62500000000E+02  0.47000000000E+01 0.  1.
</event>
<event>
 3    0  0.4607503E-005  0.9118800E+02  0.7546771E-02  0.1235069E+00
         25   -1    0    0    0    0  0.00000000000E+00  0.00000000000E+00  0.99999998245E-14  0.12500000000E+03  0.12500000000E+03 0.  0.
          5    1    1    0  501    0 -0.56168603880E+01 -0.11040668908E+02 -0.61079575223E+02  0.62500000000E+02  0.47000000000E+01 0. -1.
         -5    1    1    0    0  501  0.56168603880E+01  0.11040668908E+02  0.61079575223E+02  0.62500000000E+02  0.47000000000E+01 0. -1.
</event>
<event>
 3    0  0.4607503E-005  0.9118800E+02  0.7546771E-02  0.1235069E+00
         25   -1    0    0    0    0  0.00000000000E+00  0.00000000000E+00  0.99999998245E-14  0.12500000000E+03  0.12500000000E+03 0.  0.
          5    1    1    0  501    0  0.10942913094E+02  0.18410804795E+02  0.58527386067E+02  0.62500000000E+02  0.47000000000E+01 0. -1.
         -5    1    1    0    0  501 -0.10942913094E+02 -0.18410804795E+02 -0.58527386067E+02  0.62500000000E+02  0.47000000000E+01 0. -1.
</event>
<event>
 3    0  0.4607503E-005  0.9118800E+02  0.7546771E-02  0.1235069E+00
         25   -1    0    0    0    0  0.00000000000E+00  0.00000000000E+00  0.99999998245E-14  0.12500000000E+03  0.12500000000E+03 0.  0.
          5    1    1    0  501    0 -0.33175069929E+02  0.48050848942E+02 -0.21787396613E+02  0.62500000000E+02  0.47000000000E+01 0.  1.
         -5    1    1    0    0  501  0.33175069929E+02 -0.48050848942E+02  0.21787396613E+02  0.62500000000E+02  0.47000000000E+01 0.  1.
</event>
<event>
 3    0  0.4607503E-005  0.9118800E+02  0.7546771E-02  0.1235069E+00
         25   -1    0    0    0    0  0.00000000000E+00  0.00000000000E+00  0.99999998245E-14  0.12500000000E+03  0.12500000000E+03 0.  0.
          5    1    1    0  501    0 -0.34943042087E+02 -0.51255182717E+00  0.51603111343E+02  0.62500000000E+02  0.47000000000E+01 0. -1.
         -5    1    1    0    0  501  0.34943042087E+02  0.51255182717E+00 -0.51603111343E+02  0.62500000000E+02  0.47000000000E+01 0. -1.
</event>
<event>
 3    0  0.4607503E-005  0.9118800E+02  0.7546771E-02  0.1235069E+00
         25   -1    0    0    0    0  0.00000000000E+00  0.00000000000E+00  0.99999998245E-14  0.12500000000E+03  0.12500000000E+03 0.  0.
          5    1    1    0  501    0 -0.18514801299E+02  0.50480219106E+02 -0.31513641679E+02  0.62500000000E+02  0.47000000000E+01 0.  1.
         -5    1    1    0    0  501  0.18514801299E+02 -0.50480219106E+02  0.31513641679E+02  0.62500000000E+02  0.47000000000E+01 0.  1.
</event>
<event>
 3    0  0.4607503E-005  0.9118800E+02  0.7546771E-02  0.1235069E+00
         25   -1    0    0    0    0  0.00000000000E+00  0.00000000000E+00  0.99999998245E-14  0.12500000000E+03  0.12500000000E+03 0.  0.
          5    1    1    0  501    0  0.14199146505E+02 -0.60324641444E+02  0.65940786478E+01  0.62500000000E+02  0.47000000000E+01 0.  1.
         -5    1    1    0    0  501 -0.14199146505E+02  0.60324641444E+02 -0.65940786478E+01  0.62500000000E+02  0.47000000000E+01 0.  1.
</event>
<event>
 3    0  0.4607503E-005  0.9118800E+02  0.7546771E-02  0.1235069E+00
         25   -1    0    0    0    0  0.00000000000E+00  0.00000000000E+00  0.99999998245E-14  0.12500000000E+03  0.12500000000E+03 0.  0.
          5    1    1    0  501    0  0.25984798125E+02  0.52436244432E+02  0.21433397683E+02  0.62500000000E+02  0.47000000000E+01 0. -1.
         -5    1    1    0    0  501 -0.25984798125E+02 -0.52436244432E+02 -0.21433397683E+02  0.62500000000E+02  0.47000000000E+01 0. -1.
</event>
<event>
 3    0  0.4607503E-005  0.9118800E+02  0.7546771E-02  0.1235069E+00
         25   -1    0    0    0    0  0.00000000000E+00  0.00000000000E+00  0.99999998245E-14  0.12500000000E+03  0.12500000000E+03 0.  0.
          5    1    1    0  501    0 -0.14948037443E+02  0.12459660852E+02 -0.59207035292E+02  0.62500000000E+02  0.47000000000E+01 0.  1.
         -5    1    1    0    0  501  0.14948037443E+02 -0.12459660852E+02  0.59207035292E+02  0.62500000000E+02  0.47000000000E+01 0.  1.
</event>
<event>
 3    0  0.4607503E-005  0.9118800E+02  0.7546771E-02  0.1235069E+00
         25   -1    0    0    0    0  0.00000000000E+00  0.00000000000E+00  0.99999998245E-14  0.12500000000E+03  0.12500000000E+03 0.  0.
          5    1    1    0  501    0  0.44320000413E+01 -0.47363870828E+02 -0.40263893451E+02  0.62500000000E+02  0.47000000000E+01 0.  1.
         -5    1    1    0    0  501 -0.44320000413E+01  0.47363870828E+02  0.40263893451E+02  0.62500000000E+02  0.47000000000E+01 0.  1.
</event>
<event>
 3    0  0.4607503E-005  0.9118800E+02  0.7546771E-02  0.1235069E+00
         25   -1    0    0    0    0  0.00000000000E+00  0.00000000000E+00  0.99999998245E-14  0.12500000000E+03  0.12500000000E+03 0.  0.
          5    1    1    0  501    0 -0.54711189530E+01  0.50912706852E+02  0.35526372436E+02  0.62500000000E+02  0.47000000000E+01 0.  1.
         -5    1    1    0    0  501  0.54711189530E+01 -0.50912706852E+02 -0.35526372436E+02  0.62500000000E+02  0.47000000000E+01 0.  1.
</event>
<event>
 3    0  0.4607503E-005  0.9118800E+02  0.7546771E-02  0.1235069E+00
         25   -1    0    0    0    0  0.00000000000E+00  0.00000000000E+00  0.99999998245E-14  0.12500000000E+03  0.12500000000E+03 0.  0.
          5    1    1    0  501    0 -0.13477641101E+02  0.27881412436E+02  0.54084563703E+02  0.62500000000E+02  0.47000000000E+01 0. -1.
         -5    1    1    0    0  501  0.13477641101E+02 -0.27881412436E+02 -0.54084563703E+02  0.62500000000E+02  0.47000000000E+01 0. -1.
</event>
<event>
 3    0  0.4607503E-005  0.9118800E+02  0.7546771E-02  0.1235069E+00
         25   -1    0    0    0    0  0.00000000000E+00  0.00000000000E+00  0.99999998245E-14  0.12500000000E+03  0.12500000000E+03 0.  0.
          5    1    1    0  501    0  0.21095879382E+02  0.57664881278E+02 -0.10671707466E+02  0.62500000000E+02  0.47000000000E+01 0.  1.
         -5    1    1    0    0  501 -0.21095879382E+02 -0.57664881278E+02  0.10671707466E+02  0.62500000000E+02  0.47000000000E+01 0.  1.
</event>
<event>
 3    0  0.4607503E-005  0.9118800E+02  0.7546771E-02  0.1235069E+00
         25   -1    0    0    0    0  0.00000000000E+00  0.00000000000E+00  0.99999998245E-14  0.12500000000E+03  0.12500000000E+03 0.  0.
          5    1    1    0  501    0  0.31318886844E+02  0.41531587580E+02 -0.34328043346E+02  0.62500000000E+02  0.47000000000E+01 0. -1.
         -5    1    1    0    0  501 -0.31318886844E+02 -0.41531587580E+02  0.34328043346E+02  0.62500000000E+02  0.47000000000E+01 0. -1.
</event>
<event>
 3    0  0.4607503E-005  0.9118800E+02  0.7546771E-02  0.1235069E+00
         25   -1    0    0    0    0  0.00000000000E+00  0.00000000000E+00  0.99999998245E-14  0.12500000000E+03  0.12500000000E+03 0.  0.
          5    1    1    0  501    0  0.44533417855E+02 -0.43256495681E+02  0.54598787062E+01  0.62500000000E+02  0.47000000000E+01 0. -1.
         -5    1    1    0    0  501 -0.44533417855E+02  0.43256495681E+02 -0.54598787062E+01  0.62500000000E+02  0.47000000000E+01 0. -1.
</event>
<event>
 3    0  0.4607503E-005  0.9118800E+02  0.7546771E-02  0.1235069E+00
         25   -1    0    0    0    0  0.00000000000E+00  0.00000000000E+00  0.99999998245E-14  0.12500000000E+03  0.12500000000E+03 0.  0.
          5    1    1    0  501    0  0.51128202928E+02  0.29632709080E+02 -0.19798217544E+02  0.62500000000E+02  0.47000000000E+01 0.  1.
         -5    1    1    0    0  501 -0.51128202928E+02 -0.29632709080E+02  0.19798217544E+02  0.62500000000E+02  0.47000000000E+01 0.  1.
</event>
<event>
 3    0  0.4607503E-005  0.9118800E+02  0.7546771E-02  0.1235069E+00
         25   -1    0    0    0    0  0.00000000000E+00  0.00000000000E+00  0.99999998245E-14  0.12500000000E+03  0.12500000000E+03 0.  0.
          5    1    1    0  501    0  0.41170295056E+02 -0.38088432959E+02 -0.27174217187E+02  0.62500000000E+02  0.47000000000E+01 0. -1.
         -5    1    1    0    0  501 -0.41170295056E+02  0.38088432959E+02  0.27174217187E+02  0.62500000000E+02  0.47000000000E+01 0. -1.
</event>
<event>
 3    0  0.4607503E-005  0.9118800E+02  0.7546771E-02  0.1235069E+00
         25   -1    0    0    0    0  0.00000000000E+00  0.00000000000E+00  0.99999998245E-14  0.12500000000E+03  0.12500000000E+03 0.  0.
          5    1    1    0  501    0 -0.67219083673E+01  0.61718600860E+02 -0.54580450532E+01  0.62500000000E+02  0.47000000000E+01 0. -1.
         -5    1    1    0    0  501  0.67219083673E+01 -0.61718600860E+02  0.54580450532E+01  0.62500000000E+02  0.47000000000E+01 0. -1.
</event>
<event>
 3    0  0.4607503E-005  0.9118800E+02  0.7546771E-02  0.1235069E+00
         25   -1    0    0    0    0  0.00000000000E+00  0.00000000000E+00  0.99999998245E-14  0.12500000000E+03  0.12500000000E+03 0.  0.
          5    1    1    0  501    0 -0.28373681729E+02 -0.16562084886E+02  0.52960282565E+02  0.62500000000E+02  0.47000000000E+01 0.  1.
         -5    1    1    0    0  501  0.28373681729E+02  0.16562084886E+02 -0.52960282565E+02  0.62500000000E+02  0.47000000000E+01 0.  1.
</event>
<event>
 3    0  0.4607503E-005  0.9118800E+02  0.7546771E-02  0.1235069E+00
         25   -1    0    0    0    0  0.00000000000E+00  0.00000000000E+00  0.99999998245E-14  0.12500000000E+03  0.12500000000E+03 0.  0.
          5    1    1    0  501    0  0.29172295983E+02 -0.52667015063E+02 -0.16103498733E+02  0.62500000000E+02  0.47000000000E+01 0. -1.
         -5    1    1    0    0  501 -0.29172295983E+02  0.52667015063E+02  0.16103498733E+02  0.62500000000E+02  0.47000000000E+01 0. -1.
</event>
<event>
 3    0  0.4607503E-005  0.9118800E+02  0.7546771E-02  0.1235069E+00
         25   -1    0    0    0    0  0.00000000000E+00  0.00000000000E+00  0.99999998245E-14  0.12500000000E+03  0.12500000000E+03 0.  0.
          5    1    1    0  501    0  0.30391232404E+02  0.13233465192E+00  0.54410619189E+02  0.62500000000E+02  0.47000000000E+01 0. -1.
         -5    1    1    0    0  501 -0.30391232404E+02 -0.13233465192E+00 -0.54410619189E+02  0.62500000000E+02  0.47000000000E+01 0. -1.
</event>
<event>
 3    0  0.4607503E-005  0.9118800E+02  0.7546771E-02  0.1235069E+00
         25   -1    0    0    0    0  0.00000000000E+00  0.00000000000E+00  0.99999998245E-14  0.12500000000E+03  0.12500000000E+03 0.  0.
          5    1    1    0  501    0  0.61357927350E+02  0.26781754072E+00 -0.10922134642E+02  0.62500000000E+02  0.47000000000E+01 0.  1.
         -5    1    1    0    0  501 -0.61357927350E+02 -0.26781754072E+00  0.10922134642E+02  0.62500000000E+02  0.47000000000E+01 0.  1.
</event>
<event>
 3    0  0.4607503E-005  0.9118800E+02  0.7546771E-02  0.1235069E+00
         25   -1    0    0    0    0  0.00000000000E+00  0.00000000000E+00  0.99999998245E-14  0.12500000000E+03  0.12500000000E+03 0.  0.
          5    1    1    0  501    0 -0.51891457223E+02 -0.11691152943E+02  0.32476970458E+02  0.62500000000E+02  0.47000000000E+01 0. -1.
         -5    1    1    0    0  501  0.51891457223E+02  0.11691152943E+02 -0.32476970458E+02  0.62500000000E+02  0.47000000000E+01 0. -1.
</event>
<event>
 3    0  0.4607503E-005  0.9118800E+02  0.7546771E-02  0.1235069E+00
         25   -1    0    0    0    0  0.00000000000E+00  0.00000000000E+00  0.99999998245E-14  0.12500000000E+03  0.12500000000E+03 0.  0.
          5    1    1    0  501    0 -0.59251500028E+02  0.38099526422E+01 -0.18944761948E+02  0.62500000000E+02  0.47000000000E+01 0.  1.
         -5    1    1    0    0  501  0.59251500028E+02 -0.38099526422E+01  0.18944761948E+02  0.62500000000E+02  0.47000000000E+01 0.  1.
</event>
<event>
 3    0  0.4607503E-005  0.9118800E+02  0.7546771E-02  0.1235069E+00
         25   -1    0    0    0    0  0.00000000000E+00  0.00000000000E+00  0.99999998245E-14  0.12500000000E+03  0.12500000000E+03 0.  0.
          5    1    1    0  501    0  0.44177595494E+01 -0.53096296264E+02  0.32333059298E+02  0.62500000000E+02  0.47000000000E+01 0.  1.
         -5    1    1    0    0  501 -0.44177595494E+01  0.53096296264E+02 -0.32333059298E+02  0.62500000000E+02  0.47000000000E+01 0.  1.
</event>
<event>
 3    0  0.4607503E-005  0.9118800E+02  0.7546771E-02  0.1235069E+00
         25   -1    0    0    0    0  0.00000000000E+00  0.00000000000E+00  0.99999998245E-14  0.12500000000E+03  0.12500000000E+03 0.  0.
          5    1    1    0  501    0  0.45588100465E+02 -0.41643916184E+02  0.84657746715E+01  0.62500000000E+02  0.47000000000E+01 0.  1.
         -5    1    1    0    0  501 -0.45588100465E+02  0.41643916184E+02 -0.84657746715E+01  0.62500000000E+02  0.47000000000E+01 0.  1.
</event>
<event>
 3    0  0.4607503E-005  0.9118800E+02  0.7546771E-02  0.1235069E+00
         25   -1    0    0    0    0  0.00000000000E+00  0.00000000000E+00  0.99999998245E-14  0.12500000000E+03  0.12500000000E+03 0.  0.
          5    1    1    0  501    0  0.42855371100E+02  0.24652384978E+02 -0.37945185239E+02  0.62500000000E+02  0.47000000000E+01 0. -1.
         -5    1    1    0    0  501 -0.42855371100E+02 -0.24652384978E+02  0.37945185239E+02  0.62500000000E+02  0.47000000000E+01 0. -1.
</event>
<event>
 3    0  0.4607503E-005  0.9118800E+02  0.7546771E-02  0.1235069E+00
         25   -1    0    0    0    0  0.00000000000E+00  0.00000000000E+00  0.99999998245E-14  0.12500000000E+03  0.12500000000E+03 0.  0.
          5    1    1    0  501    0  0.51972077795E+02  0.33876289486E+02 -0.59548417553E+01  0.62500000000E+02  0.47000000000E+01 0.  1.
         -5    1    1    0    0  501 -0.51972077795E+02 -0.33876289486E+02  0.59548417553E+01  0.62500000000E+02  0.47000000000E+01 0.  1.
</event>
<event>
 3    0  0.4607503E-005  0.9118800E+02  0.7546771E-02  0.1235069E+00
         25   -1    0    0    0    0  0.00000000000E+00  0.00000000000E+00  0.99999998245E-14  0.12500000000E+03  0.12500000000E+03 0.  0.
          5    1    1    0  501    0 -0.45173974203E+02 -0.40456690324E+02  0.14378047946E+02  0.62500000000E+02  0.47000000000E+01 0.  1.
         -5    1    1    0    0  501  0.45173974203E+02  0.40456690324E+02 -0.14378047946E+02  0.62500000000E+02  0.47000000000E+01 0.  1.
</event>
<event>
 3    0  0.4607503E-005  0.9118800E+02  0.7546771E-02  0.1235069E+00
         25   -1    0    0    0    0  0.00000000000E+00  0.00000000000E+00  0.99999998245E-14  0.12500000000E+03  0.12500000000E+03 0.  0.
          5    1    1    0  501    0 -0.21231155655E+02  0.58416636355E+02 -0.45710640499E+01  0.62500000000E+02  0.47000000000E+01 0.  1.
         -5    1    1    0    0  501  0.21231155655E+02 -0.58416636355E+02  0.45710640499E+01  0.62500000000E+02  0.47000000000E+01 0.  1.
</event>
<event>
 3    0  0.4607503E-005  0.9118800E+02  0.7546771E-02  0.1235069E+00
         25   -1    0    0    0    0  0.00000000000E+00  0.00000000000E+00  0.99999998245E-14  0.12500000000E+03  0.12500000000E+03 0.  0.
          5    1    1    0  501    0  0.15623722153E+02  0.49276712033E+02 -0.34811850817E+02  0.62500000000E+02  0.47000000000E+01 0.  1.
         -5    1    1    0    0  501 -0.15623722153E+02 -0.49276712033E+02  0.34811850817E+02  0.62500000000E+02  0.47000000000E+01 0.  1.
</event>
<event>
 3    0  0.4607503E-005  0.9118800E+02  0.7546771E-02  0.1235069E+00
         25   -1    0    0    0    0  0.00000000000E+00  0.00000000000E+00  0.99999998245E-14  0.12500000000E+03  0.12500000000E+03 0.  0.
          5    1    1    0  501    0 -0.53545475778E+02  0.62455869639E+01 -0.31273545804E+02  0.62500000000E+02  0.47000000000E+01 0. -1.
         -5    1    1    0    0  501  0.53545475778E+02 -0.62455869639E+01  0.31273545804E+02  0.62500000000E+02  0.47000000000E+01 0. -1.
</event>
<event>
 3    0  0.4607503E-005  0.9118800E+02  0.7546771E-02  0.1235069E+00
         25   -1    0    0    0    0  0.00000000000E+00  0.00000000000E+00  0.99999998245E-14  0.12500000000E+03  0.12500000000E+03 0.  0.
          5    1    1    0  501    0  0.55509751856E+02 -0.15038189397E+02 -0.24014168912E+02  0.62500000000E+02  0.47000000000E+01 0. -1.
         -5    1    1    0    0  501 -0.55509751856E+02  0.15038189397E+02  0.24014168912E+02  0.62500000000E+02  0.47000000000E+01 0. -1.
</event>
<event>
 3    0  0.4607503E-005  0.9118800E+02  0.7546771E-02  0.1235069E+00
         25   -1    0    0    0    0  0.00000000000E+00  0.00000000000E+00  0.99999998245E-14  0.12500000000E+03  0.12500000000E+03 0.  0.
          5    1    1    0  501    0  0.28291151539E+02 -0.14251474333E+02 -0.53671838276E+02  0.62500000000E+02  0.47000000000E+01 0. -1.
         -5    1    1    0    0  501 -0.28291151539E+02  0.14251474333E+02  0.53671838276E+02  0.62500000000E+02  0.47000000000E+01 0. -1.
</event>
<event>
 3    0  0.4607503E-005  0.9118800E+02  0.7546771E-02  0.1235069E+00
         25   -1    0    0    0    0  0.00000000000E+00  0.00000000000E+00  0.99999998245E-14  0.12500000000E+03  0.12500000000E+03 0.  0.
          5    1    1    0  501    0 -0.15250758005E+01  0.49394965894E+00  0.62302408922E+02  0.62500000000E+02  0.47000000000E+01 0. -1.
         -5    1    1    0    0  501  0.15250758005E+01 -0.49394965894E+00 -0.62302408922E+02  0.62500000000E+02  0.47000000000E+01 0. -1.
</event>
<event>
 3    0  0.4607503E-005  0.9118800E+02  0.7546771E-02  0.1235069E+00
         25   -1    0    0    0    0  0.00000000000E+00  0.00000000000E+00  0.99999998245E-14  0.12500000000E+03  0.12500000000E+03 0.  0.
          5    1    1    0  501    0  0.79304511634E+01 -0.26824954672E+02 -0.55692815974E+02  0.62500000000E+02  0.47000000000E+01 0.  1.
         -5    1    1    0    0  501 -0.79304511634E+01  0.26824954672E+02  0.55692815974E+02  0.62500000000E+02  0.47000000000E+01 0.  1.
</event>
<event>
 3    0  0.4607503E-005  0.9118800E+02  0.7546771E-02  0.1235069E+00
         25   -1    0    0    0    0  0.00000000000E+00  0.00000000000E+00  0.99999998245E-14  0.12500000000E+03  0.12500000000E+03 0.  0.
          5    1    1    0  501    0 -0.26232841755E+02  0.42849856184E+02 -0.36876657095E+02  0.62500000000E+02  0.47000000000E+01 0.  1.
         -5    1    1    0    0  501  0.26232841755E+02 -0.42849856184E+02  0.36876657095E+02  0.62500000000E+02  0.47000000000E+01 0.  1.
</event>
<event>
 3    0  0.4607503E-005  0.9118800E+02  0.7546771E-02  0.1235069E+00
         25   -1    0    0    0    0  0.00000000000E+00  0.00000000000E+00  0.99999998245E-14  0.12500000000E+03  0.12500000000E+03 0.  0.
          5    1    1    0  501    0 -0.58698945336E+02  0.16460323386E+02  0.12948033461E+02  0.62500000000E+02  0.47000000000E+01 0. -1.
         -5    1    1    0    0  501  0.58698945336E+02 -0.16460323386E+02 -0.12948033461E+02  0.62500000000E+02  0.47000000000E+01 0. -1.
</event>
<event>
 3    0  0.4607503E-005  0.9118800E+02  0.7546771E-02  0.1235069E+00
         25   -1    0    0    0    0  0.00000000000E+00  0.00000000000E+00  0.99999998245E-14  0.12500000000E+03  0.12500000000E+03 0.  0.
          5    1    1    0  501    0 -0.22262133691E+01  0.62275774953E+02  0.96531237631E+00  0.62500000000E+02  0.47000000000E+01 0. -1.
         -5    1    1    0    0  501  0.22262133691E+01 -0.62275774953E+02 -0.96531237631E+00  0.62500000000E+02  0.47000000000E+01 0. -1.
</event>
<event>
 3    0  0.4607503E-005  0.9118800E+02  0.7546771E-02  0.1235069E+00
         25   -1    0    0    0    0  0.00000000000E+00  0.00000000000E+00  0.99999998245E-14  0.12500000000E+03  0.12500000000E+03 0.  0.
          5    1    1    0  501    0  0.48861432117E+02 -0.12843987047E+02  0.36493183586E+02  0.62500000000E+02  0.47000000000E+01 0.  1.
         -5    1    1    0    0  501 -0.48861432117E+02  0.12843987047E+02 -0.36493183586E+02  0.62500000000E+02  0.47000000000E+01 0.  1.
</event>
<event>
 3    0  0.4607503E-005  0.9118800E+02  0.7546771E-02  0.1235069E+00
         25   -1    0    0    0    0  0.00000000000E+00  0.00000000000E+00  0.99999998245E-14  0.12500000000E+03  0.12500000000E+03 0.  0.
          5    1    1    0  501    0  0.11800840643E+02  0.58121455051E+02 -0.19151935226E+02  0.62500000000E+02  0.47000000000E+01 0.  1.
         -5    1    1    0    0  501 -0.11800840643E+02 -0.58121455051E+02  0.19151935226E+02  0.62500000000E+02  0.47000000000E+01 0.  1.
</event>
<event>
 3    0  0.4607503E-005  0.9118800E+02  0.7546771E-02  0.1235069E+00
         25   -1    0    0    0    0  0.00000000000E+00  0.00000000000E+00  0.99999998245E-14  0.12500000000E+03  0.12500000000E+03 0.  0.
          5    1    1    0  501    0 -0.29892616916E+02  0.29395926297E+02 -0.46113674447E+02  0.62500000000E+02  0.47000000000E+01 0.  1.
         -5    1    1    0    0  501  0.29892616916E+02 -0.29395926297E+02  0.46113674447E+02  0.62500000000E+02  0.47000000000E+01 0.  1.
</event>
<event>
 3    0  0.4607503E-005  0.9118800E+02  0.7546771E-02  0.1235069E+00
         25   -1    0    0    0    0  0.00000000000E+00  0.00000000000E+00  0.99999998245E-14  0.12500000000E+03  0.12500000000E+03 0.  0.
          5    1    1    0  501    0 -0.64797986598E+01  0.50109184378E+02  0.36486187117E+02  0.62500000000E+02  0.47000000000E+01 0. -1.
         -5    1    1    0    0  501  0.64797986598E+01 -0.50109184378E+02 -0.36486187117E+02  0.62500000000E+02  0.47000000000E+01 0. -1.
</event>
<event>
 3    0  0.4607503E-005  0.9118800E+02  0.7546771E-02  0.1235069E+00
         25   -1    0    0    0    0  0.00000000000E+00  0.00000000000E+00  0.99999998245E-14  0.12500000000E+03  0.12500000000E+03 0.  0.
          5    1    1    0  501    0  0.36811170256E+02 -0.36703624306E+02 -0.34379379098E+02  0.62500000000E+02  0.47000000000E+01 0. -1.
         -5    1    1    0    0  501 -0.36811170256E+02  0.36703624306E+02  0.34379379098E+02  0.62500000000E+02  0.47000000000E+01 0. -1.
</event>
<event>
 3    0  0.4607503E-005  0.9118800E+02  0.7546771E-02  0.1235069E+00
         25   -1    0    0    0    0  0.00000000000E+00  0.00000000000E+00  0.99999998245E-14  0.12500000000E+03  0.12500000000E+03 0.  0.
          5    1    1    0  501    0 -0.12143672852E+02 -0.51763324170E+02  0.32515372988E+02  0.62500000000E+02  0.47000000000E+01 0. -1.
         -5    1    1    0    0  501  0.12143672852E+02  0.51763324170E+02 -0.32515372988E+02  0.62500000000E+02  0.47000000000E+01 0. -1.
</event>
<event>
 3    0  0.4607503E-005  0.9118800E+02  0.7546771E-02  0.1235069E+00
         25   -1    0    0    0    0  0.00000000000E+00  0.00000000000E+00  0.99999998245E-14  0.12500000000E+03  0.12500000000E+03 0.  0.
          5    1    1    0  501    0 -0.54898091192E+02 -0.21206205441E+02 -0.20509910635E+02  0.62500000000E+02  0.47000000000E+01 0.  1.
         -5    1    1    0    0  501  0.54898091192E+02  0.21206205441E+02  0.20509910635E+02  0.62500000000E+02  0.47000000000E+01 0.  1.
</event>
<event>
 3    0  0.4607503E-005  0.9118800E+02  0.7546771E-02  0.1235069E+00
         25   -1    0    0    0    0  0.00000000000E+00  0.00000000000E+00  0.99999998245E-14  0.12500000000E+03  0.12500000000E+03 0.  0.
          5    1    1    0  501    0  0.26068972402E+02  0.42824593513E+02 -0.37021924159E+02  0.62500000000E+02  0.47000000000E+01 0. -1.
         -5    1    1    0    0  501 -0.26068972402E+02 -0.42824593513E+02  0.37021924159E+02  0.62500000000E+02  0.47000000000E+01 0. -1.
</event>
<event>
 3    0  0.4607503E-005  0.9118800E+02  0.7546771E-02  0.1235069E+00
         25   -1    0    0    0    0  0.00000000000E+00  0.00000000000E+00  0.99999998245E-14  0.12500000000E+03  0.12500000000E+03 0.  0.
          5    1    1    0  501    0  0.57962692726E+02  0.19047943374E+02 -0.12714641371E+02  0.62500000000E+02  0.47000000000E+01 0. -1.
         -5    1    1    0    0  501 -0.57962692726E+02 -0.19047943374E+02  0.12714641371E+02  0.62500000000E+02  0.47000000000E+01 0. -1.
</event>
<event>
 3    0  0.4607503E-005  0.9118800E+02  0.7546771E-02  0.1235069E+00
         25   -1    0    0    0    0  0.00000000000E+00  0.00000000000E+00  0.99999998245E-14  0.12500000000E+03  0.12500000000E+03 0.  0.
          5    1    1    0  501    0  0.14609147767E+02 -0.55568240370E+02 -0.24143393790E+02  0.62500000000E+02  0.47000000000E+01 0. -1.
         -5    1    1    0    0  501 -0.14609147767E+02  0.55568240370E+02  0.24143393790E+02  0.62500000000E+02  0.47000000000E+01 0. -1.
</event>
<event>
 3    0  0.4607503E-005  0.9118800E+02  0.7546771E-02  0.1235069E+00
         25   -1    0    0    0    0  0.00000000000E+00  0.00000000000E+00  0.99999998245E-14  0.12500000000E+03  0.12500000000E+03 0.  0.
          5    1    1    0  501    0  0.14270808356E+02 -0.53031516989E+02 -0.29464592899E+02  0.62500000000E+02  0.47000000000E+01 0. -1.
         -5    1    1    0    0  501 -0.14270808356E+02  0.53031516989E+02  0.29464592899E+02  0.62500000000E+02  0.47000000000E+01 0. -1.
</event>
<event>
 3    0  0.4607503E-005  0.9118800E+02  0.7546771E-02  0.1235069E+00
         25   -1    0    0    0    0  0.00000000000E+00  0.00000000000E+00  0.99999998245E-14  0.12500000000E+03  0.12500000000E+03 0.  0.
          5    1    1    0  501    0  0.45298505100E+02 -0.39500261299E+02  0.16490445506E+02  0.62500000000E+02  0.47000000000E+01 0. -1.
         -5    1    1    0    0  501 -0.45298505100E+02  0.39500261299E+02 -0.16490445506E+02  0.62500000000E+02  0.47000000000E+01 0. -1.
</event>
<event>
 3    0  0.4607503E-005  0.9118800E+02  0.7546771E-02  0.1235069E+00
         25   -1    0    0    0    0  0.00000000000E+00  0.00000000000E+00  0.99999998245E-14  0.12500000000E+03  0.12500000000E+03 0.  0.
          5    1    1    0  501    0 -0.62518236558E+01 -0.50547832224E+02 -0.35916449691E+02  0.62500000000E+02  0.47000000000E+01 0. -1.
         -5    1    1    0    0  501  0.62518236558E+01  0.50547832224E+02  0.35916449691E+02  0.62500000000E+02  0.47000000000E+01 0. -1.
</event>
<event>
 3    0  0.4607503E-005  0.9118800E+02  0.7546771E-02  0.1235069E+00
         25   -1    0    0    0    0  0.00000000000E+00  0.00000000000E+00  0.99999998245E-14  0.12500000000E+03  0.12500000000E+03 0.  0.
          5    1    1    0  501    0 -0.58825730810E+02  0.13106650637E+02 -0.15871644645E+02  0.62500000000E+02  0.47000000000E+01 0.  1.
         -5    1    1    0    0  501  0.58825730810E+02 -0.13106650637E+02  0.15871644645E+02  0.62500000000E+02  0.47000000000E+01 0.  1.
</event>
<event>
 3    0  0.4607503E-005  0.9118800E+02  0.7546771E-02  0.1235069E+00
         25   -1    0    0    0    0  0.00000000000E+00  0.00000000000E+00  0.99999998245E-14  0.12500000000E+03  0.12500000000E+03 0.  0.
          5    1    1    0  501    0  0.51781189862E+02 -0.34053389788E+02  0.65753342435E+01  0.62500000000E+02  0.47000000000E+01 0. -1.
         -5    1    1    0    0  501 -0.51781189862E+02  0.34053389788E+02 -0.65753342435E+01  0.62500000000E+02  0.47000000000E+01 0. -1.
</event>
<event>
 3    0  0.4607503E-005  0.9118800E+02  0.7546771E-02  0.1235069E+00
         25   -1    0    0    0    0  0.00000000000E+00  0.00000000000E+00  0.99999998245E-14  0.12500000000E+03  0.12500000000E+03 0.  0.
          5    1    1    0  501    0 -0.59778205005E+02  0.47851300525E+01  0.16965516108E+02  0.62500000000E+02  0.47000000000E+01 0. -1.
         -5    1    1    0    0  501  0.59778205005E+02 -0.47851300525E+01 -0.16965516108E+02  0.62500000000E+02  0.47000000000E+01 0. -1.
</event>
<event>
 3    0  0.4607503E-005  0.9118800E+02  0.7546771E-02  0.1235069E+00
         25   -1    0    0    0    0  0.00000000000E+00  0.00000000000E+00  0.99999998245E-14  0.12500000000E+03  0.12500000000E+03 0.  0.
          5    1    1    0  501    0 -0.20025637389E+02 -0.48245530524E+02  0.33992684972E+02  0.62500000000E+02  0.47000000000E+01 0. -1.
         -5    1    1    0    0  501  0.20025637389E+02  0.48245530524E+02 -0.33992684972E+02  0.62500000000E+02  0.47000000000E+01 0. -1.
</event>
<event>
 3    0  0.4607503E-005  0.9118800E+02  0.7546771E-02  0.1235069E+00
         25   -1    0    0    0    0  0.00000000000E+00  0.00000000000E+00  0.99999998245E-14  0.12500000000E+03  0.12500000000E+03 0.  0.
          5    1    1    0  501    0  0.18712900486E+02  0.49859812114E+02  0.32372619469E+02  0.62500000000E+02  0.47000000000E+01 0. -1.
         -5    1    1    0    0  501 -0.18712900486E+02 -0.49859812114E+02 -0.32372619469E+02  0.62500000000E+02  0.47000000000E+01 0. -1.
</event>
<event>
 3    0  0.4607503E-005  0.9118800E+02  0.7546771E-02  0.1235069E+00
         25   -1    0    0    0    0  0.00000000000E+00  0.00000000000E+00  0.99999998245E-14  0.12500000000E+03  0.12500000000E+03 0.  0.
          5    1    1    0  501    0 -0.38984687240E+02  0.47852405808E+02 -0.86314204635E+01  0.62500000000E+02  0.47000000000E+01 0. -1.
         -5    1    1    0    0  501  0.38984687240E+02 -0.47852405808E+02  0.86314204635E+01  0.62500000000E+02  0.47000000000E+01 0. -1.
</event>
<event>
 3    0  0.4607503E-005  0.9118800E+02  0.7546771E-02  0.1235069E+00
         25   -1    0    0    0    0  0.00000000000E+00  0.00000000000E+00  0.99999998245E-14  0.12500000000E+03  0.12500000000E+03 0.  0.
          5    1    1    0  501    0  0.51212989260E+02  0.34946257460E+02  0.63363096956E+01  0.62500000000E+02  0.47000000000E+01 0.  1.
         -5    1    1    0    0  501 -0.51212989260E+02 -0.34946257460E+02 -0.63363096956E+01  0.62500000000E+02  0.47000000000E+01 0.  1.
</event>
<event>
 3    0  0.4607503E-005  0.9118800E+02  0.7546771E-02  0.1235069E+00
         25   -1    0    0    0    0  0.00000000000E+00  0.00000000000E+00  0.99999998245E-14  0.12500000000E+03  0.12500000000E+03 0.  0.
          5    1    1    0  501    0 -0.18774537582E+02 -0.17402948759E+01 -0.59402425138E+02  0.62500000000E+02  0.47000000000E+01 0. -1.
         -5    1    1    0    0  501  0.18774537582E+02  0.17402948759E+01  0.59402425138E+02  0.62500000000E+02  0.47000000000E+01 0. -1.
</event>
<event>
 3    0  0.4607503E-005  0.9118800E+02  0.7546771E-02  0.1235069E+00
         25   -1    0    0    0    0  0.00000000000E+00  0.00000000000E+00  0.99999998245E-14  0.12500000000E+03  0.12500000000E+03 0.  0.
          5    1    1    0  501    0 -0.26761996575E+02 -0.56282944077E+02 -0.43098185432E+00  0.62500000000E+02  0.47000000000E+01 0.  1.
         -5    1    1    0    0  501  0.26761996575E+02  0.56282944077E+02  0.43098185432E+00  0.62500000000E+02  0.47000000000E+01 0.  1.
</event>
<event>
 3    0  0.4607503E-005  0.9118800E+02  0.7546771E-02  0.1235069E+00
         25   -1    0    0    0    0  0.00000000000E+00  0.00000000000E+00  0.99999998245E-14  0.12500000000E+03  0.12500000000E+03 0.  0.
          5    1    1    0  501    0  0.38513189256E+02 -0.11624656324E+02  0.47600017003E+02  0.62500000000E+02  0.47000000000E+01 0.  1.
         -5    1    1    0    0  501 -0.38513189256E+02  0.11624656324E+02 -0.47600017003E+02  0.62500000000E+02  0.47000000000E+01 0.  1.
</event>
<event>
 3    0  0.4607503E-005  0.9118800E+02  0.7546771E-02  0.1235069E+00
         25   -1    0    0    0    0  0.00000000000E+00  0.00000000000E+00  0.99999998245E-14  0.12500000000E+03  0.12500000000E+03 0.  0.
          5    1    1    0  501    0  0.31481632542E+01 -0.29349734091E+02  0.54889363058E+02  0.62500000000E+02  0.47000000000E+01 0.  1.
         -5    1    1    0    0  501 -0.31481632542E+01  0.29349734091E+02 -0.54889363058E+02  0.62500000000E+02  0.47000000000E+01 0.  1.
</event>
<event>
 3    0  0.4607503E-005  0.9118800E+02  0.7546771E-02  0.1235069E+00
         25   -1    0    0    0    0  0.00000000000E+00  0.00000000000E+00  0.99999998245E-14  0.12500000000E+03  0.12500000000E+03 0.  0.
          5    1    1    0  501    0 -0.41515672380E+02  0.25682346560E+02  0.38743077085E+02  0.62500000000E+02  0.47000000000E+01 0.  1.
         -5    1    1    0    0  501  0.41515672380E+02 -0.25682346560E+02 -0.38743077085E+02  0.62500000000E+02  0.47000000000E+01 0.  1.
</event>
<event>
 3    0  0.4607503E-005  0.9118800E+02  0.7546771E-02  0.1235069E+00
         25   -1    0    0    0    0  0.00000000000E+00  0.00000000000E+00  0.99999998245E-14  0.12500000000E+03  0.12500000000E+03 0.  0.
          5    1    1    0  501    0 -0.39519821427E+02  0.39731766179E+02  0.27271422234E+02  0.62500000000E+02  0.47000000000E+01 0. -1.
         -5    1    1    0    0  501  0.39519821427E+02 -0.39731766179E+02 -0.27271422234E+02  0.62500000000E+02  0.47000000000E+01 0. -1.
</event>
<event>
 3    0  0.4607503E-005  0.9118800E+02  0.7546771E-02  0.1235069E+00
         25   -1    0    0    0    0  0.00000000000E+00  0.00000000000E+00  0.99999998245E-14  0.12500000000E+03  0.12500000000E+03 0.  0.
          5    1    1    0  501    0  0.33633886494E+02  0.17552448452E+02  0.49445254905E+02  0.62500000000E+02  0.47000000000E+01 0. -1.
         -5    1    1    0    0  501 -0.33633886494E+02 -0.17552448452E+02 -0.49445254905E+02  0.62500000000E+02  0.47000000000E+01 0. -1.
</event>
<event>
 3    0  0.4607503E-005  0.9118800E+02  0.7546771E-02  0.1235069E+00
         25   -1    0    0    0    0  0.00000000000E+00  0.00000000000E+00  0.99999998245E-14  0.12500000000E+03  0.12500000000E+03 0.  0.
          5    1    1    0  501    0 -0.17990935467E+02  0.12691183278E+02 -0.58304546204E+02  0.62500000000E+02  0.47000000000E+01 0. -1.
         -5    1    1    0    0  501  0.17990935467E+02 -0.12691183278E+02  0.58304546204E+02  0.62500000000E+02  0.47000000000E+01 0. -1.
</event>
<event>
 3    0  0.4607503E-005  0.9118800E+02  0.7546771E-02  0.1235069E+00
         25   -1    0    0    0    0  0.00000000000E+00  0.00000000000E+00  0.99999998245E-14  0.12500000000E+03  0.12500000000E+03 0.  0.
          5    1    1    0  501    0  0.46622079283E+02  0.30175430959E+02  0.28284007668E+02  0.62500000000E+02  0.47000000000E+01 0. -1.
         -5    1    1    0    0  501 -0.46622079283E+02 -0.30175430959E+02 -0.28284007668E+02  0.62500000000E+02  0.47000000000E+01 0. -1.
</event>
<event>
 3    0  0.4607503E-005  0.9118800E+02  0.7546771E-02  0.1235069E+00
         25   -1    0    0    0    0  0.00000000000E+00  0.00000000000E+00  0.99999998245E-14  0.12500000000E+03  0.12500000000E+03 0.  0.
          5    1    1    0  501    0  0.54828782552E+02  0.72038795094E+01 -0.28741411306E+02  0.62500000000E+02  0.47000000000E+01 0. -1.
         -5    1    1    0    0  501 -0.54828782552E+02 -0.72038795094E+01  0.28741411306E+02  0.62500000000E+02  0.47000000000E+01 0. -1.
</event>
<event>
 3    0  0.4607503E-005  0.9118800E+02  0.7546771E-02  0.1235069E+00
         25   -1    0    0    0    0  0.00000000000E+00  0.00000000000E+00  0.99999998245E-14  0.12500000000E+03  0.12500000000E+03 0.  0.
          5    1    1    0  501    0 -0.20895805835E+02  0.55106993673E+02 -0.20266833667E+02  0.62500000000E+02  0.47000000000E+01 0.  1.
         -5    1    1    0    0  501  0.20895805835E+02 -0.55106993673E+02  0.20266833667E+02  0.62500000000E+02  0.47000000000E+01 0.  1.
</event>
<event>
 3    0  0.4607503E-005  0.9118800E+02  0.7546771E-02  0.1235069E+00
         25   -1    0    0    0    0  0.00000000000E+00  0.00000000000E+00  0.99999998245E-14  0.12500000000E+03  0.12500000000E+03 0.  0.
          5    1    1    0  501    0  0.39135316547E+02 -0.34975953009E+02 -0.33604608462E+02  0.62500000000E+02  0.47000000000E+01 0. -1.
         -5    1    1    0    0  501 -0.39135316547E+02  0.34975953009E+02  0.33604608462E+02  0.62500000000E+02  0.47000000000E+01 0. -1.
</event>
<event>
 3    0  0.4607503E-005  0.9118800E+02  0.7546771E-02  0.1235069E+00
         25   -1    0    0    0    0  0.00000000000E+00  0.00000000000E+00  0.99999998245E-14  0.12500000000E+03  0.12500000000E+03 0.  0.
          5    1    1    0  501    0 -0.30431218070E+02 -0.22257375723E+01  0.54342865760E+02  0.62500000000E+02  0.47000000000E+01 0.  1.
         -5    1    1    0    0  501  0.30431218070E+02  0.22257375723E+01 -0.54342865760E+02  0.62500000000E+02  0.47000000000E+01 0.  1.
</event>
<event>
 3    0  0.4607503E-005  0.9118800E+02  0.7546771E-02  0.1235069E+00
         25   -1    0    0    0    0  0.00000000000E+00  0.00000000000E+00  0.99999998245E-14  0.12500000000E+03  0.12500000000E+03 0.  0.
          5    1    1    0  501    0  0.61634720711E+01 -0.21469278820E+02 -0.58182829761E+02  0.62500000000E+02  0.47000000000E+01 0. -1.
         -5    1    1    0    0  501 -0.61634720711E+01  0.21469278820E+02  0.58182829761E+02  0.62500000000E+02  0.47000000000E+01 0. -1.
</event>
<event>
 3    0  0.4607503E-005  0.9118800E+02  0.7546771E-02  0.1235069E+00
         25   -1    0    0    0    0  0.00000000000E+00  0.00000000000E+00  0.99999998245E-14  0.12500000000E+03  0.12500000000E+03 0.  0.
          5    1    1    0  501    0 -0.19106759970E+02 -0.52183945645E+02 -0.28212187799E+02  0.62500000000E+02  0.47000000000E+01 0. -1.
         -5    1    1    0    0  501  0.19106759970E+02  0.52183945645E+02  0.28212187799E+02  0.62500000000E+02  0.47000000000E+01 0. -1.
</event>
<event>
 3    0  0.4607503E-005  0.9118800E+02  0.7546771E-02  0.1235069E+00
         25   -1    0    0    0    0  0.00000000000E+00  0.00000000000E+00  0.99999998245E-14  0.12500000000E+03  0.12500000000E+03 0.  0.
          5    1    1    0  501    0  0.44290574475E+02  0.39610563712E+02 -0.18801815209E+02  0.62500000000E+02  0.47000000000E+01 0.  1.
         -5    1    1    0    0  501 -0.44290574475E+02 -0.39610563712E+02  0.18801815209E+02  0.62500000000E+02  0.47000000000E+01 0.  1.
</event>
<event>
 3    0  0.4607503E-005  0.9118800E+02  0.7546771E-02  0.1235069E+00
         25   -1    0    0    0    0  0.00000000000E+00  0.00000000000E+00  0.99999998245E-14  0.12500000000E+03  0.12500000000E+03 0.  0.
          5    1    1    0  501    0  0.12976868931E+02 -0.48548941571E+02  0.36861377417E+02  0.62500000000E+02  0.47000000000E+01 0.  1.
         -5    1    1    0    0  501 -0.12976868931E+02  0.48548941571E+02 -0.36861377417E+02  0.62500000000E+02  0.47000000000E+01 0.  1.
</event>
<event>
 3    0  0.4607503E-005  0.9118800E+02  0.7546771E-02  0.1235069E+00
         25   -1    0    0    0    0  0.00000000000E+00  0.00000000000E+00  0.99999998245E-14  0.12500000000E+03  0.12500000000E+03 0.  0.
          5    1    1    0  501    0  0.43161157442E+02 -0.22948877946E+02 -0.38660360697E+02  0.62500000000E+02  0.47000000000E+01 0. -1.
         -5    1    1    0    0  501 -0.43161157442E+02  0.22948877946E+02  0.38660360697E+02  0.62500000000E+02  0.47000000000E+01 0. -1.
</event>
<event>
 3    0  0.4607503E-005  0.9118800E+02  0.7546771E-02  0.1235069E+00
         25   -1    0    0    0    0  0.00000000000E+00  0.00000000000E+00  0.99999998245E-14  0.12500000000E+03  0.12500000000E+03 0.  0.
          5    1    1    0  501    0  0.20203243099E+02 -0.57639198846E+02  0.12398053261E+02  0.62500000000E+02  0.47000000000E+01 0.  1.
         -5    1    1    0    0  501 -0.20203243099E+02  0.57639198846E+02 -0.12398053261E+02  0.62500000000E+02  0.47000000000E+01 0.  1.
</event>
<event>
 3    0  0.4607503E-005  0.9118800E+02  0.7546771E-02  0.1235069E+00
         25   -1    0    0    0    0  0.00000000000E+00  0.00000000000E+00  0.99999998245E-14  0.12500000000E+03  0.12500000000E+03 0.  0.
          5    1    1    0  501    0 -0.86843323471E+01  0.44607817056E+02 -0.42648388354E+02  0.62500000000E+02  0.47000000000E+01 0. -1.
         -5    1    1    0    0  501  0.86843323471E+01 -0.44607817056E+02  0.42648388354E+02  0.62500000000E+02  0.47000000000E+01 0. -1.
</event>
<event>
 3    0  0.4607503E-005  0.9118800E+02  0.7546771E-02  0.1235069E+00
         25   -1    0    0    0    0  0.00000000000E+00  0.00000000000E+00  0.99999998245E-14  0.12500000000E+03  0.12500000000E+03 0.  0.
          5    1    1    0  501    0  0.47307889996E+02  0.36050275323E+02  0.18614542522E+02  0.62500000000E+02  0.47000000000E+01 0. -1.
         -5    1    1    0    0  501 -0.47307889996E+02 -0.36050275323E+02 -0.18614542522E+02  0.62500000000E+02  0.47000000000E+01 0. -1.
</event>
<event>
 3    0  0.4607503E-005  0.9118800E+02  0.7546771E-02  0.1235069E+00
         25   -1    0    0    0    0  0.00000000000E+00  0.00000000000E+00  0.99999998245E-14  0.12500000000E+03  0.12500000000E+03 0.  0.
          5    1    1    0  501    0  0.84431823040E+01  0.37365580367E+02 -0.49159801428E+02  0.62500000000E+02  0.47000000000E+01 0.  1.
         -5    1    1    0    0  501 -0.84431823040E+01 -0.37365580367E+02  0.49159801428E+02  0.62500000000E+02  0.47000000000E+01 0.  1.
</event>
<event>
 3    0  0.4607503E-005  0.9118800E+02  0.7546771E-02  0.1235069E+00
         25   -1    0    0    0    0  0.00000000000E+00  0.00000000000E+00  0.99999998245E-14  0.12500000000E+03  0.12500000000E+03 0.  0.
          5    1    1    0  501    0  0.94756474239E+01  0.33473671141E+02 -0.51709626243E+02  0.62500000000E+02  0.47000000000E+01 0. -1.
         -5    1    1    0    0  501 -0.94756474239E+01 -0.33473671141E+02  0.51709626243E+02  0.62500000000E+02  0.47000000000E+01 0. -1.
</event>
<event>
 3    0  0.4607503E-005  0.9118800E+02  0.7546771E-02  0.1235069E+00
         25   -1    0    0    0    0  0.00000000000E+00  0.00000000000E+00  0.99999998245E-14  0.12500000000E+03  0.12500000000E+03 0.  0.
          5    1    1    0  501    0  0.12887231319E+02  0.11648432201E+02  0.59853097632E+02  0.62500000000E+02  0.47000000000E+01 0. -1.
         -5    1    1    0    0  501 -0.12887231319E+02 -0.11648432201E+02 -0.59853097632E+02  0.62500000000E+02  0.47000000000E+01 0. -1.
</event>
<event>
 3    0  0.4607503E-005  0.9118800E+02  0.7546771E-02  0.1235069E+00
         25   -1    0    0    0    0  0.00000000000E+00  0.00000000000E+00  0.99999998245E-14  0.12500000000E+03  0.12500000000E+03 0.  0.
          5    1    1    0  501    0 -0.57865608619E+02  0.17999977554E+02  0.14551018768E+02  0.62500000000E+02  0.47000000000E+01 0.  1.
         -5    1    1    0    0  501  0.57865608619E+02 -0.17999977554E+02 -0.14551018768E+02  0.62500000000E+02  0.47000000000E+01 0.  1.
</event>
<event>
 3    0  0.4607503E-005  0.9118800E+02  0.7546771E-02  0.1235069E+00
         25   -1    0    0    0    0  0.00000000000E+00  0.00000000000E+00  0.99999998245E-14  0.12500000000E+03  0.12500000000E+03 0.  0.
          5    1    1    0  501    0 -0.26485254495E+02  0.23942896432E+02 -0.51082570460E+02  0.62500000000E+02  0.47000000000E+01 0. -1.
         -5    1    1    0    0  501  0.26485254495E+02 -0.23942896432E+02  0.51082570460E+02  0.62500000000E+02  0.47000000000E+01 0. -1.
</event>
<event>
 3    0  0.4607503E-005  0.9118800E+02  0.7546771E-02  0.1235069E+00
         25   -1    0    0    0    0  0.00000000000E+00  0.00000000000E+00  0.99999998245E-14  0.12500000000E+03  0.12500000000E+03 0.  0.
          5    1    1    0  501    0 -0.14633745556E+02  0.46548106578E+02  0.38772248645E+02  0.62500000000E+02  0.47000000000E+01 0.  1.
         -5    1    1    0    0  501  0.14633745556E+02 -0.46548106578E+02 -0.38772248645E+02  0.62500000000E+02  0.47000000000E+01 0.  1.
</event>
<event>
 3    0  0.4607503E-005  0.9118800E+02  0.7546771E-02  0.1235069E+00
         25   -1    0    0    0    0  0.00000000000E+00  0.00000000000E+00  0.99999998245E-14  0.12500000000E+03  0.12500000000E+03 0.  0.
          5    1    1    0  501    0  0.59286249893E+02  0.17493067818E+02  0.79556993354E+01  0.62500000000E+02  0.47000000000E+01 0. -1.
         -5    1    1    0    0  501 -0.59286249893E+02 -0.17493067818E+02 -0.79556993354E+01  0.62500000000E+02  0.47000000000E+01 0. -1.
</event>
<event>
 3    0  0.4607503E-005  0.9118800E+02  0.7546771E-02  0.1235069E+00
         25   -1    0    0    0    0  0.00000000000E+00  0.00000000000E+00  0.99999998245E-14  0.12500000000E+03  0.12500000000E+03 0.  0.
          5    1    1    0  501    0 -0.54457560241E+02 -0.89524202243E+00 -0.30294102963E+02  0.62500000000E+02  0.47000000000E+01 0. -1.
         -5    1    1    0    0  501  0.54457560241E+02  0.89524202243E+00  0.30294102963E+02  0.62500000000E+02  0.47000000000E+01 0. -1.
</event>
<event>
 3    0  0.4607503E-005  0.9118800E+02  0.7546771E-02  0.1235069E+00
         25   -1    0    0    0    0  0.00000000000E+00  0.00000000000E+00  0.99999998245E-14  0.12500000000E+03  0.12500000000E+03 0.  0.
          5    1    1    0  501    0 -0.39600716807E+01  0.29836856058E+02 -0.54573252174E+02  0.62500000000E+02  0.47000000000E+01 0.  1.
         -5    1    1    0    0  501  0.39600716807E+01 -0.29836856058E+02  0.54573252174E+02  0.62500000000E+02  0.47000000000E+01 0.  1.
</event>
<event>
 3    0  0.4607503E-005  0.9118800E+02  0.7546771E-02  0.1235069E+00
         25   -1    0    0    0    0  0.00000000000E+00  0.00000000000E+00  0.99999998245E-14  0.12500000000E+03  0.12500000000E+03 0.  0.
          5    1    1    0  501    0 -0.24202875174E+02  0.45775998124E+02  0.34683408556E+02  0.62500000000E+02  0.47000000000E+01 0. -1.
         -5    1    1    0    0  501  0.24202875174E+02 -0.45775998124E+02 -0.34683408556E+02  0.62500000000E+02  0.47000000000E+01 0. -1.
</event>
<event>
 3    0  0.4607503E-005  0.9118800E+02  0.7546771E-02  0.1235069E+00
         25   -1    0    0    0    0  0.00000000000E+00  0.00000000000E+00  0.99999998245E-14  0.12500000000E+03  0.12500000000E+03 0.  0.
          5    1    1    0  501    0 -0.35902424352E+02 -0.61780630621E+01 -0.50566861307E+02  0.62500000000E+02  0.47000000000E+01 0. -1.
         -5    1    1    0    0  501  0.35902424352E+02  0.61780630621E+01  0.50566861307E+02  0.62500000000E+02  0.47000000000E+01 0. -1.
</event>
<event>
 3    0  0.4607503E-005  0.9118800E+02  0.7546771E-02  0.1235069E+00
         25   -1    0    0    0    0  0.00000000000E+00  0.00000000000E+00  0.99999998245E-14  0.12500000000E+03  0.12500000000E+03 0.  0.
          5    1    1    0  501    0  0.44970076768E+02  0.15642139472E+02 -0.40214122746E+02  0.62500000000E+02  0.47000000000E+01 0.  1.
         -5    1    1    0    0  501 -0.44970076768E+02 -0.15642139472E+02  0.40214122746E+02  0.62500000000E+02  0.47000000000E+01 0.  1.
</event>
<event>
 3    0  0.4607503E-005  0.9118800E+02  0.7546771E-02  0.1235069E+00
         25   -1    0    0    0    0  0.00000000000E+00  0.00000000000E+00  0.99999998245E-14  0.12500000000E+03  0.12500000000E+03 0.  0.
          5    1    1    0  501    0 -0.90325206790E+01 -0.30823939735E+02  0.53408410475E+02  0.62500000000E+02  0.47000000000E+01 0.  1.
         -5    1    1    0    0  501  0.90325206790E+01  0.30823939735E+02 -0.53408410475E+02  0.62500000000E+02  0.47000000000E+01 0.  1.
</event>
<event>
 3    0  0.4607503E-005  0.9118800E+02  0.7546771E-02  0.1235069E+00
         25   -1    0    0    0    0  0.00000000000E+00  0.00000000000E+00  0.99999998245E-14  0.12500000000E+03  0.12500000000E+03 0.  0.
          5    1    1    0  501    0  0.29660426164E+02  0.54648947725E+02  0.42322136391E+01  0.62500000000E+02  0.47000000000E+01 0.  1.
         -5    1    1    0    0  501 -0.29660426164E+02 -0.54648947725E+02 -0.42322136391E+01  0.62500000000E+02  0.47000000000E+01 0.  1.
</event>
<event>
 3    0  0.4607503E-005  0.9118800E+02  0.7546771E-02  0.1235069E+00
         25   -1    0    0    0    0  0.00000000000E+00  0.00000000000E+00  0.99999998245E-14  0.12500000000E+03  0.12500000000E+03 0.  0.
          5    1    1    0  501    0  0.11238692699E+02  0.64442651511E+01  0.60961653792E+02  0.62500000000E+02  0.47000000000E+01 0. -1.
         -5    1    1    0    0  501 -0.11238692699E+02 -0.64442651511E+01 -0.60961653792E+02  0.62500000000E+02  0.47000000000E+01 0. -1.
</event>
<event>
 3    0  0.4607503E-005  0.9118800E+02  0.7546771E-02  0.1235069E+00
         25   -1    0    0    0    0  0.00000000000E+00  0.00000000000E+00  0.99999998245E-14  0.12500000000E+03  0.12500000000E+03 0.  0.
          5    1    1    0  501    0  0.35601428066E+02  0.42526782373E+01  0.50976593133E+02  0.62500000000E+02  0.47000000000E+01 0. -1.
         -5    1    1    0    0  501 -0.35601428066E+02 -0.42526782373E+01 -0.50976593133E+02  0.62500000000E+02  0.47000000000E+01 0. -1.
</event>
<event>
 3    0  0.4607503E-005  0.9118800E+02  0.7546771E-02  0.1235069E+00
         25   -1    0    0    0    0  0.00000000000E+00  0.00000000000E+00  0.99999998245E-14  0.12500000000E+03  0.12500000000E+03 0.  0.
          5    1    1    0  501    0 -0.51244320127E+02  0.15200124163E+01  0.35438245116E+02  0.62500000000E+02  0.47000000000E+01 0.  1.
         -5    1    1    0    0  501  0.51244320127E+02 -0.15200124163E+01 -0.35438245116E+02  0.62500000000E+02  0.47000000000E+01 0.  1.
</event>
<event>
 3    0  0.4607503E-005  0.9118800E+02  0.7546771E-02  0.1235069E+00
         25   -1    0    0    0    0  0.00000000000E+00  0.00000000000E+00  0.99999998245E-14  0.12500000000E+03  0.12500000000E+03 0.  0.
          5    1    1    0  501    0 -0.56618453466E+02  0.15282909354E+02 -0.21093681727E+02  0.62500000000E+02  0.47000000000E+01 0.  1.
         -5    1    1    0    0  501  0.56618453466E+02 -0.15282909354E+02  0.21093681727E+02  0.62500000000E+02  0.47000000000E+01 0.  1.
</event>
<event>
 3    0  0.4607503E-005  0.9118800E+02  0.7546771E-02  0.1235069E+00
         25   -1    0    0    0    0  0.00000000000E+00  0.00000000000E+00  0.99999998245E-14  0.12500000000E+03  0.12500000000E+03 0.  0.
          5    1    1    0  501    0  0.53424456114E+02  0.31957466097E+02 -0.29509065668E+01  0.62500000000E+02  0.47000000000E+01 0. -1.
         -5    1    1    0    0  501 -0.53424456114E+02 -0.31957466097E+02  0.29509065668E+01  0.62500000000E+02  0.47000000000E+01 0. -1.
</event>
<event>
 3    0  0.4607503E-005  0.9118800E+02  0.7546771E-02  0.1235069E+00
         25   -1    0    0    0    0  0.00000000000E+00  0.00000000000E+00  0.99999998245E-14  0.12500000000E+03  0.12500000000E+03 0.  0.
          5    1    1    0  501    0 -0.13260242676E+02  0.40770866585E+02  0.45233421295E+02  0.62500000000E+02  0.47000000000E+01 0. -1.
         -5    1    1    0    0  501  0.13260242676E+02 -0.40770866585E+02 -0.45233421295E+02  0.62500000000E+02  0.47000000000E+01 0. -1.
</event>
<event>
 3    0  0.4607503E-005  0.9118800E+02  0.7546771E-02  0.1235069E+00
         25   -1    0    0    0    0  0.00000000000E+00  0.00000000000E+00  0.99999998245E-14  0.12500000000E+03  0.12500000000E+03 0.  0.
          5    1    1    0  501    0 -0.13089449323E+02 -0.25832414842E+02 -0.55186163663E+02  0.62500000000E+02  0.47000000000E+01 0. -1.
         -5    1    1    0    0  501  0.13089449323E+02  0.25832414842E+02  0.55186163663E+02  0.62500000000E+02  0.47000000000E+01 0. -1.
</event>
<event>
 3    0  0.4607503E-005  0.9118800E+02  0.7546771E-02  0.1235069E+00
         25   -1    0    0    0    0  0.00000000000E+00  0.00000000000E+00  0.99999998245E-14  0.12500000000E+03  0.12500000000E+03 0.  0.
          5    1    1    0  501    0 -0.45083295803E+02 -0.42364364971E+02 -0.75443369574E+01  0.62500000000E+02  0.47000000000E+01 0.  1.
         -5    1    1    0    0  501  0.45083295803E+02  0.42364364971E+02  0.75443369574E+01  0.62500000000E+02  0.47000000000E+01 0.  1.
</event>
<event>
 3    0  0.4607503E-005  0.9118800E+02  0.7546771E-02  0.1235069E+00
         25   -1    0    0    0    0  0.00000000000E+00  0.00000000000E+00  0.99999998245E-14  0.12500000000E+03  0.12500000000E+03 0.  0.
          5    1    1    0  501    0 -0.26954632674E+02  0.49735839110E+02 -0.26152515852E+02  0.62500000000E+02  0.47000000000E+01 0.  1.
         -5    1    1    0    0  501  0.26954632674E+02 -0.49735839110E+02  0.26152515852E+02  0.62500000000E+02  0.47000000000E+01 0.  1.
</event>
<event>
 3    0  0.4607503E-005  0.9118800E+02  0.7546771E-02  0.1235069E+00
         25   -1    0    0    0    0  0.00000000000E+00  0.00000000000E+00  0.99999998245E-14  0.12500000000E+03  0.12500000000E+03 0.  0.
          5    1    1    0  501    0 -0.35713395747E+02 -0.10561147044E+02  0.49971747392E+02  0.62500000000E+02  0.47000000000E+01 0. -1.
         -5    1    1    0    0  501  0.35713395747E+02  0.10561147044E+02 -0.49971747392E+02  0.62500000000E+02  0.47000000000E+01 0. -1.
</event>
<event>
 3    0  0.4607503E-005  0.9118800E+02  0.7546771E-02  0.1235069E+00
         25   -1    0    0    0    0  0.00000000000E+00  0.00000000000E+00  0.99999998245E-14  0.12500000000E+03  0.12500000000E+03 0.  0.
          5    1    1    0  501    0 -0.44935410920E+02 -0.13224695867E+02 -0.41110537149E+02  0.62500000000E+02  0.47000000000E+01 0. -1.
         -5    1    1    0    0  501  0.44935410920E+02  0.13224695867E+02  0.41110537149E+02  0.62500000000E+02  0.47000000000E+01 0. -1.
</event>
<event>
 3    0  0.4607503E-005  0.9118800E+02  0.7546771E-02  0.1235069E+00
         25   -1    0    0    0    0  0.00000000000E+00  0.00000000000E+00  0.99999998245E-14  0.12500000000E+03  0.12500000000E+03 0.  0.
          5    1    1    0  501    0 -0.66589045572E+01 -0.43618013753E+02 -0.44014632411E+02  0.62500000000E+02  0.47000000000E+01 0.  1.
         -5    1    1    0    0  501  0.66589045572E+01  0.43618013753E+02  0.44014632411E+02  0.62500000000E+02  0.47000000000E+01 0.  1.
</event>
<event>
 3    0  0.4607503E-005  0.9118800E+02  0.7546771E-02  0.1235069E+00
         25   -1    0    0    0    0  0.00000000000E+00  0.00000000000E+00  0.99999998245E-14  0.12500000000E+03  0.12500000000E+03 0.  0.
          5    1    1    0  501    0  0.37491427909E+02 -0.23141872457E+02  0.44079548234E+02  0.62500000000E+02  0.47000000000E+01 0.  1.
         -5    1    1    0    0  501 -0.37491427909E+02  0.23141872457E+02 -0.44079548234E+02  0.62500000000E+02  0.47000000000E+01 0.  1.
</event>
<event>
 3    0  0.4607503E-005  0.9118800E+02  0.7546771E-02  0.1235069E+00
         25   -1    0    0    0    0  0.00000000000E+00  0.00000000000E+00  0.99999998245E-14  0.12500000000E+03  0.12500000000E+03 0.  0.
          5    1    1    0  501    0  0.36107083999E+02  0.45451715204E+02  0.22684357389E+02  0.62500000000E+02  0.47000000000E+01 0. -1.
         -5    1    1    0    0  501 -0.36107083999E+02 -0.45451715204E+02 -0.22684357389E+02  0.62500000000E+02  0.47000000000E+01 0. -1.
</event>
<event>
 3    0  0.4607503E-005  0.9118800E+02  0.7546771E-02  0.1235069E+00
         25   -1    0    0    0    0  0.00000000000E+00  0.00000000000E+00  0.99999998245E-14  0.12500000000E+03  0.12500000000E+03 0.  0.
          5    1    1    0  501    0 -0.21183009168E+01  0.38613382787E+02  0.48874118621E+02  0.62500000000E+02  0.47000000000E+01 0. -1.
         -5    1    1    0    0  501  0.21183009168E+01 -0.38613382787E+02 -0.48874118621E+02  0.62500000000E+02  0.47000000000E+01 0. -1.
</event>
<event>
 3    0  0.4607503E-005  0.9118800E+02  0.7546771E-02  0.1235069E+00
         25   -1    0    0    0    0  0.00000000000E+00  0.00000000000E+00  0.99999998245E-14  0.12500000000E+03  0.12500000000E+03 0.  0.
          5    1    1    0  501    0  0.30241336024E+02  0.54475597407E+02 -0.14250903867E+01  0.62500000000E+02  0.47000000000E+01 0. -1.
         -5    1    1    0    0  501 -0.30241336024E+02 -0.54475597407E+02  0.14250903867E+01  0.62500000000E+02  0.47000000000E+01 0. -1.
</event>
<event>
 3    0  0.4607503E-005  0.9118800E+02  0.7546771E-02  0.1235069E+00
         25   -1    0    0    0    0  0.00000000000E+00  0.00000000000E+00  0.99999998245E-14  0.12500000000E+03  0.12500000000E+03 0.  0.
          5    1    1    0  501    0 -0.49969867171E+02 -0.19420122860E+02  0.31780988076E+02  0.62500000000E+02  0.47000000000E+01 0.  1.
         -5    1    1    0    0  501  0.49969867171E+02  0.19420122860E+02 -0.31780988076E+02  0.62500000000E+02  0.47000000000E+01 0.  1.
</event>
<event>
 3    0  0.4607503E-005  0.9118800E+02  0.7546771E-02  0.1235069E+00
         25   -1    0    0    0    0  0.00000000000E+00  0.00000000000E+00  0.99999998245E-14  0.12500000000E+03  0.12500000000E+03 0.  0.
          5    1    1    0  501    0  0.37570143167E+02  0.29012888647E+02 -0.40384361264E+02  0.62500000000E+02  0.47000000000E+01 0. -1.
         -5    1    1    0    0  501 -0.37570143167E+02 -0.29012888647E+02  0.40384361264E+02  0.62500000000E+02  0.47000000000E+01 0. -1.
</event>
<event>
 3    0  0.4607503E-005  0.9118800E+02  0.7546771E-02  0.1235069E+00
         25   -1    0    0    0    0  0.00000000000E+00  0.00000000000E+00  0.99999998245E-14  0.12500000000E+03  0.12500000000E+03 0.  0.
          5    1    1    0  501    0 -0.39670609124E+02 -0.65695819182E+01  0.47615579017E+02  0.62500000000E+02  0.47000000000E+01 0.  1.
         -5    1    1    0    0  501  0.39670609124E+02  0.65695819182E+01 -0.47615579017E+02  0.62500000000E+02  0.47000000000E+01 0.  1.
</event>
<event>
 3    0  0.4607503E-005  0.9118800E+02  0.7546771E-02  0.1235069E+00
         25   -1    0    0    0    0  0.00000000000E+00  0.00000000000E+00  0.99999998245E-14  0.12500000000E+03  0.12500000000E+03 0.  0.
          5    1    1    0  501    0 -0.43164475126E+01  0.51723183819E+01 -0.61957851830E+02  0.62500000000E+02  0.47000000000E+01 0.  1.
         -5    1    1    0    0  501  0.43164475126E+01 -0.51723183819E+01  0.61957851830E+02  0.62500000000E+02  0.47000000000E+01 0.  1.
</event>
<event>
 3    0  0.4607503E-005  0.9118800E+02  0.7546771E-02  0.1235069E+00
         25   -1    0    0    0    0  0.00000000000E+00  0.00000000000E+00  0.99999998245E-14  0.12500000000E+03  0.12500000000E+03 0.  0.
          5    1    1    0  501    0  0.52793689250E+02 -0.30782755674E+02  0.12223269961E+02  0.62500000000E+02  0.47000000000E+01 0. -1.
         -5    1    1    0    0  501 -0.52793689250E+02  0.30782755674E+02 -0.12223269961E+02  0.62500000000E+02  0.47000000000E+01 0. -1.
</event>
<event>
 3    0  0.4607503E-005  0.9118800E+02  0.7546771E-02  0.1235069E+00
         25   -1    0    0    0    0  0.00000000000E+00  0.00000000000E+00  0.99999998245E-14  0.12500000000E+03  0.12500000000E+03 0.  0.
          5    1    1    0  501    0 -0.15050846732E+00  0.29813571057E+02  0.54729227366E+02  0.62500000000E+02  0.47000000000E+01 0.  1.
         -5    1    1    0    0  501  0.15050846732E+00 -0.29813571057E+02 -0.54729227366E+02  0.62500000000E+02  0.47000000000E+01 0.  1.
</event>
<event>
 3    0  0.4607503E-005  0.9118800E+02  0.7546771E-02  0.1235069E+00
         25   -1    0    0    0    0  0.00000000000E+00  0.00000000000E+00  0.99999998245E-14  0.12500000000E+03  0.12500000000E+03 0.  0.
          5    1    1    0  501    0  0.54744029784E+02 -0.27355490798E+02 -0.11786786086E+02  0.62500000000E+02  0.47000000000E+01 0. -1.
         -5    1    1    0    0  501 -0.54744029784E+02  0.27355490798E+02  0.11786786086E+02  0.62500000000E+02  0.47000000000E+01 0. -1.
</event>
<event>
 3    0  0.4607503E-005  0.9118800E+02  0.7546771E-02  0.1235069E+00
         25   -1    0    0    0    0  0.00000000000E+00  0.00000000000E+00  0.99999998245E-14  0.12500000000E+03  0.12500000000E+03 0.  0.
          5    1    1    0  501    0  0.45450014521E+02  0.39750633452E+02 -0.15438371680E+02  0.62500000000E+02  0.47000000000E+01 0.  1.
         -5    1    1    0    0  501 -0.45450014521E+02 -0.39750633452E+02  0.15438371680E+02  0.62500000000E+02  0.47000000000E+01 0.  1.
</event>
<event>
 3    0  0.4607503E-005  0.9118800E+02  0.7546771E-02  0.1235069E+00
         25   -1    0    0    0    0  0.00000000000E+00  0.00000000000E+00  0.99999998245E-14  0.12500000000E+03  0.12500000000E+03 0.  0.
          5    1    1    0  501    0 -0.47200008395E+02 -0.40310167165E+02  0.56044295595E+01  0.62500000000E+02  0.47000000000E+01 0.  1.
         -5    1    1    0    0  501  0.47200008395E+02  0.40310167165E+02 -0.56044295595E+01  0.62500000000E+02  0.47000000000E+01 0.  1.
</event>
<event>
 3    0  0.4607503E-005  0.9118800E+02  0.7546771E-02  0.1235069E+00
         25   -1    0    0    0    0  0.00000000000E+00  0.00000000000E+00  0.99999998245E-14  0.12500000000E+03  0.12500000000E+03 0.  0.
          5    1    1    0  501    0 -0.91125358982E+01  0.23726188662E+02 -0.56905093455E+02  0.62500000000E+02  0.47000000000E+01 0.  1.
         -5    1    1    0    0  501  0.91125358982E+01 -0.23726188662E+02  0.56905093455E+02  0.62500000000E+02  0.47000000000E+01 0.  1.
</event>
<event>
 3    0  0.4607503E-005  0.9118800E+02  0.7546771E-02  0.1235069E+00
         25   -1    0    0    0    0  0.00000000000E+00  0.00000000000E+00  0.99999998245E-14  0.12500000000E+03  0.12500000000E+03 0.  0.
          5    1    1    0  501    0  0.50448220102E+02  0.32693835570E+02 -0.16439288436E+02  0.62500000000E+02  0.47000000000E+01 0.  1.
         -5    1    1    0    0  501 -0.50448220102E+02 -0.32693835570E+02  0.16439288436E+02  0.62500000000E+02  0.47000000000E+01 0.  1.
</event>
<event>
 3    0  0.4607503E-005  0.9118800E+02  0.7546771E-02  0.1235069E+00
         25   -1    0    0    0    0  0.00000000000E+00  0.00000000000E+00  0.99999998245E-14  0.12500000000E+03  0.12500000000E+03 0.  0.
          5    1    1    0  501    0 -0.67929647118E+01  0.54702871187E+02 -0.29079400171E+02  0.62500000000E+02  0.47000000000E+01 0. -1.
         -5    1    1    0    0  501  0.67929647118E+01 -0.54702871187E+02  0.29079400171E+02  0.62500000000E+02  0.47000000000E+01 0. -1.
</event>
<event>
 3    0  0.4607503E-005  0.9118800E+02  0.7546771E-02  0.1235069E+00
         25   -1    0    0    0    0  0.00000000000E+00  0.00000000000E+00  0.99999998245E-14  0.12500000000E+03  0.12500000000E+03 0.  0.
          5    1    1    0  501    0 -0.51277231457E+02 -0.17167777471E+02  0.30985043987E+02  0.62500000000E+02  0.47000000000E+01 0.  1.
         -5    1    1    0    0  501  0.51277231457E+02  0.17167777471E+02 -0.30985043987E+02  0.62500000000E+02  0.47000000000E+01 0.  1.
</event>
<event>
 3    0  0.4607503E-005  0.9118800E+02  0.7546771E-02  0.1235069E+00
         25   -1    0    0    0    0  0.00000000000E+00  0.00000000000E+00  0.99999998245E-14  0.12500000000E+03  0.12500000000E+03 0.  0.
          5    1    1    0  501    0 -0.14582631592E+02  0.56188194477E+02 -0.22680248173E+02  0.62500000000E+02  0.47000000000E+01 0.  1.
         -5    1    1    0    0  501  0.14582631592E+02 -0.56188194477E+02  0.22680248173E+02  0.62500000000E+02  0.47000000000E+01 0.  1.
</event>
<event>
 3    0  0.4607503E-005  0.9118800E+02  0.7546771E-02  0.1235069E+00
         25   -1    0    0    0    0  0.00000000000E+00  0.00000000000E+00  0.99999998245E-14  0.12500000000E+03  0.12500000000E+03 0.  0.
          5    1    1    0  501    0 -0.31075993966E+02 -0.13575195327E+02  0.52289163991E+02  0.62500000000E+02  0.47000000000E+01 0.  1.
         -5    1    1    0    0  501  0.31075993966E+02  0.13575195327E+02 -0.52289163991E+02  0.62500000000E+02  0.47000000000E+01 0.  1.
</event>
<event>
 3    0  0.4607503E-005  0.9118800E+02  0.7546771E-02  0.1235069E+00
         25   -1    0    0    0    0  0.00000000000E+00  0.00000000000E+00  0.99999998245E-14  0.12500000000E+03  0.12500000000E+03 0.  0.
          5    1    1    0  501    0 -0.34810226667E+02 -0.51668795613E+02  0.16564055519E+01  0.62500000000E+02  0.47000000000E+01 0. -1.
         -5    1    1    0    0  501  0.34810226667E+02  0.51668795613E+02 -0.16564055519E+01  0.62500000000E+02  0.47000000000E+01 0. -1.
</event>
<event>
 3    0  0.4607503E-005  0.9118800E+02  0.7546771E-02  0.1235069E+00
         25   -1    0    0    0    0  0.00000000000E+00  0.00000000000E+00  0.99999998245E-14  0.12500000000E+03  0.12500000000E+03 0.  0.
          5    1    1    0  501    0  0.15918881749E+02 -0.56049419381E+02 -0.22118132627E+02  0.62500000000E+02  0.47000000000E+01 0. -1.
         -5    1    1    0    0  501 -0.15918881749E+02  0.56049419381E+02  0.22118132627E+02  0.62500000000E+02  0.47000000000E+01 0. -1.
</event>
<event>
 3    0  0.4607503E-005  0.9118800E+02  0.7546771E-02  0.1235069E+00
         25   -1    0    0    0    0  0.00000000000E+00  0.00000000000E+00  0.99999998245E-14  0.12500000000E+03  0.12500000000E+03 0.  0.
          5    1    1    0  501    0  0.60920697795E+02 -0.95802285776E+01 -0.90026551957E+01  0.62500000000E+02  0.47000000000E+01 0. -1.
         -5    1    1    0    0  501 -0.60920697795E+02  0.95802285776E+01  0.90026551957E+01  0.62500000000E+02  0.47000000000E+01 0. -1.
</event>
<event>
 3    0  0.4607503E-005  0.9118800E+02  0.7546771E-02  0.1235069E+00
         25   -1    0    0    0    0  0.00000000000E+00  0.00000000000E+00  0.99999998245E-14  0.12500000000E+03  0.12500000000E+03 0.  0.
          5    1    1    0  501    0  0.17189884356E+02 -0.55959891250E+02 -0.21381263928E+02  0.62500000000E+02  0.47000000000E+01 0.  1.
         -5    1    1    0    0  501 -0.17189884356E+02  0.55959891250E+02  0.21381263928E+02  0.62500000000E+02  0.47000000000E+01 0.  1.
</event>
<event>
 3    0  0.4607503E-005  0.9118800E+02  0.7546771E-02  0.1235069E+00
         25   -1    0    0    0    0  0.00000000000E+00  0.00000000000E+00  0.99999998245E-14  0.12500000000E+03  0.12500000000E+03 0.  0.
          5    1    1    0  501    0  0.46659434684E+02  0.40447352588E+02  0.84302327129E+01  0.62500000000E+02  0.47000000000E+01 0.  1.
         -5    1    1    0    0  501 -0.46659434684E+02 -0.40447352588E+02 -0.84302327129E+01  0.62500000000E+02  0.47000000000E+01 0.  1.
</event>
<event>
 3    0  0.4607503E-005  0.9118800E+02  0.7546771E-02  0.1235069E+00
         25   -1    0    0    0    0  0.00000000000E+00  0.00000000000E+00  0.99999998245E-14  0.12500000000E+03  0.12500000000E+03 0.  0.
          5    1    1    0  501    0  0.41575798477E+02 -0.27578891944E+02  0.37349935745E+02  0.62500000000E+02  0.47000000000E+01 0.  1.
         -5    1    1    0    0  501 -0.41575798477E+02  0.27578891944E+02 -0.37349935745E+02  0.62500000000E+02  0.47000000000E+01 0.  1.
</event>
<event>
 3    0  0.4607503E-005  0.9118800E+02  0.7546771E-02  0.1235069E+00
         25   -1    0    0    0    0  0.00000000000E+00  0.00000000000E+00  0.99999998245E-14  0.12500000000E+03  0.12500000000E+03 0.  0.
          5    1    1    0  501    0  0.39748615609E+01  0.62173894217E+02  0.16635364201E+01  0.62500000000E+02  0.47000000000E+01 0. -1.
         -5    1    1    0    0  501 -0.39748615609E+01 -0.62173894217E+02 -0.16635364201E+01  0.62500000000E+02  0.47000000000E+01 0. -1.
</event>
<event>
 3    0  0.4607503E-005  0.9118800E+02  0.7546771E-02  0.1235069E+00
         25   -1    0    0    0    0  0.00000000000E+00  0.00000000000E+00  0.99999998245E-14  0.12500000000E+03  0.12500000000E+03 0.  0.
          5    1    1    0  501    0  0.69315602785E+00  0.16116026499E+02  0.60199279270E+02  0.62500000000E+02  0.47000000000E+01 0.  1.
         -5    1    1    0    0  501 -0.69315602785E+00 -0.16116026499E+02 -0.60199279270E+02  0.62500000000E+02  0.47000000000E+01 0.  1.
</event>
<event>
 3    0  0.4607503E-005  0.9118800E+02  0.7546771E-02  0.1235069E+00
         25   -1    0    0    0    0  0.00000000000E+00  0.00000000000E+00  0.99999998245E-14  0.12500000000E+03  0.12500000000E+03 0.  0.
          5    1    1    0  501    0 -0.73923052647E+01 -0.17083144690E+02 -0.59478399360E+02  0.62500000000E+02  0.47000000000E+01 0. -1.
         -5    1    1    0    0  501  0.73923052647E+01  0.17083144690E+02  0.59478399360E+02  0.62500000000E+02  0.47000000000E+01 0. -1.
</event>
<event>
 3    0  0.4607503E-005  0.9118800E+02  0.7546771E-02  0.1235069E+00
         25   -1    0    0    0    0  0.00000000000E+00  0.00000000000E+00  0.99999998245E-14  0.12500000000E+03  0.12500000000E+03 0.  0.
          5    1    1    0  501    0  0.35332330689E+01  0.18472228582E+02 -0.59417615530E+02  0.62500000000E+02  0.47000000000E+01 0.  1.
         -5    1    1    0    0  501 -0.35332330689E+01 -0.18472228582E+02  0.59417615530E+02  0.62500000000E+02  0.47000000000E+01 0.  1.
</event>
<event>
 3    0  0.4607503E-005  0.9118800E+02  0.7546771E-02  0.1235069E+00
         25   -1    0    0    0    0  0.00000000000E+00  0.00000000000E+00  0.99999998245E-14  0.12500000000E+03  0.12500000000E+03 0.  0.
          5    1    1    0  501    0  0.62340565386E+01 -0.17298924820E+02 -0.59548666980E+02  0.62500000000E+02  0.47000000000E+01 0.  1.
         -5    1    1    0    0  501 -0.62340565386E+01  0.17298924820E+02  0.59548666980E+02  0.62500000000E+02  0.47000000000E+01 0.  1.
</event>
<event>
 3    0  0.4607503E-005  0.9118800E+02  0.7546771E-02  0.1235069E+00
         25   -1    0    0    0    0  0.00000000000E+00  0.00000000000E+00  0.99999998245E-14  0.12500000000E+03  0.12500000000E+03 0.  0.
          5    1    1    0  501    0  0.39559439673E+02 -0.13269171331E+02 -0.46294058204E+02  0.62500000000E+02  0.47000000000E+01 0. -1.
         -5    1    1    0    0  501 -0.39559439673E+02  0.13269171331E+02  0.46294058204E+02  0.62500000000E+02  0.47000000000E+01 0. -1.
</event>
<event>
 3    0  0.4607503E-005  0.9118800E+02  0.7546771E-02  0.1235069E+00
         25   -1    0    0    0    0  0.00000000000E+00  0.00000000000E+00  0.99999998245E-14  0.12500000000E+03  0.12500000000E+03 0.  0.
          5    1    1    0  501    0 -0.61858037903E+02  0.31523976914E+01 -0.69141547269E+01  0.62500000000E+02  0.47000000000E+01 0. -1.
         -5    1    1    0    0  501  0.61858037903E+02 -0.31523976914E+01  0.69141547269E+01  0.62500000000E+02  0.47000000000E+01 0. -1.
</event>
<event>
 3    0  0.4607503E-005  0.9118800E+02  0.7546771E-02  0.1235069E+00
         25   -1    0    0    0    0  0.00000000000E+00  0.00000000000E+00  0.99999998245E-14  0.12500000000E+03  0.12500000000E+03 0.  0.
          5    1    1    0  501    0 -0.56895779344E+02  0.47868674779E+01  0.24982317597E+02  0.62500000000E+02  0.47000000000E+01 0.  1.
         -5    1    1    0    0  501  0.56895779344E+02 -0.47868674779E+01 -0.24982317597E+02  0.62500000000E+02  0.47000000000E+01 0.  1.
</event>
<event>
 3    0  0.4607503E-005  0.9118800E+02  0.7546771E-02  0.1235069E+00
         25   -1    0    0    0    0  0.00000000000E+00  0.00000000000E+00  0.99999998245E-14  0.12500000000E+03  0.12500000000E+03 0.  0.
          5    1    1    0  501    0  0.20578835230E+02 -0.12597911022E+02 -0.57462719901E+02  0.62500000000E+02  0.47000000000E+01 0.  1.
         -5    1    1    0    0  501 -0.20578835230E+02  0.12597911022E+02  0.57462719901E+02  0.62500000000E+02  0.47000000000E+01 0.  1.
</event>
<event>
 3    0  0.4607503E-005  0.9118800E+02  0.7546771E-02  0.1235069E+00
         25   -1    0    0    0    0  0.00000000000E+00  0.00000000000E+00  0.99999998245E-14  0.12500000000E+03  0.12500000000E+03 0.  0.
          5    1    1    0  501    0 -0.23255071030E+02 -0.57218758465E+02  0.83291867020E+01  0.62500000000E+02  0.47000000000E+01 0. -1.
         -5    1    1    0    0  501  0.23255071030E+02  0.57218758465E+02 -0.83291867020E+01  0.62500000000E+02  0.47000000000E+01 0. -1.
</event>
<event>
 3    0  0.4607503E-005  0.9118800E+02  0.7546771E-02  0.1235069E+00
         25   -1    0    0    0    0  0.00000000000E+00  0.00000000000E+00  0.99999998245E-14  0.12500000000E+03  0.12500000000E+03 0.  0.
          5    1    1    0  501    0 -0.39375343972E+02  0.43484864220E+01  0.48112710929E+02  0.62500000000E+02  0.47000000000E+01 0. -1.
         -5    1    1    0    0  501  0.39375343972E+02 -0.43484864220E+01 -0.48112710929E+02  0.62500000000E+02  0.47000000000E+01 0. -1.
</event>
<event>
 3    0  0.4607503E-005  0.9118800E+02  0.7546771E-02  0.1235069E+00
         25   -1    0    0    0    0  0.00000000000E+00  0.00000000000E+00  0.99999998245E-14  0.12500000000E+03  0.12500000000E+03 0.  0.
          5    1    1    0  501    0  0.90270635905E+00 -0.56243998163E+02  0.26832029216E+02  0.62500000000E+02  0.47000000000E+01 0.  1.
         -5    1    1    0    0  501 -0.90270635905E+00  0.56243998163E+02 -0.26832029216E+02  0.62500000000E+02  0.47000000000E+01 0.  1.
</event>
<event>
 3    0  0.4607503E-005  0.9118800E+02  0.7546771E-02  0.1235069E+00
         25   -1    0    0    0    0  0.00000000000E+00  0.00000000000E+00  0.99999998245E-14  0.12500000000E+03  0.12500000000E+03 0.  0.
          5    1    1    0  501    0 -0.15908614006E+00  0.60217006918E+02 -0.16063834205E+02  0.62500000000E+02  0.47000000000E+01 0. -1.
         -5    1    1    0    0  501  0.15908614006E+00 -0.60217006918E+02  0.16063834205E+02  0.62500000000E+02  0.47000000000E+01 0. -1.
</event>
<event>
 3    0  0.4607503E-005  0.9118800E+02  0.7546771E-02  0.1235069E+00
         25   -1    0    0    0    0  0.00000000000E+00  0.00000000000E+00  0.99999998245E-14  0.12500000000E+03  0.12500000000E+03 0.  0.
          5    1    1    0  501    0 -0.23812729178E+02 -0.57411286793E+02 -0.45889081376E+01  0.62500000000E+02  0.47000000000E+01 0. -1.
         -5    1    1    0    0  501  0.23812729178E+02  0.57411286793E+02  0.45889081376E+01  0.62500000000E+02  0.47000000000E+01 0. -1.
</event>
<event>
 3    0  0.4607503E-005  0.9118800E+02  0.7546771E-02  0.1235069E+00
         25   -1    0    0    0    0  0.00000000000E+00  0.00000000000E+00  0.99999998245E-14  0.12500000000E+03  0.12500000000E+03 0.  0.
          5    1    1    0  501    0 -0.16607975728E+02  0.41989902792E+02 -0.42955595744E+02  0.62500000000E+02  0.47000000000E+01 0.  1.
         -5    1    1    0    0  501  0.16607975728E+02 -0.41989902792E+02  0.42955595744E+02  0.62500000000E+02  0.47000000000E+01 0.  1.
</event>
<event>
 3    0  0.4607503E-005  0.9118800E+02  0.7546771E-02  0.1235069E+00
         25   -1    0    0    0    0  0.00000000000E+00  0.00000000000E+00  0.99999998245E-14  0.12500000000E+03  0.12500000000E+03 0.  0.
          5    1    1    0  501    0  0.75997795015E+01  0.48607132250E+02  0.38258986473E+02  0.62500000000E+02  0.47000000000E+01 0. -1.
         -5    1    1    0    0  501 -0.75997795015E+01 -0.48607132250E+02 -0.38258986473E+02  0.62500000000E+02  0.47000000000E+01 0. -1.
</event>
<event>
 3    0  0.4607503E-005  0.9118800E+02  0.7546771E-02  0.1235069E+00
         25   -1    0    0    0    0  0.00000000000E+00  0.00000000000E+00  0.99999998245E-14  0.12500000000E+03  0.12500000000E+03 0.  0.
          5    1    1    0  501    0  0.22791177353E+02 -0.55753388455E+02 -0.16008807284E+02  0.62500000000E+02  0.47000000000E+01 0.  1.
         -5    1    1    0    0  501 -0.22791177353E+02  0.55753388455E+02  0.16008807284E+02  0.62500000000E+02  0.47000000000E+01 0.  1.
</event>
<event>
 3    0  0.4607503E-005  0.9118800E+02  0.7546771E-02  0.1235069E+00
         25   -1    0    0    0    0  0.00000000000E+00  0.00000000000E+00  0.99999998245E-14  0.12500000000E+03  0.12500000000E+03 0.  0.
          5    1    1    0  501    0  0.18803483054E+02 -0.31443249537E+02 -0.50417368868E+02  0.62500000000E+02  0.47000000000E+01 0. -1.
         -5    1    1    0    0  501 -0.18803483054E+02  0.31443249537E+02  0.50417368868E+02  0.62500000000E+02  0.47000000000E+01 0. -1.
</event>
<event>
 3    0  0.4607503E-005  0.9118800E+02  0.7546771E-02  0.1235069E+00
         25   -1    0    0    0    0  0.00000000000E+00  0.00000000000E+00  0.99999998245E-14  0.12500000000E+03  0.12500000000E+03 0.  0.
          5    1    1    0  501    0 -0.32942563828E+02  0.42947505743E+02  0.30894323732E+02  0.62500000000E+02  0.47000000000E+01 0.  1.
         -5    1    1    0    0  501  0.32942563828E+02 -0.42947505743E+02 -0.30894323732E+02  0.62500000000E+02  0.47000000000E+01 0.  1.
</event>
<event>
 3    0  0.4607503E-005  0.9118800E+02  0.7546771E-02  0.1235069E+00
         25   -1    0    0    0    0  0.00000000000E+00  0.00000000000E+00  0.99999998245E-14  0.12500000000E+03  0.12500000000E+03 0.  0.
          5    1    1    0  501    0 -0.81885426928E+01  0.11733259454E+02 -0.60658374452E+02  0.62500000000E+02  0.47000000000E+01 0.  1.
         -5    1    1    0    0  501  0.81885426928E+01 -0.11733259454E+02  0.60658374452E+02  0.62500000000E+02  0.47000000000E+01 0.  1.
</event>
<event>
 3    0  0.4607503E-005  0.9118800E+02  0.7546771E-02  0.1235069E+00
         25   -1    0    0    0    0  0.00000000000E+00  0.00000000000E+00  0.99999998245E-14  0.12500000000E+03  0.12500000000E+03 0.  0.
          5    1    1    0  501    0  0.47817205731E+02 -0.28057667215E+02 -0.28468265604E+02  0.62500000000E+02  0.47000000000E+01 0.  1.
         -5    1    1    0    0  501 -0.47817205731E+02  0.28057667215E+02  0.28468265604E+02  0.62500000000E+02  0.47000000000E+01 0.  1.
</event>
<event>
 3    0  0.4607503E-005  0.9118800E+02  0.7546771E-02  0.1235069E+00
         25   -1    0    0    0    0  0.00000000000E+00  0.00000000000E+00  0.99999998245E-14  0.12500000000E+03  0.12500000000E+03 0.  0.
          5    1    1    0  501    0 -0.59103660095E+02  0.18167066527E+02 -0.78022469295E+01  0.62500000000E+02  0.47000000000E+01 0. -1.
         -5    1    1    0    0  501  0.59103660095E+02 -0.18167066527E+02  0.78022469295E+01  0.62500000000E+02  0.47000000000E+01 0. -1.
</event>
<event>
 3    0  0.4607503E-005  0.9118800E+02  0.7546771E-02  0.1235069E+00
         25   -1    0    0    0    0  0.00000000000E+00  0.00000000000E+00  0.99999998245E-14  0.12500000000E+03  0.12500000000E+03 0.  0.
          5    1    1    0  501    0  0.61544990952E+02 -0.53909602459E+01  0.82043669050E+01  0.62500000000E+02  0.47000000000E+01 0. -1.
         -5    1    1    0    0  501 -0.61544990952E+02  0.53909602459E+01 -0.82043669050E+01  0.62500000000E+02  0.47000000000E+01 0. -1.
</event>
<event>
 3    0  0.4607503E-005  0.9118800E+02  0.7546771E-02  0.1235069E+00
         25   -1    0    0    0    0  0.00000000000E+00  0.00000000000E+00  0.99999998245E-14  0.12500000000E+03  0.12500000000E+03 0.  0.
          5    1    1    0  501    0 -0.50702302854E+02 -0.35876650783E+02  0.51285879066E+01  0.62500000000E+02  0.47000000000E+01 0.  1.
         -5    1    1    0    0  501  0.50702302854E+02  0.35876650783E+02 -0.51285879066E+01  0.62500000000E+02  0.47000000000E+01 0.  1.
</event>
<event>
 3    0  0.4607503E-005  0.9118800E+02  0.7546771E-02  0.1235069E+00
         25   -1    0    0    0    0  0.00000000000E+00  0.00000000000E+00  0.99999998245E-14  0.12500000000E+03  0.12500000000E+03 0.  0.
          5    1    1    0  501    0 -0.34135310918E+02  0.52575473611E+00  0.52140810604E+02  0.62500000000E+02  0.47000000000E+01 0. -1.
         -5    1    1    0    0  501  0.34135310918E+02 -0.52575473611E+00 -0.52140810604E+02  0.62500000000E+02  0.47000000000E+01 0. -1.
</event>
<event>
 3    0  0.4607503E-005  0.9118800E+02  0.7546771E-02  0.1235069E+00
         25   -1    0    0    0    0  0.00000000000E+00  0.00000000000E+00  0.99999998245E-14  0.12500000000E+03  0.12500000000E+03 0.  0.
          5    1    1    0  501    0  0.45432793352E+02  0.65854189846E+01  0.42150368267E+02  0.62500000000E+02  0.47000000000E+01 0.  1.
         -5    1    1    0    0  501 -0.45432793352E+02 -0.65854189846E+01 -0.42150368267E+02  0.62500000000E+02  0.47000000000E+01 0.  1.
</event>
<event>
 3    0  0.4607503E-005  0.9118800E+02  0.7546771E-02  0.1235069E+00
         25   -1    0    0    0    0  0.00000000000E+00  0.00000000000E+00  0.99999998245E-14  0.12500000000E+03  0.12500000000E+03 0.  0.
          5    1    1    0  501    0 -0.18651308557E+02 -0.38971221420E+02 -0.44916952147E+02  0.62500000000E+02  0.47000000000E+01 0. -1.
         -5    1    1    0    0  501  0.18651308557E+02  0.38971221420E+02  0.44916952147E+02  0.62500000000E+02  0.47000000000E+01 0. -1.
</event>
<event>
 3    0  0.4607503E-005  0.9118800E+02  0.7546771E-02  0.1235069E+00
         25   -1    0    0    0    0  0.00000000000E+00  0.00000000000E+00  0.99999998245E-14  0.12500000000E+03  0.12500000000E+03 0.  0.
          5    1    1    0  501    0 -0.23705857859E+01  0.54127313598E+02  0.30802179237E+02  0.62500000000E+02  0.47000000000E+01 0.  1.
         -5    1    1    0    0  501  0.23705857859E+01 -0.54127313598E+02 -0.30802179237E+02  0.62500000000E+02  0.47000000000E+01 0.  1.
</event>
<event>
 3    0  0.4607503E-005  0.9118800E+02  0.7546771E-02  0.1235069E+00
         25   -1    0    0    0    0  0.00000000000E+00  0.00000000000E+00  0.99999998245E-14  0.12500000000E+03  0.12500000000E+03 0.  0.
          5    1    1    0  501    0 -0.23524771080E+02  0.39126755899E+01  0.57579823857E+02  0.62500000000E+02  0.47000000000E+01 0.  1.
         -5    1    1    0    0  501  0.23524771080E+02 -0.39126755899E+01 -0.57579823857E+02  0.62500000000E+02  0.47000000000E+01 0.  1.
</event>
<event>
 3    0  0.4607503E-005  0.9118800E+02  0.7546771E-02  0.1235069E+00
         25   -1    0    0    0    0  0.00000000000E+00  0.00000000000E+00  0.99999998245E-14  0.12500000000E+03  0.12500000000E+03 0.  0.
          5    1    1    0  501    0  0.45758326103E+02  0.28279403012E+02  0.31473972701E+02  0.62500000000E+02  0.47000000000E+01 0. -1.
         -5    1    1    0    0  501 -0.45758326103E+02 -0.28279403012E+02 -0.31473972701E+02  0.62500000000E+02  0.47000000000E+01 0. -1.
</event>
<event>
 3    0  0.4607503E-005  0.9118800E+02  0.7546771E-02  0.1235069E+00
         25   -1    0    0    0    0  0.00000000000E+00  0.00000000000E+00  0.99999998245E-14  0.12500000000E+03  0.12500000000E+03 0.  0.
          5    1    1    0  501    0  0.18878246910E+02 -0.56126172470E+02 -0.19432564357E+02  0.62500000000E+02  0.47000000000E+01 0.  1.
         -5    1    1    0    0  501 -0.18878246910E+02  0.56126172470E+02  0.19432564357E+02  0.62500000000E+02  0.47000000000E+01 0.  1.
</event>
<event>
 3    0  0.4607503E-005  0.9118800E+02  0.7546771E-02  0.1235069E+00
         25   -1    0    0    0    0  0.00000000000E+00  0.00000000000E+00  0.99999998245E-14  0.12500000000E+03  0.12500000000E+03 0.  0.
          5    1    1    0  501    0  0.50268748435E+02 -0.24049900704E+02  0.27907260828E+02  0.62500000000E+02  0.47000000000E+01 0.  1.
         -5    1    1    0    0  501 -0.50268748435E+02  0.24049900704E+02 -0.27907260828E+02  0.62500000000E+02  0.47000000000E+01 0.  1.
</event>
<event>
 3    0  0.4607503E-005  0.9118800E+02  0.7546771E-02  0.1235069E+00
         25   -1    0    0    0    0  0.00000000000E+00  0.00000000000E+00  0.99999998245E-14  0.12500000000E+03  0.12500000000E+03 0.  0.
          5    1    1    0  501    0  0.32718646355E+02  0.52648031451E+02  0.64679954435E+01  0.62500000000E+02  0.47000000000E+01 0. -1.
         -5    1    1    0    0  501 -0.32718646355E+02 -0.52648031451E+02 -0.64679954435E+01  0.62500000000E+02  0.47000000000E+01 0. -1.
</event>
<event>
 3    0  0.4607503E-005  0.9118800E+02  0.7546771E-02  0.1235069E+00
         25   -1    0    0    0    0  0.00000000000E+00  0.00000000000E+00  0.99999998245E-14  0.12500000000E+03  0.12500000000E+03 0.  0.
          5    1    1    0  501    0 -0.43998098917E+02  0.10931637881E+02  0.42764782063E+02  0.62500000000E+02  0.47000000000E+01 0.  1.
         -5    1    1    0    0  501  0.43998098917E+02 -0.10931637881E+02 -0.42764782063E+02  0.62500000000E+02  0.47000000000E+01 0.  1.
</event>
<event>
 3    0  0.4607503E-005  0.9118800E+02  0.7546771E-02  0.1235069E+00
         25   -1    0    0    0    0  0.00000000000E+00  0.00000000000E+00  0.99999998245E-14  0.12500000000E+03  0.12500000000E+03 0.  0.
          5    1    1    0  501    0 -0.28255888222E+02  0.33397451992E+02 -0.44388906060E+02  0.62500000000E+02  0.47000000000E+01 0. -1.
         -5    1    1    0    0  501  0.28255888222E+02 -0.33397451992E+02  0.44388906060E+02  0.62500000000E+02  0.47000000000E+01 0. -1.
</event>
<event>
 3    0  0.4607503E-005  0.9118800E+02  0.7546771E-02  0.1235069E+00
         25   -1    0    0    0    0  0.00000000000E+00  0.00000000000E+00  0.99999998245E-14  0.12500000000E+03  0.12500000000E+03 0.  0.
          5    1    1    0  501    0 -0.60077566495E+02 -0.14535984639E+02 -0.79718978057E+01  0.62500000000E+02  0.47000000000E+01 0.  1.
         -5    1    1    0    0  501  0.60077566495E+02  0.14535984639E+02  0.79718978057E+01  0.62500000000E+02  0.47000000000E+01 0.  1.
</event>
<event>
 3    0  0.4607503E-005  0.9118800E+02  0.7546771E-02  0.1235069E+00
         25   -1    0    0    0    0  0.00000000000E+00  0.00000000000E+00  0.99999998245E-14  0.12500000000E+03  0.12500000000E+03 0.  0.
          5    1    1    0  501    0  0.15996805267E+02  0.36898405558E+02  0.47610606891E+02  0.62500000000E+02  0.47000000000E+01 0. -1.
         -5    1    1    0    0  501 -0.15996805267E+02 -0.36898405558E+02 -0.47610606891E+02  0.62500000000E+02  0.47000000000E+01 0. -1.
</event>
<event>
 3    0  0.4607503E-005  0.9118800E+02  0.7546771E-02  0.1235069E+00
         25   -1    0    0    0    0  0.00000000000E+00  0.00000000000E+00  0.99999998245E-14  0.12500000000E+03  0.12500000000E+03 0.  0.
          5    1    1    0  501    0 -0.50021103596E+02  0.29340680705E+02  0.22829227993E+02  0.62500000000E+02  0.47000000000E+01 0.  1.
         -5    1    1    0    0  501  0.50021103596E+02 -0.29340680705E+02 -0.22829227993E+02  0.62500000000E+02  0.47000000000E+01 0.  1.
</event>
<event>
 3    0  0.4607503E-005  0.9118800E+02  0.7546771E-02  0.1235069E+00
         25   -1    0    0    0    0  0.00000000000E+00  0.00000000000E+00  0.99999998245E-14  0.12500000000E+03  0.12500000000E+03 0.  0.
          5    1    1    0  501    0  0.46298822431E+02  0.40801603317E+02 -0.87067909264E+01  0.62500000000E+02  0.47000000000E+01 0. -1.
         -5    1    1    0    0  501 -0.46298822431E+02 -0.40801603317E+02  0.87067909264E+01  0.62500000000E+02  0.47000000000E+01 0. -1.
</event>
<event>
 3    0  0.4607503E-005  0.9118800E+02  0.7546771E-02  0.1235069E+00
         25   -1    0    0    0    0  0.00000000000E+00  0.00000000000E+00  0.99999998245E-14  0.12500000000E+03  0.12500000000E+03 0.  0.
          5    1    1    0  501    0  0.12063069801E+02 -0.61055736050E+02  0.32923308384E+01  0.62500000000E+02  0.47000000000E+01 0. -1.
         -5    1    1    0    0  501 -0.12063069801E+02  0.61055736050E+02 -0.32923308384E+01  0.62500000000E+02  0.47000000000E+01 0. -1.
</event>
<event>
 3    0  0.4607503E-005  0.9118800E+02  0.7546771E-02  0.1235069E+00
         25   -1    0    0    0    0  0.00000000000E+00  0.00000000000E+00  0.99999998245E-14  0.12500000000E+03  0.12500000000E+03 0.  0.
          5    1    1    0  501    0  0.31891598205E+02 -0.10306482159E+02  0.52543909157E+02  0.62500000000E+02  0.47000000000E+01 0.  1.
         -5    1    1    0    0  501 -0.31891598205E+02  0.10306482159E+02 -0.52543909157E+02  0.62500000000E+02  0.47000000000E+01 0.  1.
</event>
<event>
 3    0  0.4607503E-005  0.9118800E+02  0.7546771E-02  0.1235069E+00
         25   -1    0    0    0    0  0.00000000000E+00  0.00000000000E+00  0.99999998245E-14  0.12500000000E+03  0.12500000000E+03 0.  0.
          5    1    1    0  501    0  0.25756534853E+02  0.35786868443E+02  0.44046123091E+02  0.62500000000E+02  0.47000000000E+01 0. -1.
         -5    1    1    0    0  501 -0.25756534853E+02 -0.35786868443E+02 -0.44046123091E+02  0.62500000000E+02  0.47000000000E+01 0. -1.
</event>
<event>
 3    0  0.4607503E-005  0.9118800E+02  0.7546771E-02  0.1235069E+00
         25   -1    0    0    0    0  0.00000000000E+00  0.00000000000E+00  0.99999998245E-14  0.12500000000E+03  0.12500000000E+03 0.  0.
          5    1    1    0  501    0  0.15440566968E+02  0.17859872985E+01  0.60353617465E+02  0.62500000000E+02  0.47000000000E+01 0. -1.
         -5    1    1    0    0  501 -0.15440566968E+02 -0.17859872985E+01 -0.60353617465E+02  0.62500000000E+02  0.47000000000E+01 0. -1.
</event>
<event>
 3    0  0.4607503E-005  0.9118800E+02  0.7546771E-02  0.1235069E+00
         25   -1    0    0    0    0  0.00000000000E+00  0.00000000000E+00  0.99999998245E-14  0.12500000000E+03  0.12500000000E+03 0.  0.
          5    1    1    0  501    0  0.42560783612E+02  0.45173071182E+02 -0.56686275472E+01  0.62500000000E+02  0.47000000000E+01 0.  1.
         -5    1    1    0    0  501 -0.42560783612E+02 -0.45173071182E+02  0.56686275472E+01  0.62500000000E+02  0.47000000000E+01 0.  1.
</event>
<event>
 3    0  0.4607503E-005  0.9118800E+02  0.7546771E-02  0.1235069E+00
         25   -1    0    0    0    0  0.00000000000E+00  0.00000000000E+00  0.99999998245E-14  0.12500000000E+03  0.12500000000E+03 0.  0.
          5    1    1    0  501    0  0.49584869003E+01  0.54059329385E+02 -0.30613106900E+02  0.62500000000E+02  0.47000000000E+01 0.  1.
         -5    1    1    0    0  501 -0.49584869003E+01 -0.54059329385E+02  0.30613106900E+02  0.62500000000E+02  0.47000000000E+01 0.  1.
</event>
<event>
 3    0  0.4607503E-005  0.9118800E+02  0.7546771E-02  0.1235069E+00
         25   -1    0    0    0    0  0.00000000000E+00  0.00000000000E+00  0.99999998245E-14  0.12500000000E+03  0.12500000000E+03 0.  0.
          5    1    1    0  501    0  0.59526520898E+02  0.99479830626E+01 -0.15549628379E+02  0.62500000000E+02  0.47000000000E+01 0. -1.
         -5    1    1    0    0  501 -0.59526520898E+02 -0.99479830626E+01  0.15549628379E+02  0.62500000000E+02  0.47000000000E+01 0. -1.
</event>
<event>
 3    0  0.4607503E-005  0.9118800E+02  0.7546771E-02  0.1235069E+00
         25   -1    0    0    0    0  0.00000000000E+00  0.00000000000E+00  0.99999998245E-14  0.12500000000E+03  0.12500000000E+03 0.  0.
          5    1    1    0  501    0  0.12794223226E+02 -0.20632567689E+02 -0.57400043576E+02  0.62500000000E+02  0.47000000000E+01 0. -1.
         -5    1    1    0    0  501 -0.12794223226E+02  0.20632567689E+02  0.57400043576E+02  0.62500000000E+02  0.47000000000E+01 0. -1.
</event>
<event>
 3    0  0.4607503E-005  0.9118800E+02  0.7546771E-02  0.1235069E+00
         25   -1    0    0    0    0  0.00000000000E+00  0.00000000000E+00  0.99999998245E-14  0.12500000000E+03  0.12500000000E+03 0.  0.
          5    1    1    0  501    0  0.33624140198E+02 -0.48369651901E+02  0.20345858814E+02  0.62500000000E+02  0.47000000000E+01 0.  1.
         -5    1    1    0    0  501 -0.33624140198E+02  0.48369651901E+02 -0.20345858814E+02  0.62500000000E+02  0.47000000000E+01 0.  1.
</event>
<event>
 3    0  0.4607503E-005  0.9118800E+02  0.7546771E-02  0.1235069E+00
         25   -1    0    0    0    0  0.00000000000E+00  0.00000000000E+00  0.99999998245E-14  0.12500000000E+03  0.12500000000E+03 0.  0.
          5    1    1    0  501    0  0.56788540678E+02  0.12359227752E+02  0.22504913621E+02  0.62500000000E+02  0.47000000000E+01 0.  1.
         -5    1    1    0    0  501 -0.56788540678E+02 -0.12359227752E+02 -0.22504913621E+02  0.62500000000E+02  0.47000000000E+01 0.  1.
</event>
<event>
 3    0  0.4607503E-005  0.9118800E+02  0.7546771E-02  0.1235069E+00
         25   -1    0    0    0    0  0.00000000000E+00  0.00000000000E+00  0.99999998245E-14  0.12500000000E+03  0.12500000000E+03 0.  0.
          5    1    1    0  501    0 -0.96219173579E+01 -0.60804026773E+02 -0.97184893165E+01  0.62500000000E+02  0.47000000000E+01 0. -1.
         -5    1    1    0    0  501  0.96219173579E+01  0.60804026773E+02  0.97184893165E+01  0.62500000000E+02  0.47000000000E+01 0. -1.
</event>
<event>
 3    0  0.4607503E-005  0.9118800E+02  0.7546771E-02  0.1235069E+00
         25   -1    0    0    0    0  0.00000000000E+00  0.00000000000E+00  0.99999998245E-14  0.12500000000E+03  0.12500000000E+03 0.  0.
          5    1    1    0  501    0 -0.47770009167E+02 -0.21443015798E+02  0.33799161198E+02  0.62500000000E+02  0.47000000000E+01 0.  1.
         -5    1    1    0    0  501  0.47770009167E+02  0.21443015798E+02 -0.33799161198E+02  0.62500000000E+02  0.47000000000E+01 0.  1.
</event>
<event>
 3    0  0.4607503E-005  0.9118800E+02  0.7546771E-02  0.1235069E+00
         25   -1    0    0    0    0  0.00000000000E+00  0.00000000000E+00  0.99999998245E-14  0.12500000000E+03  0.12500000000E+03 0.  0.
          5    1    1    0  501    0 -0.93693691531E+01 -0.50677039469E+02  0.35045864125E+02  0.62500000000E+02  0.47000000000E+01 0. -1.
         -5    1    1    0    0  501  0.93693691531E+01  0.50677039469E+02 -0.35045864125E+02  0.62500000000E+02  0.47000000000E+01 0. -1.
</event>
<event>
 3    0  0.4607503E-005  0.9118800E+02  0.7546771E-02  0.1235069E+00
         25   -1    0    0    0    0  0.00000000000E+00  0.00000000000E+00  0.99999998245E-14  0.12500000000E+03  0.12500000000E+03 0.  0.
          5    1    1    0  501    0  0.59953113479E+02  0.15153607133E+02  0.77557962233E+01  0.62500000000E+02  0.47000000000E+01 0. -1.
         -5    1    1    0    0  501 -0.59953113479E+02 -0.15153607133E+02 -0.77557962233E+01  0.62500000000E+02  0.47000000000E+01 0. -1.
</event>
<event>
 3    0  0.4607503E-005  0.9118800E+02  0.7546771E-02  0.1235069E+00
         25   -1    0    0    0    0  0.00000000000E+00  0.00000000000E+00  0.99999998245E-14  0.12500000000E+03  0.12500000000E+03 0.  0.
          5    1    1    0  501    0 -0.35428557124E+02  0.25963246659E+02 -0.44214105928E+02  0.62500000000E+02  0.47000000000E+01 0.  1.
         -5    1    1    0    0  501  0.35428557124E+02 -0.25963246659E+02  0.44214105928E+02  0.62500000000E+02  0.47000000000E+01 0.  1.
</event>
<event>
 3    0  0.4607503E-005  0.9118800E+02  0.7546771E-02  0.1235069E+00
         25   -1    0    0    0    0  0.00000000000E+00  0.00000000000E+00  0.99999998245E-14  0.12500000000E+03  0.12500000000E+03 0.  0.
          5    1    1    0  501    0 -0.58346886964E+02 -0.10911077516E+02  0.18993398038E+02  0.62500000000E+02  0.47000000000E+01 0.  1.
         -5    1    1    0    0  501  0.58346886964E+02  0.10911077516E+02 -0.18993398038E+02  0.62500000000E+02  0.47000000000E+01 0.  1.
</event>
<event>
 3    0  0.4607503E-005  0.9118800E+02  0.7546771E-02  0.1235069E+00
         25   -1    0    0    0    0  0.00000000000E+00  0.00000000000E+00  0.99999998245E-14  0.12500000000E+03  0.12500000000E+03 0.  0.
          5    1    1    0  501    0 -0.44273655364E+02 -0.34133866504E+02  0.27547823838E+02  0.62500000000E+02  0.47000000000E+01 0. -1.
         -5    1    1    0    0  501  0.44273655364E+02  0.34133866504E+02 -0.27547823838E+02  0.62500000000E+02  0.47000000000E+01 0. -1.
</event>
<event>
 3    0  0.4607503E-005  0.9118800E+02  0.7546771E-02  0.1235069E+00
         25   -1    0    0    0    0  0.00000000000E+00  0.00000000000E+00  0.99999998245E-14  0.12500000000E+03  0.12500000000E+03 0.  0.
          5    1    1    0  501    0 -0.45593603194E+02 -0.18418300092E+02 -0.38290332585E+02  0.62500000000E+02  0.47000000000E+01 0. -1.
         -5    1    1    0    0  501  0.45593603194E+02  0.18418300092E+02  0.38290332585E+02  0.62500000000E+02  0.47000000000E+01 0. -1.
</event>
<event>
 3    0  0.4607503E-005  0.9118800E+02  0.7546771E-02  0.1235069E+00
         25   -1    0    0    0    0  0.00000000000E+00  0.00000000000E+00  0.99999998245E-14  0.12500000000E+03  0.12500000000E+03 0.  0.
          5    1    1    0  501    0  0.47650460345E+02 -0.10703314072E+01 -0.40155298774E+02  0.62500000000E+02  0.47000000000E+01 0. -1.
         -5    1    1    0    0  501 -0.47650460345E+02  0.10703314072E+01  0.40155298774E+02  0.62500000000E+02  0.47000000000E+01 0. -1.
</event>
<event>
 3    0  0.4607503E-005  0.9118800E+02  0.7546771E-02  0.1235069E+00
         25   -1    0    0    0    0  0.00000000000E+00  0.00000000000E+00  0.99999998245E-14  0.12500000000E+03  0.12500000000E+03 0.  0.
          5    1    1    0  501    0  0.38487760951E+02 -0.25852430368E+02 -0.41647378081E+02  0.62500000000E+02  0.47000000000E+01 0. -1.
         -5    1    1    0    0  501 -0.38487760951E+02  0.25852430368E+02  0.41647378081E+02  0.62500000000E+02  0.47000000000E+01 0. -1.
</event>
<event>
 3    0  0.4607503E-005  0.9118800E+02  0.7546771E-02  0.1235069E+00
         25   -1    0    0    0    0  0.00000000000E+00  0.00000000000E+00  0.99999998245E-14  0.12500000000E+03  0.12500000000E+03 0.  0.
          5    1    1    0  501    0  0.37534309301E+02  0.44857163179E+02 -0.21521397184E+02  0.62500000000E+02  0.47000000000E+01 0. -1.
         -5    1    1    0    0  501 -0.37534309301E+02 -0.44857163179E+02  0.21521397184E+02  0.62500000000E+02  0.47000000000E+01 0. -1.
</event>
<event>
 3    0  0.4607503E-005  0.9118800E+02  0.7546771E-02  0.1235069E+00
         25   -1    0    0    0    0  0.00000000000E+00  0.00000000000E+00  0.99999998245E-14  0.12500000000E+03  0.12500000000E+03 0.  0.
          5    1    1    0  501    0 -0.61011679045E+02 -0.33224889728E+01 -0.12275833459E+02  0.62500000000E+02  0.47000000000E+01 0. -1.
         -5    1    1    0    0  501  0.61011679045E+02  0.33224889728E+01  0.12275833459E+02  0.62500000000E+02  0.47000000000E+01 0. -1.
</event>
<event>
 3    0  0.4607503E-005  0.9118800E+02  0.7546771E-02  0.1235069E+00
         25   -1    0    0    0    0  0.00000000000E+00  0.00000000000E+00  0.99999998245E-14  0.12500000000E+03  0.12500000000E+03 0.  0.
          5    1    1    0  501    0 -0.25999039734E+02 -0.93244622052E+01 -0.55868276665E+02  0.62500000000E+02  0.47000000000E+01 0.  1.
         -5    1    1    0    0  501  0.25999039734E+02  0.93244622052E+01  0.55868276665E+02  0.62500000000E+02  0.47000000000E+01 0.  1.
</event>
<event>
 3    0  0.4607503E-005  0.9118800E+02  0.7546771E-02  0.1235069E+00
         25   -1    0    0    0    0  0.00000000000E+00  0.00000000000E+00  0.99999998245E-14  0.12500000000E+03  0.12500000000E+03 0.  0.
          5    1    1    0  501    0  0.39735281904E+02 -0.42225866838E+02 -0.22852648464E+02  0.62500000000E+02  0.47000000000E+01 0. -1.
         -5    1    1    0    0  501 -0.39735281904E+02  0.42225866838E+02  0.22852648464E+02  0.62500000000E+02  0.47000000000E+01 0. -1.
</event>
<event>
 3    0  0.4607503E-005  0.9118800E+02  0.7546771E-02  0.1235069E+00
         25   -1    0    0    0    0  0.00000000000E+00  0.00000000000E+00  0.99999998245E-14  0.12500000000E+03  0.12500000000E+03 0.  0.
          5    1    1    0  501    0  0.61879914445E+02  0.42262640500E+01 -0.60971206650E+01  0.62500000000E+02  0.47000000000E+01 0.  1.
         -5    1    1    0    0  501 -0.61879914445E+02 -0.42262640500E+01  0.60971206650E+01  0.62500000000E+02  0.47000000000E+01 0.  1.
</event>
<event>
 3    0  0.4607503E-005  0.9118800E+02  0.7546771E-02  0.1235069E+00
         25   -1    0    0    0    0  0.00000000000E+00  0.00000000000E+00  0.99999998245E-14  0.12500000000E+03  0.12500000000E+03 0.  0.
          5    1    1    0  501    0  0.51304785817E+02  0.23697409360E+02  0.26275687277E+02  0.62500000000E+02  0.47000000000E+01 0.  1.
         -5    1    1    0    0  501 -0.51304785817E+02 -0.23697409360E+02 -0.26275687277E+02  0.62500000000E+02  0.47000000000E+01 0.  1.
</event>
<event>
 3    0  0.4607503E-005  0.9118800E+02  0.7546771E-02  0.1235069E+00
         25   -1    0    0    0    0  0.00000000000E+00  0.00000000000E+00  0.99999998245E-14  0.12500000000E+03  0.12500000000E+03 0.  0.
          5    1    1    0  501    0 -0.23649943205E+02  0.57251734904E+02 -0.68614165393E+01  0.62500000000E+02  0.47000000000E+01 0. -1.
         -5    1    1    0    0  501  0.23649943205E+02 -0.57251734904E+02  0.68614165393E+01  0.62500000000E+02  0.47000000000E+01 0. -1.
</event>
<event>
 3    0  0.4607503E-005  0.9118800E+02  0.7546771E-02  0.1235069E+00
         25   -1    0    0    0    0  0.00000000000E+00  0.00000000000E+00  0.99999998245E-14  0.12500000000E+03  0.12500000000E+03 0.  0.
          5    1    1    0  501    0 -0.13670101570E+02  0.57423329678E+02  0.19996237941E+02  0.62500000000E+02  0.47000000000E+01 0.  1.
         -5    1    1    0    0  501  0.13670101570E+02 -0.57423329678E+02 -0.19996237941E+02  0.62500000000E+02  0.47000000000E+01 0.  1.
</event>
<event>
 3    0  0.4607503E-005  0.9118800E+02  0.7546771E-02  0.1235069E+00
         25   -1    0    0    0    0  0.00000000000E+00  0.00000000000E+00  0.99999998245E-14  0.12500000000E+03  0.12500000000E+03 0.  0.
          5    1    1    0  501    0  0.45674927886E+02 -0.34660611690E+02  0.24425457211E+02  0.62500000000E+02  0.47000000000E+01 0. -1.
         -5    1    1    0    0  501 -0.45674927886E+02  0.34660611690E+02 -0.24425457211E+02  0.62500000000E+02  0.47000000000E+01 0. -1.
</event>
<event>
 3    0  0.4607503E-005  0.9118800E+02  0.7546771E-02  0.1235069E+00
         25   -1    0    0    0    0  0.00000000000E+00  0.00000000000E+00  0.99999998245E-14  0.12500000000E+03  0.12500000000E+03 0.  0.
          5    1    1    0  501    0  0.30298102244E+02  0.48929711082E+02 -0.23917950870E+02  0.62500000000E+02  0.47000000000E+01 0.  1.
         -5    1    1    0    0  501 -0.30298102244E+02 -0.48929711082E+02  0.23917950870E+02  0.62500000000E+02  0.47000000000E+01 0.  1.
</event>
<event>
 3    0  0.4607503E-005  0.9118800E+02  0.7546771E-02  0.1235069E+00
         25   -1    0    0    0    0  0.00000000000E+00  0.00000000000E+00  0.99999998245E-14  0.12500000000E+03  0.12500000000E+03 0.  0.
          5    1    1    0  501    0  0.53533489684E+02 -0.12840818445E+02  0.29213675974E+02  0.62500000000E+02  0.47000000000E+01 0.  1.
         -5    1    1    0    0  501 -0.53533489684E+02  0.12840818445E+02 -0.29213675974E+02  0.62500000000E+02  0.47000000000E+01 0.  1.
</event>
<event>
 3    0  0.4607503E-005  0.9118800E+02  0.7546771E-02  0.1235069E+00
         25   -1    0    0    0    0  0.00000000000E+00  0.00000000000E+00  0.99999998245E-14  0.12500000000E+03  0.12500000000E+03 0.  0.
          5    1    1    0  501    0 -0.32751610637E+02  0.37477511251E+02 -0.37509040925E+02  0.62500000000E+02  0.47000000000E+01 0. -1.
         -5    1    1    0    0  501  0.32751610637E+02 -0.37477511251E+02  0.37509040925E+02  0.62500000000E+02  0.47000000000E+01 0. -1.
</event>
<event>
 3    0  0.4607503E-005  0.9118800E+02  0.7546771E-02  0.1235069E+00
         25   -1    0    0    0    0  0.00000000000E+00  0.00000000000E+00  0.99999998245E-14  0.12500000000E+03  0.12500000000E+03 0.  0.
          5    1    1    0  501    0  0.33249017338E+01 -0.54844260903E+02 -0.29414487493E+02  0.62500000000E+02  0.47000000000E+01 0.  1.
         -5    1    1    0    0  501 -0.33249017338E+01  0.54844260903E+02  0.29414487493E+02  0.62500000000E+02  0.47000000000E+01 0.  1.
</event>
<event>
 3    0  0.4607503E-005  0.9118800E+02  0.7546771E-02  0.1235069E+00
         25   -1    0    0    0    0  0.00000000000E+00  0.00000000000E+00  0.99999998245E-14  0.12500000000E+03  0.12500000000E+03 0.  0.
          5    1    1    0  501    0  0.53674364917E+02  0.31232196302E+02 -0.52699587229E+01  0.62500000000E+02  0.47000000000E+01 0. -1.
         -5    1    1    0    0  501 -0.53674364917E+02 -0.31232196302E+02  0.52699587229E+01  0.62500000000E+02  0.47000000000E+01 0. -1.
</event>
<event>
 3    0  0.4607503E-005  0.9118800E+02  0.7546771E-02  0.1235069E+00
         25   -1    0    0    0    0  0.00000000000E+00  0.00000000000E+00  0.99999998245E-14  0.12500000000E+03  0.12500000000E+03 0.  0.
          5    1    1    0  501    0  0.43518605735E+02 -0.27181675256E+02  0.35375803668E+02  0.62500000000E+02  0.47000000000E+01 0. -1.
         -5    1    1    0    0  501 -0.43518605735E+02  0.27181675256E+02 -0.35375803668E+02  0.62500000000E+02  0.47000000000E+01 0. -1.
</event>
<event>
 3    0  0.4607503E-005  0.9118800E+02  0.7546771E-02  0.1235069E+00
         25   -1    0    0    0    0  0.00000000000E+00  0.00000000000E+00  0.99999998245E-14  0.12500000000E+03  0.12500000000E+03 0.  0.
          5    1    1    0  501    0  0.93324922013E+01  0.35499923292E+02 -0.50366854533E+02  0.62500000000E+02  0.47000000000E+01 0. -1.
         -5    1    1    0    0  501 -0.93324922013E+01 -0.35499923292E+02  0.50366854533E+02  0.62500000000E+02  0.47000000000E+01 0. -1.
</event>
<event>
 3    0  0.4607503E-005  0.9118800E+02  0.7546771E-02  0.1235069E+00
         25   -1    0    0    0    0  0.00000000000E+00  0.00000000000E+00  0.99999998245E-14  0.12500000000E+03  0.12500000000E+03 0.  0.
          5    1    1    0  501    0 -0.59313467950E+02 -0.18644933994E+02 -0.42940605552E+01  0.62500000000E+02  0.47000000000E+01 0.  1.
         -5    1    1    0    0  501  0.59313467950E+02  0.18644933994E+02  0.42940605552E+01  0.62500000000E+02  0.47000000000E+01 0.  1.
</event>
<event>
 3    0  0.4607503E-005  0.9118800E+02  0.7546771E-02  0.1235069E+00
         25   -1    0    0    0    0  0.00000000000E+00  0.00000000000E+00  0.99999998245E-14  0.12500000000E+03  0.12500000000E+03 0.  0.
          5    1    1    0  501    0 -0.19641761466E+02  0.62737731008E+01  0.58813272121E+02  0.62500000000E+02  0.47000000000E+01 0. -1.
         -5    1    1    0    0  501  0.19641761466E+02 -0.62737731008E+01 -0.58813272121E+02  0.62500000000E+02  0.47000000000E+01 0. -1.
</event>
<event>
 3    0  0.4607503E-005  0.9118800E+02  0.7546771E-02  0.1235069E+00
         25   -1    0    0    0    0  0.00000000000E+00  0.00000000000E+00  0.99999998245E-14  0.12500000000E+03  0.12500000000E+03 0.  0.
          5    1    1    0  501    0  0.37297814286E+02  0.48369294767E+02 -0.12387266577E+02  0.62500000000E+02  0.47000000000E+01 0. -1.
         -5    1    1    0    0  501 -0.37297814286E+02 -0.48369294767E+02  0.12387266577E+02  0.62500000000E+02  0.47000000000E+01 0. -1.
</event>
<event>
 3    0  0.4607503E-005  0.9118800E+02  0.7546771E-02  0.1235069E+00
         25   -1    0    0    0    0  0.00000000000E+00  0.00000000000E+00  0.99999998245E-14  0.12500000000E+03  0.12500000000E+03 0.  0.
          5    1    1    0  501    0 -0.34235005043E+02 -0.13705322311E+02  0.50242298614E+02  0.62500000000E+02  0.47000000000E+01 0.  1.
         -5    1    1    0    0  501  0.34235005043E+02  0.13705322311E+02 -0.50242298614E+02  0.62500000000E+02  0.47000000000E+01 0.  1.
</event>
<event>
 3    0  0.4607503E-005  0.9118800E+02  0.7546771E-02  0.1235069E+00
         25   -1    0    0    0    0  0.00000000000E+00  0.00000000000E+00  0.99999998245E-14  0.12500000000E+03  0.12500000000E+03 0.  0.
          5    1    1    0  501    0 -0.36890272222E+02 -0.25052081530E+02 -0.43539189547E+02  0.62500000000E+02  0.47000000000E+01 0.  1.
         -5    1    1    0    0  501  0.36890272222E+02  0.25052081530E+02  0.43539189547E+02  0.62500000000E+02  0.47000000000E+01 0.  1.
</event>
<event>
 3    0  0.4607503E-005  0.9118800E+02  0.7546771E-02  0.1235069E+00
         25   -1    0    0    0    0  0.00000000000E+00  0.00000000000E+00  0.99999998245E-14  0.12500000000E+03  0.12500000000E+03 0.  0.
          5    1    1    0  501    0 -0.29615874266E+02 -0.31409059501E+02  0.44950316715E+02  0.62500000000E+02  0.47000000000E+01 0. -1.
         -5    1    1    0    0  501  0.29615874266E+02  0.31409059501E+02 -0.44950316715E+02  0.62500000000E+02  0.47000000000E+01 0. -1.
</event>
<event>
 3    0  0.4607503E-005  0.9118800E+02  0.7546771E-02  0.1235069E+00
         25   -1    0    0    0    0  0.00000000000E+00  0.00000000000E+00  0.99999998245E-14  0.12500000000E+03  0.12500000000E+03 0.  0.
          5    1    1    0  501    0 -0.72485545567E+01 -0.57527096409E+02  0.22852825550E+02  0.62500000000E+02  0.47000000000E+01 0.  1.
         -5    1    1    0    0  501  0.72485545567E+01  0.57527096409E+02 -0.22852825550E+02  0.62500000000E+02  0.47000000000E+01 0.  1.
</event>
<event>
 3    0  0.4607503E-005  0.9118800E+02  0.7546771E-02  0.1235069E+00
         25   -1    0    0    0    0  0.00000000000E+00  0.00000000000E+00  0.99999998245E-14  0.12500000000E+03  0.12500000000E+03 0.  0.
          5    1    1    0  501    0 -0.57903622857E+01  0.62052078897E+02 -0.41377424604E+00  0.62500000000E+02  0.47000000000E+01 0.  1.
         -5    1    1    0    0  501  0.57903622857E+01 -0.62052078897E+02  0.41377424604E+00  0.62500000000E+02  0.47000000000E+01 0.  1.
</event>
<event>
 3    0  0.4607503E-005  0.9118800E+02  0.7546771E-02  0.1235069E+00
         25   -1    0    0    0    0  0.00000000000E+00  0.00000000000E+00  0.99999998245E-14  0.12500000000E+03  0.12500000000E+03 0.  0.
          5    1    1    0  501    0 -0.33426784322E+02  0.45282012031E+02  0.26764705795E+02  0.62500000000E+02  0.47000000000E+01 0. -1.
         -5    1    1    0    0  501  0.33426784322E+02 -0.45282012031E+02 -0.26764705795E+02  0.62500000000E+02  0.47000000000E+01 0. -1.
</event>
<event>
 3    0  0.4607503E-005  0.9118800E+02  0.7546771E-02  0.1235069E+00
         25   -1    0    0    0    0  0.00000000000E+00  0.00000000000E+00  0.99999998245E-14  0.12500000000E+03  0.12500000000E+03 0.  0.
          5    1    1    0  501    0 -0.42700019999E+01 -0.59509642786E+02 -0.18014702286E+02  0.62500000000E+02  0.47000000000E+01 0.  1.
         -5    1    1    0    0  501  0.42700019999E+01  0.59509642786E+02  0.18014702286E+02  0.62500000000E+02  0.47000000000E+01 0.  1.
</event>
<event>
 3    0  0.4607503E-005  0.9118800E+02  0.7546771E-02  0.1235069E+00
         25   -1    0    0    0    0  0.00000000000E+00  0.00000000000E+00  0.99999998245E-14  0.12500000000E+03  0.12500000000E+03 0.  0.
          5    1    1    0  501    0  0.60665330018E+02  0.95906269041E+01  0.10578166636E+02  0.62500000000E+02  0.47000000000E+01 0. -1.
         -5    1    1    0    0  501 -0.60665330018E+02 -0.95906269041E+01 -0.10578166636E+02  0.62500000000E+02  0.47000000000E+01 0. -1.
</event>
<event>
 3    0  0.4607503E-005  0.9118800E+02  0.7546771E-02  0.1235069E+00
         25   -1    0    0    0    0  0.00000000000E+00  0.00000000000E+00  0.99999998245E-14  0.12500000000E+03  0.12500000000E+03 0.  0.
          5    1    1    0  501    0 -0.10063461494E+02 -0.18123337920E+02  0.58774410804E+02  0.62500000000E+02  0.47000000000E+01 0.  1.
         -5    1    1    0    0  501  0.10063461494E+02  0.18123337920E+02 -0.58774410804E+02  0.62500000000E+02  0.47000000000E+01 0.  1.
</event>
<event>
 3    0  0.4607503E-005  0.9118800E+02  0.7546771E-02  0.1235069E+00
         25   -1    0    0    0    0  0.00000000000E+00  0.00000000000E+00  0.99999998245E-14  0.12500000000E+03  0.12500000000E+03 0.  0.
          5    1    1    0  501    0 -0.21853311625E+02 -0.48116624913E+02  0.33036089024E+02  0.62500000000E+02  0.47000000000E+01 0. -1.
         -5    1    1    0    0  501  0.21853311625E+02  0.48116624913E+02 -0.33036089024E+02  0.62500000000E+02  0.47000000000E+01 0. -1.
</event>
<event>
 3    0  0.4607503E-005  0.9118800E+02  0.7546771E-02  0.1235069E+00
         25   -1    0    0    0    0  0.00000000000E+00  0.00000000000E+00  0.99999998245E-14  0.12500000000E+03  0.12500000000E+03 0.  0.
          5    1    1    0  501    0  0.38821462199E+01 -0.61938894810E+02  0.57150897191E+01  0.62500000000E+02  0.47000000000E+01 0. -1.
         -5    1    1    0    0  501 -0.38821462199E+01  0.61938894810E+02 -0.57150897191E+01  0.62500000000E+02  0.47000000000E+01 0. -1.
</event>
<event>
 3    0  0.4607503E-005  0.9118800E+02  0.7546771E-02  0.1235069E+00
         25   -1    0    0    0    0  0.00000000000E+00  0.00000000000E+00  0.99999998245E-14  0.12500000000E+03  0.12500000000E+03 0.  0.
          5    1    1    0  501    0 -0.15526898042E+02 -0.60155438622E+02 -0.49394980893E+01  0.62500000000E+02  0.47000000000E+01 0. -1.
         -5    1    1    0    0  501  0.15526898042E+02  0.60155438622E+02  0.49394980893E+01  0.62500000000E+02  0.47000000000E+01 0. -1.
</event>
<event>
 3    0  0.4607503E-005  0.9118800E+02  0.7546771E-02  0.1235069E+00
         25   -1    0    0    0    0  0.00000000000E+00  0.00000000000E+00  0.99999998245E-14  0.12500000000E+03  0.12500000000E+03 0.  0.
          5    1    1    0  501    0 -0.42269837072E+02 -0.44260773430E+02 -0.11764557335E+02  0.62500000000E+02  0.47000000000E+01 0. -1.
         -5    1    1    0    0  501  0.42269837072E+02  0.44260773430E+02  0.11764557335E+02  0.62500000000E+02  0.47000000000E+01 0. -1.
</event>
<event>
 3    0  0.4607503E-005  0.9118800E+02  0.7546771E-02  0.1235069E+00
         25   -1    0    0    0    0  0.00000000000E+00  0.00000000000E+00  0.99999998245E-14  0.12500000000E+03  0.12500000000E+03 0.  0.
          5    1    1    0  501    0 -0.38258696561E+02  0.16287635459E+02  0.46423540026E+02  0.62500000000E+02  0.47000000000E+01 0.  1.
         -5    1    1    0    0  501  0.38258696561E+02 -0.16287635459E+02 -0.46423540026E+02  0.62500000000E+02  0.47000000000E+01 0.  1.
</event>
<event>
 3    0  0.4607503E-005  0.9118800E+02  0.7546771E-02  0.1235069E+00
         25   -1    0    0    0    0  0.00000000000E+00  0.00000000000E+00  0.99999998245E-14  0.12500000000E+03  0.12500000000E+03 0.  0.
          5    1    1    0  501    0  0.94610356365E+01  0.28389378612E+02 -0.54668930726E+02  0.62500000000E+02  0.47000000000E+01 0. -1.
         -5    1    1    0    0  501 -0.94610356365E+01 -0.28389378612E+02  0.54668930726E+02  0.62500000000E+02  0.47000000000E+01 0. -1.
</event>
<event>
 3    0  0.4607503E-005  0.9118800E+02  0.7546771E-02  0.1235069E+00
         25   -1    0    0    0    0  0.00000000000E+00  0.00000000000E+00  0.99999998245E-14  0.12500000000E+03  0.12500000000E+03 0.  0.
          5    1    1    0  501    0 -0.29394478788E+02 -0.12959540621E+02 -0.53405757402E+02  0.62500000000E+02  0.47000000000E+01 0.  1.
         -5    1    1    0    0  501  0.29394478788E+02  0.12959540621E+02  0.53405757402E+02  0.62500000000E+02  0.47000000000E+01 0.  1.
</event>
<event>
 3    0  0.4607503E-005  0.9118800E+02  0.7546771E-02  0.1235069E+00
         25   -1    0    0    0    0  0.00000000000E+00  0.00000000000E+00  0.99999998245E-14  0.12500000000E+03  0.12500000000E+03 0.  0.
          5    1    1    0  501    0 -0.40539498884E+02 -0.32262995508E+02 -0.34638246940E+02  0.62500000000E+02  0.47000000000E+01 0.  1.
         -5    1    1    0    0  501  0.40539498884E+02  0.32262995508E+02  0.34638246940E+02  0.62500000000E+02  0.47000000000E+01 0.  1.
</event>
<event>
 3    0  0.4607503E-005  0.9118800E+02  0.7546771E-02  0.1235069E+00
         25   -1    0    0    0    0  0.00000000000E+00  0.00000000000E+00  0.99999998245E-14  0.12500000000E+03  0.12500000000E+03 0.  0.
          5    1    1    0  501    0  0.39707333041E+02  0.22660524782E+02  0.42355499282E+02  0.62500000000E+02  0.47000000000E+01 0.  1.
         -5    1    1    0    0  501 -0.39707333041E+02 -0.22660524782E+02 -0.42355499282E+02  0.62500000000E+02  0.47000000000E+01 0.  1.
</event>
<event>
 3    0  0.4607503E-005  0.9118800E+02  0.7546771E-02  0.1235069E+00
         25   -1    0    0    0    0  0.00000000000E+00  0.00000000000E+00  0.99999998245E-14  0.12500000000E+03  0.12500000000E+03 0.  0.
          5    1    1    0  501    0 -0.47460924862E+02  0.83789048498E+01  0.39514738576E+02  0.62500000000E+02  0.47000000000E+01 0. -1.
         -5    1    1    0    0  501  0.47460924862E+02 -0.83789048498E+01 -0.39514738576E+02  0.62500000000E+02  0.47000000000E+01 0. -1.
</event>
<event>
 3    0  0.4607503E-005  0.9118800E+02  0.7546771E-02  0.1235069E+00
         25   -1    0    0    0    0  0.00000000000E+00  0.00000000000E+00  0.99999998245E-14  0.12500000000E+03  0.12500000000E+03 0.  0.
          5    1    1    0  501    0  0.36747728443E+02  0.45145047415E+01  0.50133658367E+02  0.62500000000E+02  0.47000000000E+01 0. -1.
         -5    1    1    0    0  501 -0.36747728443E+02 -0.45145047415E+01 -0.50133658367E+02  0.62500000000E+02  0.47000000000E+01 0. -1.
</event>
<event>
 3    0  0.4607503E-005  0.9118800E+02  0.7546771E-02  0.1235069E+00
         25   -1    0    0    0    0  0.00000000000E+00  0.00000000000E+00  0.99999998245E-14  0.12500000000E+03  0.12500000000E+03 0.  0.
          5    1    1    0  501    0 -0.28106696679E+01 -0.24970838951E+02  0.57032598907E+02  0.62500000000E+02  0.47000000000E+01 0.  1.
         -5    1    1    0    0  501  0.28106696679E+01  0.24970838951E+02 -0.57032598907E+02  0.62500000000E+02  0.47000000000E+01 0.  1.
</event>
<event>
 3    0  0.4607503E-005  0.9118800E+02  0.7546771E-02  0.1235069E+00
         25   -1    0    0    0    0  0.00000000000E+00  0.00000000000E+00  0.99999998245E-14  0.12500000000E+03  0.12500000000E+03 0.  0.
          5    1    1    0  501    0  0.35964821917E+02 -0.72061781115E+01 -0.50386134814E+02  0.62500000000E+02  0.47000000000E+01 0.  1.
         -5    1    1    0    0  501 -0.35964821917E+02  0.72061781115E+01  0.50386134814E+02  0.62500000000E+02  0.47000000000E+01 0.  1.
</event>
<event>
 3    0  0.4607503E-005  0.9118800E+02  0.7546771E-02  0.1235069E+00
         25   -1    0    0    0    0  0.00000000000E+00  0.00000000000E+00  0.99999998245E-14  0.12500000000E+03  0.12500000000E+03 0.  0.
          5    1    1    0  501    0 -0.18614210431E+00 -0.30034812085E+02 -0.54608016025E+02  0.62500000000E+02  0.47000000000E+01 0.  1.
         -5    1    1    0    0  501  0.18614210431E+00  0.30034812085E+02  0.54608016025E+02  0.62500000000E+02  0.47000000000E+01 0.  1.
</event>
<event>
 3    0  0.4607503E-005  0.9118800E+02  0.7546771E-02  0.1235069E+00
         25   -1    0    0    0    0  0.00000000000E+00  0.00000000000E+00  0.99999998245E-14  0.12500000000E+03  0.12500000000E+03 0.  0.
          5    1    1    0  501    0 -0.28069751447E+02 -0.45351320554E+02  0.32241382999E+02  0.62500000000E+02  0.47000000000E+01 0.  1.
         -5    1    1    0    0  501  0.28069751447E+02  0.45351320554E+02 -0.32241382999E+02  0.62500000000E+02  0.47000000000E+01 0.  1.
</event>
<event>
 3    0  0.4607503E-005  0.9118800E+02  0.7546771E-02  0.1235069E+00
         25   -1    0    0    0    0  0.00000000000E+00  0.00000000000E+00  0.99999998245E-14  0.12500000000E+03  0.12500000000E+03 0.  0.
          5    1    1    0  501    0 -0.62303994958E+02  0.13205123566E+01  0.79275426990E+00  0.62500000000E+02  0.47000000000E+01 0. -1.
         -5    1    1    0    0  501  0.62303994958E+02 -0.13205123566E+01 -0.79275426990E+00  0.62500000000E+02  0.47000000000E+01 0. -1.
</event>
<event>
 3    0  0.4607503E-005  0.9118800E+02  0.7546771E-02  0.1235069E+00
         25   -1    0    0    0    0  0.00000000000E+00  0.00000000000E+00  0.99999998245E-14  0.12500000000E+03  0.12500000000E+03 0.  0.
          5    1    1    0  501    0 -0.24756881573E+02  0.43194302965E+02 -0.37490118780E+02  0.62500000000E+02  0.47000000000E+01 0. -1.
         -5    1    1    0    0  501  0.24756881573E+02 -0.43194302965E+02  0.37490118780E+02  0.62500000000E+02  0.47000000000E+01 0. -1.
</event>
<event>
 3    0  0.4607503E-005  0.9118800E+02  0.7546771E-02  0.1235069E+00
         25   -1    0    0    0    0  0.00000000000E+00  0.00000000000E+00  0.99999998245E-14  0.12500000000E+03  0.12500000000E+03 0.  0.
          5    1    1    0  501    0  0.11208357688E+02 -0.35061089771E+02 -0.50291676270E+02  0.62500000000E+02  0.47000000000E+01 0. -1.
         -5    1    1    0    0  501 -0.11208357688E+02  0.35061089771E+02  0.50291676270E+02  0.62500000000E+02  0.47000000000E+01 0. -1.
</event>
<event>
 3    0  0.4607503E-005  0.9118800E+02  0.7546771E-02  0.1235069E+00
         25   -1    0    0    0    0  0.00000000000E+00  0.00000000000E+00  0.99999998245E-14  0.12500000000E+03  0.12500000000E+03 0.  0.
          5    1    1    0  501    0 -0.76325437209E+00  0.24859411303E+01 -0.62268752512E+02  0.62500000000E+02  0.47000000000E+01 0.  1.
         -5    1    1    0    0  501  0.76325437209E+00 -0.24859411303E+01  0.62268752512E+02  0.62500000000E+02  0.47000000000E+01 0.  1.
</event>
<event>
 3    0  0.4607503E-005  0.9118800E+02  0.7546771E-02  0.1235069E+00
         25   -1    0    0    0    0  0.00000000000E+00  0.00000000000E+00  0.99999998245E-14  0.12500000000E+03  0.12500000000E+03 0.  0.
          5    1    1    0  501    0 -0.31556409893E+01  0.51329592610E+01  0.62031078172E+02  0.62500000000E+02  0.47000000000E+01 0. -1.
         -5    1    1    0    0  501  0.31556409893E+01 -0.51329592610E+01 -0.62031078172E+02  0.62500000000E+02  0.47000000000E+01 0. -1.
</event>
<event>
 3    0  0.4607503E-005  0.9118800E+02  0.7546771E-02  0.1235069E+00
         25   -1    0    0    0    0  0.00000000000E+00  0.00000000000E+00  0.99999998245E-14  0.12500000000E+03  0.12500000000E+03 0.  0.
          5    1    1    0  501    0 -0.13771244110E+02 -0.10707680937E+02  0.59831917942E+02  0.62500000000E+02  0.47000000000E+01 0. -1.
         -5    1    1    0    0  501  0.13771244110E+02  0.10707680937E+02 -0.59831917942E+02  0.62500000000E+02  0.47000000000E+01 0. -1.
</event>
<event>
 3    0  0.4607503E-005  0.9118800E+02  0.7546771E-02  0.1235069E+00
         25   -1    0    0    0    0  0.00000000000E+00  0.00000000000E+00  0.99999998245E-14  0.12500000000E+03  0.12500000000E+03 0.  0.
          5    1    1    0  501    0  0.25345618119E+02  0.68751837175E+00  0.56932301558E+02  0.62500000000E+02  0.47000000000E+01 0.  1.
         -5    1    1    0    0  501 -0.25345618119E+02 -0.68751837175E+00 -0.56932301558E+02  0.62500000000E+02  0.47000000000E+01 0.  1.
</event>
<event>
 3    0  0.4607503E-005  0.9118800E+02  0.7546771E-02  0.1235069E+00
         25   -1    0    0    0    0  0.00000000000E+00  0.00000000000E+00  0.99999998245E-14  0.12500000000E+03  0.12500000000E+03 0.  0.
          5    1    1    0  501    0 -0.32885303407E+02  0.47681860682E+02 -0.23003412393E+02  0.62500000000E+02  0.47000000000E+01 0. -1.
         -5    1    1    0    0  501  0.32885303407E+02 -0.47681860682E+02  0.23003412393E+02  0.62500000000E+02  0.47000000000E+01 0. -1.
</event>
<event>
 3    0  0.4607503E-005  0.9118800E+02  0.7546771E-02  0.1235069E+00
         25   -1    0    0    0    0  0.00000000000E+00  0.00000000000E+00  0.99999998245E-14  0.12500000000E+03  0.12500000000E+03 0.  0.
          5    1    1    0  501    0 -0.50770485251E+02 -0.87379567571E+00 -0.36135222547E+02  0.62500000000E+02  0.47000000000E+01 0.  1.
         -5    1    1    0    0  501  0.50770485251E+02  0.87379567571E+00  0.36135222547E+02  0.62500000000E+02  0.47000000000E+01 0.  1.
</event>
<event>
 3    0  0.4607503E-005  0.9118800E+02  0.7546771E-02  0.1235069E+00
         25   -1    0    0    0    0  0.00000000000E+00  0.00000000000E+00  0.99999998245E-14  0.12500000000E+03  0.12500000000E+03 0.  0.
          5    1    1    0  501    0  0.21833222151E+02 -0.32691235222E+02 -0.48360661184E+02  0.62500000000E+02  0.47000000000E+01 0. -1.
         -5    1    1    0    0  501 -0.21833222151E+02  0.32691235222E+02  0.48360661184E+02  0.62500000000E+02  0.47000000000E+01 0. -1.
</event>
<event>
 3    0  0.4607503E-005  0.9118800E+02  0.7546771E-02  0.1235069E+00
         25   -1    0    0    0    0  0.00000000000E+00  0.00000000000E+00  0.99999998245E-14  0.12500000000E+03  0.12500000000E+03 0.  0.
          5    1    1    0  501    0 -0.30878171595E+02 -0.78468675487E+01 -0.53564215560E+02  0.62500000000E+02  0.47000000000E+01 0. -1.
         -5    1    1    0    0  501  0.30878171595E+02  0.78468675487E+01  0.53564215560E+02  0.62500000000E+02  0.47000000000E+01 0. -1.
</event>
<event>
 3    0  0.4607503E-005  0.9118800E+02  0.7546771E-02  0.1235069E+00
         25   -1    0    0    0    0  0.00000000000E+00  0.00000000000E+00  0.99999998245E-14  0.12500000000E+03  0.12500000000E+03 0.  0.
          5    1    1    0  501    0 -0.28422480277E+02  0.30372628018E+02 -0.46409331844E+02  0.62500000000E+02  0.47000000000E+01 0. -1.
         -5    1    1    0    0  501  0.28422480277E+02 -0.30372628018E+02  0.46409331844E+02  0.62500000000E+02  0.47000000000E+01 0. -1.
</event>
<event>
 3    0  0.4607503E-005  0.9118800E+02  0.7546771E-02  0.1235069E+00
         25   -1    0    0    0    0  0.00000000000E+00  0.00000000000E+00  0.99999998245E-14  0.12500000000E+03  0.12500000000E+03 0.  0.
          5    1    1    0  501    0 -0.26815013069E+02  0.55868499899E+02 -0.66201052203E+01  0.62500000000E+02  0.47000000000E+01 0.  1.
         -5    1    1    0    0  501  0.26815013069E+02 -0.55868499899E+02  0.66201052203E+01  0.62500000000E+02  0.47000000000E+01 0.  1.
</event>
<event>
 3    0  0.4607503E-005  0.9118800E+02  0.7546771E-02  0.1235069E+00
         25   -1    0    0    0    0  0.00000000000E+00  0.00000000000E+00  0.99999998245E-14  0.12500000000E+03  0.12500000000E+03 0.  0.
          5    1    1    0  501    0  0.61642945072E+02 -0.88025959916E+01  0.26118243909E+01  0.62500000000E+02  0.47000000000E+01 0. -1.
         -5    1    1    0    0  501 -0.61642945072E+02  0.88025959916E+01 -0.26118243909E+01  0.62500000000E+02  0.47000000000E+01 0. -1.
</event>
<event>
 3    0  0.4607503E-005  0.9118800E+02  0.7546771E-02  0.1235069E+00
         25   -1    0    0    0    0  0.00000000000E+00  0.00000000000E+00  0.99999998245E-14  0.12500000000E+03  0.12500000000E+03 0.  0.
          5    1    1    0  501    0  0.67105652055E+01 -0.39473704898E+02 -0.47759343968E+02  0.62500000000E+02  0.47000000000E+01 0. -1.
         -5    1    1    0    0  501 -0.67105652055E+01  0.39473704898E+02  0.47759343968E+02  0.62500000000E+02  0.47000000000E+01 0. -1.
</event>
<event>
 3    0  0.4607503E-005  0.9118800E+02  0.7546771E-02  0.1235069E+00
         25   -1    0    0    0    0  0.00000000000E+00  0.00000000000E+00  0.99999998245E-14  0.12500000000E+03  0.12500000000E+03 0.  0.
          5    1    1    0  501    0 -0.23065805417E+02  0.17196097460E+02  0.55284924280E+02  0.62500000000E+02  0.47000000000E+01 0.  1.
         -5    1    1    0    0  501  0.23065805417E+02 -0.17196097460E+02 -0.55284924280E+02  0.62500000000E+02  0.47000000000E+01 0.  1.
</event>
<event>
 3    0  0.4607503E-005  0.9118800E+02  0.7546771E-02  0.1235069E+00
         25   -1    0    0    0    0  0.00000000000E+00  0.00000000000E+00  0.99999998245E-14  0.12500000000E+03  0.12500000000E+03 0.  0.
          5    1    1    0  501    0 -0.35587321370E+02 -0.33014460719E+02  0.39086416325E+02  0.62500000000E+02  0.47000000000E+01 0. -1.
         -5    1    1    0    0  501  0.35587321370E+02  0.33014460719E+02 -0.39086416325E+02  0.62500000000E+02  0.47000000000E+01 0. -1.
</event>
<event>
 3    0  0.4607503E-005  0.9118800E+02  0.7546771E-02  0.1235069E+00
         25   -1    0    0    0    0  0.00000000000E+00  0.00000000000E+00  0.99999998245E-14  0.12500000000E+03  0.12500000000E+03 0.  0.
          5    1    1    0  501    0 -0.52569398991E+02 -0.27846795420E+02  0.18578866343E+02  0.62500000000E+02  0.47000000000E+01 0. -1.
         -5    1    1    0    0  501  0.52569398991E+02  0.27846795420E+02 -0.18578866343E+02  0.62500000000E+02  0.47000000000E+01 0. -1.
</event>
<event>
 3    0  0.4607503E-005  0.9118800E+02  0.7546771E-02  0.1235069E+00
         25   -1    0    0    0    0  0.00000000000E+00  0.00000000000E+00  0.99999998245E-14  0.12500000000E+03  0.12500000000E+03 0.  0.
          5    1    1    0  501    0 -0.55394912949E+01 -0.42609381110E+02  0.45143268353E+02  0.62500000000E+02  0.47000000000E+01 0. -1.
         -5    1    1    0    0  501  0.55394912949E+01  0.42609381110E+02 -0.45143268353E+02  0.62500000000E+02  0.47000000000E+01 0. -1.
</event>
<event>
 3    0  0.4607503E-005  0.9118800E+02  0.7546771E-02  0.1235069E+00
         25   -1    0    0    0    0  0.00000000000E+00  0.00000000000E+00  0.99999998245E-14  0.12500000000E+03  0.12500000000E+03 0.  0.
          5    1    1    0  501    0  0.46565569781E+02  0.11493861891E+02 -0.39795713962E+02  0.62500000000E+02  0.47000000000E+01 0. -1.
         -5    1    1    0    0  501 -0.46565569781E+02 -0.11493861891E+02  0.39795713962E+02  0.62500000000E+02  0.47000000000E+01 0. -1.
</event>
<event>
 3    0  0.4607503E-005  0.9118800E+02  0.7546771E-02  0.1235069E+00
         25   -1    0    0    0    0  0.00000000000E+00  0.00000000000E+00  0.99999998245E-14  0.12500000000E+03  0.12500000000E+03 0.  0.
          5    1    1    0  501    0 -0.35124910599E+02  0.24585627101E+02 -0.45232152231E+02  0.62500000000E+02  0.47000000000E+01 0.  1.
         -5    1    1    0    0  501  0.35124910599E+02 -0.24585627101E+02  0.45232152231E+02  0.62500000000E+02  0.47000000000E+01 0.  1.
</event>
<event>
 3    0  0.4607503E-005  0.9118800E+02  0.7546771E-02  0.1235069E+00
         25   -1    0    0    0    0  0.00000000000E+00  0.00000000000E+00  0.99999998245E-14  0.12500000000E+03  0.12500000000E+03 0.  0.
          5    1    1    0  501    0  0.41631723298E+02  0.14322885961E+02 -0.44111388019E+02  0.62500000000E+02  0.47000000000E+01 0.  1.
         -5    1    1    0    0  501 -0.41631723298E+02 -0.14322885961E+02  0.44111388019E+02  0.62500000000E+02  0.47000000000E+01 0.  1.
</event>
<event>
 3    0  0.4607503E-005  0.9118800E+02  0.7546771E-02  0.1235069E+00
         25   -1    0    0    0    0  0.00000000000E+00  0.00000000000E+00  0.99999998245E-14  0.12500000000E+03  0.12500000000E+03 0.  0.
          5    1    1    0  501    0  0.49154732093E+02 -0.37972503294E+02  0.51050275711E+01  0.62500000000E+02  0.47000000000E+01 0. -1.
         -5    1    1    0    0  501 -0.49154732093E+02  0.37972503294E+02 -0.51050275711E+01  0.62500000000E+02  0.47000000000E+01 0. -1.
</event>
<event>
 3    0  0.4607503E-005  0.9118800E+02  0.7546771E-02  0.1235069E+00
         25   -1    0    0    0    0  0.00000000000E+00  0.00000000000E+00  0.99999998245E-14  0.12500000000E+03  0.12500000000E+03 0.  0.
          5    1    1    0  501    0  0.37945764708E+02 -0.56068838749E+01  0.49120686008E+02  0.62500000000E+02  0.47000000000E+01 0.  1.
         -5    1    1    0    0  501 -0.37945764708E+02  0.56068838749E+01 -0.49120686008E+02  0.62500000000E+02  0.47000000000E+01 0.  1.
</event>
<event>
 3    0  0.4607503E-005  0.9118800E+02  0.7546771E-02  0.1235069E+00
         25   -1    0    0    0    0  0.00000000000E+00  0.00000000000E+00  0.99999998245E-14  0.12500000000E+03  0.12500000000E+03 0.  0.
          5    1    1    0  501    0 -0.42274722789E+02  0.41697809177E+02 -0.18928827827E+02  0.62500000000E+02  0.47000000000E+01 0. -1.
         -5    1    1    0    0  501  0.42274722789E+02 -0.41697809177E+02  0.18928827827E+02  0.62500000000E+02  0.47000000000E+01 0. -1.
</event>
<event>
 3    0  0.4607503E-005  0.9118800E+02  0.7546771E-02  0.1235069E+00
         25   -1    0    0    0    0  0.00000000000E+00  0.00000000000E+00  0.99999998245E-14  0.12500000000E+03  0.12500000000E+03 0.  0.
          5    1    1    0  501    0 -0.52888156559E+01  0.33346229261E+02 -0.52385278686E+02  0.62500000000E+02  0.47000000000E+01 0.  1.
         -5    1    1    0    0  501  0.52888156559E+01 -0.33346229261E+02  0.52385278686E+02  0.62500000000E+02  0.47000000000E+01 0.  1.
</event>
<event>
 3    0  0.4607503E-005  0.9118800E+02  0.7546771E-02  0.1235069E+00
         25   -1    0    0    0    0  0.00000000000E+00  0.00000000000E+00  0.99999998245E-14  0.12500000000E+03  0.12500000000E+03 0.  0.
          5    1    1    0  501    0 -0.21603062103E+02  0.38239441239E+02 -0.44217788745E+02  0.62500000000E+02  0.47000000000E+01 0.  1.
         -5    1    1    0    0  501  0.21603062103E+02 -0.38239441239E+02  0.44217788745E+02  0.62500000000E+02  0.47000000000E+01 0.  1.
</event>
<event>
 3    0  0.4607503E-005  0.9118800E+02  0.7546771E-02  0.1235069E+00
         25   -1    0    0    0    0  0.00000000000E+00  0.00000000000E+00  0.99999998245E-14  0.12500000000E+03  0.12500000000E+03 0.  0.
          5    1    1    0  501    0  0.78548142901E+01  0.24718895186E+02  0.56669551906E+02  0.62500000000E+02  0.47000000000E+01 0.  1.
         -5    1    1    0    0  501 -0.78548142901E+01 -0.24718895186E+02 -0.56669551906E+02  0.62500000000E+02  0.47000000000E+01 0.  1.
</event>
<event>
 3    0  0.4607503E-005  0.9118800E+02  0.7546771E-02  0.1235069E+00
         25   -1    0    0    0    0  0.00000000000E+00  0.00000000000E+00  0.99999998245E-14  0.12500000000E+03  0.12500000000E+03 0.  0.
          5    1    1    0  501    0 -0.72868489415E+01  0.61231379294E+02 -0.90432307398E+01  0.62500000000E+02  0.47000000000E+01 0. -1.
         -5    1    1    0    0  501  0.72868489415E+01 -0.61231379294E+02  0.90432307398E+01  0.62500000000E+02  0.47000000000E+01 0. -1.
</event>
<event>
 3    0  0.4607503E-005  0.9118800E+02  0.7546771E-02  0.1235069E+00
         25   -1    0    0    0    0  0.00000000000E+00  0.00000000000E+00  0.99999998245E-14  0.12500000000E+03  0.12500000000E+03 0.  0.
          5    1    1    0  501    0  0.44037997626E+02  0.44074697036E+02  0.14952746433E+01  0.62500000000E+02  0.47000000000E+01 0.  1.
         -5    1    1    0    0  501 -0.44037997626E+02 -0.44074697036E+02 -0.14952746433E+01  0.62500000000E+02  0.47000000000E+01 0.  1.
</event>
<event>
 3    0  0.4607503E-005  0.9118800E+02  0.7546771E-02  0.1235069E+00
         25   -1    0    0    0    0  0.00000000000E+00  0.00000000000E+00  0.99999998245E-14  0.12500000000E+03  0.12500000000E+03 0.  0.
          5    1    1    0  501    0  0.29188764259E+02  0.25213708495E+02  0.48953497781E+02  0.62500000000E+02  0.47000000000E+01 0. -1.
         -5    1    1    0    0  501 -0.29188764259E+02 -0.25213708495E+02 -0.48953497781E+02  0.62500000000E+02  0.47000000000E+01 0. -1.
</event>
<event>
 3    0  0.4607503E-005  0.9118800E+02  0.7546771E-02  0.1235069E+00
         25   -1    0    0    0    0  0.00000000000E+00  0.00000000000E+00  0.99999998245E-14  0.12500000000E+03  0.12500000000E+03 0.  0.
          5    1    1    0  501    0  0.38724480121E+02  0.48594370009E+02 -0.48126752238E+01  0.62500000000E+02  0.47000000000E+01 0. -1.
         -5    1    1    0    0  501 -0.38724480121E+02 -0.48594370009E+02  0.48126752238E+01  0.62500000000E+02  0.47000000000E+01 0. -1.
</event>
<event>
 3    0  0.4607503E-005  0.9118800E+02  0.7546771E-02  0.1235069E+00
         25   -1    0    0    0    0  0.00000000000E+00  0.00000000000E+00  0.99999998245E-14  0.12500000000E+03  0.12500000000E+03 0.  0.
          5    1    1    0  501    0  0.18818230929E+02 -0.45502843258E+02 -0.38203735945E+02  0.62500000000E+02  0.47000000000E+01 0.  1.
         -5    1    1    0    0  501 -0.18818230929E+02  0.45502843258E+02  0.38203735945E+02  0.62500000000E+02  0.47000000000E+01 0.  1.
</event>
<event>
 3    0  0.4607503E-005  0.9118800E+02  0.7546771E-02  0.1235069E+00
         25   -1    0    0    0    0  0.00000000000E+00  0.00000000000E+00  0.99999998245E-14  0.12500000000E+03  0.12500000000E+03 0.  0.
          5    1    1    0  501    0 -0.22252294796E+02  0.55057723109E+02 -0.18911438399E+02  0.62500000000E+02  0.47000000000E+01 0.  1.
         -5    1    1    0    0  501  0.22252294796E+02 -0.55057723109E+02  0.18911438399E+02  0.62500000000E+02  0.47000000000E+01 0.  1.
</event>
<event>
 3    0  0.4607503E-005  0.9118800E+02  0.7546771E-02  0.1235069E+00
         25   -1    0    0    0    0  0.00000000000E+00  0.00000000000E+00  0.99999998245E-14  0.12500000000E+03  0.12500000000E+03 0.  0.
          5    1    1    0  501    0  0.44563169811E+02  0.22339322094E+01 -0.43511991948E+02  0.62500000000E+02  0.47000000000E+01 0. -1.
         -5    1    1    0    0  501 -0.44563169811E+02 -0.22339322094E+01  0.43511991948E+02  0.62500000000E+02  0.47000000000E+01 0. -1.
</event>
<event>
 3    0  0.4607503E-005  0.9118800E+02  0.7546771E-02  0.1235069E+00
         25   -1    0    0    0    0  0.00000000000E+00  0.00000000000E+00  0.99999998245E-14  0.12500000000E+03  0.12500000000E+03 0.  0.
          5    1    1    0  501    0 -0.89275627097E+01  0.14914456485E+02 -0.59849959163E+02  0.62500000000E+02  0.47000000000E+01 0. -1.
         -5    1    1    0    0  501  0.89275627097E+01 -0.14914456485E+02  0.59849959163E+02  0.62500000000E+02  0.47000000000E+01 0. -1.
</event>
<event>
 3    0  0.4607503E-005  0.9118800E+02  0.7546771E-02  0.1235069E+00
         25   -1    0    0    0    0  0.00000000000E+00  0.00000000000E+00  0.99999998245E-14  0.12500000000E+03  0.12500000000E+03 0.  0.
          5    1    1    0  501    0  0.18496597185E+02 -0.52146932659E+02  0.28683328029E+02  0.62500000000E+02  0.47000000000E+01 0. -1.
         -5    1    1    0    0  501 -0.18496597185E+02  0.52146932659E+02 -0.28683328029E+02  0.62500000000E+02  0.47000000000E+01 0. -1.
</event>
<event>
 3    0  0.4607503E-005  0.9118800E+02  0.7546771E-02  0.1235069E+00
         25   -1    0    0    0    0  0.00000000000E+00  0.00000000000E+00  0.99999998245E-14  0.12500000000E+03  0.12500000000E+03 0.  0.
          5    1    1    0  501    0  0.10943432967E+02  0.61138413479E+02 -0.51473946958E+01  0.62500000000E+02  0.47000000000E+01 0. -1.
         -5    1    1    0    0  501 -0.10943432967E+02 -0.61138413479E+02  0.51473946958E+01  0.62500000000E+02  0.47000000000E+01 0. -1.
</event>
<event>
 3    0  0.4607503E-005  0.9118800E+02  0.7546771E-02  0.1235069E+00
         25   -1    0    0    0    0  0.00000000000E+00  0.00000000000E+00  0.99999998245E-14  0.12500000000E+03  0.12500000000E+03 0.  0.
          5    1    1    0  501    0  0.23654921397E+02  0.49345941934E+02 -0.29825873136E+02  0.62500000000E+02  0.47000000000E+01 0. -1.
         -5    1    1    0    0  501 -0.23654921397E+02 -0.49345941934E+02  0.29825873136E+02  0.62500000000E+02  0.47000000000E+01 0. -1.
</event>
<event>
 3    0  0.4607503E-005  0.9118800E+02  0.7546771E-02  0.1235069E+00
         25   -1    0    0    0    0  0.00000000000E+00  0.00000000000E+00  0.99999998245E-14  0.12500000000E+03  0.12500000000E+03 0.  0.
          5    1    1    0  501    0  0.56869574175E+01 -0.60785640090E+02  0.12526949916E+02  0.62500000000E+02  0.47000000000E+01 0. -1.
         -5    1    1    0    0  501 -0.56869574175E+01  0.60785640090E+02 -0.12526949916E+02  0.62500000000E+02  0.47000000000E+01 0. -1.
</event>
<event>
 3    0  0.4607503E-005  0.9118800E+02  0.7546771E-02  0.1235069E+00
         25   -1    0    0    0    0  0.00000000000E+00  0.00000000000E+00  0.99999998245E-14  0.12500000000E+03  0.12500000000E+03 0.  0.
          5    1    1    0  501    0 -0.50702699280E+02 -0.35391741631E+02 -0.77987761911E+01  0.62500000000E+02  0.47000000000E+01 0. -1.
         -5    1    1    0    0  501  0.50702699280E+02  0.35391741631E+02  0.77987761911E+01  0.62500000000E+02  0.47000000000E+01 0. -1.
</event>
<event>
 3    0  0.4607503E-005  0.9118800E+02  0.7546771E-02  0.1235069E+00
         25   -1    0    0    0    0  0.00000000000E+00  0.00000000000E+00  0.99999998245E-14  0.12500000000E+03  0.12500000000E+03 0.  0.
          5    1    1    0  501    0  0.55301127421E+02 -0.11706811524E+02  0.26246825902E+02  0.62500000000E+02  0.47000000000E+01 0.  1.
         -5    1    1    0    0  501 -0.55301127421E+02  0.11706811524E+02 -0.26246825902E+02  0.62500000000E+02  0.47000000000E+01 0.  1.
</event>
<event>
 3    0  0.4607503E-005  0.9118800E+02  0.7546771E-02  0.1235069E+00
         25   -1    0    0    0    0  0.00000000000E+00  0.00000000000E+00  0.99999998245E-14  0.12500000000E+03  0.12500000000E+03 0.  0.
          5    1    1    0  501    0 -0.61009102968E+02 -0.66687147068E+01 -0.10843320487E+02  0.62500000000E+02  0.47000000000E+01 0.  1.
         -5    1    1    0    0  501  0.61009102968E+02  0.66687147068E+01  0.10843320487E+02  0.62500000000E+02  0.47000000000E+01 0.  1.
</event>
<event>
 3    0  0.4607503E-005  0.9118800E+02  0.7546771E-02  0.1235069E+00
         25   -1    0    0    0    0  0.00000000000E+00  0.00000000000E+00  0.99999998245E-14  0.12500000000E+03  0.12500000000E+03 0.  0.
          5    1    1    0  501    0 -0.29529193834E+02 -0.26638969847E+02 -0.47984914265E+02  0.62500000000E+02  0.47000000000E+01 0. -1.
         -5    1    1    0    0  501  0.29529193834E+02  0.26638969847E+02  0.47984914265E+02  0.62500000000E+02  0.47000000000E+01 0. -1.
</event>
<event>
 3    0  0.4607503E-005  0.9118800E+02  0.7546771E-02  0.1235069E+00
         25   -1    0    0    0    0  0.00000000000E+00  0.00000000000E+00  0.99999998245E-14  0.12500000000E+03  0.12500000000E+03 0.  0.
          5    1    1    0  501    0  0.17489070949E+02  0.12161001281E+02  0.58569637571E+02  0.62500000000E+02  0.47000000000E+01 0.  1.
         -5    1    1    0    0  501 -0.17489070949E+02 -0.12161001281E+02 -0.58569637571E+02  0.62500000000E+02  0.47000000000E+01 0.  1.
</event>
<event>
 3    0  0.4607503E-005  0.9118800E+02  0.7546771E-02  0.1235069E+00
         25   -1    0    0    0    0  0.00000000000E+00  0.00000000000E+00  0.99999998245E-14  0.12500000000E+03  0.12500000000E+03 0.  0.
          5    1    1    0  501    0 -0.23100321162E+02  0.29589452484E+02 -0.49749366468E+02  0.62500000000E+02  0.47000000000E+01 0.  1.
         -5    1    1    0    0  501  0.23100321162E+02 -0.29589452484E+02  0.49749366468E+02  0.62500000000E+02  0.47000000000E+01 0.  1.
</event>
<event>
 3    0  0.4607503E-005  0.9118800E+02  0.7546771E-02  0.1235069E+00
         25   -1    0    0    0    0  0.00000000000E+00  0.00000000000E+00  0.99999998245E-14  0.12500000000E+03  0.12500000000E+03 0.  0.
          5    1    1    0  501    0 -0.27791643772E+01 -0.50584044942E+02 -0.36300008852E+02  0.62500000000E+02  0.47000000000E+01 0. -1.
         -5    1    1    0    0  501  0.27791643772E+01  0.50584044942E+02  0.36300008852E+02  0.62500000000E+02  0.47000000000E+01 0. -1.
</event>
<event>
 3    0  0.4607503E-005  0.9118800E+02  0.7546771E-02  0.1235069E+00
         25   -1    0    0    0    0  0.00000000000E+00  0.00000000000E+00  0.99999998245E-14  0.12500000000E+03  0.12500000000E+03 0.  0.
          5    1    1    0  501    0  0.59682055106E+02  0.10565266860E+02 -0.14511631007E+02  0.62500000000E+02  0.47000000000E+01 0.  1.
         -5    1    1    0    0  501 -0.59682055106E+02 -0.10565266860E+02  0.14511631007E+02  0.62500000000E+02  0.47000000000E+01 0.  1.
</event>
<event>
 3    0  0.4607503E-005  0.9118800E+02  0.7546771E-02  0.1235069E+00
         25   -1    0    0    0    0  0.00000000000E+00  0.00000000000E+00  0.99999998245E-14  0.12500000000E+03  0.12500000000E+03 0.  0.
          5    1    1    0  501    0 -0.42634583037E+02 -0.25471864025E+02 -0.37651513547E+02  0.62500000000E+02  0.47000000000E+01 0. -1.
         -5    1    1    0    0  501  0.42634583037E+02  0.25471864025E+02  0.37651513547E+02  0.62500000000E+02  0.47000000000E+01 0. -1.
</event>
<event>
 3    0  0.4607503E-005  0.9118800E+02  0.7546771E-02  0.1235069E+00
         25   -1    0    0    0    0  0.00000000000E+00  0.00000000000E+00  0.99999998245E-14  0.12500000000E+03  0.12500000000E+03 0.  0.
          5    1    1    0  501    0  0.32917898112E+01 -0.15162469630E+02  0.60360778943E+02  0.62500000000E+02  0.47000000000E+01 0. -1.
         -5    1    1    0    0  501 -0.32917898112E+01  0.15162469630E+02 -0.60360778943E+02  0.62500000000E+02  0.47000000000E+01 0. -1.
</event>
<event>
 3    0  0.4607503E-005  0.9118800E+02  0.7546771E-02  0.1235069E+00
         25   -1    0    0    0    0  0.00000000000E+00  0.00000000000E+00  0.99999998245E-14  0.12500000000E+03  0.12500000000E+03 0.  0.
          5    1    1    0  501    0  0.51051958895E+02 -0.33866787568E+02  0.11441074809E+02  0.62500000000E+02  0.47000000000E+01 0.  1.
         -5    1    1    0    0  501 -0.51051958895E+02  0.33866787568E+02 -0.11441074809E+02  0.62500000000E+02  0.47000000000E+01 0.  1.
</event>
<event>
 3    0  0.4607503E-005  0.9118800E+02  0.7546771E-02  0.1235069E+00
         25   -1    0    0    0    0  0.00000000000E+00  0.00000000000E+00  0.99999998245E-14  0.12500000000E+03  0.12500000000E+03 0.  0.
          5    1    1    0  501    0 -0.51213254078E+02 -0.10269945261E+02  0.33998394536E+02  0.62500000000E+02  0.47000000000E+01 0.  1.
         -5    1    1    0    0  501  0.51213254078E+02  0.10269945261E+02 -0.33998394536E+02  0.62500000000E+02  0.47000000000E+01 0.  1.
</event>
<event>
 3    0  0.4607503E-005  0.9118800E+02  0.7546771E-02  0.1235069E+00
         25   -1    0    0    0    0  0.00000000000E+00  0.00000000000E+00  0.99999998245E-14  0.12500000000E+03  0.12500000000E+03 0.  0.
          5    1    1    0  501    0 -0.28492963700E+02  0.50991746611E+02 -0.21729077227E+02  0.62500000000E+02  0.47000000000E+01 0.  1.
         -5    1    1    0    0  501  0.28492963700E+02 -0.50991746611E+02  0.21729077227E+02  0.62500000000E+02  0.47000000000E+01 0.  1.
</event>
<event>
 3    0  0.4607503E-005  0.9118800E+02  0.7546771E-02  0.1235069E+00
         25   -1    0    0    0    0  0.00000000000E+00  0.00000000000E+00  0.99999998245E-14  0.12500000000E+03  0.12500000000E+03 0.  0.
          5    1    1    0  501    0 -0.46059571193E+02  0.16027952969E+02 -0.38804389251E+02  0.62500000000E+02  0.47000000000E+01 0. -1.
         -5    1    1    0    0  501  0.46059571193E+02 -0.16027952969E+02  0.38804389251E+02  0.62500000000E+02  0.47000000000E+01 0. -1.
</event>
<event>
 3    0  0.4607503E-005  0.9118800E+02  0.7546771E-02  0.1235069E+00
         25   -1    0    0    0    0  0.00000000000E+00  0.00000000000E+00  0.99999998245E-14  0.12500000000E+03  0.12500000000E+03 0.  0.
          5    1    1    0  501    0 -0.14820258010E+02 -0.52486364702E+02  0.30161257814E+02  0.62500000000E+02  0.47000000000E+01 0.  1.
         -5    1    1    0    0  501  0.14820258010E+02  0.52486364702E+02 -0.30161257814E+02  0.62500000000E+02  0.47000000000E+01 0.  1.
</event>
<event>
 3    0  0.4607503E-005  0.9118800E+02  0.7546771E-02  0.1235069E+00
         25   -1    0    0    0    0  0.00000000000E+00  0.00000000000E+00  0.99999998245E-14  0.12500000000E+03  0.12500000000E+03 0.  0.
          5    1    1    0  501    0 -0.81284900594E+01  0.94418326825E+00  0.61783461924E+02  0.62500000000E+02  0.47000000000E+01 0. -1.
         -5    1    1    0    0  501  0.81284900594E+01 -0.94418326825E+00 -0.61783461924E+02  0.62500000000E+02  0.47000000000E+01 0. -1.
</event>
<event>
 3    0  0.4607503E-005  0.9118800E+02  0.7546771E-02  0.1235069E+00
         25   -1    0    0    0    0  0.00000000000E+00  0.00000000000E+00  0.99999998245E-14  0.12500000000E+03  0.12500000000E+03 0.  0.
          5    1    1    0  501    0  0.24797623518E+02  0.14461875647E+02 -0.55318098491E+02  0.62500000000E+02  0.47000000000E+01 0.  1.
         -5    1    1    0    0  501 -0.24797623518E+02 -0.14461875647E+02  0.55318098491E+02  0.62500000000E+02  0.47000000000E+01 0.  1.
</event>
<event>
 3    0  0.4607503E-005  0.9118800E+02  0.7546771E-02  0.1235069E+00
         25   -1    0    0    0    0  0.00000000000E+00  0.00000000000E+00  0.99999998245E-14  0.12500000000E+03  0.12500000000E+03 0.  0.
          5    1    1    0  501    0  0.53820655570E+02 -0.30237488295E+02  0.85551934905E+01  0.62500000000E+02  0.47000000000E+01 0. -1.
         -5    1    1    0    0  501 -0.53820655570E+02  0.30237488295E+02 -0.85551934905E+01  0.62500000000E+02  0.47000000000E+01 0. -1.
</event>
<event>
 3    0  0.4607503E-005  0.9118800E+02  0.7546771E-02  0.1235069E+00
         25   -1    0    0    0    0  0.00000000000E+00  0.00000000000E+00  0.99999998245E-14  0.12500000000E+03  0.12500000000E+03 0.  0.
          5    1    1    0  501    0 -0.39580431043E+02  0.33017948446E+02  0.35033763127E+02  0.62500000000E+02  0.47000000000E+01 0. -1.
         -5    1    1    0    0  501  0.39580431043E+02 -0.33017948446E+02 -0.35033763127E+02  0.62500000000E+02  0.47000000000E+01 0. -1.
</event>
<event>
 3    0  0.4607503E-005  0.9118800E+02  0.7546771E-02  0.1235069E+00
         25   -1    0    0    0    0  0.00000000000E+00  0.00000000000E+00  0.99999998245E-14  0.12500000000E+03  0.12500000000E+03 0.  0.
          5    1    1    0  501    0 -0.38259245597E+02 -0.48172716416E+01 -0.48961045948E+02  0.62500000000E+02  0.47000000000E+01 0.  1.
         -5    1    1    0    0  501  0.38259245597E+02  0.48172716416E+01  0.48961045948E+02  0.62500000000E+02  0.47000000000E+01 0.  1.
</event>
<event>
 3    0  0.4607503E-005  0.9118800E+02  0.7546771E-02  0.1235069E+00
         25   -1    0    0    0    0  0.00000000000E+00  0.00000000000E+00  0.99999998245E-14  0.12500000000E+03  0.12500000000E+03 0.  0.
          5    1    1    0  501    0 -0.46923896272E+02  0.21857568662E+02 -0.34706694610E+02  0.62500000000E+02  0.47000000000E+01 0.  1.
         -5    1    1    0    0  501  0.46923896272E+02 -0.21857568662E+02  0.34706694610E+02  0.62500000000E+02  0.47000000000E+01 0.  1.
</event>
<event>
 3    0  0.4607503E-005  0.9118800E+02  0.7546771E-02  0.1235069E+00
         25   -1    0    0    0    0  0.00000000000E+00  0.00000000000E+00  0.99999998245E-14  0.12500000000E+03  0.12500000000E+03 0.  0.
          5    1    1    0  501    0 -0.47114546602E+02  0.12859710316E+02 -0.38717016273E+02  0.62500000000E+02  0.47000000000E+01 0. -1.
         -5    1    1    0    0  501  0.47114546602E+02 -0.12859710316E+02  0.38717016273E+02  0.62500000000E+02  0.47000000000E+01 0. -1.
</event>
<event>
 3    0  0.4607503E-005  0.9118800E+02  0.7546771E-02  0.1235069E+00
         25   -1    0    0    0    0  0.00000000000E+00  0.00000000000E+00  0.99999998245E-14  0.12500000000E+03  0.12500000000E+03 0.  0.
          5    1    1    0  501    0 -0.49924354344E+02 -0.10925133242E+02  0.35670159896E+02  0.62500000000E+02  0.47000000000E+01 0.  1.
         -5    1    1    0    0  501  0.49924354344E+02  0.10925133242E+02 -0.35670159896E+02  0.62500000000E+02  0.47000000000E+01 0.  1.
</event>
<event>
 3    0  0.4607503E-005  0.9118800E+02  0.7546771E-02  0.1235069E+00
         25   -1    0    0    0    0  0.00000000000E+00  0.00000000000E+00  0.99999998245E-14  0.12500000000E+03  0.12500000000E+03 0.  0.
          5    1    1    0  501    0  0.17860088009E+02 -0.48731638652E+01  0.59509911193E+02  0.62500000000E+02  0.47000000000E+01 0. -1.
         -5    1    1    0    0  501 -0.17860088009E+02  0.48731638652E+01 -0.59509911193E+02  0.62500000000E+02  0.47000000000E+01 0. -1.
</event>
<event>
 3    0  0.4607503E-005  0.9118800E+02  0.7546771E-02  0.1235069E+00
         25   -1    0    0    0    0  0.00000000000E+00  0.00000000000E+00  0.99999998245E-14  0.12500000000E+03  0.12500000000E+03 0.  0.
          5    1    1    0  501    0  0.46245622748E+02  0.17751934991E+02  0.37820248290E+02  0.62500000000E+02  0.47000000000E+01 0.  1.
         -5    1    1    0    0  501 -0.46245622748E+02 -0.17751934991E+02 -0.37820248290E+02  0.62500000000E+02  0.47000000000E+01 0.  1.
</event>
<event>
 3    0  0.4607503E-005  0.9118800E+02  0.7546771E-02  0.1235069E+00
         25   -1    0    0    0    0  0.00000000000E+00  0.00000000000E+00  0.99999998245E-14  0.12500000000E+03  0.12500000000E+03 0.  0.
          5    1    1    0  501    0 -0.57217265387E+02  0.97277275323E+01 -0.22709378210E+02  0.62500000000E+02  0.47000000000E+01 0. -1.
         -5    1    1    0    0  501  0.57217265387E+02 -0.97277275323E+01  0.22709378210E+02  0.62500000000E+02  0.47000000000E+01 0. -1.
</event>
<event>
 3    0  0.4607503E-005  0.9118800E+02  0.7546771E-02  0.1235069E+00
         25   -1    0    0    0    0  0.00000000000E+00  0.00000000000E+00  0.99999998245E-14  0.12500000000E+03  0.12500000000E+03 0.  0.
          5    1    1    0  501    0 -0.12752377212E+02  0.50747204279E+02 -0.33856434149E+02  0.62500000000E+02  0.47000000000E+01 0.  1.
         -5    1    1    0    0  501  0.12752377212E+02 -0.50747204279E+02  0.33856434149E+02  0.62500000000E+02  0.47000000000E+01 0.  1.
</event>
<event>
 3    0  0.4607503E-005  0.9118800E+02  0.7546771E-02  0.1235069E+00
         25   -1    0    0    0    0  0.00000000000E+00  0.00000000000E+00  0.99999998245E-14  0.12500000000E+03  0.12500000000E+03 0.  0.
          5    1    1    0  501    0  0.21774002125E+01 -0.65559264185E+01  0.61938992219E+02  0.62500000000E+02  0.47000000000E+01 0. -1.
         -5    1    1    0    0  501 -0.21774002125E+01  0.65559264185E+01 -0.61938992219E+02  0.62500000000E+02  0.47000000000E+01 0. -1.
</event>
<event>
 3    0  0.4607503E-005  0.9118800E+02  0.7546771E-02  0.1235069E+00
         25   -1    0    0    0    0  0.00000000000E+00  0.00000000000E+00  0.99999998245E-14  0.12500000000E+03  0.12500000000E+03 0.  0.
          5    1    1    0  501    0 -0.25182225742E+02 -0.39011507647E+02  0.41570636004E+02  0.62500000000E+02  0.47000000000E+01 0. -1.
         -5    1    1    0    0  501  0.25182225742E+02  0.39011507647E+02 -0.41570636004E+02  0.62500000000E+02  0.47000000000E+01 0. -1.
</event>
<event>
 3    0  0.4607503E-005  0.9118800E+02  0.7546771E-02  0.1235069E+00
         25   -1    0    0    0    0  0.00000000000E+00  0.00000000000E+00  0.99999998245E-14  0.12500000000E+03  0.12500000000E+03 0.  0.
          5    1    1    0  501    0  0.17456793618E+02 -0.56703287574E+02 -0.19082912117E+02  0.62500000000E+02  0.47000000000E+01 0.  1.
         -5    1    1    0    0  501 -0.17456793618E+02  0.56703287574E+02  0.19082912117E+02  0.62500000000E+02  0.47000000000E+01 0.  1.
</event>
<event>
 3    0  0.4607503E-005  0.9118800E+02  0.7546771E-02  0.1235069E+00
         25   -1    0    0    0    0  0.00000000000E+00  0.00000000000E+00  0.99999998245E-14  0.12500000000E+03  0.12500000000E+03 0.  0.
          5    1    1    0  501    0  0.14757546146E+00  0.36047579693E+02  0.50840045434E+02  0.62500000000E+02  0.47000000000E+01 0.  1.
         -5    1    1    0    0  501 -0.14757546146E+00 -0.36047579693E+02 -0.50840045434E+02  0.62500000000E+02  0.47000000000E+01 0.  1.
</event>
<event>
 3    0  0.4607503E-005  0.9118800E+02  0.7546771E-02  0.1235069E+00
         25   -1    0    0    0    0  0.00000000000E+00  0.00000000000E+00  0.99999998245E-14  0.12500000000E+03  0.12500000000E+03 0.  0.
          5    1    1    0  501    0  0.24338341355E+02 -0.10479728817E+01 -0.57364683325E+02  0.62500000000E+02  0.47000000000E+01 0. -1.
         -5    1    1    0    0  501 -0.24338341355E+02  0.10479728817E+01  0.57364683325E+02  0.62500000000E+02  0.47000000000E+01 0. -1.
</event>
<event>
 3    0  0.4607503E-005  0.9118800E+02  0.7546771E-02  0.1235069E+00
         25   -1    0    0    0    0  0.00000000000E+00  0.00000000000E+00  0.99999998245E-14  0.12500000000E+03  0.12500000000E+03 0.  0.
          5    1    1    0  501    0 -0.55140103622E+02 -0.21747081402E+02 -0.19255997067E+02  0.62500000000E+02  0.47000000000E+01 0. -1.
         -5    1    1    0    0  501  0.55140103622E+02  0.21747081402E+02  0.19255997067E+02  0.62500000000E+02  0.47000000000E+01 0. -1.
</event>
<event>
 3    0  0.4607503E-005  0.9118800E+02  0.7546771E-02  0.1235069E+00
         25   -1    0    0    0    0  0.00000000000E+00  0.00000000000E+00  0.99999998245E-14  0.12500000000E+03  0.12500000000E+03 0.  0.
          5    1    1    0  501    0 -0.18892991235E+02 -0.16991941280E+02 -0.56907721917E+02  0.62500000000E+02  0.47000000000E+01 0. -1.
         -5    1    1    0    0  501  0.18892991235E+02  0.16991941280E+02  0.56907721917E+02  0.62500000000E+02  0.47000000000E+01 0. -1.
</event>
<event>
 3    0  0.4607503E-005  0.9118800E+02  0.7546771E-02  0.1235069E+00
         25   -1    0    0    0    0  0.00000000000E+00  0.00000000000E+00  0.99999998245E-14  0.12500000000E+03  0.12500000000E+03 0.  0.
          5    1    1    0  501    0  0.48926039770E+02 -0.36886573680E+02 -0.11392248005E+02  0.62500000000E+02  0.47000000000E+01 0.  1.
         -5    1    1    0    0  501 -0.48926039770E+02  0.36886573680E+02  0.11392248005E+02  0.62500000000E+02  0.47000000000E+01 0.  1.
</event>
<event>
 3    0  0.4607503E-005  0.9118800E+02  0.7546771E-02  0.1235069E+00
         25   -1    0    0    0    0  0.00000000000E+00  0.00000000000E+00  0.99999998245E-14  0.12500000000E+03  0.12500000000E+03 0.  0.
          5    1    1    0  501    0  0.10765776517E+02  0.44760731155E+02 -0.42008749118E+02  0.62500000000E+02  0.47000000000E+01 0.  1.
         -5    1    1    0    0  501 -0.10765776517E+02 -0.44760731155E+02  0.42008749118E+02  0.62500000000E+02  0.47000000000E+01 0.  1.
</event>
<event>
 3    0  0.4607503E-005  0.9118800E+02  0.7546771E-02  0.1235069E+00
         25   -1    0    0    0    0  0.00000000000E+00  0.00000000000E+00  0.99999998245E-14  0.12500000000E+03  0.12500000000E+03 0.  0.
          5    1    1    0  501    0 -0.19146860189E+02 -0.18755154817E+02  0.56265459322E+02  0.62500000000E+02  0.47000000000E+01 0. -1.
         -5    1    1    0    0  501  0.19146860189E+02  0.18755154817E+02 -0.56265459322E+02  0.62500000000E+02  0.47000000000E+01 0. -1.
</event>
<event>
 3    0  0.4607503E-005  0.9118800E+02  0.7546771E-02  0.1235069E+00
         25   -1    0    0    0    0  0.00000000000E+00  0.00000000000E+00  0.99999998245E-14  0.12500000000E+03  0.12500000000E+03 0.  0.
          5    1    1    0  501    0 -0.82123209734E+01 -0.11580538248E+02 -0.60684503113E+02  0.62500000000E+02  0.47000000000E+01 0. -1.
         -5    1    1    0    0  501  0.82123209734E+01  0.11580538248E+02  0.60684503113E+02  0.62500000000E+02  0.47000000000E+01 0. -1.
</event>
<event>
 3    0  0.4607503E-005  0.9118800E+02  0.7546771E-02  0.1235069E+00
         25   -1    0    0    0    0  0.00000000000E+00  0.00000000000E+00  0.99999998245E-14  0.12500000000E+03  0.12500000000E+03 0.  0.
          5    1    1    0  501    0  0.25149533439E+02 -0.45286189403E+01 -0.56843228078E+02  0.62500000000E+02  0.47000000000E+01 0. -1.
         -5    1    1    0    0  501 -0.25149533439E+02  0.45286189403E+01  0.56843228078E+02  0.62500000000E+02  0.47000000000E+01 0. -1.
</event>
<event>
 3    0  0.4607503E-005  0.9118800E+02  0.7546771E-02  0.1235069E+00
         25   -1    0    0    0    0  0.00000000000E+00  0.00000000000E+00  0.99999998245E-14  0.12500000000E+03  0.12500000000E+03 0.  0.
          5    1    1    0  501    0 -0.46663876132E+02 -0.69161612450E+01  0.40728483620E+02  0.62500000000E+02  0.47000000000E+01 0.  1.
         -5    1    1    0    0  501  0.46663876132E+02  0.69161612450E+01 -0.40728483620E+02  0.62500000000E+02  0.47000000000E+01 0.  1.
</event>
<event>
 3    0  0.4607503E-005  0.9118800E+02  0.7546771E-02  0.1235069E+00
         25   -1    0    0    0    0  0.00000000000E+00  0.00000000000E+00  0.99999998245E-14  0.12500000000E+03  0.12500000000E+03 0.  0.
          5    1    1    0  501    0 -0.27146282949E+02  0.45498051112E+02 -0.32820217352E+02  0.62500000000E+02  0.47000000000E+01 0. -1.
         -5    1    1    0    0  501  0.27146282949E+02 -0.45498051112E+02  0.32820217352E+02  0.62500000000E+02  0.47000000000E+01 0. -1.
</event>
<event>
 3    0  0.4607503E-005  0.9118800E+02  0.7546771E-02  0.1235069E+00
         25   -1    0    0    0    0  0.00000000000E+00  0.00000000000E+00  0.99999998245E-14  0.12500000000E+03  0.12500000000E+03 0.  0.
          5    1    1    0  501    0  0.13798746816E+02 -0.42606819763E+02  0.43340667923E+02  0.62500000000E+02  0.47000000000E+01 0. -1.
         -5    1    1    0    0  501 -0.13798746816E+02  0.42606819763E+02 -0.43340667923E+02  0.62500000000E+02  0.47000000000E+01 0. -1.
</event>
<event>
 3    0  0.4607503E-005  0.9118800E+02  0.7546771E-02  0.1235069E+00
         25   -1    0    0    0    0  0.00000000000E+00  0.00000000000E+00  0.99999998245E-14  0.12500000000E+03  0.12500000000E+03 0.  0.
          5    1    1    0  501    0  0.46257509552E+02  0.38372486680E+02  0.16491060489E+02  0.62500000000E+02  0.47000000000E+01 0. -1.
         -5    1    1    0    0  501 -0.46257509552E+02 -0.38372486680E+02 -0.16491060489E+02  0.62500000000E+02  0.47000000000E+01 0. -1.
</event>
<event>
 3    0  0.4607503E-005  0.9118800E+02  0.7546771E-02  0.1235069E+00
         25   -1    0    0    0    0  0.00000000000E+00  0.00000000000E+00  0.99999998245E-14  0.12500000000E+03  0.12500000000E+03 0.  0.
          5    1    1    0  501    0  0.26937272693E+02 -0.47964170882E+02  0.29291323826E+02  0.62500000000E+02  0.47000000000E+01 0. -1.
         -5    1    1    0    0  501 -0.26937272693E+02  0.47964170882E+02 -0.29291323826E+02  0.62500000000E+02  0.47000000000E+01 0. -1.
</event>
<event>
 3    0  0.4607503E-005  0.9118800E+02  0.7546771E-02  0.1235069E+00
         25   -1    0    0    0    0  0.00000000000E+00  0.00000000000E+00  0.99999998245E-14  0.12500000000E+03  0.12500000000E+03 0.  0.
          5    1    1    0  501    0  0.51279747994E+02 -0.24306164117E+02  0.25763498046E+02  0.62500000000E+02  0.47000000000E+01 0.  1.
         -5    1    1    0    0  501 -0.51279747994E+02  0.24306164117E+02 -0.25763498046E+02  0.62500000000E+02  0.47000000000E+01 0.  1.
</event>
<event>
 3    0  0.4607503E-005  0.9118800E+02  0.7546771E-02  0.1235069E+00
         25   -1    0    0    0    0  0.00000000000E+00  0.00000000000E+00  0.99999998245E-14  0.12500000000E+03  0.12500000000E+03 0.  0.
          5    1    1    0  501    0  0.56857563365E+02 -0.37158270537E+01 -0.25250150842E+02  0.62500000000E+02  0.47000000000E+01 0.  1.
         -5    1    1    0    0  501 -0.56857563365E+02  0.37158270537E+01  0.25250150842E+02  0.62500000000E+02  0.47000000000E+01 0.  1.
</event>
<event>
 3    0  0.4607503E-005  0.9118800E+02  0.7546771E-02  0.1235069E+00
         25   -1    0    0    0    0  0.00000000000E+00  0.00000000000E+00  0.99999998245E-14  0.12500000000E+03  0.12500000000E+03 0.  0.
          5    1    1    0  501    0  0.52132684169E+01 -0.32692034051E+02 -0.52803529636E+02  0.62500000000E+02  0.47000000000E+01 0.  1.
         -5    1    1    0    0  501 -0.52132684169E+01  0.32692034051E+02  0.52803529636E+02  0.62500000000E+02  0.47000000000E+01 0.  1.
</event>
<event>
 3    0  0.4607503E-005  0.9118800E+02  0.7546771E-02  0.1235069E+00
         25   -1    0    0    0    0  0.00000000000E+00  0.00000000000E+00  0.99999998245E-14  0.12500000000E+03  0.12500000000E+03 0.  0.
          5    1    1    0  501    0 -0.32143549403E+02  0.50859460769E+02 -0.16256305917E+02  0.62500000000E+02  0.47000000000E+01 0. -1.
         -5    1    1    0    0  501  0.32143549403E+02 -0.50859460769E+02  0.16256305917E+02  0.62500000000E+02  0.47000000000E+01 0. -1.
</event>
<event>
 3    0  0.4607503E-005  0.9118800E+02  0.7546771E-02  0.1235069E+00
         25   -1    0    0    0    0  0.00000000000E+00  0.00000000000E+00  0.99999998245E-14  0.12500000000E+03  0.12500000000E+03 0.  0.
          5    1    1    0  501    0 -0.57748177653E+02 -0.20981787529E+02  0.10443781398E+02  0.62500000000E+02  0.47000000000E+01 0. -1.
         -5    1    1    0    0  501  0.57748177653E+02  0.20981787529E+02 -0.10443781398E+02  0.62500000000E+02  0.47000000000E+01 0. -1.
</event>
<event>
 3    0  0.4607503E-005  0.9118800E+02  0.7546771E-02  0.1235069E+00
         25   -1    0    0    0    0  0.00000000000E+00  0.00000000000E+00  0.99999998245E-14  0.12500000000E+03  0.12500000000E+03 0.  0.
          5    1    1    0  501    0 -0.13834520025E+02 -0.42912397583E+02 -0.43026645110E+02  0.62500000000E+02  0.47000000000E+01 0.  1.
         -5    1    1    0    0  501  0.13834520025E+02  0.42912397583E+02  0.43026645110E+02  0.62500000000E+02  0.47000000000E+01 0.  1.
</event>
<event>
 3    0  0.4607503E-005  0.9118800E+02  0.7546771E-02  0.1235069E+00
         25   -1    0    0    0    0  0.00000000000E+00  0.00000000000E+00  0.99999998245E-14  0.12500000000E+03  0.12500000000E+03 0.  0.
          5    1    1    0  501    0 -0.39968327474E+02  0.26784641574E+02 -0.39614085559E+02  0.62500000000E+02  0.47000000000E+01 0.  1.
         -5    1    1    0    0  501  0.39968327474E+02 -0.26784641574E+02  0.39614085559E+02  0.62500000000E+02  0.47000000000E+01 0.  1.
</event>
<event>
 3    0  0.4607503E-005  0.9118800E+02  0.7546771E-02  0.1235069E+00
         25   -1    0    0    0    0  0.00000000000E+00  0.00000000000E+00  0.99999998245E-14  0.12500000000E+03  0.12500000000E+03 0.  0.
          5    1    1    0  501    0  0.61244863209E+01 -0.28171598043E+02 -0.55254065289E+02  0.62500000000E+02  0.47000000000E+01 0. -1.
         -5    1    1    0    0  501 -0.61244863209E+01  0.28171598043E+02  0.55254065289E+02  0.62500000000E+02  0.47000000000E+01 0. -1.
</event>
<event>
 3    0  0.4607503E-005  0.9118800E+02  0.7546771E-02  0.1235069E+00
         25   -1    0    0    0    0  0.00000000000E+00  0.00000000000E+00  0.99999998245E-14  0.12500000000E+03  0.12500000000E+03 0.  0.
          5    1    1    0  501    0 -0.12014591219E+02 -0.36011210855E+02  0.49426736597E+02  0.62500000000E+02  0.47000000000E+01 0.  1.
         -5    1    1    0    0  501  0.12014591219E+02  0.36011210855E+02 -0.49426736597E+02  0.62500000000E+02  0.47000000000E+01 0.  1.
</event>
<event>
 3    0  0.4607503E-005  0.9118800E+02  0.7546771E-02  0.1235069E+00
         25   -1    0    0    0    0  0.00000000000E+00  0.00000000000E+00  0.99999998245E-14  0.12500000000E+03  0.12500000000E+03 0.  0.
          5    1    1    0  501    0  0.11108682922E+02  0.52831388863E+02 -0.31138425050E+02  0.62500000000E+02  0.47000000000E+01 0.  1.
         -5    1    1    0    0  501 -0.11108682922E+02 -0.52831388863E+02  0.31138425050E+02  0.62500000000E+02  0.47000000000E+01 0.  1.
</event>
<event>
 3    0  0.4607503E-005  0.9118800E+02  0.7546771E-02  0.1235069E+00
         25   -1    0    0    0    0  0.00000000000E+00  0.00000000000E+00  0.99999998245E-14  0.12500000000E+03  0.12500000000E+03 0.  0.
          5    1    1    0  501    0 -0.49377915529E+02  0.26692901789E+02  0.27082659620E+02  0.62500000000E+02  0.47000000000E+01 0.  1.
         -5    1    1    0    0  501  0.49377915529E+02 -0.26692901789E+02 -0.27082659620E+02  0.62500000000E+02  0.47000000000E+01 0.  1.
</event>
<event>
 3    0  0.4607503E-005  0.9118800E+02  0.7546771E-02  0.1235069E+00
         25   -1    0    0    0    0  0.00000000000E+00  0.00000000000E+00  0.99999998245E-14  0.12500000000E+03  0.12500000000E+03 0.  0.
          5    1    1    0  501    0 -0.16650119319E+02  0.45578477649E+02  0.39109281531E+02  0.62500000000E+02  0.47000000000E+01 0.  1.
         -5    1    1    0    0  501  0.16650119319E+02 -0.45578477649E+02 -0.39109281531E+02  0.62500000000E+02  0.47000000000E+01 0.  1.
</event>
<event>
 3    0  0.4607503E-005  0.9118800E+02  0.7546771E-02  0.1235069E+00
         25   -1    0    0    0    0  0.00000000000E+00  0.00000000000E+00  0.99999998245E-14  0.12500000000E+03  0.12500000000E+03 0.  0.
          5    1    1    0  501    0  0.51407266435E+02 -0.17855864226E+02 -0.30374678112E+02  0.62500000000E+02  0.47000000000E+01 0.  1.
         -5    1    1    0    0  501 -0.51407266435E+02  0.17855864226E+02  0.30374678112E+02  0.62500000000E+02  0.47000000000E+01 0.  1.
</event>
<event>
 3    0  0.4607503E-005  0.9118800E+02  0.7546771E-02  0.1235069E+00
         25   -1    0    0    0    0  0.00000000000E+00  0.00000000000E+00  0.99999998245E-14  0.12500000000E+03  0.12500000000E+03 0.  0.
          5    1    1    0  501    0 -0.10590240142E+02  0.22914500761E+02 -0.56981860873E+02  0.62500000000E+02  0.47000000000E+01 0.  1.
         -5    1    1    0    0  501  0.10590240142E+02 -0.22914500761E+02  0.56981860873E+02  0.62500000000E+02  0.47000000000E+01 0.  1.
</event>
<event>
 3    0  0.4607503E-005  0.9118800E+02  0.7546771E-02  0.1235069E+00
         25   -1    0    0    0    0  0.00000000000E+00  0.00000000000E+00  0.99999998245E-14  0.12500000000E+03  0.12500000000E+03 0.  0.
          5    1    1    0  501    0 -0.22716299313E+01  0.58514895177E+02  0.21330886992E+02  0.62500000000E+02  0.47000000000E+01 0. -1.
         -5    1    1    0    0  501  0.22716299313E+01 -0.58514895177E+02 -0.21330886992E+02  0.62500000000E+02  0.47000000000E+01 0. -1.
</event>
<event>
 3    0  0.4607503E-005  0.9118800E+02  0.7546771E-02  0.1235069E+00
         25   -1    0    0    0    0  0.00000000000E+00  0.00000000000E+00  0.99999998245E-14  0.12500000000E+03  0.12500000000E+03 0.  0.
          5    1    1    0  501    0 -0.46745969024E+02  0.20376829613E+02 -0.35829585469E+02  0.62500000000E+02  0.47000000000E+01 0.  1.
         -5    1    1    0    0  501  0.46745969024E+02 -0.20376829613E+02  0.35829585469E+02  0.62500000000E+02  0.47000000000E+01 0.  1.
</event>
<event>
 3    0  0.4607503E-005  0.9118800E+02  0.7546771E-02  0.1235069E+00
         25   -1    0    0    0    0  0.00000000000E+00  0.00000000000E+00  0.99999998245E-14  0.12500000000E+03  0.12500000000E+03 0.  0.
          5    1    1    0  501    0 -0.61842821982E+02 -0.58698424201E+01 -0.50170030126E+01  0.62500000000E+02  0.47000000000E+01 0. -1.
         -5    1    1    0    0  501  0.61842821982E+02  0.58698424201E+01  0.50170030126E+01  0.62500000000E+02  0.47000000000E+01 0. -1.
</event>
<event>
 3    0  0.4607503E-005  0.9118800E+02  0.7546771E-02  0.1235069E+00
         25   -1    0    0    0    0  0.00000000000E+00  0.00000000000E+00  0.99999998245E-14  0.12500000000E+03  0.12500000000E+03 0.  0.
          5    1    1    0  501    0 -0.19590062395E+02  0.10645241412E+02 -0.58198524815E+02  0.62500000000E+02  0.47000000000E+01 0.  1.
         -5    1    1    0    0  501  0.19590062395E+02 -0.10645241412E+02  0.58198524815E+02  0.62500000000E+02  0.47000000000E+01 0.  1.
</event>
<event>
 3    0  0.4607503E-005  0.9118800E+02  0.7546771E-02  0.1235069E+00
         25   -1    0    0    0    0  0.00000000000E+00  0.00000000000E+00  0.99999998245E-14  0.12500000000E+03  0.12500000000E+03 0.  0.
          5    1    1    0  501    0 -0.48525327843E+01 -0.44074719058E+02 -0.43795342966E+02  0.62500000000E+02  0.47000000000E+01 0. -1.
         -5    1    1    0    0  501  0.48525327843E+01  0.44074719058E+02  0.43795342966E+02  0.62500000000E+02  0.47000000000E+01 0. -1.
</event>
<event>
 3    0  0.4607503E-005  0.9118800E+02  0.7546771E-02  0.1235069E+00
         25   -1    0    0    0    0  0.00000000000E+00  0.00000000000E+00  0.99999998245E-14  0.12500000000E+03  0.12500000000E+03 0.  0.
          5    1    1    0  501    0  0.31233064114E+02  0.25573062558E+02  0.47483409497E+02  0.62500000000E+02  0.47000000000E+01 0. -1.
         -5    1    1    0    0  501 -0.31233064114E+02 -0.25573062558E+02 -0.47483409497E+02  0.62500000000E+02  0.47000000000E+01 0. -1.
</event>
<event>
 3    0  0.4607503E-005  0.9118800E+02  0.7546771E-02  0.1235069E+00
         25   -1    0    0    0    0  0.00000000000E+00  0.00000000000E+00  0.99999998245E-14  0.12500000000E+03  0.12500000000E+03 0.  0.
          5    1    1    0  501    0 -0.32441098139E+02 -0.53099355139E+02 -0.34919386308E+01  0.62500000000E+02  0.47000000000E+01 0. -1.
         -5    1    1    0    0  501  0.32441098139E+02  0.53099355139E+02  0.34919386308E+01  0.62500000000E+02  0.47000000000E+01 0. -1.
</event>
<event>
 3    0  0.4607503E-005  0.9118800E+02  0.7546771E-02  0.1235069E+00
         25   -1    0    0    0    0  0.00000000000E+00  0.00000000000E+00  0.99999998245E-14  0.12500000000E+03  0.12500000000E+03 0.  0.
          5    1    1    0  501    0  0.54321888368E+02  0.25577014367E+02  0.16706549022E+02  0.62500000000E+02  0.47000000000E+01 0. -1.
         -5    1    1    0    0  501 -0.54321888368E+02 -0.25577014367E+02 -0.16706549022E+02  0.62500000000E+02  0.47000000000E+01 0. -1.
</event>
<event>
 3    0  0.4607503E-005  0.9118800E+02  0.7546771E-02  0.1235069E+00
         25   -1    0    0    0    0  0.00000000000E+00  0.00000000000E+00  0.99999998245E-14  0.12500000000E+03  0.12500000000E+03 0.  0.
          5    1    1    0  501    0  0.30199854951E+02  0.19826983019E+02  0.50784047744E+02  0.62500000000E+02  0.47000000000E+01 0. -1.
         -5    1    1    0    0  501 -0.30199854951E+02 -0.19826983019E+02 -0.50784047744E+02  0.62500000000E+02  0.47000000000E+01 0. -1.
</event>
<event>
 3    0  0.4607503E-005  0.9118800E+02  0.7546771E-02  0.1235069E+00
         25   -1    0    0    0    0  0.00000000000E+00  0.00000000000E+00  0.99999998245E-14  0.12500000000E+03  0.12500000000E+03 0.  0.
          5    1    1    0  501    0 -0.36173817443E+02 -0.49818056482E+02  0.96838101995E+01  0.62500000000E+02  0.47000000000E+01 0.  1.
         -5    1    1    0    0  501  0.36173817443E+02  0.49818056482E+02 -0.96838101995E+01  0.62500000000E+02  0.47000000000E+01 0.  1.
</event>
<event>
 3    0  0.4607503E-005  0.9118800E+02  0.7546771E-02  0.1235069E+00
         25   -1    0    0    0    0  0.00000000000E+00  0.00000000000E+00  0.99999998245E-14  0.12500000000E+03  0.12500000000E+03 0.  0.
          5    1    1    0  501    0  0.85821954828E+00 -0.57323232285E+02  0.24443209683E+02  0.62500000000E+02  0.47000000000E+01 0.  1.
         -5    1    1    0    0  501 -0.85821954828E+00  0.57323232285E+02 -0.24443209683E+02  0.62500000000E+02  0.47000000000E+01 0.  1.
</event>
<event>
 3    0  0.4607503E-005  0.9118800E+02  0.7546771E-02  0.1235069E+00
         25   -1    0    0    0    0  0.00000000000E+00  0.00000000000E+00  0.99999998245E-14  0.12500000000E+03  0.12500000000E+03 0.  0.
          5    1    1    0  501    0  0.53665551744E+02  0.25355601210E+02 -0.19006894626E+02  0.62500000000E+02  0.47000000000E+01 0.  1.
         -5    1    1    0    0  501 -0.53665551744E+02 -0.25355601210E+02  0.19006894626E+02  0.62500000000E+02  0.47000000000E+01 0.  1.
</event>
<event>
 3    0  0.4607503E-005  0.9118800E+02  0.7546771E-02  0.1235069E+00
         25   -1    0    0    0    0  0.00000000000E+00  0.00000000000E+00  0.99999998245E-14  0.12500000000E+03  0.12500000000E+03 0.  0.
          5    1    1    0  501    0 -0.48208074050E+02  0.28271498196E+02  0.27583763089E+02  0.62500000000E+02  0.47000000000E+01 0.  1.
         -5    1    1    0    0  501  0.48208074050E+02 -0.28271498196E+02 -0.27583763089E+02  0.62500000000E+02  0.47000000000E+01 0.  1.
</event>
<event>
 3    0  0.4607503E-005  0.9118800E+02  0.7546771E-02  0.1235069E+00
         25   -1    0    0    0    0  0.00000000000E+00  0.00000000000E+00  0.99999998245E-14  0.12500000000E+03  0.12500000000E+03 0.  0.
          5    1    1    0  501    0 -0.34805434912E+02  0.29212732837E+02  0.42653932301E+02  0.62500000000E+02  0.47000000000E+01 0.  1.
         -5    1    1    0    0  501  0.34805434912E+02 -0.29212732837E+02 -0.42653932301E+02  0.62500000000E+02  0.47000000000E+01 0.  1.
</event>
<event>
 3    0  0.4607503E-005  0.9118800E+02  0.7546771E-02  0.1235069E+00
         25   -1    0    0    0    0  0.00000000000E+00  0.00000000000E+00  0.99999998245E-14  0.12500000000E+03  0.12500000000E+03 0.  0.
          5    1    1    0  501    0  0.40515168490E+02  0.35846640701E+02  0.30946719902E+02  0.62500000000E+02  0.47000000000E+01 0. -1.
         -5    1    1    0    0  501 -0.40515168490E+02 -0.35846640701E+02 -0.30946719902E+02  0.62500000000E+02  0.47000000000E+01 0. -1.
</event>
<event>
 3    0  0.4607503E-005  0.9118800E+02  0.7546771E-02  0.1235069E+00
         25   -1    0    0    0    0  0.00000000000E+00  0.00000000000E+00  0.99999998245E-14  0.12500000000E+03  0.12500000000E+03 0.  0.
          5    1    1    0  501    0 -0.11631889964E+02 -0.26250192466E+02  0.55315337216E+02  0.62500000000E+02  0.47000000000E+01 0.  1.
         -5    1    1    0    0  501  0.11631889964E+02  0.26250192466E+02 -0.55315337216E+02  0.62500000000E+02  0.47000000000E+01 0.  1.
</event>
<event>
 3    0  0.4607503E-005  0.9118800E+02  0.7546771E-02  0.1235069E+00
         25   -1    0    0    0    0  0.00000000000E+00  0.00000000000E+00  0.99999998245E-14  0.12500000000E+03  0.12500000000E+03 0.  0.
          5    1    1    0  501    0  0.55555307410E+02  0.10482250843E+02  0.26227661653E+02  0.62500000000E+02  0.47000000000E+01 0.  1.
         -5    1    1    0    0  501 -0.55555307410E+02 -0.10482250843E+02 -0.26227661653E+02  0.62500000000E+02  0.47000000000E+01 0.  1.
</event>
<event>
 3    0  0.4607503E-005  0.9118800E+02  0.7546771E-02  0.1235069E+00
         25   -1    0    0    0    0  0.00000000000E+00  0.00000000000E+00  0.99999998245E-14  0.12500000000E+03  0.12500000000E+03 0.  0.
          5    1    1    0  501    0 -0.19906862684E+02 -0.28170159306E+02 -0.51906829442E+02  0.62500000000E+02  0.47000000000E+01 0.  1.
         -5    1    1    0    0  501  0.19906862684E+02  0.28170159306E+02  0.51906829442E+02  0.62500000000E+02  0.47000000000E+01 0.  1.
</event>
<event>
 3    0  0.4607503E-005  0.9118800E+02  0.7546771E-02  0.1235069E+00
         25   -1    0    0    0    0  0.00000000000E+00  0.00000000000E+00  0.99999998245E-14  0.12500000000E+03  0.12500000000E+03 0.  0.
          5    1    1    0  501    0  0.31499909844E+02 -0.51980442005E+02 -0.13782210593E+02  0.62500000000E+02  0.47000000000E+01 0.  1.
         -5    1    1    0    0  501 -0.31499909844E+02  0.51980442005E+02  0.13782210593E+02  0.62500000000E+02  0.47000000000E+01 0.  1.
</event>
<event>
 3    0  0.4607503E-005  0.9118800E+02  0.7546771E-02  0.1235069E+00
         25   -1    0    0    0    0  0.00000000000E+00  0.00000000000E+00  0.99999998245E-14  0.12500000000E+03  0.12500000000E+03 0.  0.
          5    1    1    0  501    0 -0.41271058383E+02 -0.46219499188E+02 -0.66796433120E+01  0.62500000000E+02  0.47000000000E+01 0. -1.
         -5    1    1    0    0  501  0.41271058383E+02  0.46219499188E+02  0.66796433120E+01  0.62500000000E+02  0.47000000000E+01 0. -1.
</event>
<event>
 3    0  0.4607503E-005  0.9118800E+02  0.7546771E-02  0.1235069E+00
         25   -1    0    0    0    0  0.00000000000E+00  0.00000000000E+00  0.99999998245E-14  0.12500000000E+03  0.12500000000E+03 0.  0.
          5    1    1    0  501    0  0.20550568332E+02  0.96695654952E+01  0.58037346979E+02  0.62500000000E+02  0.47000000000E+01 0. -1.
         -5    1    1    0    0  501 -0.20550568332E+02 -0.96695654952E+01 -0.58037346979E+02  0.62500000000E+02  0.47000000000E+01 0. -1.
</event>
<event>
 3    0  0.4607503E-005  0.9118800E+02  0.7546771E-02  0.1235069E+00
         25   -1    0    0    0    0  0.00000000000E+00  0.00000000000E+00  0.99999998245E-14  0.12500000000E+03  0.12500000000E+03 0.  0.
          5    1    1    0  501    0  0.12058406203E+02 -0.12073787972E+02  0.59941458807E+02  0.62500000000E+02  0.47000000000E+01 0. -1.
         -5    1    1    0    0  501 -0.12058406203E+02  0.12073787972E+02 -0.59941458807E+02  0.62500000000E+02  0.47000000000E+01 0. -1.
</event>
<event>
 3    0  0.4607503E-005  0.9118800E+02  0.7546771E-02  0.1235069E+00
         25   -1    0    0    0    0  0.00000000000E+00  0.00000000000E+00  0.99999998245E-14  0.12500000000E+03  0.12500000000E+03 0.  0.
          5    1    1    0  501    0  0.42290530389E+02  0.71776860323E+01 -0.45212297692E+02  0.62500000000E+02  0.47000000000E+01 0.  1.
         -5    1    1    0    0  501 -0.42290530389E+02 -0.71776860323E+01  0.45212297692E+02  0.62500000000E+02  0.47000000000E+01 0.  1.
</event>
<event>
 3    0  0.4607503E-005  0.9118800E+02  0.7546771E-02  0.1235069E+00
         25   -1    0    0    0    0  0.00000000000E+00  0.00000000000E+00  0.99999998245E-14  0.12500000000E+03  0.12500000000E+03 0.  0.
          5    1    1    0  501    0 -0.68581915683E+01 -0.28627744023E+02 -0.54932481107E+02  0.62500000000E+02  0.47000000000E+01 0.  1.
         -5    1    1    0    0  501  0.68581915683E+01  0.28627744023E+02  0.54932481107E+02  0.62500000000E+02  0.47000000000E+01 0.  1.
</event>
<event>
 3    0  0.4607503E-005  0.9118800E+02  0.7546771E-02  0.1235069E+00
         25   -1    0    0    0    0  0.00000000000E+00  0.00000000000E+00  0.99999998245E-14  0.12500000000E+03  0.12500000000E+03 0.  0.
          5    1    1    0  501    0  0.40276277322E+02 -0.47098688621E+02 -0.66102205178E+01  0.62500000000E+02  0.47000000000E+01 0. -1.
         -5    1    1    0    0  501 -0.40276277322E+02  0.47098688621E+02  0.66102205178E+01  0.62500000000E+02  0.47000000000E+01 0. -1.
</event>
<event>
 3    0  0.4607503E-005  0.9118800E+02  0.7546771E-02  0.1235069E+00
         25   -1    0    0    0    0  0.00000000000E+00  0.00000000000E+00  0.99999998245E-14  0.12500000000E+03  0.12500000000E+03 0.  0.
          5    1    1    0  501    0  0.28402074014E+02  0.51041290005E+02  0.21731748810E+02  0.62500000000E+02  0.47000000000E+01 0. -1.
         -5    1    1    0    0  501 -0.28402074014E+02 -0.51041290005E+02 -0.21731748810E+02  0.62500000000E+02  0.47000000000E+01 0. -1.
</event>
<event>
 3    0  0.4607503E-005  0.9118800E+02  0.7546771E-02  0.1235069E+00
         25   -1    0    0    0    0  0.00000000000E+00  0.00000000000E+00  0.99999998245E-14  0.12500000000E+03  0.12500000000E+03 0.  0.
          5    1    1    0  501    0  0.19882753488E+02 -0.54504828337E+02  0.22760927084E+02  0.62500000000E+02  0.47000000000E+01 0. -1.
         -5    1    1    0    0  501 -0.19882753488E+02  0.54504828337E+02 -0.22760927084E+02  0.62500000000E+02  0.47000000000E+01 0. -1.
</event>
<event>
 3    0  0.4607503E-005  0.9118800E+02  0.7546771E-02  0.1235069E+00
         25   -1    0    0    0    0  0.00000000000E+00  0.00000000000E+00  0.99999998245E-14  0.12500000000E+03  0.12500000000E+03 0.  0.
          5    1    1    0  501    0 -0.56130160006E+02 -0.61169790433E+01  0.26384611142E+02  0.62500000000E+02  0.47000000000E+01 0. -1.
         -5    1    1    0    0  501  0.56130160006E+02  0.61169790433E+01 -0.26384611142E+02  0.62500000000E+02  0.47000000000E+01 0. -1.
</event>
<event>
 3    0  0.4607503E-005  0.9118800E+02  0.7546771E-02  0.1235069E+00
         25   -1    0    0    0    0  0.00000000000E+00  0.00000000000E+00  0.99999998245E-14  0.12500000000E+03  0.12500000000E+03 0.  0.
          5    1    1    0  501    0 -0.25590325875E+02 -0.53441884655E+02  0.19319942707E+02  0.62500000000E+02  0.47000000000E+01 0.  1.
         -5    1    1    0    0  501  0.25590325875E+02  0.53441884655E+02 -0.19319942707E+02  0.62500000000E+02  0.47000000000E+01 0.  1.
</event>
<event>
 3    0  0.4607503E-005  0.9118800E+02  0.7546771E-02  0.1235069E+00
         25   -1    0    0    0    0  0.00000000000E+00  0.00000000000E+00  0.99999998245E-14  0.12500000000E+03  0.12500000000E+03 0.  0.
          5    1    1    0  501    0 -0.17002328202E+02 -0.59879297649E+02 -0.30903962108E+01  0.62500000000E+02  0.47000000000E+01 0.  1.
         -5    1    1    0    0  501  0.17002328202E+02  0.59879297649E+02  0.30903962108E+01  0.62500000000E+02  0.47000000000E+01 0.  1.
</event>
<event>
 3    0  0.4607503E-005  0.9118800E+02  0.7546771E-02  0.1235069E+00
         25   -1    0    0    0    0  0.00000000000E+00  0.00000000000E+00  0.99999998245E-14  0.12500000000E+03  0.12500000000E+03 0.  0.
          5    1    1    0  501    0  0.11523165457E+02 -0.64175593000E+01  0.60911342051E+02  0.62500000000E+02  0.47000000000E+01 0.  1.
         -5    1    1    0    0  501 -0.11523165457E+02  0.64175593000E+01 -0.60911342051E+02  0.62500000000E+02  0.47000000000E+01 0.  1.
</event>
<event>
 3    0  0.4607503E-005  0.9118800E+02  0.7546771E-02  0.1235069E+00
         25   -1    0    0    0    0  0.00000000000E+00  0.00000000000E+00  0.99999998245E-14  0.12500000000E+03  0.12500000000E+03 0.  0.
          5    1    1    0  501    0  0.61050044377E+02 -0.52238438833E+01 -0.11391379926E+02  0.62500000000E+02  0.47000000000E+01 0. -1.
         -5    1    1    0    0  501 -0.61050044377E+02  0.52238438833E+01  0.11391379926E+02  0.62500000000E+02  0.47000000000E+01 0. -1.
</event>
<event>
 3    0  0.4607503E-005  0.9118800E+02  0.7546771E-02  0.1235069E+00
         25   -1    0    0    0    0  0.00000000000E+00  0.00000000000E+00  0.99999998245E-14  0.12500000000E+03  0.12500000000E+03 0.  0.
          5    1    1    0  501    0 -0.30012455863E+02 -0.49081499897E+02  0.23967036966E+02  0.62500000000E+02  0.47000000000E+01 0. -1.
         -5    1    1    0    0  501  0.30012455863E+02  0.49081499897E+02 -0.23967036966E+02  0.62500000000E+02  0.47000000000E+01 0. -1.
</event>
<event>
 3    0  0.4607503E-005  0.9118800E+02  0.7546771E-02  0.1235069E+00
         25   -1    0    0    0    0  0.00000000000E+00  0.00000000000E+00  0.99999998245E-14  0.12500000000E+03  0.12500000000E+03 0.  0.
          5    1    1    0  501    0 -0.34644334967E+02  0.17941418387E+02  0.48600777370E+02  0.62500000000E+02  0.47000000000E+01 0.  1.
         -5    1    1    0    0  501  0.34644334967E+02 -0.17941418387E+02 -0.48600777370E+02  0.62500000000E+02  0.47000000000E+01 0.  1.
</event>
<event>
 3    0  0.4607503E-005  0.9118800E+02  0.7546771E-02  0.1235069E+00
         25   -1    0    0    0    0  0.00000000000E+00  0.00000000000E+00  0.99999998245E-14  0.12500000000E+03  0.12500000000E+03 0.  0.
          5    1    1    0  501    0  0.37242454212E+02  0.11500982303E+02  0.48630103952E+02  0.62500000000E+02  0.47000000000E+01 0.  1.
         -5    1    1    0    0  501 -0.37242454212E+02 -0.11500982303E+02 -0.48630103952E+02  0.62500000000E+02  0.47000000000E+01 0.  1.
</event>
<event>
 3    0  0.4607503E-005  0.9118800E+02  0.7546771E-02  0.1235069E+00
         25   -1    0    0    0    0  0.00000000000E+00  0.00000000000E+00  0.99999998245E-14  0.12500000000E+03  0.12500000000E+03 0.  0.
          5    1    1    0  501    0  0.12647555933E+02 -0.51713294449E+02 -0.32402692884E+02  0.62500000000E+02  0.47000000000E+01 0. -1.
         -5    1    1    0    0  501 -0.12647555933E+02  0.51713294449E+02  0.32402692884E+02  0.62500000000E+02  0.47000000000E+01 0. -1.
</event>
<event>
 3    0  0.4607503E-005  0.9118800E+02  0.7546771E-02  0.1235069E+00
         25   -1    0    0    0    0  0.00000000000E+00  0.00000000000E+00  0.99999998245E-14  0.12500000000E+03  0.12500000000E+03 0.  0.
          5    1    1    0  501    0  0.85469599665E+00  0.19568778292E+02 -0.59164959317E+02  0.62500000000E+02  0.47000000000E+01 0. -1.
         -5    1    1    0    0  501 -0.85469599665E+00 -0.19568778292E+02  0.59164959317E+02  0.62500000000E+02  0.47000000000E+01 0. -1.
</event>
<event>
 3    0  0.4607503E-005  0.9118800E+02  0.7546771E-02  0.1235069E+00
         25   -1    0    0    0    0  0.00000000000E+00  0.00000000000E+00  0.99999998245E-14  0.12500000000E+03  0.12500000000E+03 0.  0.
          5    1    1    0  501    0  0.41661512134E+02 -0.34437255140E+02 -0.31025052217E+02  0.62500000000E+02  0.47000000000E+01 0.  1.
         -5    1    1    0    0  501 -0.41661512134E+02  0.34437255140E+02  0.31025052217E+02  0.62500000000E+02  0.47000000000E+01 0.  1.
</event>
<event>
 3    0  0.4607503E-005  0.9118800E+02  0.7546771E-02  0.1235069E+00
         25   -1    0    0    0    0  0.00000000000E+00  0.00000000000E+00  0.99999998245E-14  0.12500000000E+03  0.12500000000E+03 0.  0.
          5    1    1    0  501    0  0.17248398250E+02  0.27138263057E+02 -0.53386959420E+02  0.62500000000E+02  0.47000000000E+01 0.  1.
         -5    1    1    0    0  501 -0.17248398250E+02 -0.27138263057E+02  0.53386959420E+02  0.62500000000E+02  0.47000000000E+01 0.  1.
</event>
<event>
 3    0  0.4607503E-005  0.9118800E+02  0.7546771E-02  0.1235069E+00
         25   -1    0    0    0    0  0.00000000000E+00  0.00000000000E+00  0.99999998245E-14  0.12500000000E+03  0.12500000000E+03 0.  0.
          5    1    1    0  501    0  0.32577953108E+02  0.36147794749E+02 -0.38938077842E+02  0.62500000000E+02  0.47000000000E+01 0.  1.
         -5    1    1    0    0  501 -0.32577953108E+02 -0.36147794749E+02  0.38938077842E+02  0.62500000000E+02  0.47000000000E+01 0.  1.
</event>
<event>
 3    0  0.4607503E-005  0.9118800E+02  0.7546771E-02  0.1235069E+00
         25   -1    0    0    0    0  0.00000000000E+00  0.00000000000E+00  0.99999998245E-14  0.12500000000E+03  0.12500000000E+03 0.  0.
          5    1    1    0  501    0 -0.61853826640E+02 -0.58552346379E+01  0.48969743088E+01  0.62500000000E+02  0.47000000000E+01 0. -1.
         -5    1    1    0    0  501  0.61853826640E+02  0.58552346379E+01 -0.48969743088E+01  0.62500000000E+02  0.47000000000E+01 0. -1.
</event>
<event>
 3    0  0.4607503E-005  0.9118800E+02  0.7546771E-02  0.1235069E+00
         25   -1    0    0    0    0  0.00000000000E+00  0.00000000000E+00  0.99999998245E-14  0.12500000000E+03  0.12500000000E+03 0.  0.
          5    1    1    0  501    0  0.86034859789E+01  0.55171231792E+02 -0.27681676458E+02  0.62500000000E+02  0.47000000000E+01 0.  1.
         -5    1    1    0    0  501 -0.86034859789E+01 -0.55171231792E+02  0.27681676458E+02  0.62500000000E+02  0.47000000000E+01 0.  1.
</event>
<event>
 3    0  0.4607503E-005  0.9118800E+02  0.7546771E-02  0.1235069E+00
         25   -1    0    0    0    0  0.00000000000E+00  0.00000000000E+00  0.99999998245E-14  0.12500000000E+03  0.12500000000E+03 0.  0.
          5    1    1    0  501    0 -0.39149698290E+02 -0.31879585489E+02  0.36539747574E+02  0.62500000000E+02  0.47000000000E+01 0. -1.
         -5    1    1    0    0  501  0.39149698290E+02  0.31879585489E+02 -0.36539747574E+02  0.62500000000E+02  0.47000000000E+01 0. -1.
</event>
<event>
 3    0  0.4607503E-005  0.9118800E+02  0.7546771E-02  0.1235069E+00
         25   -1    0    0    0    0  0.00000000000E+00  0.00000000000E+00  0.99999998245E-14  0.12500000000E+03  0.12500000000E+03 0.  0.
          5    1    1    0  501    0  0.41887193424E+02  0.44294904848E+02  0.12945440573E+02  0.62500000000E+02  0.47000000000E+01 0. -1.
         -5    1    1    0    0  501 -0.41887193424E+02 -0.44294904848E+02 -0.12945440573E+02  0.62500000000E+02  0.47000000000E+01 0. -1.
</event>
<event>
 3    0  0.4607503E-005  0.9118800E+02  0.7546771E-02  0.1235069E+00
         25   -1    0    0    0    0  0.00000000000E+00  0.00000000000E+00  0.99999998245E-14  0.12500000000E+03  0.12500000000E+03 0.  0.
          5    1    1    0  501    0  0.19888853156E+02  0.43299687489E+02  0.40171265645E+02  0.62500000000E+02  0.47000000000E+01 0. -1.
         -5    1    1    0    0  501 -0.19888853156E+02 -0.43299687489E+02 -0.40171265645E+02  0.62500000000E+02  0.47000000000E+01 0. -1.
</event>
<event>
 3    0  0.4607503E-005  0.9118800E+02  0.7546771E-02  0.1235069E+00
         25   -1    0    0    0    0  0.00000000000E+00  0.00000000000E+00  0.99999998245E-14  0.12500000000E+03  0.12500000000E+03 0.  0.
          5    1    1    0  501    0  0.23059815788E+02 -0.34478587248E+02  0.46514856951E+02  0.62500000000E+02  0.47000000000E+01 0.  1.
         -5    1    1    0    0  501 -0.23059815788E+02  0.34478587248E+02 -0.46514856951E+02  0.62500000000E+02  0.47000000000E+01 0.  1.
</event>
<event>
 3    0  0.4607503E-005  0.9118800E+02  0.7546771E-02  0.1235069E+00
         25   -1    0    0    0    0  0.00000000000E+00  0.00000000000E+00  0.99999998245E-14  0.12500000000E+03  0.12500000000E+03 0.  0.
          5    1    1    0  501    0  0.24139899085E+02 -0.26223993004E+02  0.51124626777E+02  0.62500000000E+02  0.47000000000E+01 0.  1.
         -5    1    1    0    0  501 -0.24139899085E+02  0.26223993004E+02 -0.51124626777E+02  0.62500000000E+02  0.47000000000E+01 0.  1.
</event>
<event>
 3    0  0.4607503E-005  0.9118800E+02  0.7546771E-02  0.1235069E+00
         25   -1    0    0    0    0  0.00000000000E+00  0.00000000000E+00  0.99999998245E-14  0.12500000000E+03  0.12500000000E+03 0.  0.
          5    1    1    0  501    0  0.51623535697E+02  0.25147630501E+02 -0.24223278934E+02  0.62500000000E+02  0.47000000000E+01 0.  1.
         -5    1    1    0    0  501 -0.51623535697E+02 -0.25147630501E+02  0.24223278934E+02  0.62500000000E+02  0.47000000000E+01 0.  1.
</event>
<event>
 3    0  0.4607503E-005  0.9118800E+02  0.7546771E-02  0.1235069E+00
         25   -1    0    0    0    0  0.00000000000E+00  0.00000000000E+00  0.99999998245E-14  0.12500000000E+03  0.12500000000E+03 0.  0.
          5    1    1    0  501    0  0.48171740614E+02 -0.23633599901E+02 -0.31703254753E+02  0.62500000000E+02  0.47000000000E+01 0. -1.
         -5    1    1    0    0  501 -0.48171740614E+02  0.23633599901E+02  0.31703254753E+02  0.62500000000E+02  0.47000000000E+01 0. -1.
</event>
<event>
 3    0  0.4607503E-005  0.9118800E+02  0.7546771E-02  0.1235069E+00
         25   -1    0    0    0    0  0.00000000000E+00  0.00000000000E+00  0.99999998245E-14  0.12500000000E+03  0.12500000000E+03 0.  0.
          5    1    1    0  501    0 -0.51422558395E+02 -0.36647660209E+01 -0.35020707848E+02  0.62500000000E+02  0.47000000000E+01 0.  1.
         -5    1    1    0    0  501  0.51422558395E+02  0.36647660209E+01  0.35020707848E+02  0.62500000000E+02  0.47000000000E+01 0.  1.
</event>
<event>
 3    0  0.4607503E-005  0.9118800E+02  0.7546771E-02  0.1235069E+00
         25   -1    0    0    0    0  0.00000000000E+00  0.00000000000E+00  0.99999998245E-14  0.12500000000E+03  0.12500000000E+03 0.  0.
          5    1    1    0  501    0 -0.23916847013E+02  0.28877653129E+02 -0.49781779586E+02  0.62500000000E+02  0.47000000000E+01 0.  1.
         -5    1    1    0    0  501  0.23916847013E+02 -0.28877653129E+02  0.49781779586E+02  0.62500000000E+02  0.47000000000E+01 0.  1.
</event>
<event>
 3    0  0.4607503E-005  0.9118800E+02  0.7546771E-02  0.1235069E+00
         25   -1    0    0    0    0  0.00000000000E+00  0.00000000000E+00  0.99999998245E-14  0.12500000000E+03  0.12500000000E+03 0.  0.
          5    1    1    0  501    0  0.47485327010E+02 -0.10661229725E+02  0.38931245800E+02  0.62500000000E+02  0.47000000000E+01 0. -1.
         -5    1    1    0    0  501 -0.47485327010E+02  0.10661229725E+02 -0.38931245800E+02  0.62500000000E+02  0.47000000000E+01 0. -1.
</event>
<event>
 3    0  0.4607503E-005  0.9118800E+02  0.7546771E-02  0.1235069E+00
         25   -1    0    0    0    0  0.00000000000E+00  0.00000000000E+00  0.99999998245E-14  0.12500000000E+03  0.12500000000E+03 0.  0.
          5    1    1    0  501    0 -0.66724581951E+01  0.83658370303E+01  0.61397484252E+02  0.62500000000E+02  0.47000000000E+01 0.  1.
         -5    1    1    0    0  501  0.66724581951E+01 -0.83658370303E+01 -0.61397484252E+02  0.62500000000E+02  0.47000000000E+01 0.  1.
</event>
<event>
 3    0  0.4607503E-005  0.9118800E+02  0.7546771E-02  0.1235069E+00
         25   -1    0    0    0    0  0.00000000000E+00  0.00000000000E+00  0.99999998245E-14  0.12500000000E+03  0.12500000000E+03 0.  0.
          5    1    1    0  501    0  0.40608408463E+02 -0.38544107484E+02  0.27376430380E+02  0.62500000000E+02  0.47000000000E+01 0.  1.
         -5    1    1    0    0  501 -0.40608408463E+02  0.38544107484E+02 -0.27376430380E+02  0.62500000000E+02  0.47000000000E+01 0.  1.
</event>
<event>
 3    0  0.4607503E-005  0.9118800E+02  0.7546771E-02  0.1235069E+00
         25   -1    0    0    0    0  0.00000000000E+00  0.00000000000E+00  0.99999998245E-14  0.12500000000E+03  0.12500000000E+03 0.  0.
          5    1    1    0  501    0 -0.15845808683E+02 -0.56825444178E+02  0.20098239753E+02  0.62500000000E+02  0.47000000000E+01 0. -1.
         -5    1    1    0    0  501  0.15845808683E+02  0.56825444178E+02 -0.20098239753E+02  0.62500000000E+02  0.47000000000E+01 0. -1.
</event>
<event>
 3    0  0.4607503E-005  0.9118800E+02  0.7546771E-02  0.1235069E+00
         25   -1    0    0    0    0  0.00000000000E+00  0.00000000000E+00  0.99999998245E-14  0.12500000000E+03  0.12500000000E+03 0.  0.
          5    1    1    0  501    0  0.57858420656E+02 -0.13107693559E+02  0.19098469279E+02  0.62500000000E+02  0.47000000000E+01 0.  1.
         -5    1    1    0    0  501 -0.57858420656E+02  0.13107693559E+02 -0.19098469279E+02  0.62500000000E+02  0.47000000000E+01 0.  1.
</event>
<event>
 3    0  0.4607503E-005  0.9118800E+02  0.7546771E-02  0.1235069E+00
         25   -1    0    0    0    0  0.00000000000E+00  0.00000000000E+00  0.99999998245E-14  0.12500000000E+03  0.12500000000E+03 0.  0.
          5    1    1    0  501    0 -0.34046008439E+02 -0.52188662143E+02 -0.11716881358E+01  0.62500000000E+02  0.47000000000E+01 0.  1.
         -5    1    1    0    0  501  0.34046008439E+02  0.52188662143E+02  0.11716881358E+01  0.62500000000E+02  0.47000000000E+01 0.  1.
</event>
<event>
 3    0  0.4607503E-005  0.9118800E+02  0.7546771E-02  0.1235069E+00
         25   -1    0    0    0    0  0.00000000000E+00  0.00000000000E+00  0.99999998245E-14  0.12500000000E+03  0.12500000000E+03 0.  0.
          5    1    1    0  501    0 -0.42809112722E+02 -0.42790258652E+02  0.14850374827E+02  0.62500000000E+02  0.47000000000E+01 0.  1.
         -5    1    1    0    0  501  0.42809112722E+02  0.42790258652E+02 -0.14850374827E+02  0.62500000000E+02  0.47000000000E+01 0.  1.
</event>
<event>
 3    0  0.4607503E-005  0.9118800E+02  0.7546771E-02  0.1235069E+00
         25   -1    0    0    0    0  0.00000000000E+00  0.00000000000E+00  0.99999998245E-14  0.12500000000E+03  0.12500000000E+03 0.  0.
          5    1    1    0  501    0 -0.55422621150E+02  0.22080700730E+02 -0.18025973486E+02  0.62500000000E+02  0.47000000000E+01 0. -1.
         -5    1    1    0    0  501  0.55422621150E+02 -0.22080700730E+02  0.18025973486E+02  0.62500000000E+02  0.47000000000E+01 0. -1.
</event>
<event>
 3    0  0.4607503E-005  0.9118800E+02  0.7546771E-02  0.1235069E+00
         25   -1    0    0    0    0  0.00000000000E+00  0.00000000000E+00  0.99999998245E-14  0.12500000000E+03  0.12500000000E+03 0.  0.
          5    1    1    0  501    0  0.56078110308E+01 -0.59461281783E+02 -0.17806415253E+02  0.62500000000E+02  0.47000000000E+01 0. -1.
         -5    1    1    0    0  501 -0.56078110308E+01  0.59461281783E+02  0.17806415253E+02  0.62500000000E+02  0.47000000000E+01 0. -1.
</event>
<event>
 3    0  0.4607503E-005  0.9118800E+02  0.7546771E-02  0.1235069E+00
         25   -1    0    0    0    0  0.00000000000E+00  0.00000000000E+00  0.99999998245E-14  0.12500000000E+03  0.12500000000E+03 0.  0.
          5    1    1    0  501    0 -0.21015186030E+02  0.58617403046E+02  0.25538238577E+01  0.62500000000E+02  0.47000000000E+01 0.  1.
         -5    1    1    0    0  501  0.21015186030E+02 -0.58617403046E+02 -0.25538238577E+01  0.62500000000E+02  0.47000000000E+01 0.  1.
</event>
<event>
 3    0  0.4607503E-005  0.9118800E+02  0.7546771E-02  0.1235069E+00
         25   -1    0    0    0    0  0.00000000000E+00  0.00000000000E+00  0.99999998245E-14  0.12500000000E+03  0.12500000000E+03 0.  0.
          5    1    1    0  501    0 -0.52126683838E+02 -0.26841405733E+02  0.21130730473E+02  0.62500000000E+02  0.47000000000E+01 0.  1.
         -5    1    1    0    0  501  0.52126683838E+02  0.26841405733E+02 -0.21130730473E+02  0.62500000000E+02  0.47000000000E+01 0.  1.
</event>
<event>
 3    0  0.4607503E-005  0.9118800E+02  0.7546771E-02  0.1235069E+00
         25   -1    0    0    0    0  0.00000000000E+00  0.00000000000E+00  0.99999998245E-14  0.12500000000E+03  0.12500000000E+03 0.  0.
          5    1    1    0  501    0  0.27896287189E+01  0.10740131184E+02  0.61327217072E+02  0.62500000000E+02  0.47000000000E+01 0. -1.
         -5    1    1    0    0  501 -0.27896287189E+01 -0.10740131184E+02 -0.61327217072E+02  0.62500000000E+02  0.47000000000E+01 0. -1.
</event>
<event>
 3    0  0.4607503E-005  0.9118800E+02  0.7546771E-02  0.1235069E+00
         25   -1    0    0    0    0  0.00000000000E+00  0.00000000000E+00  0.99999998245E-14  0.12500000000E+03  0.12500000000E+03 0.  0.
          5    1    1    0  501    0  0.33333244369E+02 -0.34995687936E+02 -0.39349163215E+02  0.62500000000E+02  0.47000000000E+01 0.  1.
         -5    1    1    0    0  501 -0.33333244369E+02  0.34995687936E+02  0.39349163215E+02  0.62500000000E+02  0.47000000000E+01 0.  1.
</event>
<event>
 3    0  0.4607503E-005  0.9118800E+02  0.7546771E-02  0.1235069E+00
         25   -1    0    0    0    0  0.00000000000E+00  0.00000000000E+00  0.99999998245E-14  0.12500000000E+03  0.12500000000E+03 0.  0.
          5    1    1    0  501    0 -0.27374633659E+02 -0.26738217934E+02  0.49192043399E+02  0.62500000000E+02  0.47000000000E+01 0. -1.
         -5    1    1    0    0  501  0.27374633659E+02  0.26738217934E+02 -0.49192043399E+02  0.62500000000E+02  0.47000000000E+01 0. -1.
</event>
<event>
 3    0  0.4607503E-005  0.9118800E+02  0.7546771E-02  0.1235069E+00
         25   -1    0    0    0    0  0.00000000000E+00  0.00000000000E+00  0.99999998245E-14  0.12500000000E+03  0.12500000000E+03 0.  0.
          5    1    1    0  501    0  0.25464725580E+01 -0.61402274242E+02  0.10365143292E+02  0.62500000000E+02  0.47000000000E+01 0. -1.
         -5    1    1    0    0  501 -0.25464725580E+01  0.61402274242E+02 -0.10365143292E+02  0.62500000000E+02  0.47000000000E+01 0. -1.
</event>
<event>
 3    0  0.4607503E-005  0.9118800E+02  0.7546771E-02  0.1235069E+00
         25   -1    0    0    0    0  0.00000000000E+00  0.00000000000E+00  0.99999998245E-14  0.12500000000E+03  0.12500000000E+03 0.  0.
          5    1    1    0  501    0  0.54116798284E+02 -0.41709392901E+01 -0.30628996212E+02  0.62500000000E+02  0.47000000000E+01 0. -1.
         -5    1    1    0    0  501 -0.54116798284E+02  0.41709392901E+01  0.30628996212E+02  0.62500000000E+02  0.47000000000E+01 0. -1.
</event>
<event>
 3    0  0.4607503E-005  0.9118800E+02  0.7546771E-02  0.1235069E+00
         25   -1    0    0    0    0  0.00000000000E+00  0.00000000000E+00  0.99999998245E-14  0.12500000000E+03  0.12500000000E+03 0.  0.
          5    1    1    0  501    0  0.39062142905E+02  0.13763078510E+02  0.46571307278E+02  0.62500000000E+02  0.47000000000E+01 0.  1.
         -5    1    1    0    0  501 -0.39062142905E+02 -0.13763078510E+02 -0.46571307278E+02  0.62500000000E+02  0.47000000000E+01 0.  1.
</event>
<event>
 3    0  0.4607503E-005  0.9118800E+02  0.7546771E-02  0.1235069E+00
         25   -1    0    0    0    0  0.00000000000E+00  0.00000000000E+00  0.99999998245E-14  0.12500000000E+03  0.12500000000E+03 0.  0.
          5    1    1    0  501    0  0.55760649041E+02  0.24884573628E+02 -0.12476698836E+02  0.62500000000E+02  0.47000000000E+01 0.  1.
         -5    1    1    0    0  501 -0.55760649041E+02 -0.24884573628E+02  0.12476698836E+02  0.62500000000E+02  0.47000000000E+01 0.  1.
</event>
<event>
 3    0  0.4607503E-005  0.9118800E+02  0.7546771E-02  0.1235069E+00
         25   -1    0    0    0    0  0.00000000000E+00  0.00000000000E+00  0.99999998245E-14  0.12500000000E+03  0.12500000000E+03 0.  0.
          5    1    1    0  501    0  0.57009138877E+01 -0.84017887752E+01 -0.61490401903E+02  0.62500000000E+02  0.47000000000E+01 0. -1.
         -5    1    1    0    0  501 -0.57009138877E+01  0.84017887752E+01  0.61490401903E+02  0.62500000000E+02  0.47000000000E+01 0. -1.
</event>
<event>
 3    0  0.4607503E-005  0.9118800E+02  0.7546771E-02  0.1235069E+00
         25   -1    0    0    0    0  0.00000000000E+00  0.00000000000E+00  0.99999998245E-14  0.12500000000E+03  0.12500000000E+03 0.  0.
          5    1    1    0  501    0 -0.39658581809E+02 -0.47010591718E+02  0.10067827732E+02  0.62500000000E+02  0.47000000000E+01 0.  1.
         -5    1    1    0    0  501  0.39658581809E+02  0.47010591718E+02 -0.10067827732E+02  0.62500000000E+02  0.47000000000E+01 0.  1.
</event>
<event>
 3    0  0.4607503E-005  0.9118800E+02  0.7546771E-02  0.1235069E+00
         25   -1    0    0    0    0  0.00000000000E+00  0.00000000000E+00  0.99999998245E-14  0.12500000000E+03  0.12500000000E+03 0.  0.
          5    1    1    0  501    0 -0.15690476663E+02  0.19030651440E+02 -0.57234633290E+02  0.62500000000E+02  0.47000000000E+01 0. -1.
         -5    1    1    0    0  501  0.15690476663E+02 -0.19030651440E+02  0.57234633290E+02  0.62500000000E+02  0.47000000000E+01 0. -1.
</event>
<event>
 3    0  0.4607503E-005  0.9118800E+02  0.7546771E-02  0.1235069E+00
         25   -1    0    0    0    0  0.00000000000E+00  0.00000000000E+00  0.99999998245E-14  0.12500000000E+03  0.12500000000E+03 0.  0.
          5    1    1    0  501    0  0.34834068361E+02 -0.44755556918E+02 -0.25839655694E+02  0.62500000000E+02  0.47000000000E+01 0. -1.
         -5    1    1    0    0  501 -0.34834068361E+02  0.44755556918E+02  0.25839655694E+02  0.62500000000E+02  0.47000000000E+01 0. -1.
</event>
<event>
 3    0  0.4607503E-005  0.9118800E+02  0.7546771E-02  0.1235069E+00
         25   -1    0    0    0    0  0.00000000000E+00  0.00000000000E+00  0.99999998245E-14  0.12500000000E+03  0.12500000000E+03 0.  0.
          5    1    1    0  501    0  0.30860944714E+02  0.32714458693E+02  0.43145408606E+02  0.62500000000E+02  0.47000000000E+01 0.  1.
         -5    1    1    0    0  501 -0.30860944714E+02 -0.32714458693E+02 -0.43145408606E+02  0.62500000000E+02  0.47000000000E+01 0.  1.
</event>
<event>
 3    0  0.4607503E-005  0.9118800E+02  0.7546771E-02  0.1235069E+00
         25   -1    0    0    0    0  0.00000000000E+00  0.00000000000E+00  0.99999998245E-14  0.12500000000E+03  0.12500000000E+03 0.  0.
          5    1    1    0  501    0 -0.52763718229E+02  0.32300508324E+02  0.75383818331E+01  0.62500000000E+02  0.47000000000E+01 0.  1.
         -5    1    1    0    0  501  0.52763718229E+02 -0.32300508324E+02 -0.75383818331E+01  0.62500000000E+02  0.47000000000E+01 0.  1.
</event>
<event>
 3    0  0.4607503E-005  0.9118800E+02  0.7546771E-02  0.1235069E+00
         25   -1    0    0    0    0  0.00000000000E+00  0.00000000000E+00  0.99999998245E-14  0.12500000000E+03  0.12500000000E+03 0.  0.
          5    1    1    0  501    0  0.42287222012E+02 -0.32834121848E+02  0.31904095301E+02  0.62500000000E+02  0.47000000000E+01 0.  1.
         -5    1    1    0    0  501 -0.42287222012E+02  0.32834121848E+02 -0.31904095301E+02  0.62500000000E+02  0.47000000000E+01 0.  1.
</event>
<event>
 3    0  0.4607503E-005  0.9118800E+02  0.7546771E-02  0.1235069E+00
         25   -1    0    0    0    0  0.00000000000E+00  0.00000000000E+00  0.99999998245E-14  0.12500000000E+03  0.12500000000E+03 0.  0.
          5    1    1    0  501    0  0.54718916979E+02  0.88910472088E+01  0.28477173388E+02  0.62500000000E+02  0.47000000000E+01 0.  1.
         -5    1    1    0    0  501 -0.54718916979E+02 -0.88910472088E+01 -0.28477173388E+02  0.62500000000E+02  0.47000000000E+01 0.  1.
</event>
<event>
 3    0  0.4607503E-005  0.9118800E+02  0.7546771E-02  0.1235069E+00
         25   -1    0    0    0    0  0.00000000000E+00  0.00000000000E+00  0.99999998245E-14  0.12500000000E+03  0.12500000000E+03 0.  0.
          5    1    1    0  501    0  0.49214396135E+02  0.32793783820E+02 -0.19663950668E+02  0.62500000000E+02  0.47000000000E+01 0. -1.
         -5    1    1    0    0  501 -0.49214396135E+02 -0.32793783820E+02  0.19663950668E+02  0.62500000000E+02  0.47000000000E+01 0. -1.
</event>
<event>
 3    0  0.4607503E-005  0.9118800E+02  0.7546771E-02  0.1235069E+00
         25   -1    0    0    0    0  0.00000000000E+00  0.00000000000E+00  0.99999998245E-14  0.12500000000E+03  0.12500000000E+03 0.  0.
          5    1    1    0  501    0 -0.47087646207E+02  0.38657126129E+02  0.13135454852E+02  0.62500000000E+02  0.47000000000E+01 0. -1.
         -5    1    1    0    0  501  0.47087646207E+02 -0.38657126129E+02 -0.13135454852E+02  0.62500000000E+02  0.47000000000E+01 0. -1.
</event>
<event>
 3    0  0.4607503E-005  0.9118800E+02  0.7546771E-02  0.1235069E+00
         25   -1    0    0    0    0  0.00000000000E+00  0.00000000000E+00  0.99999998245E-14  0.12500000000E+03  0.12500000000E+03 0.  0.
          5    1    1    0  501    0 -0.39843445961E+02  0.45016725618E+02  0.16436369083E+02  0.62500000000E+02  0.47000000000E+01 0. -1.
         -5    1    1    0    0  501  0.39843445961E+02 -0.45016725618E+02 -0.16436369083E+02  0.62500000000E+02  0.47000000000E+01 0. -1.
</event>
<event>
 3    0  0.4607503E-005  0.9118800E+02  0.7546771E-02  0.1235069E+00
         25   -1    0    0    0    0  0.00000000000E+00  0.00000000000E+00  0.99999998245E-14  0.12500000000E+03  0.12500000000E+03 0.  0.
          5    1    1    0  501    0  0.41433144447E+02 -0.29226964983E+02 -0.36238640415E+02  0.62500000000E+02  0.47000000000E+01 0. -1.
         -5    1    1    0    0  501 -0.41433144447E+02  0.29226964983E+02  0.36238640415E+02  0.62500000000E+02  0.47000000000E+01 0. -1.
</event>
<event>
 3    0  0.4607503E-005  0.9118800E+02  0.7546771E-02  0.1235069E+00
         25   -1    0    0    0    0  0.00000000000E+00  0.00000000000E+00  0.99999998245E-14  0.12500000000E+03  0.12500000000E+03 0.  0.
          5    1    1    0  501    0 -0.83743709471E+01 -0.56120641380E+02  0.25777965830E+02  0.62500000000E+02  0.47000000000E+01 0. -1.
         -5    1    1    0    0  501  0.83743709471E+01  0.56120641380E+02 -0.25777965830E+02  0.62500000000E+02  0.47000000000E+01 0. -1.
</event>
<event>
 3    0  0.4607503E-005  0.9118800E+02  0.7546771E-02  0.1235069E+00
         25   -1    0    0    0    0  0.00000000000E+00  0.00000000000E+00  0.99999998245E-14  0.12500000000E+03  0.12500000000E+03 0.  0.
          5    1    1    0  501    0 -0.57840783716E+02  0.16016573401E+02  0.16795032469E+02  0.62500000000E+02  0.47000000000E+01 0. -1.
         -5    1    1    0    0  501  0.57840783716E+02 -0.16016573401E+02 -0.16795032469E+02  0.62500000000E+02  0.47000000000E+01 0. -1.
</event>
<event>
 3    0  0.4607503E-005  0.9118800E+02  0.7546771E-02  0.1235069E+00
         25   -1    0    0    0    0  0.00000000000E+00  0.00000000000E+00  0.99999998245E-14  0.12500000000E+03  0.12500000000E+03 0.  0.
          5    1    1    0  501    0 -0.42781485172E+02 -0.23776010136E+02  0.38582455449E+02  0.62500000000E+02  0.47000000000E+01 0. -1.
         -5    1    1    0    0  501  0.42781485172E+02  0.23776010136E+02 -0.38582455449E+02  0.62500000000E+02  0.47000000000E+01 0. -1.
</event>
<event>
 3    0  0.4607503E-005  0.9118800E+02  0.7546771E-02  0.1235069E+00
         25   -1    0    0    0    0  0.00000000000E+00  0.00000000000E+00  0.99999998245E-14  0.12500000000E+03  0.12500000000E+03 0.  0.
          5    1    1    0  501    0  0.30607643888E+02  0.45428840689E+02 -0.29724612181E+02  0.62500000000E+02  0.47000000000E+01 0. -1.
         -5    1    1    0    0  501 -0.30607643888E+02 -0.45428840689E+02  0.29724612181E+02  0.62500000000E+02  0.47000000000E+01 0. -1.
</event>
<event>
 3    0  0.4607503E-005  0.9118800E+02  0.7546771E-02  0.1235069E+00
         25   -1    0    0    0    0  0.00000000000E+00  0.00000000000E+00  0.99999998245E-14  0.12500000000E+03  0.12500000000E+03 0.  0.
          5    1    1    0  501    0  0.46063544246E+02  0.12904480307E+02 -0.39947268737E+02  0.62500000000E+02  0.47000000000E+01 0. -1.
         -5    1    1    0    0  501 -0.46063544246E+02 -0.12904480307E+02  0.39947268737E+02  0.62500000000E+02  0.47000000000E+01 0. -1.
</event>
<event>
 3    0  0.4607503E-005  0.9118800E+02  0.7546771E-02  0.1235069E+00
         25   -1    0    0    0    0  0.00000000000E+00  0.00000000000E+00  0.99999998245E-14  0.12500000000E+03  0.12500000000E+03 0.  0.
          5    1    1    0  501    0 -0.36690101247E+02  0.31664395124E+02 -0.39183702632E+02  0.62500000000E+02  0.47000000000E+01 0.  1.
         -5    1    1    0    0  501  0.36690101247E+02 -0.31664395124E+02  0.39183702632E+02  0.62500000000E+02  0.47000000000E+01 0.  1.
</event>
<event>
 3    0  0.4607503E-005  0.9118800E+02  0.7546771E-02  0.1235069E+00
         25   -1    0    0    0    0  0.00000000000E+00  0.00000000000E+00  0.99999998245E-14  0.12500000000E+03  0.12500000000E+03 0.  0.
          5    1    1    0  501    0  0.56978946021E+02  0.25037826977E+02 -0.32660267282E+01  0.62500000000E+02  0.47000000000E+01 0. -1.
         -5    1    1    0    0  501 -0.56978946021E+02 -0.25037826977E+02  0.32660267282E+01  0.62500000000E+02  0.47000000000E+01 0. -1.
</event>
<event>
 3    0  0.4607503E-005  0.9118800E+02  0.7546771E-02  0.1235069E+00
         25   -1    0    0    0    0  0.00000000000E+00  0.00000000000E+00  0.99999998245E-14  0.12500000000E+03  0.12500000000E+03 0.  0.
          5    1    1    0  501    0 -0.39618225504E+02 -0.47963362946E+02 -0.37512694978E+01  0.62500000000E+02  0.47000000000E+01 0.  1.
         -5    1    1    0    0  501  0.39618225504E+02  0.47963362946E+02  0.37512694978E+01  0.62500000000E+02  0.47000000000E+01 0.  1.
</event>
<event>
 3    0  0.4607503E-005  0.9118800E+02  0.7546771E-02  0.1235069E+00
         25   -1    0    0    0    0  0.00000000000E+00  0.00000000000E+00  0.99999998245E-14  0.12500000000E+03  0.12500000000E+03 0.  0.
          5    1    1    0  501    0 -0.43192923684E+01 -0.88201250050E+01 -0.61544366991E+02  0.62500000000E+02  0.47000000000E+01 0. -1.
         -5    1    1    0    0  501  0.43192923684E+01  0.88201250050E+01  0.61544366991E+02  0.62500000000E+02  0.47000000000E+01 0. -1.
</event>
<event>
 3    0  0.4607503E-005  0.9118800E+02  0.7546771E-02  0.1235069E+00
         25   -1    0    0    0    0  0.00000000000E+00  0.00000000000E+00  0.99999998245E-14  0.12500000000E+03  0.12500000000E+03 0.  0.
          5    1    1    0  501    0 -0.47650383281E+02 -0.74705508101E+01 -0.39468871833E+02  0.62500000000E+02  0.47000000000E+01 0.  1.
         -5    1    1    0    0  501  0.47650383281E+02  0.74705508101E+01  0.39468871833E+02  0.62500000000E+02  0.47000000000E+01 0.  1.
</event>
<event>
 3    0  0.4607503E-005  0.9118800E+02  0.7546771E-02  0.1235069E+00
         25   -1    0    0    0    0  0.00000000000E+00  0.00000000000E+00  0.99999998245E-14  0.12500000000E+03  0.12500000000E+03 0.  0.
          5    1    1    0  501    0  0.62279753974E+02  0.11582469512E+01  0.20126373116E+01  0.62500000000E+02  0.47000000000E+01 0.  1.
         -5    1    1    0    0  501 -0.62279753974E+02 -0.11582469512E+01 -0.20126373116E+01  0.62500000000E+02  0.47000000000E+01 0.  1.
</event>
<event>
 3    0  0.4607503E-005  0.9118800E+02  0.7546771E-02  0.1235069E+00
         25   -1    0    0    0    0  0.00000000000E+00  0.00000000000E+00  0.99999998245E-14  0.12500000000E+03  0.12500000000E+03 0.  0.
          5    1    1    0  501    0 -0.44383017398E+02 -0.43532179002E+02  0.43882978462E+01  0.62500000000E+02  0.47000000000E+01 0.  1.
         -5    1    1    0    0  501  0.44383017398E+02  0.43532179002E+02 -0.43882978462E+01  0.62500000000E+02  0.47000000000E+01 0.  1.
</event>
<event>
 3    0  0.4607503E-005  0.9118800E+02  0.7546771E-02  0.1235069E+00
         25   -1    0    0    0    0  0.00000000000E+00  0.00000000000E+00  0.99999998245E-14  0.12500000000E+03  0.12500000000E+03 0.  0.
          5    1    1    0  501    0 -0.57280464855E+02 -0.14292314414E+02 -0.19970931242E+02  0.62500000000E+02  0.47000000000E+01 0.  1.
         -5    1    1    0    0  501  0.57280464855E+02  0.14292314414E+02  0.19970931242E+02  0.62500000000E+02  0.47000000000E+01 0.  1.
</event>
<event>
 3    0  0.4607503E-005  0.9118800E+02  0.7546771E-02  0.1235069E+00
         25   -1    0    0    0    0  0.00000000000E+00  0.00000000000E+00  0.99999998245E-14  0.12500000000E+03  0.12500000000E+03 0.  0.
          5    1    1    0  501    0 -0.25502482416E+02 -0.49396786867E+02 -0.28173406571E+02  0.62500000000E+02  0.47000000000E+01 0.  1.
         -5    1    1    0    0  501  0.25502482416E+02  0.49396786867E+02  0.28173406571E+02  0.62500000000E+02  0.47000000000E+01 0.  1.
</event>
<event>
 3    0  0.4607503E-005  0.9118800E+02  0.7546771E-02  0.1235069E+00
         25   -1    0    0    0    0  0.00000000000E+00  0.00000000000E+00  0.99999998245E-14  0.12500000000E+03  0.12500000000E+03 0.  0.
          5    1    1    0  501    0  0.31220258580E+02  0.53035618593E+02 -0.98325283945E+01  0.62500000000E+02  0.47000000000E+01 0. -1.
         -5    1    1    0    0  501 -0.31220258580E+02 -0.53035618593E+02  0.98325283945E+01  0.62500000000E+02  0.47000000000E+01 0. -1.
</event>
<event>
 3    0  0.4607503E-005  0.9118800E+02  0.7546771E-02  0.1235069E+00
         25   -1    0    0    0    0  0.00000000000E+00  0.00000000000E+00  0.99999998245E-14  0.12500000000E+03  0.12500000000E+03 0.  0.
          5    1    1    0  501    0 -0.20636768705E+02 -0.44970345948E+01  0.58634976399E+02  0.62500000000E+02  0.47000000000E+01 0. -1.
         -5    1    1    0    0  501  0.20636768705E+02  0.44970345948E+01 -0.58634976399E+02  0.62500000000E+02  0.47000000000E+01 0. -1.
</event>
<event>
 3    0  0.4607503E-005  0.9118800E+02  0.7546771E-02  0.1235069E+00
         25   -1    0    0    0    0  0.00000000000E+00  0.00000000000E+00  0.99999998245E-14  0.12500000000E+03  0.12500000000E+03 0.  0.
          5    1    1    0  501    0  0.60243116178E+02 -0.58665718282E+01 -0.14849588820E+02  0.62500000000E+02  0.47000000000E+01 0.  1.
         -5    1    1    0    0  501 -0.60243116178E+02  0.58665718282E+01  0.14849588820E+02  0.62500000000E+02  0.47000000000E+01 0.  1.
</event>
<event>
 3    0  0.4607503E-005  0.9118800E+02  0.7546771E-02  0.1235069E+00
         25   -1    0    0    0    0  0.00000000000E+00  0.00000000000E+00  0.99999998245E-14  0.12500000000E+03  0.12500000000E+03 0.  0.
          5    1    1    0  501    0 -0.15411680764E+02 -0.23826486725E+02  0.55488184565E+02  0.62500000000E+02  0.47000000000E+01 0.  1.
         -5    1    1    0    0  501  0.15411680764E+02  0.23826486725E+02 -0.55488184565E+02  0.62500000000E+02  0.47000000000E+01 0.  1.
</event>
<event>
 3    0  0.4607503E-005  0.9118800E+02  0.7546771E-02  0.1235069E+00
         25   -1    0    0    0    0  0.00000000000E+00  0.00000000000E+00  0.99999998245E-14  0.12500000000E+03  0.12500000000E+03 0.  0.
          5    1    1    0  501    0 -0.21987788033E+02  0.50522719321E+02 -0.29123049459E+02  0.62500000000E+02  0.47000000000E+01 0. -1.
         -5    1    1    0    0  501  0.21987788033E+02 -0.50522719321E+02  0.29123049459E+02  0.62500000000E+02  0.47000000000E+01 0. -1.
</event>
<event>
 3    0  0.4607503E-005  0.9118800E+02  0.7546771E-02  0.1235069E+00
         25   -1    0    0    0    0  0.00000000000E+00  0.00000000000E+00  0.99999998245E-14  0.12500000000E+03  0.12500000000E+03 0.  0.
          5    1    1    0  501    0 -0.29360461018E+02  0.20339221205E+02 -0.51072883310E+02  0.62500000000E+02  0.47000000000E+01 0.  1.
         -5    1    1    0    0  501  0.29360461018E+02 -0.20339221205E+02  0.51072883310E+02  0.62500000000E+02  0.47000000000E+01 0.  1.
</event>
<event>
 3    0  0.4607503E-005  0.9118800E+02  0.7546771E-02  0.1235069E+00
         25   -1    0    0    0    0  0.00000000000E+00  0.00000000000E+00  0.99999998245E-14  0.12500000000E+03  0.12500000000E+03 0.  0.
          5    1    1    0  501    0  0.23683304395E+02 -0.74098510112E+01 -0.57169530354E+02  0.62500000000E+02  0.47000000000E+01 0. -1.
         -5    1    1    0    0  501 -0.23683304395E+02  0.74098510112E+01  0.57169530354E+02  0.62500000000E+02  0.47000000000E+01 0. -1.
</event>
<event>
 3    0  0.4607503E-005  0.9118800E+02  0.7546771E-02  0.1235069E+00
         25   -1    0    0    0    0  0.00000000000E+00  0.00000000000E+00  0.99999998245E-14  0.12500000000E+03  0.12500000000E+03 0.  0.
          5    1    1    0  501    0  0.37011538775E+02  0.48170409377E+02 -0.13925432059E+02  0.62500000000E+02  0.47000000000E+01 0.  1.
         -5    1    1    0    0  501 -0.37011538775E+02 -0.48170409377E+02  0.13925432059E+02  0.62500000000E+02  0.47000000000E+01 0.  1.
</event>
<event>
 3    0  0.4607503E-005  0.9118800E+02  0.7546771E-02  0.1235069E+00
         25   -1    0    0    0    0  0.00000000000E+00  0.00000000000E+00  0.99999998245E-14  0.12500000000E+03  0.12500000000E+03 0.  0.
          5    1    1    0  501    0  0.36180563042E+01 -0.48669113604E+02  0.38760637889E+02  0.62500000000E+02  0.47000000000E+01 0. -1.
         -5    1    1    0    0  501 -0.36180563042E+01  0.48669113604E+02 -0.38760637889E+02  0.62500000000E+02  0.47000000000E+01 0. -1.
</event>
<event>
 3    0  0.4607503E-005  0.9118800E+02  0.7546771E-02  0.1235069E+00
         25   -1    0    0    0    0  0.00000000000E+00  0.00000000000E+00  0.99999998245E-14  0.12500000000E+03  0.12500000000E+03 0.  0.
          5    1    1    0  501    0  0.28090028287E+02 -0.50412505496E+02 -0.23530609862E+02  0.62500000000E+02  0.47000000000E+01 0. -1.
         -5    1    1    0    0  501 -0.28090028287E+02  0.50412505496E+02  0.23530609862E+02  0.62500000000E+02  0.47000000000E+01 0. -1.
</event>
<event>
 3    0  0.4607503E-005  0.9118800E+02  0.7546771E-02  0.1235069E+00
         25   -1    0    0    0    0  0.00000000000E+00  0.00000000000E+00  0.99999998245E-14  0.12500000000E+03  0.12500000000E+03 0.  0.
          5    1    1    0  501    0 -0.35753956043E+02 -0.35888594139E+02  0.36301837943E+02  0.62500000000E+02  0.47000000000E+01 0. -1.
         -5    1    1    0    0  501  0.35753956043E+02  0.35888594139E+02 -0.36301837943E+02  0.62500000000E+02  0.47000000000E+01 0. -1.
</event>
<event>
 3    0  0.4607503E-005  0.9118800E+02  0.7546771E-02  0.1235069E+00
         25   -1    0    0    0    0  0.00000000000E+00  0.00000000000E+00  0.99999998245E-14  0.12500000000E+03  0.12500000000E+03 0.  0.
          5    1    1    0  501    0  0.41628368445E+01  0.30633070664E+02 -0.54115115921E+02  0.62500000000E+02  0.47000000000E+01 0. -1.
         -5    1    1    0    0  501 -0.41628368445E+01 -0.30633070664E+02  0.54115115921E+02  0.62500000000E+02  0.47000000000E+01 0. -1.
</event>
<event>
 3    0  0.4607503E-005  0.9118800E+02  0.7546771E-02  0.1235069E+00
         25   -1    0    0    0    0  0.00000000000E+00  0.00000000000E+00  0.99999998245E-14  0.12500000000E+03  0.12500000000E+03 0.  0.
          5    1    1    0  501    0 -0.61811738603E+02  0.65397811084E+01  0.45497509705E+01  0.62500000000E+02  0.47000000000E+01 0. -1.
         -5    1    1    0    0  501  0.61811738603E+02 -0.65397811084E+01 -0.45497509705E+01  0.62500000000E+02  0.47000000000E+01 0. -1.
</event>
<event>
 3    0  0.4607503E-005  0.9118800E+02  0.7546771E-02  0.1235069E+00
         25   -1    0    0    0    0  0.00000000000E+00  0.00000000000E+00  0.99999998245E-14  0.12500000000E+03  0.12500000000E+03 0.  0.
          5    1    1    0  501    0  0.18078946694E+02  0.26368003549E+02  0.53498038051E+02  0.62500000000E+02  0.47000000000E+01 0. -1.
         -5    1    1    0    0  501 -0.18078946694E+02 -0.26368003549E+02 -0.53498038051E+02  0.62500000000E+02  0.47000000000E+01 0. -1.
</event>
<event>
 3    0  0.4607503E-005  0.9118800E+02  0.7546771E-02  0.1235069E+00
         25   -1    0    0    0    0  0.00000000000E+00  0.00000000000E+00  0.99999998245E-14  0.12500000000E+03  0.12500000000E+03 0.  0.
          5    1    1    0  501    0  0.39879435313E+02 -0.29157806914E+02  0.37994906699E+02  0.62500000000E+02  0.47000000000E+01 0.  1.
         -5    1    1    0    0  501 -0.39879435313E+02  0.29157806914E+02 -0.37994906699E+02  0.62500000000E+02  0.47000000000E+01 0.  1.
</event>
<event>
 3    0  0.4607503E-005  0.9118800E+02  0.7546771E-02  0.1235069E+00
         25   -1    0    0    0    0  0.00000000000E+00  0.00000000000E+00  0.99999998245E-14  0.12500000000E+03  0.12500000000E+03 0.  0.
          5    1    1    0  501    0 -0.49437522432E+02  0.63436420036E+01 -0.37414563768E+02  0.62500000000E+02  0.47000000000E+01 0.  1.
         -5    1    1    0    0  501  0.49437522432E+02 -0.63436420036E+01  0.37414563768E+02  0.62500000000E+02  0.47000000000E+01 0.  1.
</event>
<event>
 3    0  0.4607503E-005  0.9118800E+02  0.7546771E-02  0.1235069E+00
         25   -1    0    0    0    0  0.00000000000E+00  0.00000000000E+00  0.99999998245E-14  0.12500000000E+03  0.12500000000E+03 0.  0.
          5    1    1    0  501    0 -0.14360199796E+02  0.20390946102E+02  0.57115269227E+02  0.62500000000E+02  0.47000000000E+01 0.  1.
         -5    1    1    0    0  501  0.14360199796E+02 -0.20390946102E+02 -0.57115269227E+02  0.62500000000E+02  0.47000000000E+01 0.  1.
</event>
<event>
 3    0  0.4607503E-005  0.9118800E+02  0.7546771E-02  0.1235069E+00
         25   -1    0    0    0    0  0.00000000000E+00  0.00000000000E+00  0.99999998245E-14  0.12500000000E+03  0.12500000000E+03 0.  0.
          5    1    1    0  501    0  0.12697473699E+02 -0.52830951196E+02 -0.30525804780E+02  0.62500000000E+02  0.47000000000E+01 0. -1.
         -5    1    1    0    0  501 -0.12697473699E+02  0.52830951196E+02  0.30525804780E+02  0.62500000000E+02  0.47000000000E+01 0. -1.
</event>
<event>
 3    0  0.4607503E-005  0.9118800E+02  0.7546771E-02  0.1235069E+00
         25   -1    0    0    0    0  0.00000000000E+00  0.00000000000E+00  0.99999998245E-14  0.12500000000E+03  0.12500000000E+03 0.  0.
          5    1    1    0  501    0  0.49882087224E+00 -0.58667250229E+02 -0.21025340147E+02  0.62500000000E+02  0.47000000000E+01 0.  1.
         -5    1    1    0    0  501 -0.49882087224E+00  0.58667250229E+02  0.21025340147E+02  0.62500000000E+02  0.47000000000E+01 0.  1.
</event>
<event>
 3    0  0.4607503E-005  0.9118800E+02  0.7546771E-02  0.1235069E+00
         25   -1    0    0    0    0  0.00000000000E+00  0.00000000000E+00  0.99999998245E-14  0.12500000000E+03  0.12500000000E+03 0.  0.
          5    1    1    0  501    0  0.31850516395E+01  0.61934230986E+02  0.61779024116E+01  0.62500000000E+02  0.47000000000E+01 0.  1.
         -5    1    1    0    0  501 -0.31850516395E+01 -0.61934230986E+02 -0.61779024116E+01  0.62500000000E+02  0.47000000000E+01 0.  1.
</event>
<event>
 3    0  0.4607503E-005  0.9118800E+02  0.7546771E-02  0.1235069E+00
         25   -1    0    0    0    0  0.00000000000E+00  0.00000000000E+00  0.99999998245E-14  0.12500000000E+03  0.12500000000E+03 0.  0.
          5    1    1    0  501    0 -0.27647124107E+02 -0.50859127376E+02 -0.23089947837E+02  0.62500000000E+02  0.47000000000E+01 0.  1.
         -5    1    1    0    0  501  0.27647124107E+02  0.50859127376E+02  0.23089947837E+02  0.62500000000E+02  0.47000000000E+01 0.  1.
</event>
<event>
 3    0  0.4607503E-005  0.9118800E+02  0.7546771E-02  0.1235069E+00
         25   -1    0    0    0    0  0.00000000000E+00  0.00000000000E+00  0.99999998245E-14  0.12500000000E+03  0.12500000000E+03 0.  0.
          5    1    1    0  501    0 -0.48254784393E+02  0.33940584509E+02 -0.20091602882E+02  0.62500000000E+02  0.47000000000E+01 0.  1.
         -5    1    1    0    0  501  0.48254784393E+02 -0.33940584509E+02  0.20091602882E+02  0.62500000000E+02  0.47000000000E+01 0.  1.
</event>
<event>
 3    0  0.4607503E-005  0.9118800E+02  0.7546771E-02  0.1235069E+00
         25   -1    0    0    0    0  0.00000000000E+00  0.00000000000E+00  0.99999998245E-14  0.12500000000E+03  0.12500000000E+03 0.  0.
          5    1    1    0  501    0 -0.23668513931E+02 -0.41684065058E+02  0.39829639322E+02  0.62500000000E+02  0.47000000000E+01 0.  1.
         -5    1    1    0    0  501  0.23668513931E+02  0.41684065058E+02 -0.39829639322E+02  0.62500000000E+02  0.47000000000E+01 0.  1.
</event>
<event>
 3    0  0.4607503E-005  0.9118800E+02  0.7546771E-02  0.1235069E+00
         25   -1    0    0    0    0  0.00000000000E+00  0.00000000000E+00  0.99999998245E-14  0.12500000000E+03  0.12500000000E+03 0.  0.
          5    1    1    0  501    0  0.32550846964E+02  0.20313426881E+02  0.49111781176E+02  0.62500000000E+02  0.47000000000E+01 0.  1.
         -5    1    1    0    0  501 -0.32550846964E+02 -0.20313426881E+02 -0.49111781176E+02  0.62500000000E+02  0.47000000000E+01 0.  1.
</event>
<event>
 3    0  0.4607503E-005  0.9118800E+02  0.7546771E-02  0.1235069E+00
         25   -1    0    0    0    0  0.00000000000E+00  0.00000000000E+00  0.99999998245E-14  0.12500000000E+03  0.12500000000E+03 0.  0.
          5    1    1    0  501    0 -0.59194323215E+02 -0.13335489429E+02 -0.14225217775E+02  0.62500000000E+02  0.47000000000E+01 0. -1.
         -5    1    1    0    0  501  0.59194323215E+02  0.13335489429E+02  0.14225217775E+02  0.62500000000E+02  0.47000000000E+01 0. -1.
</event>
<event>
 3    0  0.4607503E-005  0.9118800E+02  0.7546771E-02  0.1235069E+00
         25   -1    0    0    0    0  0.00000000000E+00  0.00000000000E+00  0.99999998245E-14  0.12500000000E+03  0.12500000000E+03 0.  0.
          5    1    1    0  501    0 -0.17984812293E+01 -0.50363222334E+02 -0.36667032896E+02  0.62500000000E+02  0.47000000000E+01 0. -1.
         -5    1    1    0    0  501  0.17984812293E+01  0.50363222334E+02  0.36667032896E+02  0.62500000000E+02  0.47000000000E+01 0. -1.
</event>
<event>
 3    0  0.4607503E-005  0.9118800E+02  0.7546771E-02  0.1235069E+00
         25   -1    0    0    0    0  0.00000000000E+00  0.00000000000E+00  0.99999998245E-14  0.12500000000E+03  0.12500000000E+03 0.  0.
          5    1    1    0  501    0 -0.14183187827E+02 -0.33138136198E+02  0.50841529406E+02  0.62500000000E+02  0.47000000000E+01 0. -1.
         -5    1    1    0    0  501  0.14183187827E+02  0.33138136198E+02 -0.50841529406E+02  0.62500000000E+02  0.47000000000E+01 0. -1.
</event>
<event>
 3    0  0.4607503E-005  0.9118800E+02  0.7546771E-02  0.1235069E+00
         25   -1    0    0    0    0  0.00000000000E+00  0.00000000000E+00  0.99999998245E-14  0.12500000000E+03  0.12500000000E+03 0.  0.
          5    1    1    0  501    0 -0.15343067631E+02  0.49212645419E+02 -0.35026644237E+02  0.62500000000E+02  0.47000000000E+01 0.  1.
         -5    1    1    0    0  501  0.15343067631E+02 -0.49212645419E+02  0.35026644237E+02  0.62500000000E+02  0.47000000000E+01 0.  1.
</event>
<event>
 3    0  0.4607503E-005  0.9118800E+02  0.7546771E-02  0.1235069E+00
         25   -1    0    0    0    0  0.00000000000E+00  0.00000000000E+00  0.99999998245E-14  0.12500000000E+03  0.12500000000E+03 0.  0.
          5    1    1    0  501    0  0.73031953483E+01 -0.22552892930E+02 -0.57638445140E+02  0.62500000000E+02  0.47000000000E+01 0.  1.
         -5    1    1    0    0  501 -0.73031953483E+01  0.22552892930E+02  0.57638445140E+02  0.62500000000E+02  0.47000000000E+01 0.  1.
</event>
<event>
 3    0  0.4607503E-005  0.9118800E+02  0.7546771E-02  0.1235069E+00
         25   -1    0    0    0    0  0.00000000000E+00  0.00000000000E+00  0.99999998245E-14  0.12500000000E+03  0.12500000000E+03 0.  0.
          5    1    1    0  501    0 -0.47837154654E+02 -0.14676266934E+02 -0.37153382396E+02  0.62500000000E+02  0.47000000000E+01 0. -1.
         -5    1    1    0    0  501  0.47837154654E+02  0.14676266934E+02  0.37153382396E+02  0.62500000000E+02  0.47000000000E+01 0. -1.
</event>
<event>
 3    0  0.4607503E-005  0.9118800E+02  0.7546771E-02  0.1235069E+00
         25   -1    0    0    0    0  0.00000000000E+00  0.00000000000E+00  0.99999998245E-14  0.12500000000E+03  0.12500000000E+03 0.  0.
          5    1    1    0  501    0  0.55150026706E+02 -0.28903077959E+02  0.26919581709E+01  0.62500000000E+02  0.47000000000E+01 0.  1.
         -5    1    1    0    0  501 -0.55150026706E+02  0.28903077959E+02 -0.26919581709E+01  0.62500000000E+02  0.47000000000E+01 0.  1.
</event>
<event>
 3    0  0.4607503E-005  0.9118800E+02  0.7546771E-02  0.1235069E+00
         25   -1    0    0    0    0  0.00000000000E+00  0.00000000000E+00  0.99999998245E-14  0.12500000000E+03  0.12500000000E+03 0.  0.
          5    1    1    0  501    0  0.12568128430E+02  0.31743799197E+02  0.52139556579E+02  0.62500000000E+02  0.47000000000E+01 0.  1.
         -5    1    1    0    0  501 -0.12568128430E+02 -0.31743799197E+02 -0.52139556579E+02  0.62500000000E+02  0.47000000000E+01 0.  1.
</event>
<event>
 3    0  0.4607503E-005  0.9118800E+02  0.7546771E-02  0.1235069E+00
         25   -1    0    0    0    0  0.00000000000E+00  0.00000000000E+00  0.99999998245E-14  0.12500000000E+03  0.12500000000E+03 0.  0.
          5    1    1    0  501    0  0.37351035840E+01  0.60991719084E+02 -0.12256394431E+02  0.62500000000E+02  0.47000000000E+01 0.  1.
         -5    1    1    0    0  501 -0.37351035840E+01 -0.60991719084E+02  0.12256394431E+02  0.62500000000E+02  0.47000000000E+01 0.  1.
</event>
<event>
 3    0  0.4607503E-005  0.9118800E+02  0.7546771E-02  0.1235069E+00
         25   -1    0    0    0    0  0.00000000000E+00  0.00000000000E+00  0.99999998245E-14  0.12500000000E+03  0.12500000000E+03 0.  0.
          5    1    1    0  501    0 -0.55806574844E+02 -0.17608915641E+02 -0.21440902362E+02  0.62500000000E+02  0.47000000000E+01 0. -1.
         -5    1    1    0    0  501  0.55806574844E+02  0.17608915641E+02  0.21440902362E+02  0.62500000000E+02  0.47000000000E+01 0. -1.
</event>
<event>
 3    0  0.4607503E-005  0.9118800E+02  0.7546771E-02  0.1235069E+00
         25   -1    0    0    0    0  0.00000000000E+00  0.00000000000E+00  0.99999998245E-14  0.12500000000E+03  0.12500000000E+03 0.  0.
          5    1    1    0  501    0  0.10250062566E+02 -0.58954800252E+02 -0.17419177495E+02  0.62500000000E+02  0.47000000000E+01 0.  1.
         -5    1    1    0    0  501 -0.10250062566E+02  0.58954800252E+02  0.17419177495E+02  0.62500000000E+02  0.47000000000E+01 0.  1.
</event>
<event>
 3    0  0.4607503E-005  0.9118800E+02  0.7546771E-02  0.1235069E+00
         25   -1    0    0    0    0  0.00000000000E+00  0.00000000000E+00  0.99999998245E-14  0.12500000000E+03  0.12500000000E+03 0.  0.
          5    1    1    0  501    0 -0.45134839720E+02 -0.42837697448E+02  0.34551296372E+01  0.62500000000E+02  0.47000000000E+01 0. -1.
         -5    1    1    0    0  501  0.45134839720E+02  0.42837697448E+02 -0.34551296372E+01  0.62500000000E+02  0.47000000000E+01 0. -1.
</event>
<event>
 3    0  0.4607503E-005  0.9118800E+02  0.7546771E-02  0.1235069E+00
         25   -1    0    0    0    0  0.00000000000E+00  0.00000000000E+00  0.99999998245E-14  0.12500000000E+03  0.12500000000E+03 0.  0.
          5    1    1    0  501    0 -0.22482516369E+02 -0.57913939462E+02  0.49670991225E+01  0.62500000000E+02  0.47000000000E+01 0. -1.
         -5    1    1    0    0  501  0.22482516369E+02  0.57913939462E+02 -0.49670991225E+01  0.62500000000E+02  0.47000000000E+01 0. -1.
</event>
<event>
 3    0  0.4607503E-005  0.9118800E+02  0.7546771E-02  0.1235069E+00
         25   -1    0    0    0    0  0.00000000000E+00  0.00000000000E+00  0.99999998245E-14  0.12500000000E+03  0.12500000000E+03 0.  0.
          5    1    1    0  501    0  0.15825885957E+02 -0.47695712165E+02 -0.36862180818E+02  0.62500000000E+02  0.47000000000E+01 0.  1.
         -5    1    1    0    0  501 -0.15825885957E+02  0.47695712165E+02  0.36862180818E+02  0.62500000000E+02  0.47000000000E+01 0.  1.
</event>
<event>
 3    0  0.4607503E-005  0.9118800E+02  0.7546771E-02  0.1235069E+00
         25   -1    0    0    0    0  0.00000000000E+00  0.00000000000E+00  0.99999998245E-14  0.12500000000E+03  0.12500000000E+03 0.  0.
          5    1    1    0  501    0  0.55913287494E+02 -0.14197762356E+02  0.23585754720E+02  0.62500000000E+02  0.47000000000E+01 0.  1.
         -5    1    1    0    0  501 -0.55913287494E+02  0.14197762356E+02 -0.23585754720E+02  0.62500000000E+02  0.47000000000E+01 0.  1.
</event>
<event>
 3    0  0.4607503E-005  0.9118800E+02  0.7546771E-02  0.1235069E+00
         25   -1    0    0    0    0  0.00000000000E+00  0.00000000000E+00  0.99999998245E-14  0.12500000000E+03  0.12500000000E+03 0.  0.
          5    1    1    0  501    0 -0.44867316053E+01 -0.52614319986E+02  0.33102304632E+02  0.62500000000E+02  0.47000000000E+01 0.  1.
         -5    1    1    0    0  501  0.44867316053E+01  0.52614319986E+02 -0.33102304632E+02  0.62500000000E+02  0.47000000000E+01 0.  1.
</event>
<event>
 3    0  0.4607503E-005  0.9118800E+02  0.7546771E-02  0.1235069E+00
         25   -1    0    0    0    0  0.00000000000E+00  0.00000000000E+00  0.99999998245E-14  0.12500000000E+03  0.12500000000E+03 0.  0.
          5    1    1    0  501    0 -0.56769162070E+02  0.13156808128E+02  0.22097978138E+02  0.62500000000E+02  0.47000000000E+01 0.  1.
         -5    1    1    0    0  501  0.56769162070E+02 -0.13156808128E+02 -0.22097978138E+02  0.62500000000E+02  0.47000000000E+01 0.  1.
</event>
<event>
 3    0  0.4607503E-005  0.9118800E+02  0.7546771E-02  0.1235069E+00
         25   -1    0    0    0    0  0.00000000000E+00  0.00000000000E+00  0.99999998245E-14  0.12500000000E+03  0.12500000000E+03 0.  0.
          5    1    1    0  501    0 -0.28140260940E+02 -0.29537784614E+02 -0.47114806529E+02  0.62500000000E+02  0.47000000000E+01 0.  1.
         -5    1    1    0    0  501  0.28140260940E+02  0.29537784614E+02  0.47114806529E+02  0.62500000000E+02  0.47000000000E+01 0.  1.
</event>
<event>
 3    0  0.4607503E-005  0.9118800E+02  0.7546771E-02  0.1235069E+00
         25   -1    0    0    0    0  0.00000000000E+00  0.00000000000E+00  0.99999998245E-14  0.12500000000E+03  0.12500000000E+03 0.  0.
          5    1    1    0  501    0  0.23102403375E+02 -0.36760457252E+02 -0.44711382677E+02  0.62500000000E+02  0.47000000000E+01 0. -1.
         -5    1    1    0    0  501 -0.23102403375E+02  0.36760457252E+02  0.44711382677E+02  0.62500000000E+02  0.47000000000E+01 0. -1.
</event>
<event>
 3    0  0.4607503E-005  0.9118800E+02  0.7546771E-02  0.1235069E+00
         25   -1    0    0    0    0  0.00000000000E+00  0.00000000000E+00  0.99999998245E-14  0.12500000000E+03  0.12500000000E+03 0.  0.
          5    1    1    0  501    0 -0.48267297476E+02  0.37165531146E+02 -0.13158696328E+02  0.62500000000E+02  0.47000000000E+01 0. -1.
         -5    1    1    0    0  501  0.48267297476E+02 -0.37165531146E+02  0.13158696328E+02  0.62500000000E+02  0.47000000000E+01 0. -1.
</event>
<event>
 3    0  0.4607503E-005  0.9118800E+02  0.7546771E-02  0.1235069E+00
         25   -1    0    0    0    0  0.00000000000E+00  0.00000000000E+00  0.99999998245E-14  0.12500000000E+03  0.12500000000E+03 0.  0.
          5    1    1    0  501    0 -0.58623200968E+02  0.20781819975E+02  0.39492109025E+01  0.62500000000E+02  0.47000000000E+01 0.  1.
         -5    1    1    0    0  501  0.58623200968E+02 -0.20781819975E+02 -0.39492109025E+01  0.62500000000E+02  0.47000000000E+01 0.  1.
</event>
<event>
 3    0  0.4607503E-005  0.9118800E+02  0.7546771E-02  0.1235069E+00
         25   -1    0    0    0    0  0.00000000000E+00  0.00000000000E+00  0.99999998245E-14  0.12500000000E+03  0.12500000000E+03 0.  0.
          5    1    1    0  501    0 -0.12746985336E+02  0.52152843945E+02  0.31650517109E+02  0.62500000000E+02  0.47000000000E+01 0.  1.
         -5    1    1    0    0  501  0.12746985336E+02 -0.52152843945E+02 -0.31650517109E+02  0.62500000000E+02  0.47000000000E+01 0.  1.
</event>
<event>
 3    0  0.4607503E-005  0.9118800E+02  0.7546771E-02  0.1235069E+00
         25   -1    0    0    0    0  0.00000000000E+00  0.00000000000E+00  0.99999998245E-14  0.12500000000E+03  0.12500000000E+03 0.  0.
          5    1    1    0  501    0 -0.34562385527E+01 -0.54901072220E+02  0.29293116668E+02  0.62500000000E+02  0.47000000000E+01 0.  1.
         -5    1    1    0    0  501  0.34562385527E+01  0.54901072220E+02 -0.29293116668E+02  0.62500000000E+02  0.47000000000E+01 0.  1.
</event>
<event>
 3    0  0.4607503E-005  0.9118800E+02  0.7546771E-02  0.1235069E+00
         25   -1    0    0    0    0  0.00000000000E+00  0.00000000000E+00  0.99999998245E-14  0.12500000000E+03  0.12500000000E+03 0.  0.
          5    1    1    0  501    0 -0.30084287483E+02  0.53443142563E+02  0.11087207025E+02  0.62500000000E+02  0.47000000000E+01 0. -1.
         -5    1    1    0    0  501  0.30084287483E+02 -0.53443142563E+02 -0.11087207025E+02  0.62500000000E+02  0.47000000000E+01 0. -1.
</event>
<event>
 3    0  0.4607503E-005  0.9118800E+02  0.7546771E-02  0.1235069E+00
         25   -1    0    0    0    0  0.00000000000E+00  0.00000000000E+00  0.99999998245E-14  0.12500000000E+03  0.12500000000E+03 0.  0.
          5    1    1    0  501    0  0.33378611726E+02  0.46287489345E+02  0.25049882424E+02  0.62500000000E+02  0.47000000000E+01 0.  1.
         -5    1    1    0    0  501 -0.33378611726E+02 -0.46287489345E+02 -0.25049882424E+02  0.62500000000E+02  0.47000000000E+01 0.  1.
</event>
<event>
 3    0  0.4607503E-005  0.9118800E+02  0.7546771E-02  0.1235069E+00
         25   -1    0    0    0    0  0.00000000000E+00  0.00000000000E+00  0.99999998245E-14  0.12500000000E+03  0.12500000000E+03 0.  0.
          5    1    1    0  501    0 -0.27119903219E+02  0.56021169690E+02 -0.32092671960E+01  0.62500000000E+02  0.47000000000E+01 0. -1.
         -5    1    1    0    0  501  0.27119903219E+02 -0.56021169690E+02  0.32092671960E+01  0.62500000000E+02  0.47000000000E+01 0. -1.
</event>
<event>
 3    0  0.4607503E-005  0.9118800E+02  0.7546771E-02  0.1235069E+00
         25   -1    0    0    0    0  0.00000000000E+00  0.00000000000E+00  0.99999998245E-14  0.12500000000E+03  0.12500000000E+03 0.  0.
          5    1    1    0  501    0 -0.29086165190E+00  0.58350800852E+02 -0.21891994871E+02  0.62500000000E+02  0.47000000000E+01 0.  1.
         -5    1    1    0    0  501  0.29086165190E+00 -0.58350800852E+02  0.21891994871E+02  0.62500000000E+02  0.47000000000E+01 0.  1.
</event>
<event>
 3    0  0.4607503E-005  0.9118800E+02  0.7546771E-02  0.1235069E+00
         25   -1    0    0    0    0  0.00000000000E+00  0.00000000000E+00  0.99999998245E-14  0.12500000000E+03  0.12500000000E+03 0.  0.
          5    1    1    0  501    0 -0.14875119937E+02 -0.30388245680E+02  0.52339710845E+02  0.62500000000E+02  0.47000000000E+01 0. -1.
         -5    1    1    0    0  501  0.14875119937E+02  0.30388245680E+02 -0.52339710845E+02  0.62500000000E+02  0.47000000000E+01 0. -1.
</event>
<event>
 3    0  0.4607503E-005  0.9118800E+02  0.7546771E-02  0.1235069E+00
         25   -1    0    0    0    0  0.00000000000E+00  0.00000000000E+00  0.99999998245E-14  0.12500000000E+03  0.12500000000E+03 0.  0.
          5    1    1    0  501    0  0.49127647481E+02 -0.18926550412E+01 -0.38302116258E+02  0.62500000000E+02  0.47000000000E+01 0. -1.
         -5    1    1    0    0  501 -0.49127647481E+02  0.18926550412E+01  0.38302116258E+02  0.62500000000E+02  0.47000000000E+01 0. -1.
</event>
<event>
 3    0  0.4607503E-005  0.9118800E+02  0.7546771E-02  0.1235069E+00
         25   -1    0    0    0    0  0.00000000000E+00  0.00000000000E+00  0.99999998245E-14  0.12500000000E+03  0.12500000000E+03 0.  0.
          5    1    1    0  501    0 -0.18950342576E+01 -0.21420476240E+02 -0.58495572848E+02  0.62500000000E+02  0.47000000000E+01 0. -1.
         -5    1    1    0    0  501  0.18950342576E+01  0.21420476240E+02  0.58495572848E+02  0.62500000000E+02  0.47000000000E+01 0. -1.
</event>
<event>
 3    0  0.4607503E-005  0.9118800E+02  0.7546771E-02  0.1235069E+00
         25   -1    0    0    0    0  0.00000000000E+00  0.00000000000E+00  0.99999998245E-14  0.12500000000E+03  0.12500000000E+03 0.  0.
          5    1    1    0  501    0  0.33824638549E+02  0.45273238236E+01  0.52149373592E+02  0.62500000000E+02  0.47000000000E+01 0. -1.
         -5    1    1    0    0  501 -0.33824638549E+02 -0.45273238236E+01 -0.52149373592E+02  0.62500000000E+02  0.47000000000E+01 0. -1.
</event>
<event>
 3    0  0.4607503E-005  0.9118800E+02  0.7546771E-02  0.1235069E+00
         25   -1    0    0    0    0  0.00000000000E+00  0.00000000000E+00  0.99999998245E-14  0.12500000000E+03  0.12500000000E+03 0.  0.
          5    1    1    0  501    0  0.47992825970E+02  0.56600990129E+01 -0.39354948031E+02  0.62500000000E+02  0.47000000000E+01 0. -1.
         -5    1    1    0    0  501 -0.47992825970E+02 -0.56600990129E+01  0.39354948031E+02  0.62500000000E+02  0.47000000000E+01 0. -1.
</event>
<event>
 3    0  0.4607503E-005  0.9118800E+02  0.7546771E-02  0.1235069E+00
         25   -1    0    0    0    0  0.00000000000E+00  0.00000000000E+00  0.99999998245E-14  0.12500000000E+03  0.12500000000E+03 0.  0.
          5    1    1    0  501    0  0.56949371437E+02 -0.12352139547E+02  0.22098727149E+02  0.62500000000E+02  0.47000000000E+01 0.  1.
         -5    1    1    0    0  501 -0.56949371437E+02  0.12352139547E+02 -0.22098727149E+02  0.62500000000E+02  0.47000000000E+01 0.  1.
</event>
<event>
 3    0  0.4607503E-005  0.9118800E+02  0.7546771E-02  0.1235069E+00
         25   -1    0    0    0    0  0.00000000000E+00  0.00000000000E+00  0.99999998245E-14  0.12500000000E+03  0.12500000000E+03 0.  0.
          5    1    1    0  501    0  0.10576841624E+02 -0.76494695616E+01 -0.60940758419E+02  0.62500000000E+02  0.47000000000E+01 0. -1.
         -5    1    1    0    0  501 -0.10576841624E+02  0.76494695616E+01  0.60940758419E+02  0.62500000000E+02  0.47000000000E+01 0. -1.
</event>
<event>
 3    0  0.4607503E-005  0.9118800E+02  0.7546771E-02  0.1235069E+00
         25   -1    0    0    0    0  0.00000000000E+00  0.00000000000E+00  0.99999998245E-14  0.12500000000E+03  0.12500000000E+03 0.  0.
          5    1    1    0  501    0 -0.30226276423E+02  0.30598960297E+02 -0.45102503726E+02  0.62500000000E+02  0.47000000000E+01 0.  1.
         -5    1    1    0    0  501  0.30226276423E+02 -0.30598960297E+02  0.45102503726E+02  0.62500000000E+02  0.47000000000E+01 0.  1.
</event>
<event>
 3    0  0.4607503E-005  0.9118800E+02  0.7546771E-02  0.1235069E+00
         25   -1    0    0    0    0  0.00000000000E+00  0.00000000000E+00  0.99999998245E-14  0.12500000000E+03  0.12500000000E+03 0.  0.
          5    1    1    0  501    0 -0.46100678812E+02 -0.41499917291E+02  0.60534517366E+01  0.62500000000E+02  0.47000000000E+01 0.  1.
         -5    1    1    0    0  501  0.46100678812E+02  0.41499917291E+02 -0.60534517366E+01  0.62500000000E+02  0.47000000000E+01 0.  1.
</event>
<event>
 3    0  0.4607503E-005  0.9118800E+02  0.7546771E-02  0.1235069E+00
         25   -1    0    0    0    0  0.00000000000E+00  0.00000000000E+00  0.99999998245E-14  0.12500000000E+03  0.12500000000E+03 0.  0.
          5    1    1    0  501    0 -0.17780914980E+02 -0.19668664699E+02  0.56401619581E+02  0.62500000000E+02  0.47000000000E+01 0. -1.
         -5    1    1    0    0  501  0.17780914980E+02  0.19668664699E+02 -0.56401619581E+02  0.62500000000E+02  0.47000000000E+01 0. -1.
</event>
<event>
 3    0  0.4607503E-005  0.9118800E+02  0.7546771E-02  0.1235069E+00
         25   -1    0    0    0    0  0.00000000000E+00  0.00000000000E+00  0.99999998245E-14  0.12500000000E+03  0.12500000000E+03 0.  0.
          5    1    1    0  501    0  0.21913382147E+02  0.58343497338E+02  0.11005217559E-02  0.62500000000E+02  0.47000000000E+01 0. -1.
         -5    1    1    0    0  501 -0.21913382147E+02 -0.58343497338E+02 -0.11005217559E-02  0.62500000000E+02  0.47000000000E+01 0. -1.
</event>
<event>
 3    0  0.4607503E-005  0.9118800E+02  0.7546771E-02  0.1235069E+00
         25   -1    0    0    0    0  0.00000000000E+00  0.00000000000E+00  0.99999998245E-14  0.12500000000E+03  0.12500000000E+03 0.  0.
          5    1    1    0  501    0  0.35165730652E+01 -0.61685253931E+02 -0.81684246557E+01  0.62500000000E+02  0.47000000000E+01 0. -1.
         -5    1    1    0    0  501 -0.35165730652E+01  0.61685253931E+02  0.81684246557E+01  0.62500000000E+02  0.47000000000E+01 0. -1.
</event>
<event>
 3    0  0.4607503E-005  0.9118800E+02  0.7546771E-02  0.1235069E+00
         25   -1    0    0    0    0  0.00000000000E+00  0.00000000000E+00  0.99999998245E-14  0.12500000000E+03  0.12500000000E+03 0.  0.
          5    1    1    0  501    0  0.53241685406E+02 -0.22196321647E+02 -0.23596742158E+02  0.62500000000E+02  0.47000000000E+01 0. -1.
         -5    1    1    0    0  501 -0.53241685406E+02  0.22196321647E+02  0.23596742158E+02  0.62500000000E+02  0.47000000000E+01 0. -1.
</event>
<event>
 3    0  0.4607503E-005  0.9118800E+02  0.7546771E-02  0.1235069E+00
         25   -1    0    0    0    0  0.00000000000E+00  0.00000000000E+00  0.99999998245E-14  0.12500000000E+03  0.12500000000E+03 0.  0.
          5    1    1    0  501    0  0.73843436297E+01  0.40590393849E+02  0.46712432995E+02  0.62500000000E+02  0.47000000000E+01 0. -1.
         -5    1    1    0    0  501 -0.73843436297E+01 -0.40590393849E+02 -0.46712432995E+02  0.62500000000E+02  0.47000000000E+01 0. -1.
</event>
<event>
 3    0  0.4607503E-005  0.9118800E+02  0.7546771E-02  0.1235069E+00
         25   -1    0    0    0    0  0.00000000000E+00  0.00000000000E+00  0.99999998245E-14  0.12500000000E+03  0.12500000000E+03 0.  0.
          5    1    1    0  501    0 -0.45216983639E+02  0.13553429221E+02  0.40692615386E+02  0.62500000000E+02  0.47000000000E+01 0.  1.
         -5    1    1    0    0  501  0.45216983639E+02 -0.13553429221E+02 -0.40692615386E+02  0.62500000000E+02  0.47000000000E+01 0.  1.
</event>
<event>
 3    0  0.4607503E-005  0.9118800E+02  0.7546771E-02  0.1235069E+00
         25   -1    0    0    0    0  0.00000000000E+00  0.00000000000E+00  0.99999998245E-14  0.12500000000E+03  0.12500000000E+03 0.  0.
          5    1    1    0  501    0  0.54189730526E+02 -0.80178821357E+01  0.29721148558E+02  0.62500000000E+02  0.47000000000E+01 0. -1.
         -5    1    1    0    0  501 -0.54189730526E+02  0.80178821357E+01 -0.29721148558E+02  0.62500000000E+02  0.47000000000E+01 0. -1.
</event>
<event>
 3    0  0.4607503E-005  0.9118800E+02  0.7546771E-02  0.1235069E+00
         25   -1    0    0    0    0  0.00000000000E+00  0.00000000000E+00  0.99999998245E-14  0.12500000000E+03  0.12500000000E+03 0.  0.
          5    1    1    0  501    0  0.27338649791E+02 -0.55996939551E+02  0.10492800191E+01  0.62500000000E+02  0.47000000000E+01 0. -1.
         -5    1    1    0    0  501 -0.27338649791E+02  0.55996939551E+02 -0.10492800191E+01  0.62500000000E+02  0.47000000000E+01 0. -1.
</event>
<event>
 3    0  0.4607503E-005  0.9118800E+02  0.7546771E-02  0.1235069E+00
         25   -1    0    0    0    0  0.00000000000E+00  0.00000000000E+00  0.99999998245E-14  0.12500000000E+03  0.12500000000E+03 0.  0.
          5    1    1    0  501    0  0.15977048953E+02 -0.25156257769E+02 -0.54736245778E+02  0.62500000000E+02  0.47000000000E+01 0.  1.
         -5    1    1    0    0  501 -0.15977048953E+02  0.25156257769E+02  0.54736245778E+02  0.62500000000E+02  0.47000000000E+01 0.  1.
</event>
<event>
 3    0  0.4607503E-005  0.9118800E+02  0.7546771E-02  0.1235069E+00
         25   -1    0    0    0    0  0.00000000000E+00  0.00000000000E+00  0.99999998245E-14  0.12500000000E+03  0.12500000000E+03 0.  0.
          5    1    1    0  501    0  0.57868976740E+02 -0.23134768461E+02 -0.35216373654E+00  0.62500000000E+02  0.47000000000E+01 0. -1.
         -5    1    1    0    0  501 -0.57868976740E+02  0.23134768461E+02  0.35216373654E+00  0.62500000000E+02  0.47000000000E+01 0. -1.
</event>
<event>
 3    0  0.4607503E-005  0.9118800E+02  0.7546771E-02  0.1235069E+00
         25   -1    0    0    0    0  0.00000000000E+00  0.00000000000E+00  0.99999998245E-14  0.12500000000E+03  0.12500000000E+03 0.  0.
          5    1    1    0  501    0  0.40957281815E+02  0.22133541750E+02  0.41433891875E+02  0.62500000000E+02  0.47000000000E+01 0. -1.
         -5    1    1    0    0  501 -0.40957281815E+02 -0.22133541750E+02 -0.41433891875E+02  0.62500000000E+02  0.47000000000E+01 0. -1.
</event>
<event>
 3    0  0.4607503E-005  0.9118800E+02  0.7546771E-02  0.1235069E+00
         25   -1    0    0    0    0  0.00000000000E+00  0.00000000000E+00  0.99999998245E-14  0.12500000000E+03  0.12500000000E+03 0.  0.
          5    1    1    0  501    0 -0.51234965281E+02  0.33821730721E+02  0.10734470818E+02  0.62500000000E+02  0.47000000000E+01 0.  1.
         -5    1    1    0    0  501  0.51234965281E+02 -0.33821730721E+02 -0.10734470818E+02  0.62500000000E+02  0.47000000000E+01 0.  1.
</event>
<event>
 3    0  0.4607503E-005  0.9118800E+02  0.7546771E-02  0.1235069E+00
         25   -1    0    0    0    0  0.00000000000E+00  0.00000000000E+00  0.99999998245E-14  0.12500000000E+03  0.12500000000E+03 0.  0.
          5    1    1    0  501    0 -0.52192591122E+02 -0.33018944332E+02  0.83571973270E+01  0.62500000000E+02  0.47000000000E+01 0.  1.
         -5    1    1    0    0  501  0.52192591122E+02  0.33018944332E+02 -0.83571973270E+01  0.62500000000E+02  0.47000000000E+01 0.  1.
</event>
<event>
 3    0  0.4607503E-005  0.9118800E+02  0.7546771E-02  0.1235069E+00
         25   -1    0    0    0    0  0.00000000000E+00  0.00000000000E+00  0.99999998245E-14  0.12500000000E+03  0.12500000000E+03 0.  0.
          5    1    1    0  501    0  0.88265047212E+01  0.61459170688E+02  0.53873140593E+01  0.62500000000E+02  0.47000000000E+01 0. -1.
         -5    1    1    0    0  501 -0.88265047212E+01 -0.61459170688E+02 -0.53873140593E+01  0.62500000000E+02  0.47000000000E+01 0. -1.
</event>
<event>
 3    0  0.4607503E-005  0.9118800E+02  0.7546771E-02  0.1235069E+00
         25   -1    0    0    0    0  0.00000000000E+00  0.00000000000E+00  0.99999998245E-14  0.12500000000E+03  0.12500000000E+03 0.  0.
          5    1    1    0  501    0 -0.55751926886E+02 -0.15368371699E+02 -0.23231353810E+02  0.62500000000E+02  0.47000000000E+01 0.  1.
         -5    1    1    0    0  501  0.55751926886E+02  0.15368371699E+02  0.23231353810E+02  0.62500000000E+02  0.47000000000E+01 0.  1.
</event>
<event>
 3    0  0.4607503E-005  0.9118800E+02  0.7546771E-02  0.1235069E+00
         25   -1    0    0    0    0  0.00000000000E+00  0.00000000000E+00  0.99999998245E-14  0.12500000000E+03  0.12500000000E+03 0.  0.
          5    1    1    0  501    0  0.34359229200E+02  0.23568155264E+02  0.46348089780E+02  0.62500000000E+02  0.47000000000E+01 0.  1.
         -5    1    1    0    0  501 -0.34359229200E+02 -0.23568155264E+02 -0.46348089780E+02  0.62500000000E+02  0.47000000000E+01 0.  1.
</event>
<event>
 3    0  0.4607503E-005  0.9118800E+02  0.7546771E-02  0.1235069E+00
         25   -1    0    0    0    0  0.00000000000E+00  0.00000000000E+00  0.99999998245E-14  0.12500000000E+03  0.12500000000E+03 0.  0.
          5    1    1    0  501    0  0.50064546463E+02  0.10988988462E+02 -0.35453396453E+02  0.62500000000E+02  0.47000000000E+01 0.  1.
         -5    1    1    0    0  501 -0.50064546463E+02 -0.10988988462E+02  0.35453396453E+02  0.62500000000E+02  0.47000000000E+01 0.  1.
</event>
<event>
 3    0  0.4607503E-005  0.9118800E+02  0.7546771E-02  0.1235069E+00
         25   -1    0    0    0    0  0.00000000000E+00  0.00000000000E+00  0.99999998245E-14  0.12500000000E+03  0.12500000000E+03 0.  0.
          5    1    1    0  501    0 -0.57634801090E+02  0.23596219461E+02 -0.23681491721E+01  0.62500000000E+02  0.47000000000E+01 0. -1.
         -5    1    1    0    0  501  0.57634801090E+02 -0.23596219461E+02  0.23681491721E+01  0.62500000000E+02  0.47000000000E+01 0. -1.
</event>
<event>
 3    0  0.4607503E-005  0.9118800E+02  0.7546771E-02  0.1235069E+00
         25   -1    0    0    0    0  0.00000000000E+00  0.00000000000E+00  0.99999998245E-14  0.12500000000E+03  0.12500000000E+03 0.  0.
          5    1    1    0  501    0  0.39482248599E+02  0.35398538200E+02  0.32745313235E+02  0.62500000000E+02  0.47000000000E+01 0.  1.
         -5    1    1    0    0  501 -0.39482248599E+02 -0.35398538200E+02 -0.32745313235E+02  0.62500000000E+02  0.47000000000E+01 0.  1.
</event>
<event>
 3    0  0.4607503E-005  0.9118800E+02  0.7546771E-02  0.1235069E+00
         25   -1    0    0    0    0  0.00000000000E+00  0.00000000000E+00  0.99999998245E-14  0.12500000000E+03  0.12500000000E+03 0.  0.
          5    1    1    0  501    0 -0.53448913660E+02 -0.24771721664E+02  0.20340487565E+02  0.62500000000E+02  0.47000000000E+01 0.  1.
         -5    1    1    0    0  501  0.53448913660E+02  0.24771721664E+02 -0.20340487565E+02  0.62500000000E+02  0.47000000000E+01 0.  1.
</event>
<event>
 3    0  0.4607503E-005  0.9118800E+02  0.7546771E-02  0.1235069E+00
         25   -1    0    0    0    0  0.00000000000E+00  0.00000000000E+00  0.99999998245E-14  0.12500000000E+03  0.12500000000E+03 0.  0.
          5    1    1    0  501    0 -0.57464121524E+02  0.18727221788E+02  0.15209401751E+02  0.62500000000E+02  0.47000000000E+01 0.  1.
         -5    1    1    0    0  501  0.57464121524E+02 -0.18727221788E+02 -0.15209401751E+02  0.62500000000E+02  0.47000000000E+01 0.  1.
</event>
<event>
 3    0  0.4607503E-005  0.9118800E+02  0.7546771E-02  0.1235069E+00
         25   -1    0    0    0    0  0.00000000000E+00  0.00000000000E+00  0.99999998245E-14  0.12500000000E+03  0.12500000000E+03 0.  0.
          5    1    1    0  501    0 -0.37765734633E+02 -0.65212669507E+01  0.49146539705E+02  0.62500000000E+02  0.47000000000E+01 0.  1.
         -5    1    1    0    0  501  0.37765734633E+02  0.65212669507E+01 -0.49146539705E+02  0.62500000000E+02  0.47000000000E+01 0.  1.
</event>
<event>
 3    0  0.4607503E-005  0.9118800E+02  0.7546771E-02  0.1235069E+00
         25   -1    0    0    0    0  0.00000000000E+00  0.00000000000E+00  0.99999998245E-14  0.12500000000E+03  0.12500000000E+03 0.  0.
          5    1    1    0  501    0  0.95543417114E+00  0.27786039650E+02 -0.55777980836E+02  0.62500000000E+02  0.47000000000E+01 0.  1.
         -5    1    1    0    0  501 -0.95543417114E+00 -0.27786039650E+02  0.55777980836E+02  0.62500000000E+02  0.47000000000E+01 0.  1.
</event>
<event>
 3    0  0.4607503E-005  0.9118800E+02  0.7546771E-02  0.1235069E+00
         25   -1    0    0    0    0  0.00000000000E+00  0.00000000000E+00  0.99999998245E-14  0.12500000000E+03  0.12500000000E+03 0.  0.
          5    1    1    0  501    0 -0.60688131286E+02 -0.16747402851E+01 -0.14082115110E+02  0.62500000000E+02  0.47000000000E+01 0.  1.
         -5    1    1    0    0  501  0.60688131286E+02  0.16747402851E+01  0.14082115110E+02  0.62500000000E+02  0.47000000000E+01 0.  1.
</event>
