<event>
 4    0  0.2176682E-002  0.1759956E+03  0.7546771E-02  0.1171736E+00
         21   -1    0    0  502  501  0.00000000000E+00  0.00000000000E+00  0.59791162900E+03  0.59791162900E+03  0.00000000000E+00 0. -1.
         21   -1    0    0  501  502 -0.00000000000E+00 -0.00000000000E+00 -0.51804384023E+02  0.51804384023E+02  0.00000000000E+00 0. -1.
         25    1    1    2    0    0 -0.47848385092E+02  0.59361303898E+02  0.92801764454E+02  0.17335051151E+03  0.12500000000E+03 0.  0.
         25    1    1    2    0    0  0.47848385092E+02 -0.59361303898E+02  0.45330548052E+03  0.47636550151E+03  0.12500000000E+03 0.  0.
</event>
<event>
 4    0  0.2176682E-002  0.1480801E+03  0.7546771E-02  0.1202852E+00
         21   -1    0    0  502  501  0.00000000000E+00  0.00000000000E+00  0.23655932390E+03  0.23655932390E+03  0.00000000000E+00 0. -1.
         21   -1    0    0  501  502 -0.00000000000E+00 -0.00000000000E+00 -0.92694411925E+02  0.92694411925E+02  0.00000000000E+00 0. -1.
         25    1    1    2    0    0 -0.75071023414E+02  0.11847698583E+02  0.46418022349E+02  0.15347853048E+03  0.12500000000E+03 0.  0.
         25    1    1    2    0    0  0.75071023414E+02 -0.11847698583E+02  0.97446889628E+02  0.17577520535E+03  0.12500000000E+03 0.  0.
</event>
<event>
 4    0  0.2176682E-002  0.2590513E+03  0.7546771E-02  0.1107715E+00
         21   -1    0    0  502  501  0.00000000000E+00  0.00000000000E+00  0.17150534114E+03  0.17150534114E+03  0.00000000000E+00 0. -1.
         21   -1    0    0  501  502 -0.00000000000E+00 -0.00000000000E+00 -0.39128561274E+03  0.39128561274E+03  0.00000000000E+00 0. -1.
         25    1    1    2    0    0  0.11067877989E+03 -0.12440233156E+03 -0.27731720884E+03  0.34677884413E+03  0.12500000000E+03 0.  0.
         25    1    1    2    0    0 -0.11067877989E+03  0.12440233156E+03  0.57536937241E+02  0.21601210976E+03  0.12500000000E+03 0.  0.
</event>
<event>
 4    0  0.2176682E-002  0.2213733E+03  0.7546771E-02  0.1132863E+00
         21   -1    0    0  502  501  0.00000000000E+00  0.00000000000E+00  0.30903695460E+03  0.30903695460E+03  0.00000000000E+00 0.  1.
         21   -1    0    0  501  502 -0.00000000000E+00 -0.00000000000E+00 -0.15857695698E+03  0.15857695698E+03  0.00000000000E+00 0.  1.
         25    1    1    2    0    0 -0.39981352094E+02  0.17825395150E+03  0.78247033345E+02  0.23477772034E+03  0.12500000000E+03 0.  0.
         25    1    1    2    0    0  0.39981352094E+02 -0.17825395150E+03  0.72212964271E+02  0.23283619124E+03  0.12500000000E+03 0.  0.
</event>
<event>
 4    0  0.2176682E-002  0.2181208E+03  0.7546771E-02  0.1135292E+00
         21   -1    0    0  502  501  0.00000000000E+00  0.00000000000E+00  0.27896061364E+03  0.27896061364E+03  0.00000000000E+00 0. -1.
         21   -1    0    0  501  502 -0.00000000000E+00 -0.00000000000E+00 -0.17054978769E+03  0.17054978769E+03  0.00000000000E+00 0. -1.
         25    1    1    2    0    0 -0.15468520849E+03 -0.81612595077E+02  0.92254767766E+02  0.23393176692E+03  0.12500000000E+03 0.  0.
         25    1    1    2    0    0  0.15468520849E+03  0.81612595077E+02  0.16156058183E+02  0.21557863441E+03  0.12500000000E+03 0.  0.
</event>
<event>
 4    0  0.2176682E-002  0.2214462E+03  0.7546771E-02  0.1132809E+00
         21   -1    0    0  502  501  0.00000000000E+00  0.00000000000E+00  0.11777522145E+03  0.11777522145E+03  0.00000000000E+00 0. -1.
         21   -1    0    0  501  502 -0.00000000000E+00 -0.00000000000E+00 -0.41637295596E+03  0.41637295596E+03  0.00000000000E+00 0. -1.
         25    1    1    2    0    0 -0.47363179745E+02  0.81663784799E+02  0.39481561462E+02  0.16154268241E+03  0.12500000000E+03 0.  0.
         25    1    1    2    0    0  0.47363179745E+02 -0.81663784799E+02 -0.33807929597E+03  0.37260549500E+03  0.12500000000E+03 0.  0.
</event>
<event>
 4    0  0.2176682E-002  0.2200121E+03  0.7546771E-02  0.1133874E+00
         21   -1    0    0  502  501  0.00000000000E+00  0.00000000000E+00  0.83193543426E+02  0.83193543426E+02  0.00000000000E+00 0. -1.
         21   -1    0    0  501  502 -0.00000000000E+00 -0.00000000000E+00 -0.58183991633E+03  0.58183991633E+03  0.00000000000E+00 0. -1.
         25    1    1    2    0    0  0.15402375196E+03 -0.92097226644E+02 -0.21307869386E+03  0.30534037581E+03  0.12500000000E+03 0.  0.
         25    1    1    2    0    0 -0.15402375196E+03  0.92097226644E+02 -0.28556767904E+03  0.35969308394E+03  0.12500000000E+03 0.  0.
</event>
<event>
 4    0  0.2176682E-002  0.3102201E+03  0.7546771E-02  0.1080240E+00
         21   -1    0    0  502  501  0.00000000000E+00  0.00000000000E+00  0.18750334163E+03  0.18750334163E+03  0.00000000000E+00 0. -1.
         21   -1    0    0  501  502 -0.00000000000E+00 -0.00000000000E+00 -0.51325238513E+03  0.51325238513E+03  0.00000000000E+00 0. -1.
         25    1    1    2    0    0  0.25957801667E+03  0.48431101868E+02 -0.28071249121E+03  0.40515530490E+03  0.12500000000E+03 0.  0.
         25    1    1    2    0    0 -0.25957801667E+03 -0.48431101868E+02 -0.45036552283E+02  0.29560042186E+03  0.12500000000E+03 0.  0.
</event>
<event>
 4    0  0.2176682E-002  0.3055072E+03  0.7546771E-02  0.1082520E+00
         21   -1    0    0  502  501  0.00000000000E+00  0.00000000000E+00  0.35702056177E+03  0.35702056177E+03  0.00000000000E+00 0.  1.
         21   -1    0    0  501  502 -0.00000000000E+00 -0.00000000000E+00 -0.26142652416E+03  0.26142652416E+03  0.00000000000E+00 0. -1.
         25    1    1    2    0    0 -0.24009390986E+03 -0.14163777705E+03  0.45958587799E+02  0.30893937469E+03  0.12500000000E+03 0.  0.
         25    1    1    2    0    0  0.24009390986E+03  0.14163777705E+03  0.49635449808E+02  0.30950771124E+03  0.12500000000E+03 0.  0.
</event>
<event>
 4    0  0.2176682E-002  0.2576793E+03  0.7546771E-02  0.1108546E+00
         21   -1    0    0  502  501  0.00000000000E+00  0.00000000000E+00  0.91187805705E+02  0.91187805705E+02  0.00000000000E+00 0.  1.
         21   -1    0    0  501  502 -0.00000000000E+00 -0.00000000000E+00 -0.72815245719E+03  0.72815245719E+03  0.00000000000E+00 0.  1.
         25    1    1    2    0    0 -0.22093432720E+03  0.21039436929E+02 -0.38044529326E+03  0.45784086319E+03  0.12500000000E+03 0.  0.
         25    1    1    2    0    0  0.22093432720E+03 -0.21039436929E+02 -0.25651935822E+03  0.36149939970E+03  0.12500000000E+03 0.  0.
</event>
<event>
 4    0  0.2176682E-002  0.2335869E+03  0.7546771E-02  0.1124140E+00
         21   -1    0    0  502  501  0.00000000000E+00  0.00000000000E+00  0.41780827412E+03  0.41780827412E+03  0.00000000000E+00 0. -1.
         21   -1    0    0  501  502 -0.00000000000E+00 -0.00000000000E+00 -0.13059297174E+03  0.13059297174E+03  0.00000000000E+00 0. -1.
         25    1    1    2    0    0 -0.10328333907E+03 -0.78467980855E+02  0.31816789588E+03  0.36562341571E+03  0.12500000000E+03 0.  0.
         25    1    1    2    0    0  0.10328333907E+03  0.78467980855E+02 -0.30952593501E+02  0.18277783015E+03  0.12500000000E+03 0.  0.
</event>
<event>
 4    0  0.2176682E-002  0.2038526E+03  0.7546771E-02  0.1146529E+00
         21   -1    0    0  502  501  0.00000000000E+00  0.00000000000E+00  0.92326826848E+03  0.92326826848E+03  0.00000000000E+00 0.  1.
         21   -1    0    0  501  502 -0.00000000000E+00 -0.00000000000E+00 -0.45009532362E+02  0.45009532362E+02  0.00000000000E+00 0.  1.
         25    1    1    2    0    0 -0.27134616219E+02  0.76403652303E+02  0.10870386733E+03  0.18443247072E+03  0.12500000000E+03 0.  0.
         25    1    1    2    0    0  0.27134616219E+02 -0.76403652303E+02  0.76955486879E+03  0.78384533012E+03  0.12500000000E+03 0.  0.
</event>
<event>
 4    0  0.2176682E-002  0.2394014E+03  0.7546771E-02  0.1120192E+00
         21   -1    0    0  502  501  0.00000000000E+00  0.00000000000E+00  0.41574216891E+03  0.41574216891E+03  0.00000000000E+00 0. -1.
         21   -1    0    0  501  502 -0.00000000000E+00 -0.00000000000E+00 -0.13785717548E+03  0.13785717548E+03  0.00000000000E+00 0. -1.
         25    1    1    2    0    0 -0.16315643144E+03 -0.41319816030E+02  0.52973062881E+01  0.20971506806E+03  0.12500000000E+03 0.  0.
         25    1    1    2    0    0  0.16315643144E+03  0.41319816030E+02  0.27258768715E+03  0.34388427633E+03  0.12500000000E+03 0.  0.
</event>
<event>
 4    0  0.2176682E-002  0.2055900E+03  0.7546771E-02  0.1145107E+00
         21   -1    0    0  502  501  0.00000000000E+00  0.00000000000E+00  0.10062667219E+03  0.10062667219E+03  0.00000000000E+00 0. -1.
         21   -1    0    0  501  502 -0.00000000000E+00 -0.00000000000E+00 -0.42004027972E+03  0.42004027972E+03  0.00000000000E+00 0. -1.
         25    1    1    2    0    0 -0.49180353796E+02 -0.15120453176E+03 -0.20641738104E+03  0.28898901851E+03  0.12500000000E+03 0.  0.
         25    1    1    2    0    0  0.49180353796E+02  0.15120453176E+03 -0.11299622649E+03  0.23167793340E+03  0.12500000000E+03 0.  0.
</event>
<event>
 4    0  0.2176682E-002  0.3473726E+03  0.7546771E-02  0.1063699E+00
         21   -1    0    0  502  501  0.00000000000E+00  0.00000000000E+00  0.20748624713E+04  0.20748624713E+04  0.00000000000E+00 0. -1.
         21   -1    0    0  501  502 -0.00000000000E+00 -0.00000000000E+00 -0.58156977930E+02  0.58156977930E+02  0.00000000000E+00 0.  1.
         25    1    1    2    0    0  0.26771032253E+03  0.99641964629E+02  0.53824435295E+03  0.62203643092E+03  0.12500000000E+03 0.  0.
         25    1    1    2    0    0 -0.26771032253E+03 -0.99641964629E+02  0.14784611404E+04  0.15109830183E+04  0.12500000000E+03 0.  0.
</event>
<event>
 4    0  0.2176682E-002  0.3494286E+03  0.7546771E-02  0.1062850E+00
         21   -1    0    0  502  501  0.00000000000E+00  0.00000000000E+00  0.10196262060E+03  0.10196262060E+03  0.00000000000E+00 0. -1.
         21   -1    0    0  501  502 -0.00000000000E+00 -0.00000000000E+00 -0.11975011146E+04  0.11975011146E+04  0.00000000000E+00 0. -1.
         25    1    1    2    0    0  0.18264521141E+03 -0.11862224617E+03 -0.95947957888E+02  0.26881503150E+03  0.12500000000E+03 0.  0.
         25    1    1    2    0    0 -0.18264521141E+03  0.11862224617E+03 -0.99959053613E+03  0.10306487037E+04  0.12500000000E+03 0.  0.
</event>
<event>
 4    0  0.2176682E-002  0.2453978E+03  0.7546771E-02  0.1116248E+00
         21   -1    0    0  502  501  0.00000000000E+00  0.00000000000E+00  0.12189723429E+04  0.12189723429E+04  0.00000000000E+00 0. -1.
         21   -1    0    0  501  502 -0.00000000000E+00 -0.00000000000E+00 -0.49402336735E+02  0.49402336735E+02  0.00000000000E+00 0. -1.
         25    1    1    2    0    0  0.79860974403E+01 -0.12740936820E+03  0.15004863348E+03  0.23331634591E+03  0.12500000000E+03 0.  0.
         25    1    1    2    0    0 -0.79860974403E+01  0.12740936820E+03  0.10195213726E+04  0.10350583337E+04  0.12500000000E+03 0.  0.
</event>
<event>
 4    0  0.2176682E-002  0.1694976E+03  0.7546771E-02  0.1178373E+00
         21   -1    0    0  502  501  0.00000000000E+00  0.00000000000E+00  0.94195531497E+02  0.94195531497E+02  0.00000000000E+00 0. -1.
         21   -1    0    0  501  502 -0.00000000000E+00 -0.00000000000E+00 -0.30499777163E+03  0.30499777163E+03  0.00000000000E+00 0. -1.
         25    1    1    2    0    0  0.72702696960E+02 -0.28609921898E+02 -0.20392591336E+03  0.25162469656E+03  0.12500000000E+03 0.  0.
         25    1    1    2    0    0 -0.72702696960E+02  0.28609921898E+02 -0.68763267740E+01  0.14756860657E+03  0.12500000000E+03 0.  0.
</event>
<event>
 4    0  0.2176682E-002  0.1739368E+03  0.7546771E-02  0.1173804E+00
         21   -1    0    0  502  501  0.00000000000E+00  0.00000000000E+00  0.19116950661E+03  0.19116950661E+03  0.00000000000E+00 0.  1.
         21   -1    0    0  501  502 -0.00000000000E+00 -0.00000000000E+00 -0.15825745520E+03  0.15825745520E+03  0.00000000000E+00 0.  1.
         25    1    1    2    0    0 -0.47680442207E+01 -0.11598914920E+03 -0.17648242377E+02  0.17150124617E+03  0.12500000000E+03 0.  0.
         25    1    1    2    0    0  0.47680442207E+01  0.11598914920E+03  0.50560293783E+02  0.17792571564E+03  0.12500000000E+03 0.  0.
</event>
<event>
 4    0  0.2176682E-002  0.2198752E+03  0.7546771E-02  0.1133976E+00
         21   -1    0    0  502  501  0.00000000000E+00  0.00000000000E+00  0.73783870103E+02  0.73783870103E+02  0.00000000000E+00 0. -1.
         21   -1    0    0  501  502 -0.00000000000E+00 -0.00000000000E+00 -0.65522577789E+03  0.65522577789E+03  0.00000000000E+00 0. -1.
         25    1    1    2    0    0 -0.95077505879E+02  0.79869271724E+02 -0.72666000811E+02  0.19058903527E+03  0.12500000000E+03 0.  0.
         25    1    1    2    0    0  0.95077505879E+02 -0.79869271724E+02 -0.50877590698E+03  0.53842061273E+03  0.12500000000E+03 0.  0.
</event>
<event>
 4    0  0.2176682E-002  0.3108481E+03  0.7546771E-02  0.1079940E+00
         21   -1    0    0  502  501  0.00000000000E+00  0.00000000000E+00  0.43476932961E+03  0.43476932961E+03  0.00000000000E+00 0. -1.
         21   -1    0    0  501  502 -0.00000000000E+00 -0.00000000000E+00 -0.22224780824E+03  0.22224780824E+03  0.00000000000E+00 0. -1.
         25    1    1    2    0    0 -0.11203973382E+02 -0.52470851174E+02  0.40164508284E+03  0.42405482171E+03  0.12500000000E+03 0.  0.
         25    1    1    2    0    0  0.11203973382E+02  0.52470851174E+02 -0.18912356147E+03  0.23296231615E+03  0.12500000000E+03 0.  0.
</event>
<event>
 4    0  0.2176682E-002  0.2397641E+03  0.7546771E-02  0.1119950E+00
         21   -1    0    0  502  501  0.00000000000E+00  0.00000000000E+00  0.11323946087E+03  0.11323946087E+03  0.00000000000E+00 0.  1.
         21   -1    0    0  501  502 -0.00000000000E+00 -0.00000000000E+00 -0.50765699925E+03  0.50765699925E+03  0.00000000000E+00 0.  1.
         25    1    1    2    0    0 -0.18012623238E+03  0.78031564107E+02 -0.12251937546E+03  0.26300262727E+03  0.12500000000E+03 0.  0.
         25    1    1    2    0    0  0.18012623238E+03 -0.78031564107E+02 -0.27189816292E+03  0.35789383285E+03  0.12500000000E+03 0.  0.
</event>
<event>
 4    0  0.2176682E-002  0.2135701E+03  0.7546771E-02  0.1138770E+00
         21   -1    0    0  502  501  0.00000000000E+00  0.00000000000E+00  0.66015348246E+02  0.66015348246E+02  0.00000000000E+00 0. -1.
         21   -1    0    0  501  502 -0.00000000000E+00 -0.00000000000E+00 -0.69093292196E+03  0.69093292196E+03  0.00000000000E+00 0. -1.
         25    1    1    2    0    0  0.15697081041E+03  0.47896904741E+02 -0.41037970284E+03  0.45931519603E+03  0.12500000000E+03 0.  0.
         25    1    1    2    0    0 -0.15697081041E+03 -0.47896904741E+02 -0.21453787088E+03  0.29763307418E+03  0.12500000000E+03 0.  0.
</event>
<event>
 4    0  0.2176682E-002  0.1850262E+03  0.7546771E-02  0.1163025E+00
         21   -1    0    0  502  501  0.00000000000E+00  0.00000000000E+00  0.62030053166E+02  0.62030053166E+02  0.00000000000E+00 0. -1.
         21   -1    0    0  501  502 -0.00000000000E+00 -0.00000000000E+00 -0.55190483657E+03  0.55190483657E+03  0.00000000000E+00 0. -1.
         25    1    1    2    0    0 -0.50579818725E+02 -0.69563568517E+02 -0.42061081954E+03  0.44714188983E+03  0.12500000000E+03 0.  0.
         25    1    1    2    0    0  0.50579818725E+02  0.69563568517E+02 -0.69263963863E+02  0.16679299990E+03  0.12500000000E+03 0.  0.
</event>
<event>
 4    0  0.2176682E-002  0.1940347E+03  0.7546771E-02  0.1154872E+00
         21   -1    0    0  502  501  0.00000000000E+00  0.00000000000E+00  0.10446398742E+04  0.10446398742E+04  0.00000000000E+00 0.  1.
         21   -1    0    0  501  502 -0.00000000000E+00 -0.00000000000E+00 -0.36040614173E+02  0.36040614173E+02  0.00000000000E+00 0.  1.
         25    1    1    2    0    0 -0.11574249799E+03 -0.82804847846E+02  0.38709149243E+03  0.43094987200E+03  0.12500000000E+03 0.  0.
         25    1    1    2    0    0  0.11574249799E+03  0.82804847846E+02  0.62150776764E+03  0.64973061641E+03  0.12500000000E+03 0.  0.
</event>
<event>
 4    0  0.2176682E-002  0.2422348E+03  0.7546771E-02  0.1118313E+00
         21   -1    0    0  502  501  0.00000000000E+00  0.00000000000E+00  0.14757478028E+03  0.14757478028E+03  0.00000000000E+00 0.  1.
         21   -1    0    0  501  502 -0.00000000000E+00 -0.00000000000E+00 -0.39761342449E+03  0.39761342449E+03  0.00000000000E+00 0.  1.
         25    1    1    2    0    0 -0.11674091789E+03  0.13528823163E+03 -0.24369423856E+03  0.32702175683E+03  0.12500000000E+03 0.  0.
         25    1    1    2    0    0  0.11674091789E+03 -0.13528823163E+03 -0.63444056487E+01  0.21816644795E+03  0.12500000000E+03 0.  0.
</event>
<event>
 4    0  0.2176682E-002  0.1916914E+03  0.7546771E-02  0.1156945E+00
         21   -1    0    0  502  501  0.00000000000E+00  0.00000000000E+00  0.22962295092E+02  0.22962295092E+02  0.00000000000E+00 0. -1.
         21   -1    0    0  501  502 -0.00000000000E+00 -0.00000000000E+00 -0.16002575734E+04  0.16002575734E+04  0.00000000000E+00 0. -1.
         25    1    1    2    0    0  0.26880104711E+02 -0.10198554094E+03 -0.12119781022E+04  0.12229634135E+04  0.12500000000E+03 0.  0.
         25    1    1    2    0    0 -0.26880104711E+02  0.10198554094E+03 -0.36531717611E+03  0.40025645498E+03  0.12500000000E+03 0.  0.
</event>
<event>
 4    0  0.2176682E-002  0.4347569E+03  0.7546771E-02  0.1032368E+00
         21   -1    0    0  502  501  0.00000000000E+00  0.00000000000E+00  0.10510604285E+03  0.10510604285E+03  0.00000000000E+00 0. -1.
         21   -1    0    0  501  502 -0.00000000000E+00 -0.00000000000E+00 -0.17983133528E+04  0.17983133528E+04  0.00000000000E+00 0. -1.
         25    1    1    2    0    0 -0.34007666458E+03 -0.20217365727E+03 -0.56234346033E+03  0.69884296724E+03  0.12500000000E+03 0.  0.
         25    1    1    2    0    0  0.34007666458E+03  0.20217365727E+03 -0.11308638496E+04  0.12045764284E+04  0.12500000000E+03 0.  0.
</event>
<event>
 4    0  0.2176682E-002  0.1993903E+03  0.7546771E-02  0.1150254E+00
         21   -1    0    0  502  501  0.00000000000E+00  0.00000000000E+00  0.67516585548E+02  0.67516585548E+02  0.00000000000E+00 0.  1.
         21   -1    0    0  501  502 -0.00000000000E+00 -0.00000000000E+00 -0.58884050407E+03  0.58884050407E+03  0.00000000000E+00 0.  1.
         25    1    1    2    0    0 -0.54537452879E+02  0.12586401324E+03 -0.14066374902E+03  0.23286771756E+03  0.12500000000E+03 0.  0.
         25    1    1    2    0    0  0.54537452879E+02 -0.12586401324E+03 -0.38066016951E+03  0.42348937206E+03  0.12500000000E+03 0.  0.
</event>
<event>
 4    0  0.2176682E-002  0.2279476E+03  0.7546771E-02  0.1128093E+00
         21   -1    0    0  502  501  0.00000000000E+00  0.00000000000E+00  0.46544870157E+02  0.46544870157E+02  0.00000000000E+00 0.  1.
         21   -1    0    0  501  502 -0.00000000000E+00 -0.00000000000E+00 -0.11163443054E+04  0.11163443054E+04  0.00000000000E+00 0.  1.
         25    1    1    2    0    0  0.33930769675E+02  0.18685798893E+03 -0.49314975211E+03  0.54303672358E+03  0.12500000000E+03 0.  0.
         25    1    1    2    0    0 -0.33930769675E+02 -0.18685798893E+03 -0.57664968313E+03  0.61985245197E+03  0.12500000000E+03 0.  0.
</event>
<event>
 4    0  0.2176682E-002  0.2179897E+03  0.7546771E-02  0.1135391E+00
         21   -1    0    0  502  501  0.00000000000E+00  0.00000000000E+00  0.93334199521E+02  0.93334199521E+02  0.00000000000E+00 0. -1.
         21   -1    0    0  501  502 -0.00000000000E+00 -0.00000000000E+00 -0.50913279377E+03  0.50913279377E+03  0.00000000000E+00 0. -1.
         25    1    1    2    0    0 -0.12697918582E+03 -0.71344918338E+02 -0.35071205113E+03  0.39979714082E+03  0.12500000000E+03 0.  0.
         25    1    1    2    0    0  0.12697918582E+03  0.71344918338E+02 -0.65086543121E+02  0.20266985247E+03  0.12500000000E+03 0.  0.
</event>
<event>
 4    0  0.2176682E-002  0.3168495E+03  0.7546771E-02  0.1077108E+00
         21   -1    0    0  502  501  0.00000000000E+00  0.00000000000E+00  0.12745421928E+04  0.12745421928E+04  0.00000000000E+00 0.  1.
         21   -1    0    0  501  502 -0.00000000000E+00 -0.00000000000E+00 -0.78768377759E+02  0.78768377759E+02  0.00000000000E+00 0.  1.
         25    1    1    2    0    0 -0.21044839243E+03 -0.54836610908E+02  0.10112901600E+04  0.10419349152E+04  0.12500000000E+03 0.  0.
         25    1    1    2    0    0  0.21044839243E+03  0.54836610908E+02  0.18448365500E+03  0.31137565533E+03  0.12500000000E+03 0.  0.
</event>
<event>
 4    0  0.2176682E-002  0.1761573E+03  0.7546771E-02  0.1171575E+00
         21   -1    0    0  502  501  0.00000000000E+00  0.00000000000E+00  0.87395606353E+03  0.87395606353E+03  0.00000000000E+00 0.  1.
         21   -1    0    0  501  502 -0.00000000000E+00 -0.00000000000E+00 -0.35506814879E+02  0.35506814879E+02  0.00000000000E+00 0.  1.
         25    1    1    2    0    0  0.67726794083E+02  0.98840871789E+02  0.33557950301E+03  0.37761758356E+03  0.12500000000E+03 0.  0.
         25    1    1    2    0    0 -0.67726794083E+02 -0.98840871789E+02  0.50286974565E+03  0.53184529486E+03  0.12500000000E+03 0.  0.
</event>
<event>
 4    0  0.2176682E-002  0.1566876E+03  0.7546771E-02  0.1192488E+00
         21   -1    0    0  502  501  0.00000000000E+00  0.00000000000E+00  0.10549980543E+04  0.10549980543E+04  0.00000000000E+00 0.  1.
         21   -1    0    0  501  502 -0.00000000000E+00 -0.00000000000E+00 -0.23271134437E+02  0.23271134437E+02  0.00000000000E+00 0.  1.
         25    1    1    2    0    0 -0.63902594020E+01  0.91458999961E+02  0.59435783275E+03  0.61424084644E+03  0.12500000000E+03 0.  0.
         25    1    1    2    0    0  0.63902594020E+01 -0.91458999961E+02  0.43736908712E+03  0.46402834230E+03  0.12500000000E+03 0.  0.
</event>
<event>
 4    0  0.2176682E-002  0.1907721E+03  0.7546771E-02  0.1157767E+00
         21   -1    0    0  502  501  0.00000000000E+00  0.00000000000E+00  0.84840380233E+02  0.84840380233E+02  0.00000000000E+00 0.  1.
         21   -1    0    0  501  502 -0.00000000000E+00 -0.00000000000E+00 -0.42897017842E+03  0.42897017842E+03  0.00000000000E+00 0.  1.
         25    1    1    2    0    0 -0.20474783434E+02  0.10794094847E+03 -0.29766241684E+03  0.34102548220E+03  0.12500000000E+03 0.  0.
         25    1    1    2    0    0  0.20474783434E+02 -0.10794094847E+03 -0.46467381350E+02  0.17278507645E+03  0.12500000000E+03 0.  0.
</event>
<event>
 4    0  0.2176682E-002  0.1690220E+03  0.7546771E-02  0.1178872E+00
         21   -1    0    0  502  501  0.00000000000E+00  0.00000000000E+00  0.26115621163E+04  0.26115621163E+04  0.00000000000E+00 0. -1.
         21   -1    0    0  501  502 -0.00000000000E+00 -0.00000000000E+00 -0.10939209379E+02  0.10939209379E+02  0.00000000000E+00 0. -1.
         25    1    1    2    0    0 -0.90680714307E+02 -0.68671751349E+02  0.13169925287E+04  0.13277925750E+04  0.12500000000E+03 0.  0.
         25    1    1    2    0    0  0.90680714307E+02  0.68671751349E+02  0.12836303782E+04  0.12947087507E+04  0.12500000000E+03 0.  0.
</event>
<event>
 4    0  0.2176682E-002  0.1878853E+03  0.7546771E-02  0.1160383E+00
         21   -1    0    0  502  501  0.00000000000E+00  0.00000000000E+00  0.44054426184E+02  0.44054426184E+02  0.00000000000E+00 0.  1.
         21   -1    0    0  501  502 -0.00000000000E+00 -0.00000000000E+00 -0.80130167882E+03  0.80130167882E+03  0.00000000000E+00 0.  1.
         25    1    1    2    0    0 -0.91248982413E+02 -0.69635472467E+02 -0.19724451629E+03  0.26020352615E+03  0.12500000000E+03 0.  0.
         25    1    1    2    0    0  0.91248982413E+02  0.69635472467E+02 -0.56000273635E+03  0.58515257885E+03  0.12500000000E+03 0.  0.
</event>
<event>
 4    0  0.2176682E-002  0.1727633E+03  0.7546771E-02  0.1174996E+00
         21   -1    0    0  502  501  0.00000000000E+00  0.00000000000E+00  0.19239546870E+03  0.19239546870E+03  0.00000000000E+00 0. -1.
         21   -1    0    0  501  502 -0.00000000000E+00 -0.00000000000E+00 -0.15513441802E+03  0.15513441802E+03  0.00000000000E+00 0. -1.
         25    1    1    2    0    0 -0.10283863547E+03  0.59219966544E+02  0.30504464528E+02  0.17503802941E+03  0.12500000000E+03 0.  0.
         25    1    1    2    0    0  0.10283863547E+03 -0.59219966544E+02  0.67565861458E+01  0.17249185731E+03  0.12500000000E+03 0.  0.
</event>
<event>
 4    0  0.2176682E-002  0.2213733E+03  0.7546771E-02  0.1132863E+00
         21   -1    0    0  502  501  0.00000000000E+00  0.00000000000E+00  0.16472550458E+03  0.16472550458E+03  0.00000000000E+00 0. -1.
         21   -1    0    0  501  502 -0.00000000000E+00 -0.00000000000E+00 -0.29750171379E+03  0.29750171379E+03  0.00000000000E+00 0. -1.
         25    1    1    2    0    0  0.46427863021E+00 -0.17974711731E+03 -0.10056818465E+03  0.24093194371E+03  0.12500000000E+03 0.  0.
         25    1    1    2    0    0 -0.46427863021E+00  0.17974711731E+03 -0.32208024565E+02  0.22129527465E+03  0.12500000000E+03 0.  0.
</event>
<event>
 4    0  0.2176682E-002  0.1870758E+03  0.7546771E-02  0.1161126E+00
         21   -1    0    0  502  501  0.00000000000E+00  0.00000000000E+00  0.62371636081E+03  0.62371636081E+03  0.00000000000E+00 0. -1.
         21   -1    0    0  501  502 -0.00000000000E+00 -0.00000000000E+00 -0.56110997905E+02  0.56110997905E+02  0.00000000000E+00 0. -1.
         25    1    1    2    0    0 -0.55882495170E+02 -0.90335181660E+02  0.12038471044E+03  0.20347180842E+03  0.12500000000E+03 0.  0.
         25    1    1    2    0    0  0.55882495170E+02  0.90335181660E+02  0.44722065246E+03  0.47635555030E+03  0.12500000000E+03 0.  0.
</event>
<event>
 4    0  0.2176682E-002  0.2779209E+03  0.7546771E-02  0.1096830E+00
         21   -1    0    0  502  501  0.00000000000E+00  0.00000000000E+00  0.12547839639E+03  0.12547839639E+03  0.00000000000E+00 0.  1.
         21   -1    0    0  501  502 -0.00000000000E+00 -0.00000000000E+00 -0.61556412862E+03  0.61556412862E+03  0.00000000000E+00 0.  1.
         25    1    1    2    0    0 -0.13391385276E+03  0.27107841013E+02 -0.52132936108E+03  0.55324231376E+03  0.12500000000E+03 0.  0.
         25    1    1    2    0    0  0.13391385276E+03 -0.27107841013E+02  0.31243628853E+02  0.18780021126E+03  0.12500000000E+03 0.  0.
</event>
<event>
 4    0  0.2176682E-002  0.3042283E+03  0.7546771E-02  0.1083146E+00
         21   -1    0    0  502  501  0.00000000000E+00  0.00000000000E+00  0.58663982152E+03  0.58663982152E+03  0.00000000000E+00 0. -1.
         21   -1    0    0  501  502 -0.00000000000E+00 -0.00000000000E+00 -0.15777117043E+03  0.15777117043E+03  0.00000000000E+00 0.  1.
         25    1    1    2    0    0 -0.11297204550E+03 -0.24297769744E+03  0.12681501668E+03  0.32172642567E+03  0.12500000000E+03 0.  0.
         25    1    1    2    0    0  0.11297204550E+03  0.24297769744E+03  0.30205363441E+03  0.42268456629E+03  0.12500000000E+03 0.  0.
</event>
<event>
 4    0  0.2176682E-002  0.2138001E+03  0.7546771E-02  0.1138592E+00
         21   -1    0    0  502  501  0.00000000000E+00  0.00000000000E+00  0.12890657821E+03  0.12890657821E+03  0.00000000000E+00 0.  1.
         21   -1    0    0  501  502 -0.00000000000E+00 -0.00000000000E+00 -0.35460158364E+03  0.35460158364E+03  0.00000000000E+00 0.  1.
         25    1    1    2    0    0 -0.44578452097E+02  0.16118328311E+03 -0.16488880456E+03  0.26604624977E+03  0.12500000000E+03 0.  0.
         25    1    1    2    0    0  0.44578452097E+02 -0.16118328311E+03 -0.60806200872E+02  0.21746191209E+03  0.12500000000E+03 0.  0.
</event>
<event>
 4    0  0.2176682E-002  0.1879325E+03  0.7546771E-02  0.1160339E+00
         21   -1    0    0  502  501  0.00000000000E+00  0.00000000000E+00  0.13052529260E+04  0.13052529260E+04  0.00000000000E+00 0. -1.
         21   -1    0    0  501  502 -0.00000000000E+00 -0.00000000000E+00 -0.27058845762E+02  0.27058845762E+02  0.00000000000E+00 0. -1.
         25    1    1    2    0    0 -0.69673284190E+02  0.79547000374E+01  0.20822109540E+03  0.25278185922E+03  0.12500000000E+03 0.  0.
         25    1    1    2    0    0  0.69673284190E+02 -0.79547000374E+01  0.10699729848E+04  0.10795299125E+04  0.12500000000E+03 0.  0.
</event>
<event>
 4    0  0.2176682E-002  0.2966280E+03  0.7546771E-02  0.1086938E+00
         21   -1    0    0  502  501  0.00000000000E+00  0.00000000000E+00  0.12588692327E+03  0.12588692327E+03  0.00000000000E+00 0. -1.
         21   -1    0    0  501  502 -0.00000000000E+00 -0.00000000000E+00 -0.69894598377E+03  0.69894598377E+03  0.00000000000E+00 0. -1.
         25    1    1    2    0    0  0.57859037385E+02 -0.80577364901E+02  0.61121087223E+02  0.17088349026E+03  0.12500000000E+03 0.  0.
         25    1    1    2    0    0 -0.57859037385E+02  0.80577364901E+02 -0.63418014772E+03  0.65394941678E+03  0.12500000000E+03 0.  0.
</event>
<event>
 4    0  0.2176682E-002  0.2423128E+03  0.7546771E-02  0.1118262E+00
         21   -1    0    0  502  501  0.00000000000E+00  0.00000000000E+00  0.12117848240E+03  0.12117848240E+03  0.00000000000E+00 0. -1.
         21   -1    0    0  501  502 -0.00000000000E+00 -0.00000000000E+00 -0.48453721400E+03  0.48453721400E+03  0.00000000000E+00 0. -1.
         25    1    1    2    0    0  0.19534902410E+03 -0.37615866716E+02 -0.25577306592E+03  0.34730542163E+03  0.12500000000E+03 0.  0.
         25    1    1    2    0    0 -0.19534902410E+03  0.37615866716E+02 -0.10758566569E+03  0.25841027477E+03  0.12500000000E+03 0.  0.
</event>
<event>
 4    0  0.2176682E-002  0.2496084E+03  0.7546771E-02  0.1113553E+00
         21   -1    0    0  502  501  0.00000000000E+00  0.00000000000E+00  0.25014730791E+02  0.25014730791E+02  0.00000000000E+00 0.  1.
         21   -1    0    0  501  502 -0.00000000000E+00 -0.00000000000E+00 -0.24907060174E+04  0.24907060174E+04  0.00000000000E+00 0.  1.
         25    1    1    2    0    0  0.13810985776E+03 -0.12740581889E+03 -0.69543493355E+03  0.73113700651E+03  0.12500000000E+03 0.  0.
         25    1    1    2    0    0 -0.13810985776E+03  0.12740581889E+03 -0.17702563531E+04  0.17845837417E+04  0.12500000000E+03 0.  0.
</event>
<event>
 4    0  0.2176682E-002  0.1903848E+03  0.7546771E-02  0.1158115E+00
         21   -1    0    0  502  501  0.00000000000E+00  0.00000000000E+00  0.25271234596E+03  0.25271234596E+03  0.00000000000E+00 0. -1.
         21   -1    0    0  501  502 -0.00000000000E+00 -0.00000000000E+00 -0.14342943852E+03  0.14342943852E+03  0.00000000000E+00 0. -1.
         25    1    1    2    0    0  0.42070602608E+01 -0.35067215907E+02 -0.90168265917E+02  0.15812250051E+03  0.12500000000E+03 0.  0.
         25    1    1    2    0    0 -0.42070602608E+01  0.35067215907E+02  0.19945117336E+03  0.23801928397E+03  0.12500000000E+03 0.  0.
</event>
<event>
 4    0  0.2176682E-002  0.1937439E+03  0.7546771E-02  0.1155127E+00
         21   -1    0    0  502  501  0.00000000000E+00  0.00000000000E+00  0.26128112786E+03  0.26128112786E+03  0.00000000000E+00 0.  1.
         21   -1    0    0  501  502 -0.00000000000E+00 -0.00000000000E+00 -0.14366397864E+03  0.14366397864E+03  0.00000000000E+00 0.  1.
         25    1    1    2    0    0 -0.85314986048E+02  0.53875802015E+02  0.17199524860E+03  0.23534785835E+03  0.12500000000E+03 0.  0.
         25    1    1    2    0    0  0.85314986048E+02 -0.53875802015E+02 -0.54378099380E+02  0.16959724815E+03  0.12500000000E+03 0.  0.
</event>
<event>
 4    0  0.2176682E-002  0.1962757E+03  0.7546771E-02  0.1152920E+00
         21   -1    0    0  502  501  0.00000000000E+00  0.00000000000E+00  0.12403211362E+03  0.12403211362E+03  0.00000000000E+00 0.  1.
         21   -1    0    0  501  502 -0.00000000000E+00 -0.00000000000E+00 -0.31059833176E+03  0.31059833176E+03  0.00000000000E+00 0.  1.
         25    1    1    2    0    0  0.11693489149E+03  0.95979701888E+02 -0.89245941967E+02  0.21558225850E+03  0.12500000000E+03 0.  0.
         25    1    1    2    0    0 -0.11693489149E+03 -0.95979701888E+02 -0.97320276172E+02  0.21904818688E+03  0.12500000000E+03 0.  0.
</event>
<event>
 4    0  0.2176682E-002  0.3163278E+03  0.7546771E-02  0.1077352E+00
         21   -1    0    0  502  501  0.00000000000E+00  0.00000000000E+00  0.10874751679E+04  0.10874751679E+04  0.00000000000E+00 0.  1.
         21   -1    0    0  501  502 -0.00000000000E+00 -0.00000000000E+00 -0.92014317834E+02  0.92014317834E+02  0.00000000000E+00 0.  1.
         25    1    1    2    0    0 -0.16111186840E+03  0.22089386150E+03  0.68122565973E+03  0.74461032203E+03  0.12500000000E+03 0.  0.
         25    1    1    2    0    0  0.16111186840E+03 -0.22089386150E+03  0.31423519036E+03  0.43487916374E+03  0.12500000000E+03 0.  0.
</event>
<event>
 4    0  0.2176682E-002  0.2243971E+03  0.7546771E-02  0.1130647E+00
         21   -1    0    0  502  501  0.00000000000E+00  0.00000000000E+00  0.47697594160E+02  0.47697594160E+02  0.00000000000E+00 0.  1.
         21   -1    0    0  501  502 -0.00000000000E+00 -0.00000000000E+00 -0.10556938876E+04  0.10556938876E+04  0.00000000000E+00 0.  1.
         25    1    1    2    0    0 -0.18000259793E+03  0.47584017364E+02 -0.48434733006E+03  0.53374386190E+03  0.12500000000E+03 0.  0.
         25    1    1    2    0    0  0.18000259793E+03 -0.47584017364E+02 -0.52364896337E+03  0.56964761985E+03  0.12500000000E+03 0.  0.
</event>
<event>
 4    0  0.2176682E-002  0.2184122E+03  0.7546771E-02  0.1135072E+00
         21   -1    0    0  502  501  0.00000000000E+00  0.00000000000E+00  0.11905674108E+03  0.11905674108E+03  0.00000000000E+00 0. -1.
         21   -1    0    0  501  502 -0.00000000000E+00 -0.00000000000E+00 -0.40068185637E+03  0.40068185637E+03  0.00000000000E+00 0. -1.
         25    1    1    2    0    0  0.59568602940E+02 -0.14373680443E+03 -0.24636558925E+03  0.31706417484E+03  0.12500000000E+03 0.  0.
         25    1    1    2    0    0 -0.59568602940E+02  0.14373680443E+03 -0.35259526042E+02  0.20267442261E+03  0.12500000000E+03 0.  0.
</event>
<event>
 4    0  0.2176682E-002  0.2656042E+03  0.7546771E-02  0.1103822E+00
         21   -1    0    0  502  501  0.00000000000E+00  0.00000000000E+00  0.39957167408E+03  0.39957167408E+03  0.00000000000E+00 0.  1.
         21   -1    0    0  501  502 -0.00000000000E+00 -0.00000000000E+00 -0.17655302647E+03  0.17655302647E+03  0.00000000000E+00 0.  1.
         25    1    1    2    0    0  0.14475180246E+03  0.12911974117E+03  0.25414210215E+03  0.34327569090E+03  0.12500000000E+03 0.  0.
         25    1    1    2    0    0 -0.14475180246E+03 -0.12911974117E+03 -0.31123454548E+02  0.23284900966E+03  0.12500000000E+03 0.  0.
</event>
<event>
 4    0  0.2176682E-002  0.2306737E+03  0.7546771E-02  0.1126166E+00
         21   -1    0    0  502  501  0.00000000000E+00  0.00000000000E+00  0.11185419232E+04  0.11185419232E+04  0.00000000000E+00 0. -1.
         21   -1    0    0  501  502 -0.00000000000E+00 -0.00000000000E+00 -0.47571174388E+02  0.47571174388E+02  0.00000000000E+00 0. -1.
         25    1    1    2    0    0 -0.47936654876E+02  0.14674795955E+03  0.83190223543E+03  0.85528896627E+03  0.12500000000E+03 0.  0.
         25    1    1    2    0    0  0.47936654876E+02 -0.14674795955E+03  0.23906851336E+03  0.31082413129E+03  0.12500000000E+03 0.  0.
</event>
<event>
 4    0  0.2176682E-002  0.1953633E+03  0.7546771E-02  0.1153711E+00
         21   -1    0    0  502  501  0.00000000000E+00  0.00000000000E+00  0.24620439572E+03  0.24620439572E+03  0.00000000000E+00 0.  1.
         21   -1    0    0  501  502 -0.00000000000E+00 -0.00000000000E+00 -0.15502082036E+03  0.15502082036E+03  0.00000000000E+00 0.  1.
         25    1    1    2    0    0  0.55412487245E+02  0.13514892291E+03  0.99306843467E+01  0.19250816502E+03  0.12500000000E+03 0.  0.
         25    1    1    2    0    0 -0.55412487245E+02 -0.13514892291E+03  0.81252891014E+02  0.20871705106E+03  0.12500000000E+03 0.  0.
</event>
<event>
 4    0  0.2176682E-002  0.2617366E+03  0.7546771E-02  0.1106104E+00
         21   -1    0    0  502  501  0.00000000000E+00  0.00000000000E+00  0.16324399423E+03  0.16324399423E+03  0.00000000000E+00 0. -1.
         21   -1    0    0  501  502 -0.00000000000E+00 -0.00000000000E+00 -0.41965435169E+03  0.41965435169E+03  0.00000000000E+00 0. -1.
         25    1    1    2    0    0 -0.19018120962E+02  0.22725282022E+02 -0.38213414364E+03  0.40314963860E+03  0.12500000000E+03 0.  0.
         25    1    1    2    0    0  0.19018120962E+02 -0.22725282022E+02  0.12572378619E+03  0.17974870731E+03  0.12500000000E+03 0.  0.
</event>
<event>
 4    0  0.2176682E-002  0.1781244E+03  0.7546771E-02  0.1169631E+00
         21   -1    0    0  502  501  0.00000000000E+00  0.00000000000E+00  0.26224043730E+02  0.26224043730E+02  0.00000000000E+00 0.  1.
         21   -1    0    0  501  502 -0.00000000000E+00 -0.00000000000E+00 -0.12098932162E+04  0.12098932162E+04  0.00000000000E+00 0.  1.
         25    1    1    2    0    0  0.57764838872E+02 -0.39087481427E+02 -0.95967891897E+03  0.97029543714E+03  0.12500000000E+03 0.  0.
         25    1    1    2    0    0 -0.57764838872E+02  0.39087481427E+02 -0.22399025355E+03  0.26582182284E+03  0.12500000000E+03 0.  0.
</event>
<event>
 4    0  0.2176682E-002  0.1766670E+03  0.7546771E-02  0.1171068E+00
         21   -1    0    0  502  501  0.00000000000E+00  0.00000000000E+00  0.74081375339E+02  0.74081375339E+02  0.00000000000E+00 0.  1.
         21   -1    0    0  501  502 -0.00000000000E+00 -0.00000000000E+00 -0.42131017077E+03  0.42131017077E+03  0.00000000000E+00 0.  1.
         25    1    1    2    0    0 -0.61750585770E+02 -0.24551375274E+02 -0.25432160805E+02  0.14383219276E+03  0.12500000000E+03 0.  0.
         25    1    1    2    0    0  0.61750585770E+02  0.24551375274E+02 -0.32179663462E+03  0.35155935335E+03  0.12500000000E+03 0.  0.
</event>
<event>
 4    0  0.2176682E-002  0.1730849E+03  0.7546771E-02  0.1174668E+00
         21   -1    0    0  502  501  0.00000000000E+00  0.00000000000E+00  0.20792982347E+03  0.20792982347E+03  0.00000000000E+00 0. -1.
         21   -1    0    0  501  502 -0.00000000000E+00 -0.00000000000E+00 -0.14407930491E+03  0.14407930491E+03  0.00000000000E+00 0. -1.
         25    1    1    2    0    0 -0.59190163975E+02 -0.28184335676E+02 -0.69942175850E+02  0.15752695087E+03  0.12500000000E+03 0.  0.
         25    1    1    2    0    0  0.59190163975E+02  0.28184335676E+02  0.13379269441E+03  0.19448217750E+03  0.12500000000E+03 0.  0.
</event>
<event>
 4    0  0.2176682E-002  0.1853882E+03  0.7546771E-02  0.1162688E+00
         21   -1    0    0  502  501  0.00000000000E+00  0.00000000000E+00  0.58299866529E+02  0.58299866529E+02  0.00000000000E+00 0.  1.
         21   -1    0    0  501  502 -0.00000000000E+00 -0.00000000000E+00 -0.58951707068E+03  0.58951707068E+03  0.00000000000E+00 0.  1.
         25    1    1    2    0    0  0.11703678399E+03  0.18603413790E+02 -0.38539086855E+03  0.42213127979E+03  0.12500000000E+03 0.  0.
         25    1    1    2    0    0 -0.11703678399E+03 -0.18603413790E+02 -0.14582633561E+03  0.22568565743E+03  0.12500000000E+03 0.  0.
</event>
<event>
 4    0  0.2176682E-002  0.2330654E+03  0.7546771E-02  0.1124501E+00
         21   -1    0    0  502  501  0.00000000000E+00  0.00000000000E+00  0.30605016272E+03  0.30605016272E+03  0.00000000000E+00 0. -1.
         21   -1    0    0  501  502 -0.00000000000E+00 -0.00000000000E+00 -0.17748554454E+03  0.17748554454E+03  0.00000000000E+00 0. -1.
         25    1    1    2    0    0 -0.16027809931E+03  0.98653585773E+02  0.12362754225E+03  0.25754682740E+03  0.12500000000E+03 0.  0.
         25    1    1    2    0    0  0.16027809931E+03 -0.98653585773E+02  0.49370759272E+01  0.22598887986E+03  0.12500000000E+03 0.  0.
</event>
<event>
 4    0  0.2176682E-002  0.1522754E+03  0.7546771E-02  0.1197705E+00
         21   -1    0    0  502  501  0.00000000000E+00  0.00000000000E+00  0.21625654309E+02  0.21625654309E+02  0.00000000000E+00 0. -1.
         21   -1    0    0  501  502 -0.00000000000E+00 -0.00000000000E+00 -0.10722350594E+04  0.10722350594E+04  0.00000000000E+00 0. -1.
         25    1    1    2    0    0  0.81239645939E+02  0.66659788049E+01 -0.63415628376E+03  0.65147794098E+03  0.12500000000E+03 0.  0.
         25    1    1    2    0    0 -0.81239645939E+02 -0.66659788049E+01 -0.41645312134E+03  0.44238277275E+03  0.12500000000E+03 0.  0.
</event>
<event>
 4    0  0.2176682E-002  0.2209860E+03  0.7546771E-02  0.1133150E+00
         21   -1    0    0  502  501  0.00000000000E+00  0.00000000000E+00  0.85566003336E+02  0.85566003336E+02  0.00000000000E+00 0.  1.
         21   -1    0    0  501  502 -0.00000000000E+00 -0.00000000000E+00 -0.57072692382E+03  0.57072692382E+03  0.00000000000E+00 0.  1.
         25    1    1    2    0    0  0.23950128387E+02  0.13152973933E+03 -0.42647166968E+03  0.46408702418E+03  0.12500000000E+03 0.  0.
         25    1    1    2    0    0 -0.23950128387E+02 -0.13152973933E+03 -0.58689250811E+02  0.19220590298E+03  0.12500000000E+03 0.  0.
</event>
<event>
 4    0  0.2176682E-002  0.1461057E+03  0.7546771E-02  0.1205342E+00
         21   -1    0    0  502  501  0.00000000000E+00  0.00000000000E+00  0.57534204891E+02  0.57534204891E+02  0.00000000000E+00 0. -1.
         21   -1    0    0  501  502 -0.00000000000E+00 -0.00000000000E+00 -0.37102917087E+03  0.37102917087E+03  0.00000000000E+00 0. -1.
         25    1    1    2    0    0 -0.49203968461E+02  0.57181238546E+02 -0.16493219980E+03  0.22026882459E+03  0.12500000000E+03 0.  0.
         25    1    1    2    0    0  0.49203968461E+02 -0.57181238546E+02 -0.14856276618E+03  0.20829455117E+03  0.12500000000E+03 0.  0.
</event>
<event>
 4    0  0.2201714E-002  0.2266628E+03  0.7546771E-02  0.1129011E+00
         21   -1    0    0  502  501  0.00000000000E+00  0.00000000000E+00  0.29441333961E+03  0.29441333961E+03  0.00000000000E+00 0. -1.
         21   -1    0    0  501  502 -0.00000000000E+00 -0.00000000000E+00 -0.17450302081E+03  0.17450302081E+03  0.00000000000E+00 0. -1.
         25    1    1    2    0    0  0.29179880213E+02 -0.77942545736E+01  0.25302603906E+03  0.28382986498E+03  0.12500000000E+03 0.  0.
         25    1    1    2    0    0 -0.29179880213E+02  0.77942545736E+01 -0.13311572026E+03  0.18508649544E+03  0.12500000000E+03 0.  0.
</event>
<event>
 4    0  0.2176682E-002  0.2723647E+03  0.7546771E-02  0.1099934E+00
         21   -1    0    0  502  501  0.00000000000E+00  0.00000000000E+00  0.11713352834E+03  0.11713352834E+03  0.00000000000E+00 0. -1.
         21   -1    0    0  501  502 -0.00000000000E+00 -0.00000000000E+00 -0.63331590420E+03  0.63331590420E+03  0.00000000000E+00 0. -1.
         25    1    1    2    0    0  0.58847240060E+02  0.23396775568E+03 -0.28399763423E+03  0.39304397287E+03  0.12500000000E+03 0.  0.
         25    1    1    2    0    0 -0.58847240060E+02 -0.23396775568E+03 -0.23218474162E+03  0.35740545967E+03  0.12500000000E+03 0.  0.
</event>
<event>
 4    0  0.2176682E-002  0.2613119E+03  0.7546771E-02  0.1106358E+00
         21   -1    0    0  502  501  0.00000000000E+00  0.00000000000E+00  0.32770325238E+02  0.32770325238E+02  0.00000000000E+00 0. -1.
         21   -1    0    0  501  502 -0.00000000000E+00 -0.00000000000E+00 -0.20837121626E+04  0.20837121626E+04  0.00000000000E+00 0. -1.
         25    1    1    2    0    0 -0.77358640503E+02 -0.19820326442E+03 -0.13736066529E+04  0.13955963349E+04  0.12500000000E+03 0.  0.
         25    1    1    2    0    0  0.77358640503E+02  0.19820326442E+03 -0.67733518449E+03  0.72088615289E+03  0.12500000000E+03 0.  0.
</event>
<event>
 4    0  0.2176682E-002  0.2225959E+03  0.7546771E-02  0.1131962E+00
         21   -1    0    0  502  501  0.00000000000E+00  0.00000000000E+00  0.36844855068E+03  0.36844855068E+03  0.00000000000E+00 0. -1.
         21   -1    0    0  501  502 -0.00000000000E+00 -0.00000000000E+00 -0.13447988114E+03  0.13447988114E+03  0.00000000000E+00 0. -1.
         25    1    1    2    0    0  0.10655182417E+02  0.10872566963E+03  0.28450290780E+03  0.32939597553E+03  0.12500000000E+03 0.  0.
         25    1    1    2    0    0 -0.10655182417E+02 -0.10872566963E+03 -0.50534238258E+02  0.17353245629E+03  0.12500000000E+03 0.  0.
</event>
<event>
 4    0  0.2176682E-002  0.3128208E+03  0.7546771E-02  0.1079002E+00
         21   -1    0    0  502  501  0.00000000000E+00  0.00000000000E+00  0.18001358491E+03  0.18001358491E+03  0.00000000000E+00 0. -1.
         21   -1    0    0  501  502 -0.00000000000E+00 -0.00000000000E+00 -0.54360798794E+03  0.54360798794E+03  0.00000000000E+00 0. -1.
         25    1    1    2    0    0 -0.19155308350E+02 -0.93470347677E+02 -0.49456956347E+03  0.51896790348E+03  0.12500000000E+03 0.  0.
         25    1    1    2    0    0  0.19155308350E+02  0.93470347677E+02  0.13097516044E+03  0.20465366937E+03  0.12500000000E+03 0.  0.
</event>
<event>
 4    0  0.2176682E-002  0.2722323E+03  0.7546771E-02  0.1100009E+00
         21   -1    0    0  502  501  0.00000000000E+00  0.00000000000E+00  0.48126383613E+03  0.48126383613E+03  0.00000000000E+00 0. -1.
         21   -1    0    0  501  502 -0.00000000000E+00 -0.00000000000E+00 -0.15399125592E+03  0.15399125592E+03  0.00000000000E+00 0. -1.
         25    1    1    2    0    0 -0.98916928143E+01  0.46016856697E+02 -0.11313247240E+03  0.17504100376E+03  0.12500000000E+03 0.  0.
         25    1    1    2    0    0  0.98916928143E+01 -0.46016856697E+02  0.44040505261E+03  0.46021408828E+03  0.12500000000E+03 0.  0.
</event>
<event>
 4    0  0.2176682E-002  0.5202739E+03  0.7546771E-02  0.1008619E+00
         21   -1    0    0  502  501  0.00000000000E+00  0.00000000000E+00  0.55709641392E+03  0.55709641392E+03  0.00000000000E+00 0. -1.
         21   -1    0    0  501  502 -0.00000000000E+00 -0.00000000000E+00 -0.48588532592E+03  0.48588532592E+03  0.00000000000E+00 0. -1.
         25    1    1    2    0    0  0.32584393254E+03  0.15691836771E+03 -0.31772760410E+03  0.49736653778E+03  0.12500000000E+03 0.  0.
         25    1    1    2    0    0 -0.32584393254E+03 -0.15691836771E+03  0.38893869211E+03  0.54561520206E+03  0.12500000000E+03 0.  0.
</event>
<event>
 4    0  0.2176682E-002  0.1776784E+03  0.7546771E-02  0.1170069E+00
         21   -1    0    0  502  501  0.00000000000E+00  0.00000000000E+00  0.10995258819E+04  0.10995258819E+04  0.00000000000E+00 0.  1.
         21   -1    0    0  501  502 -0.00000000000E+00 -0.00000000000E+00 -0.28712027830E+02  0.28712027830E+02  0.00000000000E+00 0.  1.
         25    1    1    2    0    0  0.24597646389E+02 -0.32970453946E+02  0.15636966918E+03  0.20437360025E+03  0.12500000000E+03 0.  0.
         25    1    1    2    0    0 -0.24597646389E+02  0.32970453946E+02  0.91444418485E+03  0.92386430944E+03  0.12500000000E+03 0.  0.
</event>
<event>
 4    0  0.2176682E-002  0.2460709E+03  0.7546771E-02  0.1115813E+00
         21   -1    0    0  502  501  0.00000000000E+00  0.00000000000E+00  0.42173708481E+02  0.42173708481E+02  0.00000000000E+00 0.  1.
         21   -1    0    0  501  502 -0.00000000000E+00 -0.00000000000E+00 -0.14357493529E+04  0.14357493529E+04  0.00000000000E+00 0.  1.
         25    1    1    2    0    0 -0.17749606787E+03 -0.97202776084E+02 -0.50750932771E+03  0.56048546056E+03  0.12500000000E+03 0.  0.
         25    1    1    2    0    0  0.17749606787E+03  0.97202776084E+02 -0.88606631674E+03  0.91743760085E+03  0.12500000000E+03 0.  0.
</event>
<event>
 4    0  0.2176682E-002  0.1972035E+03  0.7546771E-02  0.1152120E+00
         21   -1    0    0  502  501  0.00000000000E+00  0.00000000000E+00  0.50023743803E+02  0.50023743803E+02  0.00000000000E+00 0. -1.
         21   -1    0    0  501  502 -0.00000000000E+00 -0.00000000000E+00 -0.77741501608E+03  0.77741501608E+03  0.00000000000E+00 0. -1.
         25    1    1    2    0    0 -0.59436648325E+02 -0.28786359753E+02 -0.65213520330E+03  0.66728306816E+03  0.12500000000E+03 0.  0.
         25    1    1    2    0    0  0.59436648325E+02  0.28786359753E+02 -0.75256068971E+02  0.16015569172E+03  0.12500000000E+03 0.  0.
</event>
<event>
 4    0  0.2176682E-002  0.2368034E+03  0.7546771E-02  0.1121941E+00
         21   -1    0    0  502  501  0.00000000000E+00  0.00000000000E+00  0.25294606758E+02  0.25294606758E+02  0.00000000000E+00 0.  1.
         21   -1    0    0  501  502 -0.00000000000E+00 -0.00000000000E+00 -0.22169089413E+04  0.22169089413E+04  0.00000000000E+00 0.  1.
         25    1    1    2    0    0 -0.12227570819E+03 -0.15682275098E+03 -0.95329596286E+03  0.98180594663E+03  0.12500000000E+03 0.  0.
         25    1    1    2    0    0  0.12227570819E+03  0.15682275098E+03 -0.12383183717E+04  0.12603976014E+04  0.12500000000E+03 0.  0.
</event>
<event>
 4    0  0.2176682E-002  0.2335162E+03  0.7546771E-02  0.1124189E+00
         21   -1    0    0  502  501  0.00000000000E+00  0.00000000000E+00  0.59341224542E+03  0.59341224542E+03  0.00000000000E+00 0. -1.
         21   -1    0    0  501  502 -0.00000000000E+00 -0.00000000000E+00 -0.91891953688E+02  0.91891953688E+02  0.00000000000E+00 0. -1.
         25    1    1    2    0    0 -0.76317530866E+02 -0.18188022128E+03  0.25101498949E+03  0.34283859958E+03  0.12500000000E+03 0.  0.
         25    1    1    2    0    0  0.76317530866E+02  0.18188022128E+03  0.25050530225E+03  0.34246559953E+03  0.12500000000E+03 0.  0.
</event>
<event>
 4    0  0.2176682E-002  0.1863204E+03  0.7546771E-02  0.1161823E+00
         21   -1    0    0  502  501  0.00000000000E+00  0.00000000000E+00  0.54291928635E+02  0.54291928635E+02  0.00000000000E+00 0.  1.
         21   -1    0    0  501  502 -0.00000000000E+00 -0.00000000000E+00 -0.63941918303E+03  0.63941918303E+03  0.00000000000E+00 0.  1.
         25    1    1    2    0    0 -0.24468870400E+02  0.96532621143E+02 -0.47086083892E+03  0.49724461002E+03  0.12500000000E+03 0.  0.
         25    1    1    2    0    0  0.24468870400E+02 -0.96532621143E+02 -0.11426641547E+03  0.19646650164E+03  0.12500000000E+03 0.  0.
</event>
<event>
 4    0  0.2176682E-002  0.1973721E+03  0.7546771E-02  0.1151975E+00
         21   -1    0    0  502  501  0.00000000000E+00  0.00000000000E+00  0.72258398357E+02  0.72258398357E+02  0.00000000000E+00 0. -1.
         21   -1    0    0  501  502 -0.00000000000E+00 -0.00000000000E+00 -0.53911744538E+03  0.53911744538E+03  0.00000000000E+00 0. -1.
         25    1    1    2    0    0 -0.10634514914E+03 -0.15936300084E+02 -0.40143933667E+03  0.43398363729E+03  0.12500000000E+03 0.  0.
         25    1    1    2    0    0  0.10634514914E+03  0.15936300084E+02 -0.65419710348E+02  0.17739220645E+03  0.12500000000E+03 0.  0.
</event>
<event>
 4    0  0.2176682E-002  0.4212929E+03  0.7546771E-02  0.1036646E+00
         21   -1    0    0  502  501  0.00000000000E+00  0.00000000000E+00  0.42866350958E+03  0.42866350958E+03  0.00000000000E+00 0. -1.
         21   -1    0    0  501  502 -0.00000000000E+00 -0.00000000000E+00 -0.41404904790E+03  0.41404904790E+03  0.00000000000E+00 0.  1.
         25    1    1    2    0    0 -0.21738012638E+03 -0.41771277869E+02  0.34330978007E+03  0.42718329097E+03  0.12500000000E+03 0.  0.
         25    1    1    2    0    0  0.21738012638E+03  0.41771277869E+02 -0.32869531838E+03  0.41552926651E+03  0.12500000000E+03 0.  0.
</event>
<event>
 4    0  0.2176682E-002  0.2095766E+03  0.7546771E-02  0.1141902E+00
         21   -1    0    0  502  501  0.00000000000E+00  0.00000000000E+00  0.73300574652E+03  0.73300574652E+03  0.00000000000E+00 0.  1.
         21   -1    0    0  501  502 -0.00000000000E+00 -0.00000000000E+00 -0.59920888246E+02  0.59920888246E+02  0.00000000000E+00 0.  1.
         25    1    1    2    0    0 -0.93637095805E+02  0.55281805525E+02  0.57934397550E+03  0.60256819172E+03  0.12500000000E+03 0.  0.
         25    1    1    2    0    0  0.93637095805E+02 -0.55281805525E+02  0.93740882775E+02  0.19035844304E+03  0.12500000000E+03 0.  0.
</event>
<event>
 4    0  0.2176682E-002  0.2770897E+03  0.7546771E-02  0.1097289E+00
         21   -1    0    0  502  501  0.00000000000E+00  0.00000000000E+00  0.36447824275E+03  0.36447824275E+03  0.00000000000E+00 0.  1.
         21   -1    0    0  501  502 -0.00000000000E+00 -0.00000000000E+00 -0.21065371547E+03  0.21065371547E+03  0.00000000000E+00 0.  1.
         25    1    1    2    0    0  0.17941431779E+03 -0.14411838880E+02  0.25290110549E+03  0.33463587328E+03  0.12500000000E+03 0.  0.
         25    1    1    2    0    0 -0.17941431779E+03  0.14411838880E+02 -0.99076578206E+02  0.24049608495E+03  0.12500000000E+03 0.  0.
</event>
<event>
 4    0  0.2176682E-002  0.2275286E+03  0.7546771E-02  0.1128391E+00
         21   -1    0    0  502  501  0.00000000000E+00  0.00000000000E+00  0.37955120440E+03  0.37955120440E+03  0.00000000000E+00 0.  1.
         21   -1    0    0  501  502 -0.00000000000E+00 -0.00000000000E+00 -0.13639593879E+03  0.13639593879E+03  0.00000000000E+00 0.  1.
         25    1    1    2    0    0 -0.48783945712E+02 -0.55414948498E+02 -0.77060622313E+02  0.16435945177E+03  0.12500000000E+03 0.  0.
         25    1    1    2    0    0  0.48783945712E+02  0.55414948498E+02  0.32021588792E+03  0.35158769141E+03  0.12500000000E+03 0.  0.
</event>
<event>
 4    0  0.2176682E-002  0.2252368E+03  0.7546771E-02  0.1130038E+00
         21   -1    0    0  502  501  0.00000000000E+00  0.00000000000E+00  0.35971467454E+03  0.35971467454E+03  0.00000000000E+00 0. -1.
         21   -1    0    0  501  502 -0.00000000000E+00 -0.00000000000E+00 -0.14103287696E+03  0.14103287696E+03  0.00000000000E+00 0. -1.
         25    1    1    2    0    0 -0.14683148666E+03  0.10282384366E+03  0.48716580875E+02  0.22389848939E+03  0.12500000000E+03 0.  0.
         25    1    1    2    0    0  0.14683148666E+03 -0.10282384366E+03  0.16996521671E+03  0.27684906211E+03  0.12500000000E+03 0.  0.
</event>
<event>
 4    0  0.2176682E-002  0.2688693E+03  0.7546771E-02  0.1101928E+00
         21   -1    0    0  502  501  0.00000000000E+00  0.00000000000E+00  0.45011573802E+02  0.45011573802E+02  0.00000000000E+00 0. -1.
         21   -1    0    0  501  502 -0.00000000000E+00 -0.00000000000E+00 -0.16060470011E+04  0.16060470011E+04  0.00000000000E+00 0. -1.
         25    1    1    2    0    0 -0.55368456520E+00  0.17787406028E+03 -0.29479451241E+03  0.36628990217E+03  0.12500000000E+03 0.  0.
         25    1    1    2    0    0  0.55368456520E+00 -0.17787406028E+03 -0.12662409149E+04  0.12847686728E+04  0.12500000000E+03 0.  0.
</event>
<event>
 4    0  0.2176682E-002  0.2051922E+03  0.7546771E-02  0.1145431E+00
         21   -1    0    0  502  501  0.00000000000E+00  0.00000000000E+00  0.33977305852E+02  0.33977305852E+02  0.00000000000E+00 0. -1.
         21   -1    0    0  501  502 -0.00000000000E+00 -0.00000000000E+00 -0.12391749035E+04  0.12391749035E+04  0.00000000000E+00 0. -1.
         25    1    1    2    0    0 -0.15848990578E+03  0.29006716503E+02 -0.67323310998E+03  0.70344030324E+03  0.12500000000E+03 0.  0.
         25    1    1    2    0    0  0.15848990578E+03 -0.29006716503E+02 -0.53196448767E+03  0.56971190612E+03  0.12500000000E+03 0.  0.
</event>
<event>
 4    0  0.2176682E-002  0.2539847E+03  0.7546771E-02  0.1110812E+00
         21   -1    0    0  502  501  0.00000000000E+00  0.00000000000E+00  0.49250740752E+03  0.49250740752E+03  0.00000000000E+00 0.  1.
         21   -1    0    0  501  502 -0.00000000000E+00 -0.00000000000E+00 -0.13097917336E+03  0.13097917336E+03  0.00000000000E+00 0.  1.
         25    1    1    2    0    0  0.31125428982E+01  0.21801199215E+03  0.13576156559E+03  0.28564859414E+03  0.12500000000E+03 0.  0.
         25    1    1    2    0    0 -0.31125428982E+01 -0.21801199215E+03  0.22576666857E+03  0.33783798674E+03  0.12500000000E+03 0.  0.
</event>
<event>
 4    0  0.2176682E-002  0.1566738E+03  0.7546771E-02  0.1192504E+00
         21   -1    0    0  502  501  0.00000000000E+00  0.00000000000E+00  0.21509618974E+03  0.21509618974E+03  0.00000000000E+00 0. -1.
         21   -1    0    0  501  502 -0.00000000000E+00 -0.00000000000E+00 -0.11411951877E+03  0.11411951877E+03  0.00000000000E+00 0. -1.
         25    1    1    2    0    0  0.86454324744E+02  0.30963811332E+02  0.27265472850E+02  0.15748496401E+03  0.12500000000E+03 0.  0.
         25    1    1    2    0    0 -0.86454324744E+02 -0.30963811332E+02  0.73711198121E+02  0.17173074450E+03  0.12500000000E+03 0.  0.
</event>
<event>
 4    0  0.2176682E-002  0.2031525E+03  0.7546771E-02  0.1147106E+00
         21   -1    0    0  502  501  0.00000000000E+00  0.00000000000E+00  0.36689354956E+02  0.36689354956E+02  0.00000000000E+00 0.  1.
         21   -1    0    0  501  502 -0.00000000000E+00 -0.00000000000E+00 -0.11248752129E+04  0.11248752129E+04  0.00000000000E+00 0.  1.
         25    1    1    2    0    0 -0.13912389011E+03  0.52402369714E+02 -0.37388982980E+03  0.42133130667E+03  0.12500000000E+03 0.  0.
         25    1    1    2    0    0  0.13912389011E+03 -0.52402369714E+02 -0.71429602817E+03  0.74023326121E+03  0.12500000000E+03 0.  0.
</event>
<event>
 4    0  0.2176682E-002  0.2141272E+03  0.7546771E-02  0.1138339E+00
         21   -1    0    0  502  501  0.00000000000E+00  0.00000000000E+00  0.13159189371E+03  0.13159189371E+03  0.00000000000E+00 0.  1.
         21   -1    0    0  501  502 -0.00000000000E+00 -0.00000000000E+00 -0.34842918351E+03  0.34842918351E+03  0.00000000000E+00 0.  1.
         25    1    1    2    0    0 -0.20955397912E+02  0.17189708363E+03 -0.91136749912E+02  0.23220388292E+03  0.12500000000E+03 0.  0.
         25    1    1    2    0    0  0.20955397912E+02 -0.17189708363E+03 -0.12570053988E+03  0.24781719429E+03  0.12500000000E+03 0.  0.
</event>
<event>
 4    0  0.2176682E-002  0.2945514E+03  0.7546771E-02  0.1087996E+00
         21   -1    0    0  502  501  0.00000000000E+00  0.00000000000E+00  0.98737870768E+03  0.98737870768E+03  0.00000000000E+00 0.  1.
         21   -1    0    0  501  502 -0.00000000000E+00 -0.00000000000E+00 -0.87869539081E+02  0.87869539081E+02  0.00000000000E+00 0.  1.
         25    1    1    2    0    0  0.20222720253E+03  0.15385317447E+03  0.59768690415E+03  0.66137831543E+03  0.12500000000E+03 0.  0.
         25    1    1    2    0    0 -0.20222720253E+03 -0.15385317447E+03  0.30182226445E+03  0.41386993133E+03  0.12500000000E+03 0.  0.
</event>
<event>
 4    0  0.2176682E-002  0.2156590E+03  0.7546771E-02  0.1137161E+00
         21   -1    0    0  502  501  0.00000000000E+00  0.00000000000E+00  0.32488580453E+03  0.32488580453E+03  0.00000000000E+00 0. -1.
         21   -1    0    0  501  502 -0.00000000000E+00 -0.00000000000E+00 -0.14315427805E+03  0.14315427805E+03  0.00000000000E+00 0. -1.
         25    1    1    2    0    0 -0.10163838177E+03 -0.14324122303E+03  0.84410855565E+02  0.23151371701E+03  0.12500000000E+03 0.  0.
         25    1    1    2    0    0  0.10163838177E+03  0.14324122303E+03  0.97320670912E+02  0.23652636557E+03  0.12500000000E+03 0.  0.
</event>
<event>
 4    0  0.2176682E-002  0.2121315E+03  0.7546771E-02  0.1139889E+00
         21   -1    0    0  502  501  0.00000000000E+00  0.00000000000E+00  0.63637135704E+03  0.63637135704E+03  0.00000000000E+00 0. -1.
         21   -1    0    0  501  502 -0.00000000000E+00 -0.00000000000E+00 -0.70713076783E+02  0.70713076783E+02  0.00000000000E+00 0. -1.
         25    1    1    2    0    0  0.12976199020E+03  0.41067447071E+02  0.10922810184E+03  0.21466366143E+03  0.12500000000E+03 0.  0.
         25    1    1    2    0    0 -0.12976199020E+03 -0.41067447071E+02  0.45643017842E+03  0.49242077239E+03  0.12500000000E+03 0.  0.
</event>
<event>
 4    0  0.2176682E-002  0.2272529E+03  0.7546771E-02  0.1128588E+00
         21   -1    0    0  502  501  0.00000000000E+00  0.00000000000E+00  0.85481035352E+03  0.85481035352E+03  0.00000000000E+00 0. -1.
         21   -1    0    0  501  502 -0.00000000000E+00 -0.00000000000E+00 -0.60415603546E+02  0.60415603546E+02  0.00000000000E+00 0. -1.
         25    1    1    2    0    0  0.46041561169E+02  0.17728509649E+03  0.29713885817E+03  0.37076452342E+03  0.12500000000E+03 0.  0.
         25    1    1    2    0    0 -0.46041561169E+02 -0.17728509649E+03  0.49725589180E+03  0.54446143364E+03  0.12500000000E+03 0.  0.
</event>
<event>
 4    0  0.2176682E-002  0.1659737E+03  0.7546771E-02  0.1182113E+00
         21   -1    0    0  502  501  0.00000000000E+00  0.00000000000E+00  0.87395493099E+02  0.87395493099E+02  0.00000000000E+00 0. -1.
         21   -1    0    0  501  502 -0.00000000000E+00 -0.00000000000E+00 -0.31520252987E+03  0.31520252987E+03  0.00000000000E+00 0. -1.
         25    1    1    2    0    0  0.41466309659E+02 -0.71677692246E+02 -0.27586237455E+02  0.15245703296E+03  0.12500000000E+03 0.  0.
         25    1    1    2    0    0 -0.41466309659E+02  0.71677692246E+02 -0.20022079931E+03  0.25014099000E+03  0.12500000000E+03 0.  0.
</event>
<event>
 4    0  0.2176682E-002  0.2137275E+03  0.7546771E-02  0.1138648E+00
         21   -1    0    0  502  501  0.00000000000E+00  0.00000000000E+00  0.79966573801E+02  0.79966573801E+02  0.00000000000E+00 0. -1.
         21   -1    0    0  501  502 -0.00000000000E+00 -0.00000000000E+00 -0.57123162010E+03  0.57123162010E+03  0.00000000000E+00 0. -1.
         25    1    1    2    0    0 -0.31927002015E+02  0.84441454226E+01  0.13636472850E+02  0.13000611694E+03  0.12500000000E+03 0.  0.
         25    1    1    2    0    0  0.31927002015E+02 -0.84441454226E+01 -0.50490151915E+03  0.52119207696E+03  0.12500000000E+03 0.  0.
</event>
<event>
 4    0  0.2176682E-002  0.1411864E+03  0.7546771E-02  0.1211741E+00
         21   -1    0    0  502  501  0.00000000000E+00  0.00000000000E+00  0.15047214309E+03  0.15047214309E+03  0.00000000000E+00 0. -1.
         21   -1    0    0  501  502 -0.00000000000E+00 -0.00000000000E+00 -0.13247369729E+03  0.13247369729E+03  0.00000000000E+00 0. -1.
         25    1    1    2    0    0  0.35141805172E+01 -0.45321925530E+02 -0.38448476913E+02  0.13845472825E+03  0.12500000000E+03 0.  0.
         25    1    1    2    0    0 -0.35141805172E+01  0.45321925530E+02  0.56446922713E+02  0.14449111212E+03  0.12500000000E+03 0.  0.
</event>
<event>
 4    0  0.2176682E-002  0.2175324E+03  0.7546771E-02  0.1135736E+00
         21   -1    0    0  502  501  0.00000000000E+00  0.00000000000E+00  0.48515286040E+02  0.48515286040E+02  0.00000000000E+00 0. -1.
         21   -1    0    0  501  502 -0.00000000000E+00 -0.00000000000E+00 -0.97536995216E+03  0.97536995216E+03  0.00000000000E+00 0. -1.
         25    1    1    2    0    0  0.21046489579E+02  0.13469268040E+03 -0.73289289797E+03  0.75587173036E+03  0.12500000000E+03 0.  0.
         25    1    1    2    0    0 -0.21046489579E+02 -0.13469268040E+03 -0.19396176815E+03  0.26801350784E+03  0.12500000000E+03 0.  0.
</event>
<event>
 4    0  0.2176682E-002  0.2534213E+03  0.7546771E-02  0.1111162E+00
         21   -1    0    0  502  501  0.00000000000E+00  0.00000000000E+00  0.19894848514E+03  0.19894848514E+03  0.00000000000E+00 0. -1.
         21   -1    0    0  501  502 -0.00000000000E+00 -0.00000000000E+00 -0.32280909278E+03  0.32280909278E+03  0.00000000000E+00 0. -1.
         25    1    1    2    0    0 -0.71688278350E+02 -0.18321764733E+03  0.40441877831E+02  0.23657654370E+03  0.12500000000E+03 0.  0.
         25    1    1    2    0    0  0.71688278350E+02  0.18321764733E+03 -0.16430248547E+03  0.28518103422E+03  0.12500000000E+03 0.  0.
</event>
<event>
 4    0  0.2176682E-002  0.2209723E+03  0.7546771E-02  0.1133160E+00
         21   -1    0    0  502  501  0.00000000000E+00  0.00000000000E+00  0.53334717581E+03  0.53334717581E+03  0.00000000000E+00 0.  1.
         21   -1    0    0  501  502 -0.00000000000E+00 -0.00000000000E+00 -0.91551549109E+02  0.91551549109E+02  0.00000000000E+00 0.  1.
         25    1    1    2    0    0 -0.59290998642E+02 -0.10247215542E+03  0.25033944254E+02  0.17397604295E+03  0.12500000000E+03 0.  0.
         25    1    1    2    0    0  0.59290998642E+02  0.10247215542E+03  0.41676168245E+03  0.45092268197E+03  0.12500000000E+03 0.  0.
</event>
<event>
 4    0  0.2176682E-002  0.2026344E+03  0.7546771E-02  0.1147535E+00
         21   -1    0    0  502  501  0.00000000000E+00  0.00000000000E+00  0.43160320763E+03  0.43160320763E+03  0.00000000000E+00 0. -1.
         21   -1    0    0  501  502 -0.00000000000E+00 -0.00000000000E+00 -0.95135289995E+02  0.95135289995E+02  0.00000000000E+00 0. -1.
         25    1    1    2    0    0 -0.54296213808E+02 -0.12066961014E+03  0.52518436635E+02  0.18945294886E+03  0.12500000000E+03 0.  0.
         25    1    1    2    0    0  0.54296213808E+02  0.12066961014E+03  0.28394948100E+03  0.33728554877E+03  0.12500000000E+03 0.  0.
</event>
<event>
 4    0  0.2176682E-002  0.1934034E+03  0.7546771E-02  0.1155427E+00
         21   -1    0    0  502  501  0.00000000000E+00  0.00000000000E+00  0.58513886899E+03  0.58513886899E+03  0.00000000000E+00 0.  1.
         21   -1    0    0  501  502 -0.00000000000E+00 -0.00000000000E+00 -0.63924794480E+02  0.63924794480E+02  0.00000000000E+00 0.  1.
         25    1    1    2    0    0  0.87567243314E+02 -0.83930357635E+02  0.11953928304E+03  0.21125095792E+03  0.12500000000E+03 0.  0.
         25    1    1    2    0    0 -0.87567243314E+02  0.83930357635E+02  0.40167479147E+03  0.43781270555E+03  0.12500000000E+03 0.  0.
</event>
<event>
 4    0  0.2176682E-002  0.2342181E+03  0.7546771E-02  0.1123706E+00
         21   -1    0    0  502  501  0.00000000000E+00  0.00000000000E+00  0.31186571866E+04  0.31186571866E+04  0.00000000000E+00 0.  1.
         21   -1    0    0  501  502 -0.00000000000E+00 -0.00000000000E+00 -0.17590295195E+02  0.17590295195E+02  0.00000000000E+00 0.  1.
         25    1    1    2    0    0  0.27218822615E+02  0.16189527792E+03  0.80854483756E+03  0.83445832710E+03  0.12500000000E+03 0.  0.
         25    1    1    2    0    0 -0.27218822615E+02 -0.16189527792E+03  0.22925220539E+04  0.23017891547E+04  0.12500000000E+03 0.  0.
</event>
<event>
 4    0  0.2176682E-002  0.2383675E+03  0.7546771E-02  0.1120885E+00
         21   -1    0    0  502  501  0.00000000000E+00  0.00000000000E+00  0.61900590553E+03  0.61900590553E+03  0.00000000000E+00 0. -1.
         21   -1    0    0  501  502 -0.00000000000E+00 -0.00000000000E+00 -0.91790823399E+02  0.91790823399E+02  0.00000000000E+00 0. -1.
         25    1    1    2    0    0 -0.10626903717E+03  0.15564946497E+03  0.15129697354E+03  0.27209490699E+03  0.12500000000E+03 0.  0.
         25    1    1    2    0    0  0.10626903717E+03 -0.15564946497E+03  0.37591810859E+03  0.43870182194E+03  0.12500000000E+03 0.  0.
</event>
<event>
 4    0  0.2176682E-002  0.2647612E+03  0.7546771E-02  0.1104316E+00
         21   -1    0    0  502  501  0.00000000000E+00  0.00000000000E+00  0.25297833720E+03  0.25297833720E+03  0.00000000000E+00 0. -1.
         21   -1    0    0  501  502 -0.00000000000E+00 -0.00000000000E+00 -0.27709286406E+03  0.27709286406E+03  0.00000000000E+00 0. -1.
         25    1    1    2    0    0 -0.22831105786E+03 -0.39161623338E+02  0.16501589951E+02  0.26373637284E+03  0.12500000000E+03 0.  0.
         25    1    1    2    0    0  0.22831105786E+03  0.39161623338E+02 -0.40616116818E+02  0.26633482842E+03  0.12500000000E+03 0.  0.
</event>
<event>
 4    0  0.2176682E-002  0.2054127E+03  0.7546771E-02  0.1145251E+00
         21   -1    0    0  502  501  0.00000000000E+00  0.00000000000E+00  0.43258712335E+03  0.43258712335E+03  0.00000000000E+00 0.  1.
         21   -1    0    0  501  502 -0.00000000000E+00 -0.00000000000E+00 -0.97539648215E+02  0.97539648215E+02  0.00000000000E+00 0. -1.
         25    1    1    2    0    0  0.45946064231E-01  0.16227603692E+03  0.14770530273E+03  0.25253785998E+03  0.12500000000E+03 0.  0.
         25    1    1    2    0    0 -0.45946064231E-01 -0.16227603692E+03  0.18734217241E+03  0.27758891158E+03  0.12500000000E+03 0.  0.
</event>
<event>
 4    0  0.2176682E-002  0.1734933E+03  0.7546771E-02  0.1174253E+00
         21   -1    0    0  502  501  0.00000000000E+00  0.00000000000E+00  0.73117257495E+02  0.73117257495E+02  0.00000000000E+00 0. -1.
         21   -1    0    0  501  502 -0.00000000000E+00 -0.00000000000E+00 -0.41166639531E+03  0.41166639531E+03  0.00000000000E+00 0. -1.
         25    1    1    2    0    0  0.11911338254E+03 -0.84880376623E+01 -0.18975440073E+03  0.25669393697E+03  0.12500000000E+03 0.  0.
         25    1    1    2    0    0 -0.11911338254E+03  0.84880376623E+01 -0.14879473709E+03  0.22808971583E+03  0.12500000000E+03 0.  0.
</event>
<event>
 4    0  0.2176682E-002  0.3419075E+03  0.7546771E-02  0.1065986E+00
         21   -1    0    0  502  501  0.00000000000E+00  0.00000000000E+00  0.59820781497E+02  0.59820781497E+02  0.00000000000E+00 0.  1.
         21   -1    0    0  501  502 -0.00000000000E+00 -0.00000000000E+00 -0.19541828203E+04  0.19541828203E+04  0.00000000000E+00 0.  1.
         25    1    1    2    0    0 -0.31715724996E+03 -0.78237633193E+01 -0.87350210534E+03  0.93769977098E+03  0.12500000000E+03 0.  0.
         25    1    1    2    0    0  0.31715724996E+03  0.78237633193E+01 -0.10208599335E+04  0.10763038309E+04  0.12500000000E+03 0.  0.
</event>
<event>
 4    0  0.2176682E-002  0.2402487E+03  0.7546771E-02  0.1119627E+00
         21   -1    0    0  502  501  0.00000000000E+00  0.00000000000E+00  0.44173824219E+03  0.44173824219E+03  0.00000000000E+00 0. -1.
         21   -1    0    0  501  502 -0.00000000000E+00 -0.00000000000E+00 -0.13066430486E+03  0.13066430486E+03  0.00000000000E+00 0. -1.
         25    1    1    2    0    0 -0.11070575846E+03  0.47304178756E+02  0.35344925433E+03  0.39375731825E+03  0.12500000000E+03 0.  0.
         25    1    1    2    0    0  0.11070575846E+03 -0.47304178756E+02 -0.42375316999E+02  0.17864522881E+03  0.12500000000E+03 0.  0.
</event>
<event>
 4    0  0.2176682E-002  0.1978863E+03  0.7546771E-02  0.1151535E+00
         21   -1    0    0  502  501  0.00000000000E+00  0.00000000000E+00  0.11956925932E+03  0.11956925932E+03  0.00000000000E+00 0.  1.
         21   -1    0    0  501  502 -0.00000000000E+00 -0.00000000000E+00 -0.32750035885E+03  0.32750035885E+03  0.00000000000E+00 0.  1.
         25    1    1    2    0    0 -0.24137621256E+02 -0.14696909894E+03 -0.14549221032E+03  0.24284876790E+03  0.12500000000E+03 0.  0.
         25    1    1    2    0    0  0.24137621256E+02  0.14696909894E+03 -0.62438889199E+02  0.20422085028E+03  0.12500000000E+03 0.  0.
</event>
<event>
 4    0  0.2176682E-002  0.2173632E+03  0.7546771E-02  0.1135864E+00
         21   -1    0    0  502  501  0.00000000000E+00  0.00000000000E+00  0.68892869778E+02  0.68892869778E+02  0.00000000000E+00 0. -1.
         21   -1    0    0  501  502 -0.00000000000E+00 -0.00000000000E+00 -0.68580026118E+03  0.68580026118E+03  0.00000000000E+00 0. -1.
         25    1    1    2    0    0  0.84742277171E+02 -0.14989333659E+03 -0.38555486884E+03  0.44037123291E+03  0.12500000000E+03 0.  0.
         25    1    1    2    0    0 -0.84742277171E+02  0.14989333659E+03 -0.23135252256E+03  0.31432189804E+03  0.12500000000E+03 0.  0.
</event>
<event>
 4    0  0.2176682E-002  0.4443783E+03  0.7546771E-02  0.1029412E+00
         21   -1    0    0  502  501  0.00000000000E+00  0.00000000000E+00  0.75617011901E+03  0.75617011901E+03  0.00000000000E+00 0.  1.
         21   -1    0    0  501  502 -0.00000000000E+00 -0.00000000000E+00 -0.26114772522E+03  0.26114772522E+03  0.00000000000E+00 0.  1.
         25    1    1    2    0    0  0.14812316879E+03  0.21726396395E+03 -0.13676327272E+03  0.32167265337E+03  0.12500000000E+03 0.  0.
         25    1    1    2    0    0 -0.14812316879E+03 -0.21726396395E+03  0.63178566651E+03  0.69564519086E+03  0.12500000000E+03 0.  0.
</event>
<event>
 4    0  0.2176682E-002  0.1974249E+03  0.7546771E-02  0.1151930E+00
         21   -1    0    0  502  501  0.00000000000E+00  0.00000000000E+00  0.24955806972E+04  0.24955806972E+04  0.00000000000E+00 0.  1.
         21   -1    0    0  501  502 -0.00000000000E+00 -0.00000000000E+00 -0.15618248649E+02  0.15618248649E+02  0.00000000000E+00 0.  1.
         25    1    1    2    0    0 -0.14191274696E+03 -0.38600150322E+02  0.97603453389E+03  0.99493598322E+03  0.12500000000E+03 0.  0.
         25    1    1    2    0    0  0.14191274696E+03  0.38600150322E+02  0.15039279147E+04  0.15162629626E+04  0.12500000000E+03 0.  0.
</event>
<event>
 4    0  0.2176682E-002  0.1725293E+03  0.7546771E-02  0.1175236E+00
         21   -1    0    0  502  501  0.00000000000E+00  0.00000000000E+00  0.95239451384E+02  0.95239451384E+02  0.00000000000E+00 0. -1.
         21   -1    0    0  501  502 -0.00000000000E+00 -0.00000000000E+00 -0.31254248017E+03  0.31254248017E+03  0.00000000000E+00 0. -1.
         25    1    1    2    0    0  0.69127514036E+02  0.96289081230E+02 -0.97367322038E+02  0.19787772932E+03  0.12500000000E+03 0.  0.
         25    1    1    2    0    0 -0.69127514036E+02 -0.96289081230E+02 -0.11993570675E+03  0.20990420223E+03  0.12500000000E+03 0.  0.
</event>
<event>
 4    0  0.2176682E-002  0.1707290E+03  0.7546771E-02  0.1177090E+00
         21   -1    0    0  502  501  0.00000000000E+00  0.00000000000E+00  0.97805516922E+01  0.97805516922E+01  0.00000000000E+00 0. -1.
         21   -1    0    0  501  502 -0.00000000000E+00 -0.00000000000E+00 -0.29802405723E+04  0.29802405723E+04  0.00000000000E+00 0. -1.
         25    1    1    2    0    0 -0.10389942294E+03 -0.45346850959E+02 -0.17122226960E+04  0.17205182323E+04  0.12500000000E+03 0.  0.
         25    1    1    2    0    0  0.10389942294E+03  0.45346850959E+02 -0.12582373246E+04  0.12695028917E+04  0.12500000000E+03 0.  0.
</event>
<event>
 4    0  0.2176682E-002  0.1760699E+03  0.7546771E-02  0.1171662E+00
         21   -1    0    0  502  501  0.00000000000E+00  0.00000000000E+00  0.80791128017E+03  0.80791128017E+03  0.00000000000E+00 0. -1.
         21   -1    0    0  501  502 -0.00000000000E+00 -0.00000000000E+00 -0.38371285149E+02  0.38371285149E+02  0.00000000000E+00 0. -1.
         25    1    1    2    0    0 -0.10113713319E+03 -0.63721529864E+02  0.30555571941E+03  0.35111031136E+03  0.12500000000E+03 0.  0.
         25    1    1    2    0    0  0.10113713319E+03  0.63721529864E+02  0.46398427561E+03  0.49517225396E+03  0.12500000000E+03 0.  0.
</event>
<event>
 4    0  0.2176682E-002  0.1926606E+03  0.7546771E-02  0.1156083E+00
         21   -1    0    0  502  501  0.00000000000E+00  0.00000000000E+00  0.30748626474E+03  0.30748626474E+03  0.00000000000E+00 0.  1.
         21   -1    0    0  501  502 -0.00000000000E+00 -0.00000000000E+00 -0.12071466543E+03  0.12071466543E+03  0.00000000000E+00 0.  1.
         25    1    1    2    0    0  0.13316176917E+03  0.50391068195E+02  0.54541961511E+02  0.19715765795E+03  0.12500000000E+03 0.  0.
         25    1    1    2    0    0 -0.13316176917E+03 -0.50391068195E+02  0.13222963780E+03  0.23104327221E+03  0.12500000000E+03 0.  0.
</event>
<event>
 4    0  0.2176682E-002  0.1687252E+03  0.7546771E-02  0.1179184E+00
         21   -1    0    0  502  501  0.00000000000E+00  0.00000000000E+00  0.23929730509E+03  0.23929730509E+03  0.00000000000E+00 0. -1.
         21   -1    0    0  501  502 -0.00000000000E+00 -0.00000000000E+00 -0.11896573169E+03  0.11896573169E+03  0.00000000000E+00 0. -1.
         25    1    1    2    0    0 -0.11075892460E+03 -0.14229673383E+02  0.39657122093E+02  0.17224317204E+03  0.12500000000E+03 0.  0.
         25    1    1    2    0    0  0.11075892460E+03  0.14229673383E+02  0.80674451309E+02  0.18601986474E+03  0.12500000000E+03 0.  0.
</event>
<event>
 4    0  0.2176682E-002  0.2877279E+03  0.7546771E-02  0.1091541E+00
         21   -1    0    0  502  501  0.00000000000E+00  0.00000000000E+00  0.55557593802E+03  0.55557593802E+03  0.00000000000E+00 0.  1.
         21   -1    0    0  501  502 -0.00000000000E+00 -0.00000000000E+00 -0.14901179304E+03  0.14901179304E+03  0.00000000000E+00 0. -1.
         25    1    1    2    0    0  0.19909291694E+03  0.80305176988E+02  0.38103285984E+03  0.45486036462E+03  0.12500000000E+03 0.  0.
         25    1    1    2    0    0 -0.19909291694E+03 -0.80305176988E+02  0.25531285144E+02  0.24972736644E+03  0.12500000000E+03 0.  0.
</event>
<event>
 4    0  0.2176682E-002  0.1372980E+03  0.7546771E-02  0.1217012E+00
         21   -1    0    0  502  501  0.00000000000E+00  0.00000000000E+00  0.15479262811E+03  0.15479262811E+03  0.00000000000E+00 0. -1.
         21   -1    0    0  501  502 -0.00000000000E+00 -0.00000000000E+00 -0.12178052981E+03  0.12178052981E+03  0.00000000000E+00 0. -1.
         25    1    1    2    0    0 -0.78861588407E+00  0.56357586254E+02  0.23551330332E+02  0.13912751203E+03  0.12500000000E+03 0.  0.
         25    1    1    2    0    0  0.78861588407E+00 -0.56357586254E+02  0.94607679648E+01  0.13744564589E+03  0.12500000000E+03 0.  0.
</event>
<event>
 4    0  0.2176682E-002  0.3197381E+03  0.7546771E-02  0.1075770E+00
         21   -1    0    0  502  501  0.00000000000E+00  0.00000000000E+00  0.29194410729E+03  0.29194410729E+03  0.00000000000E+00 0. -1.
         21   -1    0    0  501  502 -0.00000000000E+00 -0.00000000000E+00 -0.35017818060E+03  0.35017818060E+03  0.00000000000E+00 0. -1.
         25    1    1    2    0    0 -0.15612235355E+03 -0.22220299441E+03  0.84750146105E+02  0.31073452860E+03  0.12500000000E+03 0.  0.
         25    1    1    2    0    0  0.15612235355E+03  0.22220299441E+03 -0.14298421941E+03  0.33138775928E+03  0.12500000000E+03 0.  0.
</event>
<event>
 4    0  0.2176682E-002  0.2152504E+03  0.7546771E-02  0.1137474E+00
         21   -1    0    0  502  501  0.00000000000E+00  0.00000000000E+00  0.52549554008E+03  0.52549554008E+03  0.00000000000E+00 0. -1.
         21   -1    0    0  501  502 -0.00000000000E+00 -0.00000000000E+00 -0.88169635699E+02  0.88169635699E+02  0.00000000000E+00 0. -1.
         25    1    1    2    0    0 -0.12493136728E+03  0.12047960146E+03  0.25312773084E+03  0.33139376732E+03  0.12500000000E+03 0.  0.
         25    1    1    2    0    0  0.12493136728E+03 -0.12047960146E+03  0.18419817355E+03  0.28227140846E+03  0.12500000000E+03 0.  0.
</event>
<event>
 4    0  0.2176682E-002  0.2546512E+03  0.7546771E-02  0.1110400E+00
         21   -1    0    0  502  501  0.00000000000E+00  0.00000000000E+00  0.89719684380E+03  0.89719684380E+03  0.00000000000E+00 0. -1.
         21   -1    0    0  501  502 -0.00000000000E+00 -0.00000000000E+00 -0.72277592204E+02  0.72277592204E+02  0.00000000000E+00 0. -1.
         25    1    1    2    0    0 -0.15033210212E+03  0.95725108588E+02  0.66397973222E+03  0.69875397827E+03  0.12500000000E+03 0.  0.
         25    1    1    2    0    0  0.15033210212E+03 -0.95725108588E+02  0.16093951938E+03  0.27072045774E+03  0.12500000000E+03 0.  0.
</event>
<event>
 4    0  0.2176682E-002  0.2182755E+03  0.7546771E-02  0.1135175E+00
         21   -1    0    0  502  501  0.00000000000E+00  0.00000000000E+00  0.25897142546E+03  0.25897142546E+03  0.00000000000E+00 0.  1.
         21   -1    0    0  501  502 -0.00000000000E+00 -0.00000000000E+00 -0.18397468886E+03  0.18397468886E+03  0.00000000000E+00 0. -1.
         25    1    1    2    0    0  0.33188102376E+02  0.16497275484E+03 -0.24234741880E+02  0.21102081104E+03  0.12500000000E+03 0.  0.
         25    1    1    2    0    0 -0.33188102376E+02 -0.16497275484E+03  0.99231478486E+02  0.23192530328E+03  0.12500000000E+03 0.  0.
</event>
<event>
 4    0  0.2176682E-002  0.2585764E+03  0.7546771E-02  0.1108002E+00
         21   -1    0    0  502  501  0.00000000000E+00  0.00000000000E+00  0.37550287782E+02  0.37550287782E+02  0.00000000000E+00 0. -1.
         21   -1    0    0  501  502 -0.00000000000E+00 -0.00000000000E+00 -0.17805926226E+04  0.17805926226E+04  0.00000000000E+00 0. -1.
         25    1    1    2    0    0  0.10206286164E+03 -0.42940350898E+02 -0.17744346775E+03  0.24366346815E+03  0.12500000000E+03 0.  0.
         25    1    1    2    0    0 -0.10206286164E+03  0.42940350898E+02 -0.15655988671E+04  0.15744794423E+04  0.12500000000E+03 0.  0.
</event>
<event>
 4    0  0.2176682E-002  0.1932624E+03  0.7546771E-02  0.1155551E+00
         21   -1    0    0  502  501  0.00000000000E+00  0.00000000000E+00  0.22551890774E+03  0.22551890774E+03  0.00000000000E+00 0. -1.
         21   -1    0    0  501  502 -0.00000000000E+00 -0.00000000000E+00 -0.16561963174E+03  0.16561963174E+03  0.00000000000E+00 0. -1.
         25    1    1    2    0    0  0.11151245675E+03 -0.42341994837E+02 -0.57671937176E+02  0.18215083001E+03  0.12500000000E+03 0.  0.
         25    1    1    2    0    0 -0.11151245675E+03  0.42341994837E+02  0.11757121318E+03  0.20898770946E+03  0.12500000000E+03 0.  0.
</event>
<event>
 4    0  0.2176682E-002  0.3882833E+03  0.7546771E-02  0.1047914E+00
         21   -1    0    0  502  501  0.00000000000E+00  0.00000000000E+00  0.91090719927E+03  0.91090719927E+03  0.00000000000E+00 0.  1.
         21   -1    0    0  501  502 -0.00000000000E+00 -0.00000000000E+00 -0.16550967511E+03  0.16550967511E+03  0.00000000000E+00 0.  1.
         25    1    1    2    0    0  0.24112974255E+03  0.38289929111E+02 -0.82437337678E+01  0.27441324779E+03  0.12500000000E+03 0.  0.
         25    1    1    2    0    0 -0.24112974255E+03 -0.38289929111E+02  0.75364125793E+03  0.80200362659E+03  0.12500000000E+03 0.  0.
</event>
<event>
 4    0  0.2176682E-002  0.1985791E+03  0.7546771E-02  0.1150943E+00
         21   -1    0    0  502  501  0.00000000000E+00  0.00000000000E+00  0.97694727883E+02  0.97694727883E+02  0.00000000000E+00 0. -1.
         21   -1    0    0  501  502 -0.00000000000E+00 -0.00000000000E+00 -0.40364164658E+03  0.40364164658E+03  0.00000000000E+00 0. -1.
         25    1    1    2    0    0  0.12052056822E+03  0.85924796870E+02 -0.97945144819E+02  0.21708645622E+03  0.12500000000E+03 0.  0.
         25    1    1    2    0    0 -0.12052056822E+03 -0.85924796870E+02 -0.20800177387E+03  0.28424991824E+03  0.12500000000E+03 0.  0.
</event>
<event>
 4    0  0.2176682E-002  0.1764231E+03  0.7546771E-02  0.1171310E+00
         21   -1    0    0  502  501  0.00000000000E+00  0.00000000000E+00  0.31564551517E+03  0.31564551517E+03  0.00000000000E+00 0. -1.
         21   -1    0    0  501  502 -0.00000000000E+00 -0.00000000000E+00 -0.98607784998E+02  0.98607784998E+02  0.00000000000E+00 0. -1.
         25    1    1    2    0    0 -0.54399383624E+02  0.54920661999E+02  0.22309717565E+03  0.26715711077E+03  0.12500000000E+03 0.  0.
         25    1    1    2    0    0  0.54399383624E+02 -0.54920661999E+02 -0.60594454852E+01  0.14709618939E+03  0.12500000000E+03 0.  0.
</event>
<event>
 4    0  0.2176682E-002  0.2185393E+03  0.7546771E-02  0.1134977E+00
         21   -1    0    0  502  501  0.00000000000E+00  0.00000000000E+00  0.26698150595E+03  0.26698150595E+03  0.00000000000E+00 0. -1.
         21   -1    0    0  501  502 -0.00000000000E+00 -0.00000000000E+00 -0.17888662161E+03  0.17888662161E+03  0.00000000000E+00 0. -1.
         25    1    1    2    0    0 -0.49311958145E+02  0.12982095780E+03 -0.71586712147E+02  0.20008700022E+03  0.12500000000E+03 0.  0.
         25    1    1    2    0    0  0.49311958145E+02 -0.12982095780E+03  0.15968159649E+03  0.24578112734E+03  0.12500000000E+03 0.  0.
</event>
<event>
 4    0  0.2176682E-002  0.3502852E+03  0.7546771E-02  0.1062498E+00
         21   -1    0    0  502  501  0.00000000000E+00  0.00000000000E+00  0.12339731779E+04  0.12339731779E+04  0.00000000000E+00 0.  1.
         21   -1    0    0  501  502 -0.00000000000E+00 -0.00000000000E+00 -0.99434691476E+02  0.99434691476E+02  0.00000000000E+00 0.  1.
         25    1    1    2    0    0 -0.21930824696E+03  0.21002692977E+03  0.79934383403E+03  0.86416606241E+03  0.12500000000E+03 0.  0.
         25    1    1    2    0    0  0.21930824696E+03 -0.21002692977E+03  0.33519465239E+03  0.46924180696E+03  0.12500000000E+03 0.  0.
</event>
<event>
 4    0  0.2176682E-002  0.3415941E+03  0.7546771E-02  0.1066119E+00
         21   -1    0    0  502  501  0.00000000000E+00  0.00000000000E+00  0.87392899989E+03  0.87392899989E+03  0.00000000000E+00 0.  1.
         21   -1    0    0  501  502 -0.00000000000E+00 -0.00000000000E+00 -0.13351943382E+03  0.13351943382E+03  0.00000000000E+00 0.  1.
         25    1    1    2    0    0  0.14429161931E+03 -0.26712759789E+03  0.23121155539E+03  0.40157316681E+03  0.12500000000E+03 0.  0.
         25    1    1    2    0    0 -0.14429161931E+03  0.26712759789E+03  0.50919801068E+03  0.60587526690E+03  0.12500000000E+03 0.  0.
</event>
<event>
 4    0  0.2176682E-002  0.2416257E+03  0.7546771E-02  0.1118715E+00
         21   -1    0    0  502  501  0.00000000000E+00  0.00000000000E+00  0.43914661548E+03  0.43914661548E+03  0.00000000000E+00 0. -1.
         21   -1    0    0  501  502 -0.00000000000E+00 -0.00000000000E+00 -0.13294649086E+03  0.13294649086E+03  0.00000000000E+00 0. -1.
         25    1    1    2    0    0  0.12731936897E+02 -0.19873306566E+03  0.87175212780E+02  0.25076174216E+03  0.12500000000E+03 0.  0.
         25    1    1    2    0    0 -0.12731936897E+02  0.19873306566E+03  0.21902491184E+03  0.32133136419E+03  0.12500000000E+03 0.  0.
</event>
<event>
 4    0  0.2176682E-002  0.2680660E+03  0.7546771E-02  0.1102392E+00
         21   -1    0    0  502  501  0.00000000000E+00  0.00000000000E+00  0.30312283905E+03  0.30312283905E+03  0.00000000000E+00 0. -1.
         21   -1    0    0  501  502 -0.00000000000E+00 -0.00000000000E+00 -0.23706363359E+03  0.23706363359E+03  0.00000000000E+00 0. -1.
         25    1    1    2    0    0  0.82216712180E+02 -0.10189669793E+03 -0.16618224850E+03  0.24573169216E+03  0.12500000000E+03 0.  0.
         25    1    1    2    0    0 -0.82216712180E+02  0.10189669793E+03  0.23224145397E+03  0.29445478049E+03  0.12500000000E+03 0.  0.
</event>
<event>
 4    0  0.2176682E-002  0.1915227E+03  0.7546771E-02  0.1157095E+00
         21   -1    0    0  502  501  0.00000000000E+00  0.00000000000E+00  0.20456526137E+02  0.20456526137E+02  0.00000000000E+00 0.  1.
         21   -1    0    0  501  502 -0.00000000000E+00 -0.00000000000E+00 -0.17931176245E+04  0.17931176245E+04  0.00000000000E+00 0.  1.
         25    1    1    2    0    0 -0.92294356652E+02 -0.17781967589E+02 -0.36291401296E+03  0.39517847543E+03  0.12500000000E+03 0.  0.
         25    1    1    2    0    0  0.92294356652E+02  0.17781967589E+02 -0.14097470854E+04  0.14183956753E+04  0.12500000000E+03 0.  0.
</event>
<event>
 4    0  0.2176682E-002  0.2861997E+03  0.7546771E-02  0.1092350E+00
         21   -1    0    0  502  501  0.00000000000E+00  0.00000000000E+00  0.33218478708E+03  0.33218478708E+03  0.00000000000E+00 0.  1.
         21   -1    0    0  501  502 -0.00000000000E+00 -0.00000000000E+00 -0.24658045873E+03  0.24658045873E+03  0.00000000000E+00 0.  1.
         25    1    1    2    0    0  0.23981771265E+03 -0.49504152174E+02  0.12319794765E+03  0.30127384667E+03  0.12500000000E+03 0.  0.
         25    1    1    2    0    0 -0.23981771265E+03  0.49504152174E+02 -0.37593619306E+02  0.27749139914E+03  0.12500000000E+03 0.  0.
</event>
<event>
 4    0  0.2176682E-002  0.1897127E+03  0.7546771E-02  0.1158721E+00
         21   -1    0    0  502  501  0.00000000000E+00  0.00000000000E+00  0.61195418040E+03  0.61195418040E+03  0.00000000000E+00 0.  1.
         21   -1    0    0  501  502 -0.00000000000E+00 -0.00000000000E+00 -0.58813057120E+02  0.58813057120E+02  0.00000000000E+00 0.  1.
         25    1    1    2    0    0 -0.64329796857E+02 -0.48782335026E+02  0.48460575180E+03  0.50693764276E+03  0.12500000000E+03 0.  0.
         25    1    1    2    0    0  0.64329796857E+02  0.48782335026E+02  0.68535371484E+02  0.16382959476E+03  0.12500000000E+03 0.  0.
</event>
<event>
 4    0  0.2176682E-002  0.2517605E+03  0.7546771E-02  0.1112197E+00
         21   -1    0    0  502  501  0.00000000000E+00  0.00000000000E+00  0.25540721499E+03  0.25540721499E+03  0.00000000000E+00 0. -1.
         21   -1    0    0  501  502 -0.00000000000E+00 -0.00000000000E+00 -0.24816579394E+03  0.24816579394E+03  0.00000000000E+00 0. -1.
         25    1    1    2    0    0  0.12180142893E+03 -0.36956640621E+02  0.18128184814E+03  0.25434128615E+03  0.12500000000E+03 0.  0.
         25    1    1    2    0    0 -0.12180142893E+03  0.36956640621E+02 -0.17404042709E+03  0.24923172278E+03  0.12500000000E+03 0.  0.
</event>
<event>
 4    0  0.2176682E-002  0.2648814E+03  0.7546771E-02  0.1104245E+00
         21   -1    0    0  502  501  0.00000000000E+00  0.00000000000E+00  0.10904120092E+04  0.10904120092E+04  0.00000000000E+00 0. -1.
         21   -1    0    0  501  502 -0.00000000000E+00 -0.00000000000E+00 -0.64344627125E+02  0.64344627125E+02  0.00000000000E+00 0. -1.
         25    1    1    2    0    0  0.13773265811E+03  0.63530312340E+01  0.92388556748E+03  0.94244373196E+03  0.12500000000E+03 0.  0.
         25    1    1    2    0    0 -0.13773265811E+03 -0.63530312340E+01  0.10218181455E+03  0.21231290432E+03  0.12500000000E+03 0.  0.
</event>
<event>
 4    0  0.2176682E-002  0.1819792E+03  0.7546771E-02  0.1165901E+00
         21   -1    0    0  502  501  0.00000000000E+00  0.00000000000E+00  0.22182123381E+03  0.22182123381E+03  0.00000000000E+00 0.  1.
         21   -1    0    0  501  502 -0.00000000000E+00 -0.00000000000E+00 -0.14929331672E+03  0.14929331672E+03  0.00000000000E+00 0.  1.
         25    1    1    2    0    0  0.71604974192E+01 -0.13078593045E+03  0.54932279619E+02  0.18920567558E+03  0.12500000000E+03 0.  0.
         25    1    1    2    0    0 -0.71604974192E+01  0.13078593045E+03  0.17595637470E+02  0.18190887495E+03  0.12500000000E+03 0.  0.
</event>
<event>
 4    0  0.2176682E-002  0.2171992E+03  0.7546771E-02  0.1135989E+00
         21   -1    0    0  502  501  0.00000000000E+00  0.00000000000E+00  0.73433413084E+02  0.73433413084E+02  0.00000000000E+00 0. -1.
         21   -1    0    0  501  502 -0.00000000000E+00 -0.00000000000E+00 -0.64242557527E+03  0.64242557527E+03  0.00000000000E+00 0. -1.
         25    1    1    2    0    0 -0.10791177684E+03 -0.13955926059E+03 -0.31861916692E+03  0.38505183070E+03  0.12500000000E+03 0.  0.
         25    1    1    2    0    0  0.10791177684E+03  0.13955926059E+03 -0.25037299526E+03  0.33080715765E+03  0.12500000000E+03 0.  0.
</event>
<event>
 4    0  0.2176682E-002  0.2973287E+03  0.7546771E-02  0.1086584E+00
         21   -1    0    0  502  501  0.00000000000E+00  0.00000000000E+00  0.62427134278E+03  0.62427134278E+03  0.00000000000E+00 0.  1.
         21   -1    0    0  501  502 -0.00000000000E+00 -0.00000000000E+00 -0.14161211057E+03  0.14161211057E+03  0.00000000000E+00 0.  1.
         25    1    1    2    0    0 -0.16992403972E+03  0.71714827056E+01  0.51104099907E+03  0.55291365706E+03  0.12500000000E+03 0.  0.
         25    1    1    2    0    0  0.16992403972E+03 -0.71714827056E+01 -0.28381766866E+02  0.21296979628E+03  0.12500000000E+03 0.  0.
</event>
<event>
 4    0  0.2176682E-002  0.2186045E+03  0.7546771E-02  0.1134928E+00
         21   -1    0    0  502  501  0.00000000000E+00  0.00000000000E+00  0.35055505595E+03  0.35055505595E+03  0.00000000000E+00 0.  1.
         21   -1    0    0  501  502 -0.00000000000E+00 -0.00000000000E+00 -0.13632073495E+03  0.13632073495E+03  0.00000000000E+00 0.  1.
         25    1    1    2    0    0  0.12234704444E+03 -0.76171037425E+02  0.22597585015E+03  0.29573790943E+03  0.12500000000E+03 0.  0.
         25    1    1    2    0    0 -0.12234704444E+03  0.76171037425E+02 -0.11741529141E+02  0.19113788147E+03  0.12500000000E+03 0.  0.
</event>
<event>
 4    0  0.2176682E-002  0.2021041E+03  0.7546771E-02  0.1147976E+00
         21   -1    0    0  502  501  0.00000000000E+00  0.00000000000E+00  0.43309317672E+03  0.43309317672E+03  0.00000000000E+00 0.  1.
         21   -1    0    0  501  502 -0.00000000000E+00 -0.00000000000E+00 -0.94312405092E+02  0.94312405092E+02  0.00000000000E+00 0.  1.
         25    1    1    2    0    0  0.34115993563E+02  0.38093556922E+02 -0.26788327553E+02  0.13768672626E+03  0.12500000000E+03 0.  0.
         25    1    1    2    0    0 -0.34115993563E+02 -0.38093556922E+02  0.36556909918E+03  0.38971885555E+03  0.12500000000E+03 0.  0.
</event>
<event>
 4    0  0.2176682E-002  0.2426146E+03  0.7546771E-02  0.1118063E+00
         21   -1    0    0  502  501  0.00000000000E+00  0.00000000000E+00  0.96995460774E+02  0.96995460774E+02  0.00000000000E+00 0. -1.
         21   -1    0    0  501  502 -0.00000000000E+00 -0.00000000000E+00 -0.60685165493E+03  0.60685165493E+03  0.00000000000E+00 0. -1.
         25    1    1    2    0    0  0.13526170868E+03 -0.15375610411E+03 -0.30723201130E+03  0.38981172142E+03  0.12500000000E+03 0.  0.
         25    1    1    2    0    0 -0.13526170868E+03  0.15375610411E+03 -0.20262418285E+03  0.31403539429E+03  0.12500000000E+03 0.  0.
</event>
<event>
 4    0  0.2176682E-002  0.1780499E+03  0.7546771E-02  0.1169704E+00
         21   -1    0    0  502  501  0.00000000000E+00  0.00000000000E+00  0.85790264911E+03  0.85790264911E+03  0.00000000000E+00 0. -1.
         21   -1    0    0  501  502 -0.00000000000E+00 -0.00000000000E+00 -0.36952640554E+02  0.36952640554E+02  0.00000000000E+00 0. -1.
         25    1    1    2    0    0  0.79469422800E+02  0.98515645690E+02  0.39166210323E+03  0.43016848410E+03  0.12500000000E+03 0.  0.
         25    1    1    2    0    0 -0.79469422800E+02 -0.98515645690E+02  0.42928790532E+03  0.46468680556E+03  0.12500000000E+03 0.  0.
</event>
<event>
 4    0  0.2176682E-002  0.3300823E+03  0.7546771E-02  0.1071100E+00
         21   -1    0    0  502  501  0.00000000000E+00  0.00000000000E+00  0.13975861549E+03  0.13975861549E+03  0.00000000000E+00 0.  1.
         21   -1    0    0  501  502 -0.00000000000E+00 -0.00000000000E+00 -0.77958923157E+03  0.77958923157E+03  0.00000000000E+00 0.  1.
         25    1    1    2    0    0 -0.11596755389E+03  0.58932396846E+02  0.65027788143E+02  0.19176838682E+03  0.12500000000E+03 0.  0.
         25    1    1    2    0    0  0.11596755389E+03 -0.58932396846E+02 -0.70485840422E+03  0.72757946024E+03  0.12500000000E+03 0.  0.
</event>
<event>
 4    0  0.2176682E-002  0.2439598E+03  0.7546771E-02  0.1117183E+00
         21   -1    0    0  502  501  0.00000000000E+00  0.00000000000E+00  0.68597779732E+03  0.68597779732E+03  0.00000000000E+00 0. -1.
         21   -1    0    0  501  502 -0.00000000000E+00 -0.00000000000E+00 -0.86761398669E+02  0.86761398669E+02  0.00000000000E+00 0. -1.
         25    1    1    2    0    0  0.41726633033E+02  0.23667148622E+02  0.62259135500E+03  0.63682512603E+03  0.12500000000E+03 0.  0.
         25    1    1    2    0    0 -0.41726633033E+02 -0.23667148622E+02 -0.23374956347E+02  0.13591406996E+03  0.12500000000E+03 0.  0.
</event>
<event>
 4    0  0.2176682E-002  0.1852466E+03  0.7546771E-02  0.1162820E+00
         21   -1    0    0  502  501  0.00000000000E+00  0.00000000000E+00  0.48521959191E+03  0.48521959191E+03  0.00000000000E+00 0. -1.
         21   -1    0    0  501  502 -0.00000000000E+00 -0.00000000000E+00 -0.70723217624E+02  0.70723217624E+02  0.00000000000E+00 0. -1.
         25    1    1    2    0    0  0.12259251001E+03  0.59701754705E+02  0.19238838258E+03  0.26689232431E+03  0.12500000000E+03 0.  0.
         25    1    1    2    0    0 -0.12259251001E+03 -0.59701754705E+02  0.22210799170E+03  0.28905048522E+03  0.12500000000E+03 0.  0.
</event>
<event>
 4    0  0.2176682E-002  0.1785147E+03  0.7546771E-02  0.1169248E+00
         21   -1    0    0  502  501  0.00000000000E+00  0.00000000000E+00  0.40368707607E+02  0.40368707607E+02  0.00000000000E+00 0. -1.
         21   -1    0    0  501  502 -0.00000000000E+00 -0.00000000000E+00 -0.78941079936E+03  0.78941079936E+03  0.00000000000E+00 0. -1.
         25    1    1    2    0    0 -0.76088342646E+02 -0.48145942603E+02 -0.16489838521E+03  0.22566334466E+03  0.12500000000E+03 0.  0.
         25    1    1    2    0    0  0.76088342646E+02  0.48145942603E+02 -0.58414370654E+03  0.60411616231E+03  0.12500000000E+03 0.  0.
</event>
<event>
 4    0  0.2176682E-002  0.3718038E+03  0.7546771E-02  0.1054005E+00
         21   -1    0    0  502  501  0.00000000000E+00  0.00000000000E+00  0.26774577815E+03  0.26774577815E+03  0.00000000000E+00 0.  1.
         21   -1    0    0  501  502 -0.00000000000E+00 -0.00000000000E+00 -0.51630349510E+03  0.51630349510E+03  0.00000000000E+00 0.  1.
         25    1    1    2    0    0 -0.27847438097E+03 -0.20362084522E+03 -0.60983638900E+02  0.37195891396E+03  0.12500000000E+03 0.  0.
         25    1    1    2    0    0  0.27847438097E+03  0.20362084522E+03 -0.18757407804E+03  0.41209035929E+03  0.12500000000E+03 0.  0.
</event>
<event>
 4    0  0.2176682E-002  0.2125482E+03  0.7546771E-02  0.1139564E+00
         21   -1    0    0  502  501  0.00000000000E+00  0.00000000000E+00  0.57871238469E+03  0.57871238469E+03  0.00000000000E+00 0.  1.
         21   -1    0    0  501  502 -0.00000000000E+00 -0.00000000000E+00 -0.78064227787E+02  0.78064227787E+02  0.00000000000E+00 0.  1.
         25    1    1    2    0    0 -0.13062549952E+03  0.10383820524E+03  0.31414502325E+03  0.37703778275E+03  0.12500000000E+03 0.  0.
         25    1    1    2    0    0  0.13062549952E+03 -0.10383820524E+03  0.18650313365E+03  0.27973882972E+03  0.12500000000E+03 0.  0.
</event>
<event>
 4    0  0.2176682E-002  0.2181936E+03  0.7546771E-02  0.1135237E+00
         21   -1    0    0  502  501  0.00000000000E+00  0.00000000000E+00  0.15012870855E+03  0.15012870855E+03  0.00000000000E+00 0.  1.
         21   -1    0    0  501  502 -0.00000000000E+00 -0.00000000000E+00 -0.31711743790E+03  0.31711743790E+03  0.00000000000E+00 0.  1.
         25    1    1    2    0    0  0.18087397953E+02 -0.13644566119E+03 -0.20575695439E+03  0.27731840310E+03  0.12500000000E+03 0.  0.
         25    1    1    2    0    0 -0.18087397953E+02  0.13644566119E+03  0.38768225042E+02  0.18992774335E+03  0.12500000000E+03 0.  0.
</event>
<event>
 4    0  0.2176682E-002  0.3147708E+03  0.7546771E-02  0.1078081E+00
         21   -1    0    0  502  501  0.00000000000E+00  0.00000000000E+00  0.16971420776E+04  0.16971420776E+04  0.00000000000E+00 0. -1.
         21   -1    0    0  501  502 -0.00000000000E+00 -0.00000000000E+00 -0.58380882009E+02  0.58380882009E+02  0.00000000000E+00 0. -1.
         25    1    1    2    0    0 -0.24718705442E+03 -0.16823636100E+02  0.40509976920E+03  0.49103492504E+03  0.12500000000E+03 0.  0.
         25    1    1    2    0    0  0.24718705442E+03  0.16823636100E+02  0.12336614264E+04  0.12644880346E+04  0.12500000000E+03 0.  0.
</event>
<event>
 4    0  0.2176682E-002  0.2930869E+03  0.7546771E-02  0.1088748E+00
         21   -1    0    0  502  501  0.00000000000E+00  0.00000000000E+00  0.19291822793E+03  0.19291822793E+03  0.00000000000E+00 0. -1.
         21   -1    0    0  501  502 -0.00000000000E+00 -0.00000000000E+00 -0.44526595157E+03  0.44526595157E+03  0.00000000000E+00 0. -1.
         25    1    1    2    0    0  0.81615159903E+02 -0.24799783189E+03 -0.76152028836E+02  0.29931269676E+03  0.12500000000E+03 0.  0.
         25    1    1    2    0    0 -0.81615159903E+02  0.24799783189E+03 -0.17619569480E+03  0.33887148274E+03  0.12500000000E+03 0.  0.
</event>
<event>
 4    0  0.2176682E-002  0.1458835E+03  0.7546771E-02  0.1205625E+00
         21   -1    0    0  502  501  0.00000000000E+00  0.00000000000E+00  0.54027211695E+03  0.54027211695E+03  0.00000000000E+00 0. -1.
         21   -1    0    0  501  502 -0.00000000000E+00 -0.00000000000E+00 -0.39391258208E+02  0.39391258208E+02  0.00000000000E+00 0. -1.
         25    1    1    2    0    0  0.28675231892E+02 -0.67091948952E+02  0.28671668132E+03  0.32117760489E+03  0.12500000000E+03 0.  0.
         25    1    1    2    0    0 -0.28675231892E+02  0.67091948952E+02  0.21416417742E+03  0.25848577026E+03  0.12500000000E+03 0.  0.
</event>
<event>
 4    0  0.2176682E-002  0.2315149E+03  0.7546771E-02  0.1125578E+00
         21   -1    0    0  502  501  0.00000000000E+00  0.00000000000E+00  0.73634691608E+03  0.73634691608E+03  0.00000000000E+00 0.  1.
         21   -1    0    0  501  502 -0.00000000000E+00 -0.00000000000E+00 -0.72790604318E+02  0.72790604318E+02  0.00000000000E+00 0.  1.
         25    1    1    2    0    0  0.49081066756E+02  0.36029204120E+02  0.82947477546E+01  0.13928696100E+03  0.12500000000E+03 0.  0.
         25    1    1    2    0    0 -0.49081066756E+02 -0.36029204120E+02  0.65526156401E+03  0.66985055940E+03  0.12500000000E+03 0.  0.
</event>
<event>
 4    0  0.2176682E-002  0.2272024E+03  0.7546771E-02  0.1128624E+00
         21   -1    0    0  502  501  0.00000000000E+00  0.00000000000E+00  0.19299743453E+02  0.19299743453E+02  0.00000000000E+00 0. -1.
         21   -1    0    0  501  502 -0.00000000000E+00 -0.00000000000E+00 -0.26746946287E+04  0.26746946287E+04  0.00000000000E+00 0. -1.
         25    1    1    2    0    0 -0.37069475140E+02 -0.12398124418E+03 -0.50512533032E+03  0.53621086731E+03  0.12500000000E+03 0.  0.
         25    1    1    2    0    0  0.37069475140E+02  0.12398124418E+03 -0.21502695549E+04  0.21577835048E+04  0.12500000000E+03 0.  0.
</event>
<event>
 4    0  0.2176682E-002  0.1550358E+03  0.7546771E-02  0.1194418E+00
         21   -1    0    0  502  501  0.00000000000E+00  0.00000000000E+00  0.12907028458E+03  0.12907028458E+03  0.00000000000E+00 0. -1.
         21   -1    0    0  501  502 -0.00000000000E+00 -0.00000000000E+00 -0.18622486278E+03  0.18622486278E+03  0.00000000000E+00 0. -1.
         25    1    1    2    0    0 -0.36081752460E+02 -0.22543224732E+02 -0.11119257228E+03  0.17262351512E+03  0.12500000000E+03 0.  0.
         25    1    1    2    0    0  0.36081752460E+02  0.22543224732E+02  0.54037994087E+02  0.14267163224E+03  0.12500000000E+03 0.  0.
</event>
<event>
 4    0  0.2176682E-002  0.2574057E+03  0.7546771E-02  0.1108712E+00
         21   -1    0    0  502  501  0.00000000000E+00  0.00000000000E+00  0.60599734370E+02  0.60599734370E+02  0.00000000000E+00 0.  1.
         21   -1    0    0  501  502 -0.00000000000E+00 -0.00000000000E+00 -0.10933660004E+04  0.10933660004E+04  0.00000000000E+00 0.  1.
         25    1    1    2    0    0  0.17907059670E+03 -0.13209060927E+03 -0.59134824347E+03  0.64407449314E+03  0.12500000000E+03 0.  0.
         25    1    1    2    0    0 -0.17907059670E+03  0.13209060927E+03 -0.44141802261E+03  0.50989124168E+03  0.12500000000E+03 0.  0.
</event>
<event>
 4    0  0.2176682E-002  0.2922849E+03  0.7546771E-02  0.1089162E+00
         21   -1    0    0  502  501  0.00000000000E+00  0.00000000000E+00  0.87795277691E+03  0.87795277691E+03  0.00000000000E+00 0. -1.
         21   -1    0    0  501  502 -0.00000000000E+00 -0.00000000000E+00 -0.97306418943E+02  0.97306418943E+02  0.00000000000E+00 0. -1.
         25    1    1    2    0    0 -0.22791028437E+03 -0.12263601037E+03  0.47896120872E+03  0.55857992106E+03  0.12500000000E+03 0.  0.
         25    1    1    2    0    0  0.22791028437E+03  0.12263601037E+03  0.30168514925E+03  0.41667927479E+03  0.12500000000E+03 0.  0.
</event>
<event>
 4    0  0.2176682E-002  0.2811317E+03  0.7546771E-02  0.1095072E+00
         21   -1    0    0  502  501  0.00000000000E+00  0.00000000000E+00  0.67138007489E+03  0.67138007489E+03  0.00000000000E+00 0.  1.
         21   -1    0    0  501  502 -0.00000000000E+00 -0.00000000000E+00 -0.11772027282E+03  0.11772027282E+03  0.00000000000E+00 0.  1.
         25    1    1    2    0    0 -0.22861630066E+02  0.23871014444E+03  0.16898561774E+03  0.31888293493E+03  0.12500000000E+03 0.  0.
         25    1    1    2    0    0  0.22861630066E+02 -0.23871014444E+03  0.38467418433E+03  0.47021741278E+03  0.12500000000E+03 0.  0.
</event>
<event>
 4    0  0.2176682E-002  0.1589223E+03  0.7546771E-02  0.1189919E+00
         21   -1    0    0  502  501  0.00000000000E+00  0.00000000000E+00  0.89468812615E+02  0.89468812615E+02  0.00000000000E+00 0.  1.
         21   -1    0    0  501  502 -0.00000000000E+00 -0.00000000000E+00 -0.28229168301E+03  0.28229168301E+03  0.00000000000E+00 0.  1.
         25    1    1    2    0    0 -0.25776729447E+01 -0.82656053735E+02 -0.15822095659E+03  0.21793930054E+03  0.12500000000E+03 0.  0.
         25    1    1    2    0    0  0.25776729447E+01  0.82656053735E+02 -0.34601913803E+02  0.15382119508E+03  0.12500000000E+03 0.  0.
</event>
<event>
 4    0  0.2176682E-002  0.3413349E+03  0.7546771E-02  0.1066229E+00
         21   -1    0    0  502  501  0.00000000000E+00  0.00000000000E+00  0.31800216012E+03  0.31800216012E+03  0.00000000000E+00 0.  1.
         21   -1    0    0  501  502 -0.00000000000E+00 -0.00000000000E+00 -0.36637964425E+03  0.36637964425E+03  0.00000000000E+00 0.  1.
         25    1    1    2    0    0 -0.59299731837E+02  0.13849760679E+03 -0.30450840787E+03  0.36200609905E+03  0.12500000000E+03 0.  0.
         25    1    1    2    0    0  0.59299731837E+02 -0.13849760679E+03  0.25613092374E+03  0.32237570532E+03  0.12500000000E+03 0.  0.
</event>
<event>
 4    0  0.2176682E-002  0.1672861E+03  0.7546771E-02  0.1180708E+00
         21   -1    0    0  502  501  0.00000000000E+00  0.00000000000E+00  0.25161257066E+02  0.25161257066E+02  0.00000000000E+00 0. -1.
         21   -1    0    0  501  502 -0.00000000000E+00 -0.00000000000E+00 -0.11122117645E+04  0.11122117645E+04  0.00000000000E+00 0. -1.
         25    1    1    2    0    0 -0.66456845063E+02 -0.45962048461E+02 -0.80310483872E+03  0.81678112376E+03  0.12500000000E+03 0.  0.
         25    1    1    2    0    0  0.66456845063E+02  0.45962048461E+02 -0.28394566867E+03  0.32059189777E+03  0.12500000000E+03 0.  0.
</event>
<event>
 4    0  0.2176682E-002  0.2559314E+03  0.7546771E-02  0.1109613E+00
         21   -1    0    0  502  501  0.00000000000E+00  0.00000000000E+00  0.14475833299E+04  0.14475833299E+04  0.00000000000E+00 0.  1.
         21   -1    0    0  501  502 -0.00000000000E+00 -0.00000000000E+00 -0.45248429054E+02  0.45248429054E+02  0.00000000000E+00 0.  1.
         25    1    1    2    0    0  0.14315959116E+03 -0.89405464145E+02  0.11276890785E+04  0.11470813674E+04  0.12500000000E+03 0.  0.
         25    1    1    2    0    0 -0.14315959116E+03  0.89405464145E+02  0.27464582234E+03  0.34575039160E+03  0.12500000000E+03 0.  0.
</event>
<event>
 4    0  0.2176682E-002  0.2189202E+03  0.7546771E-02  0.1134691E+00
         21   -1    0    0  502  501  0.00000000000E+00  0.00000000000E+00  0.45754363855E+03  0.45754363855E+03  0.00000000000E+00 0. -1.
         21   -1    0    0  501  502 -0.00000000000E+00 -0.00000000000E+00 -0.10474642500E+03  0.10474642500E+03  0.00000000000E+00 0. -1.
         25    1    1    2    0    0  0.15744641439E+03 -0.58819681409E+02  0.94650890851E+02  0.22985412649E+03  0.12500000000E+03 0.  0.
         25    1    1    2    0    0 -0.15744641439E+03  0.58819681409E+02  0.25814632270E+03  0.33243593706E+03  0.12500000000E+03 0.  0.
</event>
<event>
 4    0  0.2176682E-002  0.1941299E+03  0.7546771E-02  0.1154788E+00
         21   -1    0    0  502  501  0.00000000000E+00  0.00000000000E+00  0.16190754304E+03  0.16190754304E+03  0.00000000000E+00 0.  1.
         21   -1    0    0  501  502 -0.00000000000E+00 -0.00000000000E+00 -0.23276514407E+03  0.23276514407E+03  0.00000000000E+00 0.  1.
         25    1    1    2    0    0  0.10127181540E+02  0.94740779194E+01  0.11489583617E+03  0.17034779461E+03  0.12500000000E+03 0.  0.
         25    1    1    2    0    0 -0.10127181540E+02 -0.94740779194E+01 -0.18575343720E+03  0.22432489249E+03  0.12500000000E+03 0.  0.
</event>
<event>
 4    0  0.2176682E-002  0.2543690E+03  0.7546771E-02  0.1110574E+00
         21   -1    0    0  502  501  0.00000000000E+00  0.00000000000E+00  0.39879984728E+03  0.39879984728E+03  0.00000000000E+00 0.  1.
         21   -1    0    0  501  502 -0.00000000000E+00 -0.00000000000E+00 -0.16224580580E+03  0.16224580580E+03  0.00000000000E+00 0.  1.
         25    1    1    2    0    0 -0.19364697564E+03 -0.92463933003E-02 -0.39489840046E+00  0.23048710854E+03  0.12500000000E+03 0.  0.
         25    1    1    2    0    0  0.19364697564E+03  0.92463933003E-02  0.23694893988E+03  0.33055854454E+03  0.12500000000E+03 0.  0.
</event>
<event>
 4    0  0.2176682E-002  0.4063599E+03  0.7546771E-02  0.1041599E+00
         21   -1    0    0  502  501  0.00000000000E+00  0.00000000000E+00  0.31207845764E+03  0.31207845764E+03  0.00000000000E+00 0.  1.
         21   -1    0    0  501  502 -0.00000000000E+00 -0.00000000000E+00 -0.52912449910E+03  0.52912449910E+03  0.00000000000E+00 0.  1.
         25    1    1    2    0    0 -0.15313397298E+03  0.35474990854E+03 -0.12337319272E+03  0.42443309953E+03  0.12500000000E+03 0.  0.
         25    1    1    2    0    0  0.15313397298E+03 -0.35474990854E+03 -0.93672848740E+02  0.41676985721E+03  0.12500000000E+03 0.  0.
</event>
<event>
 4    0  0.2176682E-002  0.2238213E+03  0.7546771E-02  0.1131066E+00
         21   -1    0    0  502  501  0.00000000000E+00  0.00000000000E+00  0.50363637968E+02  0.50363637968E+02  0.00000000000E+00 0.  1.
         21   -1    0    0  501  502 -0.00000000000E+00 -0.00000000000E+00 -0.99468550785E+03  0.99468550785E+03  0.00000000000E+00 0.  1.
         25    1    1    2    0    0  0.15725816867E+03  0.98486408029E+02 -0.48715976510E+03  0.53607773775E+03  0.12500000000E+03 0.  0.
         25    1    1    2    0    0 -0.15725816867E+03 -0.98486408029E+02 -0.45716210479E+03  0.50897140807E+03  0.12500000000E+03 0.  0.
</event>
<event>
 4    0  0.2176682E-002  0.2368835E+03  0.7546771E-02  0.1121887E+00
         21   -1    0    0  502  501  0.00000000000E+00  0.00000000000E+00  0.11071877466E+04  0.11071877466E+04  0.00000000000E+00 0.  1.
         21   -1    0    0  501  502 -0.00000000000E+00 -0.00000000000E+00 -0.50681354930E+02  0.50681354930E+02  0.00000000000E+00 0.  1.
         25    1    1    2    0    0 -0.88984379856E+02  0.16944858144E+03  0.37645701702E+03  0.44042698291E+03  0.12500000000E+03 0.  0.
         25    1    1    2    0    0  0.88984379856E+02 -0.16944858144E+03  0.68004937469E+03  0.71744211866E+03  0.12500000000E+03 0.  0.
</event>
<event>
 4    0  0.2176682E-002  0.1457411E+03  0.7546771E-02  0.1205806E+00
         21   -1    0    0  502  501  0.00000000000E+00  0.00000000000E+00  0.21194520475E+03  0.21194520475E+03  0.00000000000E+00 0.  1.
         21   -1    0    0  501  502 -0.00000000000E+00 -0.00000000000E+00 -0.10021673957E+03  0.10021673957E+03  0.00000000000E+00 0.  1.
         25    1    1    2    0    0 -0.59586195658E+02 -0.19023500840E+02  0.11668370209E+02  0.14026246526E+03  0.12500000000E+03 0.  0.
         25    1    1    2    0    0  0.59586195658E+02  0.19023500840E+02  0.10006009496E+03  0.17189947906E+03  0.12500000000E+03 0.  0.
</event>
<event>
 4    0  0.2176682E-002  0.3214164E+03  0.7546771E-02  0.1074999E+00
         21   -1    0    0  502  501  0.00000000000E+00  0.00000000000E+00  0.10150211228E+04  0.10150211228E+04  0.00000000000E+00 0.  1.
         21   -1    0    0  501  502 -0.00000000000E+00 -0.00000000000E+00 -0.10177966022E+03  0.10177966022E+03  0.00000000000E+00 0.  1.
         25    1    1    2    0    0  0.63998426162E+02  0.24085027934E+03  0.73447570684E+03  0.78561073029E+03  0.12500000000E+03 0.  0.
         25    1    1    2    0    0 -0.63998426162E+02 -0.24085027934E+03  0.17876575579E+03  0.33119005277E+03  0.12500000000E+03 0.  0.
</event>
<event>
 4    0  0.2176682E-002  0.2070554E+03  0.7546771E-02  0.1143919E+00
         21   -1    0    0  502  501  0.00000000000E+00  0.00000000000E+00  0.49884830484E+02  0.49884830484E+02  0.00000000000E+00 0. -1.
         21   -1    0    0  501  502 -0.00000000000E+00 -0.00000000000E+00 -0.85941843352E+03  0.85941843352E+03  0.00000000000E+00 0. -1.
         25    1    1    2    0    0  0.40753055908E+02  0.14038776164E+03 -0.57310593216E+03  0.60452042535E+03  0.12500000000E+03 0.  0.
         25    1    1    2    0    0 -0.40753055908E+02 -0.14038776164E+03 -0.23642767087E+03  0.30478283865E+03  0.12500000000E+03 0.  0.
</event>
<event>
 4    0  0.2176682E-002  0.2377028E+03  0.7546771E-02  0.1121333E+00
         21   -1    0    0  502  501  0.00000000000E+00  0.00000000000E+00  0.50681472579E+02  0.50681472579E+02  0.00000000000E+00 0. -1.
         21   -1    0    0  501  502 -0.00000000000E+00 -0.00000000000E+00 -0.11148576301E+04  0.11148576301E+04  0.00000000000E+00 0. -1.
         25    1    1    2    0    0 -0.19688521944E+03 -0.42197607610E+02 -0.48733590080E+03  0.54190931708E+03  0.12500000000E+03 0.  0.
         25    1    1    2    0    0  0.19688521944E+03  0.42197607610E+02 -0.57684025675E+03  0.62362978564E+03  0.12500000000E+03 0.  0.
</event>
<event>
 4    0  0.2176682E-002  0.2462379E+03  0.7546771E-02  0.1115706E+00
         21   -1    0    0  502  501  0.00000000000E+00  0.00000000000E+00  0.99077225099E+03  0.99077225099E+03  0.00000000000E+00 0. -1.
         21   -1    0    0  501  502 -0.00000000000E+00 -0.00000000000E+00 -0.61197823342E+02  0.61197823342E+02  0.00000000000E+00 0. -1.
         25    1    1    2    0    0  0.44152634277E+02 -0.20054221388E+03  0.57865216456E+03  0.62660191686E+03  0.12500000000E+03 0.  0.
         25    1    1    2    0    0 -0.44152634277E+02  0.20054221388E+03  0.35092226308E+03  0.42536815747E+03  0.12500000000E+03 0.  0.
</event>
<event>
 4    0  0.2176682E-002  0.2524445E+03  0.7546771E-02  0.1111770E+00
         21   -1    0    0  502  501  0.00000000000E+00  0.00000000000E+00  0.61056060368E+02  0.61056060368E+02  0.00000000000E+00 0. -1.
         21   -1    0    0  501  502 -0.00000000000E+00 -0.00000000000E+00 -0.10437655315E+04  0.10437655315E+04  0.00000000000E+00 0. -1.
         25    1    1    2    0    0  0.73261190553E+02  0.17564338333E+03 -0.25279156503E+03  0.34021518999E+03  0.12500000000E+03 0.  0.
         25    1    1    2    0    0 -0.73261190553E+02 -0.17564338333E+03 -0.72991790615E+03  0.76460640193E+03  0.12500000000E+03 0.  0.
</event>
<event>
 4    0  0.2176682E-002  0.2094803E+03  0.7546771E-02  0.1141978E+00
         21   -1    0    0  502  501  0.00000000000E+00  0.00000000000E+00  0.68049245612E+03  0.68049245612E+03  0.00000000000E+00 0. -1.
         21   -1    0    0  501  502 -0.00000000000E+00 -0.00000000000E+00 -0.64485664919E+02  0.64485664919E+02  0.00000000000E+00 0. -1.
         25    1    1    2    0    0 -0.14251141732E+03 -0.10975699505E+02  0.15068880373E+03  0.24240892231E+03  0.12500000000E+03 0.  0.
         25    1    1    2    0    0  0.14251141732E+03  0.10975699505E+02  0.46531798747E+03  0.50256919873E+03  0.12500000000E+03 0.  0.
</event>
<event>
 4    0  0.2176682E-002  0.2143079E+03  0.7546771E-02  0.1138199E+00
         21   -1    0    0  502  501  0.00000000000E+00  0.00000000000E+00  0.16009890619E+03  0.16009890619E+03  0.00000000000E+00 0.  1.
         21   -1    0    0  501  502 -0.00000000000E+00 -0.00000000000E+00 -0.28687177573E+03  0.28687177573E+03  0.00000000000E+00 0.  1.
         25    1    1    2    0    0  0.36511592954E+02 -0.32077483543E+02 -0.23769965935E+03  0.27292524513E+03  0.12500000000E+03 0.  0.
         25    1    1    2    0    0 -0.36511592954E+02  0.32077483543E+02  0.11092678981E+03  0.17404543679E+03  0.12500000000E+03 0.  0.
</event>
<event>
 4    0  0.2176682E-002  0.2218071E+03  0.7546771E-02  0.1132543E+00
         21   -1    0    0  502  501  0.00000000000E+00  0.00000000000E+00  0.13119623670E+03  0.13119623670E+03  0.00000000000E+00 0. -1.
         21   -1    0    0  501  502 -0.00000000000E+00 -0.00000000000E+00 -0.37499840980E+03  0.37499840980E+03  0.00000000000E+00 0. -1.
         25    1    1    2    0    0 -0.18077966460E+03 -0.25923466056E+02 -0.10497371514E+03  0.24494447145E+03  0.12500000000E+03 0.  0.
         25    1    1    2    0    0  0.18077966460E+03  0.25923466056E+02 -0.13882845796E+03  0.26125017505E+03  0.12500000000E+03 0.  0.
</event>
<event>
 4    0  0.2176682E-002  0.2007017E+03  0.7546771E-02  0.1149148E+00
         21   -1    0    0  502  501  0.00000000000E+00  0.00000000000E+00  0.26418386741E+03  0.26418386741E+03  0.00000000000E+00 0.  1.
         21   -1    0    0  501  502 -0.00000000000E+00 -0.00000000000E+00 -0.15247395119E+03  0.15247395119E+03  0.00000000000E+00 0.  1.
         25    1    1    2    0    0 -0.13404236347E+03 -0.71386891044E+02  0.97280438996E+02  0.21943547395E+03  0.12500000000E+03 0.  0.
         25    1    1    2    0    0  0.13404236347E+03  0.71386891044E+02  0.14429477225E+02  0.19722234465E+03  0.12500000000E+03 0.  0.
</event>
<event>
 4    0  0.2176682E-002  0.2828612E+03  0.7546771E-02  0.1094136E+00
         21   -1    0    0  502  501  0.00000000000E+00  0.00000000000E+00  0.18111920450E+03  0.18111920450E+03  0.00000000000E+00 0.  1.
         21   -1    0    0  501  502 -0.00000000000E+00 -0.00000000000E+00 -0.44175584349E+03  0.44175584349E+03  0.00000000000E+00 0.  1.
         25    1    1    2    0    0  0.24174841326E+03 -0.16972737898E+02 -0.21311589043E+03  0.34608344644E+03  0.12500000000E+03 0.  0.
         25    1    1    2    0    0 -0.24174841326E+03  0.16972737898E+02 -0.47520748562E+02  0.27679160156E+03  0.12500000000E+03 0.  0.
</event>
<event>
 4    0  0.2176682E-002  0.3098223E+03  0.7546771E-02  0.1080431E+00
         21   -1    0    0  502  501  0.00000000000E+00  0.00000000000E+00  0.10299347052E+03  0.10299347052E+03  0.00000000000E+00 0. -1.
         21   -1    0    0  501  502 -0.00000000000E+00 -0.00000000000E+00 -0.93199915102E+03  0.93199915102E+03  0.00000000000E+00 0. -1.
         25    1    1    2    0    0 -0.71531430108E+02  0.15325266815E+03 -0.34489428395E+02  0.21311416297E+03  0.12500000000E+03 0.  0.
         25    1    1    2    0    0  0.71531430108E+02 -0.15325266815E+03 -0.79451625211E+03  0.82187845857E+03  0.12500000000E+03 0.  0.
</event>
<event>
 4    0  0.2176682E-002  0.1844990E+03  0.7546771E-02  0.1163519E+00
         21   -1    0    0  502  501  0.00000000000E+00  0.00000000000E+00  0.50618461969E+02  0.50618461969E+02  0.00000000000E+00 0.  1.
         21   -1    0    0  501  502 -0.00000000000E+00 -0.00000000000E+00 -0.67247943443E+03  0.67247943443E+03  0.00000000000E+00 0.  1.
         25    1    1    2    0    0 -0.70687608887E+02 -0.10487608633E+03 -0.40731425626E+03  0.44443856143E+03  0.12500000000E+03 0.  0.
         25    1    1    2    0    0  0.70687608887E+02  0.10487608633E+03 -0.21454671620E+03  0.27865933497E+03  0.12500000000E+03 0.  0.
</event>
<event>
 4    0  0.2176682E-002  0.2257377E+03  0.7546771E-02  0.1129676E+00
         21   -1    0    0  502  501  0.00000000000E+00  0.00000000000E+00  0.54172771708E+03  0.54172771708E+03  0.00000000000E+00 0.  1.
         21   -1    0    0  501  502 -0.00000000000E+00 -0.00000000000E+00 -0.94064774186E+02  0.94064774186E+02  0.00000000000E+00 0.  1.
         25    1    1    2    0    0  0.16793899061E+03 -0.65862551512E+02  0.14943193379E+03  0.26551136151E+03  0.12500000000E+03 0.  0.
         25    1    1    2    0    0 -0.16793899061E+03  0.65862551512E+02  0.29823100911E+03  0.37028112976E+03  0.12500000000E+03 0.  0.
</event>
<event>
 4    0  0.2176682E-002  0.1819350E+03  0.7546771E-02  0.1165943E+00
         21   -1    0    0  502  501  0.00000000000E+00  0.00000000000E+00  0.34246602488E+03  0.34246602488E+03  0.00000000000E+00 0.  1.
         21   -1    0    0  501  502 -0.00000000000E+00 -0.00000000000E+00 -0.96652876323E+02  0.96652876323E+02  0.00000000000E+00 0.  1.
         25    1    1    2    0    0 -0.38084039493E+02 -0.38302160405E+02 -0.22701352177E+02  0.13804999437E+03  0.12500000000E+03 0.  0.
         25    1    1    2    0    0  0.38084039493E+02  0.38302160405E+02  0.26851450074E+03  0.30106890683E+03  0.12500000000E+03 0.  0.
</event>
<event>
 4    0  0.2176682E-002  0.2538449E+03  0.7546771E-02  0.1110899E+00
         21   -1    0    0  502  501  0.00000000000E+00  0.00000000000E+00  0.25394977457E+03  0.25394977457E+03  0.00000000000E+00 0.  1.
         21   -1    0    0  501  502 -0.00000000000E+00 -0.00000000000E+00 -0.25374001463E+03  0.25374001463E+03  0.00000000000E+00 0.  1.
         25    1    1    2    0    0 -0.19916056972E+03 -0.91645182574E+02  0.27462650761E+02  0.25385619789E+03  0.12500000000E+03 0.  0.
         25    1    1    2    0    0  0.19916056972E+03  0.91645182574E+02 -0.27252890820E+02  0.25383359131E+03  0.12500000000E+03 0.  0.
</event>
<event>
 4    0  0.2176682E-002  0.2095587E+03  0.7546771E-02  0.1141916E+00
         21   -1    0    0  502  501  0.00000000000E+00  0.00000000000E+00  0.25167325935E+03  0.25167325935E+03  0.00000000000E+00 0. -1.
         21   -1    0    0  501  502 -0.00000000000E+00 -0.00000000000E+00 -0.17449147740E+03  0.17449147740E+03  0.00000000000E+00 0. -1.
         25    1    1    2    0    0  0.16133342926E+03  0.47053735813E+02  0.45584728930E+02  0.21434900737E+03  0.12500000000E+03 0.  0.
         25    1    1    2    0    0 -0.16133342926E+03 -0.47053735813E+02  0.31597053021E+02  0.21181572937E+03  0.12500000000E+03 0.  0.
</event>
<event>
 4    0  0.2176682E-002  0.1858760E+03  0.7546771E-02  0.1162234E+00
         21   -1    0    0  502  501  0.00000000000E+00  0.00000000000E+00  0.17428411440E+03  0.17428411440E+03  0.00000000000E+00 0.  1.
         21   -1    0    0  501  502 -0.00000000000E+00 -0.00000000000E+00 -0.19823895426E+03  0.19823895426E+03  0.00000000000E+00 0.  1.
         25    1    1    2    0    0  0.40481747863E+02 -0.42311075855E+02  0.11276328648E+03  0.17824016895E+03  0.12500000000E+03 0.  0.
         25    1    1    2    0    0 -0.40481747863E+02  0.42311075855E+02 -0.13671812634E+03  0.19428289971E+03  0.12500000000E+03 0.  0.
</event>
<event>
 4    0  0.2176682E-002  0.3111671E+03  0.7546771E-02  0.1079788E+00
         21   -1    0    0  502  501  0.00000000000E+00  0.00000000000E+00  0.66454643773E+02  0.66454643773E+02  0.00000000000E+00 0. -1.
         21   -1    0    0  501  502 -0.00000000000E+00 -0.00000000000E+00 -0.14570083503E+04  0.14570083503E+04  0.00000000000E+00 0. -1.
         25    1    1    2    0    0  0.96315781001E+02  0.18650426083E+03 -0.22351189525E+03  0.33112404971E+03  0.12500000000E+03 0.  0.
         25    1    1    2    0    0 -0.96315781001E+02 -0.18650426083E+03 -0.11670418113E+04  0.11923389444E+04  0.12500000000E+03 0.  0.
</event>
<event>
 4    0  0.2176682E-002  0.2527365E+03  0.7546771E-02  0.1111588E+00
         21   -1    0    0  502  501  0.00000000000E+00  0.00000000000E+00  0.14865226492E+03  0.14865226492E+03  0.00000000000E+00 0.  1.
         21   -1    0    0  501  502 -0.00000000000E+00 -0.00000000000E+00 -0.42969922904E+03  0.42969922904E+03  0.00000000000E+00 0.  1.
         25    1    1    2    0    0  0.75271651356E+02  0.11181228018E+03  0.57927873025E+02  0.19273932129E+03  0.12500000000E+03 0.  0.
         25    1    1    2    0    0 -0.75271651356E+02 -0.11181228018E+03 -0.33897483715E+03  0.38561217268E+03  0.12500000000E+03 0.  0.
</event>
<event>
 4    0  0.2176682E-002  0.3071069E+03  0.7546771E-02  0.1081741E+00
         21   -1    0    0  502  501  0.00000000000E+00  0.00000000000E+00  0.28198137508E+03  0.28198137508E+03  0.00000000000E+00 0. -1.
         21   -1    0    0  501  502 -0.00000000000E+00 -0.00000000000E+00 -0.33447116272E+03  0.33447116272E+03  0.00000000000E+00 0. -1.
         25    1    1    2    0    0  0.12421013353E+03  0.25148580286E+03 -0.22183903401E+02  0.30788048312E+03  0.12500000000E+03 0.  0.
         25    1    1    2    0    0 -0.12421013353E+03 -0.25148580286E+03 -0.30305884240E+02  0.30857205469E+03  0.12500000000E+03 0.  0.
</event>
<event>
 4    0  0.2176682E-002  0.1612867E+03  0.7546771E-02  0.1187252E+00
         21   -1    0    0  502  501  0.00000000000E+00  0.00000000000E+00  0.38700459956E+02  0.38700459956E+02  0.00000000000E+00 0.  1.
         21   -1    0    0  501  502 -0.00000000000E+00 -0.00000000000E+00 -0.67217311895E+03  0.67217311895E+03  0.00000000000E+00 0.  1.
         25    1    1    2    0    0  0.90626730577E+02  0.33150339337E+02 -0.24443899946E+03  0.29101129488E+03  0.12500000000E+03 0.  0.
         25    1    1    2    0    0 -0.90626730577E+02 -0.33150339337E+02 -0.38903365954E+03  0.41986228402E+03  0.12500000000E+03 0.  0.
</event>
<event>
 4    0  0.2176682E-002  0.2682975E+03  0.7546771E-02  0.1102258E+00
         21   -1    0    0  502  501  0.00000000000E+00  0.00000000000E+00  0.83460502573E+02  0.83460502573E+02  0.00000000000E+00 0. -1.
         21   -1    0    0  501  502 -0.00000000000E+00 -0.00000000000E+00 -0.86248657258E+03  0.86248657258E+03  0.00000000000E+00 0. -1.
         25    1    1    2    0    0 -0.88322996917E+02  0.15464192330E+03 -0.66625259754E+03  0.70087987555E+03  0.12500000000E+03 0.  0.
         25    1    1    2    0    0  0.88322996917E+02 -0.15464192330E+03 -0.11277347247E+03  0.24506719960E+03  0.12500000000E+03 0.  0.
</event>
<event>
 4    0  0.2176682E-002  0.3766334E+03  0.7546771E-02  0.1052185E+00
         21   -1    0    0  502  501  0.00000000000E+00  0.00000000000E+00  0.50073829006E+03  0.50073829006E+03  0.00000000000E+00 0. -1.
         21   -1    0    0  501  502 -0.00000000000E+00 -0.00000000000E+00 -0.28328721347E+03  0.28328721347E+03  0.00000000000E+00 0.  1.
         25    1    1    2    0    0  0.22165463811E+03  0.23613716656E+03  0.26075928384E+03  0.43417962198E+03  0.12500000000E+03 0.  0.
         25    1    1    2    0    0 -0.22165463811E+03 -0.23613716656E+03 -0.43308207248E+02  0.34984588156E+03  0.12500000000E+03 0.  0.
</event>
<event>
 4    0  0.2176682E-002  0.2118058E+03  0.7546771E-02  0.1140144E+00
         21   -1    0    0  502  501  0.00000000000E+00  0.00000000000E+00  0.26999004539E+03  0.26999004539E+03  0.00000000000E+00 0. -1.
         21   -1    0    0  501  502 -0.00000000000E+00 -0.00000000000E+00 -0.16616061075E+03  0.16616061075E+03  0.00000000000E+00 0. -1.
         25    1    1    2    0    0 -0.15633944930E+03  0.68983895317E+02  0.58084558594E+02  0.21954411213E+03  0.12500000000E+03 0.  0.
         25    1    1    2    0    0  0.15633944930E+03 -0.68983895317E+02  0.45744876048E+02  0.21660654401E+03  0.12500000000E+03 0.  0.
</event>
<event>
 4    0  0.2176682E-002  0.2938146E+03  0.7546771E-02  0.1088374E+00
         21   -1    0    0  502  501  0.00000000000E+00  0.00000000000E+00  0.11474902942E+03  0.11474902942E+03  0.00000000000E+00 0.  1.
         21   -1    0    0  501  502 -0.00000000000E+00 -0.00000000000E+00 -0.75231146246E+03  0.75231146246E+03  0.00000000000E+00 0.  1.
         25    1    1    2    0    0 -0.19346891199E+03 -0.14146600726E+03 -0.14887704499E+03  0.30859718995E+03  0.12500000000E+03 0.  0.
         25    1    1    2    0    0  0.19346891199E+03  0.14146600726E+03 -0.48868538805E+03  0.55846330194E+03  0.12500000000E+03 0.  0.
</event>
<event>
 4    0  0.2176682E-002  0.3231004E+03  0.7546771E-02  0.1074231E+00
         21   -1    0    0  502  501  0.00000000000E+00  0.00000000000E+00  0.28860145215E+03  0.28860145215E+03  0.00000000000E+00 0.  1.
         21   -1    0    0  501  502 -0.00000000000E+00 -0.00000000000E+00 -0.36172339772E+03  0.36172339772E+03  0.00000000000E+00 0.  1.
         25    1    1    2    0    0  0.10336988415E+03 -0.13726241027E+03 -0.28151232207E+03  0.35270453598E+03  0.12500000000E+03 0.  0.
         25    1    1    2    0    0 -0.10336988415E+03  0.13726241027E+03  0.20839037649E+03  0.29762031389E+03  0.12500000000E+03 0.  0.
</event>
<event>
 4    0  0.2176682E-002  0.3382963E+03  0.7546771E-02  0.1067524E+00
         21   -1    0    0  502  501  0.00000000000E+00  0.00000000000E+00  0.47450949475E+03  0.47450949475E+03  0.00000000000E+00 0.  1.
         21   -1    0    0  501  502 -0.00000000000E+00 -0.00000000000E+00 -0.24118455248E+03  0.24118455248E+03  0.00000000000E+00 0.  1.
         25    1    1    2    0    0  0.31306768280E+03 -0.27167632304E+02  0.12550664042E+03  0.36073033010E+03  0.12500000000E+03 0.  0.
         25    1    1    2    0    0 -0.31306768280E+03  0.27167632304E+02  0.10781830185E+03  0.35496371712E+03  0.12500000000E+03 0.  0.
</event>
<event>
 4    0  0.2176682E-002  0.2225878E+03  0.7546771E-02  0.1131968E+00
         21   -1    0    0  502  501  0.00000000000E+00  0.00000000000E+00  0.69609627517E+03  0.69609627517E+03  0.00000000000E+00 0. -1.
         21   -1    0    0  501  502 -0.00000000000E+00 -0.00000000000E+00 -0.71175960655E+02  0.71175960655E+02  0.00000000000E+00 0. -1.
         25    1    1    2    0    0  0.10826131543E+03 -0.13492633873E+03  0.20352707239E+03  0.29491337456E+03  0.12500000000E+03 0.  0.
         25    1    1    2    0    0 -0.10826131543E+03  0.13492633873E+03  0.42139324213E+03  0.47235886126E+03  0.12500000000E+03 0.  0.
</event>
<event>
 4    0  0.2176682E-002  0.2262641E+03  0.7546771E-02  0.1129297E+00
         21   -1    0    0  502  501  0.00000000000E+00  0.00000000000E+00  0.59980898538E+02  0.59980898538E+02  0.00000000000E+00 0.  1.
         21   -1    0    0  501  502 -0.00000000000E+00 -0.00000000000E+00 -0.85352924521E+03  0.85352924521E+03  0.00000000000E+00 0. -1.
         25    1    1    2    0    0 -0.87467897967E+02 -0.11726573684E+03 -0.15648698108E+03  0.24802230032E+03  0.12500000000E+03 0.  0.
         25    1    1    2    0    0  0.87467897967E+02  0.11726573684E+03 -0.63706136560E+03  0.66548784343E+03  0.12500000000E+03 0.  0.
</event>
<event>
 4    0  0.2176682E-002  0.2215570E+03  0.7546771E-02  0.1132728E+00
         21   -1    0    0  502  501  0.00000000000E+00  0.00000000000E+00  0.84955836494E+02  0.84955836494E+02  0.00000000000E+00 0.  1.
         21   -1    0    0  501  502 -0.00000000000E+00 -0.00000000000E+00 -0.57780038319E+03  0.57780038319E+03  0.00000000000E+00 0.  1.
         25    1    1    2    0    0  0.75420653809E+02 -0.12324281568E+03 -0.41421480915E+03  0.45615345527E+03  0.12500000000E+03 0.  0.
         25    1    1    2    0    0 -0.75420653809E+02  0.12324281568E+03 -0.78629737548E+02  0.20660276441E+03  0.12500000000E+03 0.  0.
</event>
<event>
 4    0  0.2176682E-002  0.1881974E+03  0.7546771E-02  0.1160097E+00
         21   -1    0    0  502  501  0.00000000000E+00  0.00000000000E+00  0.26448379668E+03  0.26448379668E+03  0.00000000000E+00 0. -1.
         21   -1    0    0  501  502 -0.00000000000E+00 -0.00000000000E+00 -0.13391461028E+03  0.13391461028E+03  0.00000000000E+00 0. -1.
         25    1    1    2    0    0 -0.49277408688E+02  0.13145064988E+03  0.55485514195E+02  0.19598770024E+03  0.12500000000E+03 0.  0.
         25    1    1    2    0    0  0.49277408688E+02 -0.13145064988E+03  0.75083672208E+02  0.20241070672E+03  0.12500000000E+03 0.  0.
</event>
<event>
 4    0  0.2176682E-002  0.2131998E+03  0.7546771E-02  0.1139057E+00
         21   -1    0    0  502  501  0.00000000000E+00  0.00000000000E+00  0.13735563039E+04  0.13735563039E+04  0.00000000000E+00 0.  1.
         21   -1    0    0  501  502 -0.00000000000E+00 -0.00000000000E+00 -0.33092301155E+02  0.33092301155E+02  0.00000000000E+00 0.  1.
         25    1    1    2    0    0 -0.39592685699E+02 -0.13827503535E+02  0.11752764881E+03  0.17662539130E+03  0.12500000000E+03 0.  0.
         25    1    1    2    0    0  0.39592685699E+02  0.13827503535E+02  0.12229363539E+04  0.12300232137E+04  0.12500000000E+03 0.  0.
</event>
<event>
 4    0  0.2176682E-002  0.1775359E+03  0.7546771E-02  0.1170209E+00
         21   -1    0    0  502  501  0.00000000000E+00  0.00000000000E+00  0.59080130166E+02  0.59080130166E+02  0.00000000000E+00 0. -1.
         21   -1    0    0  501  502 -0.00000000000E+00 -0.00000000000E+00 -0.53349584107E+03  0.53349584107E+03  0.00000000000E+00 0. -1.
         25    1    1    2    0    0 -0.57343207210E+02  0.19253904207E+01 -0.49860117094E+02  0.14629757967E+03  0.12500000000E+03 0.  0.
         25    1    1    2    0    0  0.57343207210E+02 -0.19253904207E+01 -0.42455559381E+03  0.44627839156E+03  0.12500000000E+03 0.  0.
</event>
<event>
 4    0  0.2176682E-002  0.1618077E+03  0.7546771E-02  0.1186671E+00
         21   -1    0    0  502  501  0.00000000000E+00  0.00000000000E+00  0.81184232295E+03  0.81184232295E+03  0.00000000000E+00 0. -1.
         21   -1    0    0  501  502 -0.00000000000E+00 -0.00000000000E+00 -0.32249778612E+02  0.32249778612E+02  0.00000000000E+00 0. -1.
         25    1    1    2    0    0  0.93044658706E+02 -0.13655198254E+02  0.28184332050E+03  0.32234210129E+03  0.12500000000E+03 0.  0.
         25    1    1    2    0    0 -0.93044658706E+02  0.13655198254E+02  0.49774922384E+03  0.52175000027E+03  0.12500000000E+03 0.  0.
</event>
<event>
 4    0  0.2176682E-002  0.2069644E+03  0.7546771E-02  0.1143993E+00
         21   -1    0    0  502  501  0.00000000000E+00  0.00000000000E+00  0.29602522725E+03  0.29602522725E+03  0.00000000000E+00 0. -1.
         21   -1    0    0  501  502 -0.00000000000E+00 -0.00000000000E+00 -0.14469796187E+03  0.14469796187E+03  0.00000000000E+00 0. -1.
         25    1    1    2    0    0 -0.53746048160E+02 -0.14305096630E+03  0.95384525298E+01  0.19765677001E+03  0.12500000000E+03 0.  0.
         25    1    1    2    0    0  0.53746048160E+02  0.14305096630E+03  0.14178881285E+03  0.24306641912E+03  0.12500000000E+03 0.  0.
</event>
<event>
 4    0  0.2176682E-002  0.2595501E+03  0.7546771E-02  0.1107414E+00
         21   -1    0    0  502  501  0.00000000000E+00  0.00000000000E+00  0.18109369725E+03  0.18109369725E+03  0.00000000000E+00 0.  1.
         21   -1    0    0  501  502 -0.00000000000E+00 -0.00000000000E+00 -0.37199671164E+03  0.37199671164E+03  0.00000000000E+00 0.  1.
         25    1    1    2    0    0 -0.21331537395E+03 -0.78843383782E+02 -0.90507414926E+02  0.27483871650E+03  0.12500000000E+03 0.  0.
         25    1    1    2    0    0  0.21331537395E+03  0.78843383782E+02 -0.10039559947E+03  0.27825169240E+03  0.12500000000E+03 0.  0.
</event>
<event>
 4    0  0.2176682E-002  0.2315060E+03  0.7546771E-02  0.1125584E+00
         21   -1    0    0  502  501  0.00000000000E+00  0.00000000000E+00  0.41154290960E+03  0.41154290960E+03  0.00000000000E+00 0. -1.
         21   -1    0    0  501  502 -0.00000000000E+00 -0.00000000000E+00 -0.13022954014E+03  0.13022954014E+03  0.00000000000E+00 0. -1.
         25    1    1    2    0    0 -0.16340819418E+03  0.98960567069E+02  0.18558948683E+03  0.29421741855E+03  0.12500000000E+03 0.  0.
         25    1    1    2    0    0  0.16340819418E+03 -0.98960567069E+02  0.95723882627E+02  0.24755503118E+03  0.12500000000E+03 0.  0.
</event>
<event>
 4    0  0.2176682E-002  0.2308216E+03  0.7546771E-02  0.1126063E+00
         21   -1    0    0  502  501  0.00000000000E+00  0.00000000000E+00  0.18730196134E+03  0.18730196134E+03  0.00000000000E+00 0. -1.
         21   -1    0    0  501  502 -0.00000000000E+00 -0.00000000000E+00 -0.28445306270E+03  0.28445306270E+03  0.00000000000E+00 0. -1.
         25    1    1    2    0    0  0.96081881325E+02  0.77461193413E+02 -0.20159402727E+03  0.26738944675E+03  0.12500000000E+03 0.  0.
         25    1    1    2    0    0 -0.96081881325E+02 -0.77461193413E+02  0.10444292591E+03  0.20436557728E+03  0.12500000000E+03 0.  0.
</event>
<event>
 4    0  0.2176682E-002  0.1875505E+03  0.7546771E-02  0.1160689E+00
         21   -1    0    0  502  501  0.00000000000E+00  0.00000000000E+00  0.28246606034E+03  0.28246606034E+03  0.00000000000E+00 0. -1.
         21   -1    0    0  501  502 -0.00000000000E+00 -0.00000000000E+00 -0.12452884895E+03  0.12452884895E+03  0.00000000000E+00 0. -1.
         25    1    1    2    0    0 -0.99396165560E+02 -0.77322939513E+02  0.13042665399E+02  0.17791443399E+03  0.12500000000E+03 0.  0.
         25    1    1    2    0    0  0.99396165560E+02  0.77322939513E+02  0.14489454599E+03  0.22908047530E+03  0.12500000000E+03 0.  0.
</event>
<event>
 4    0  0.2176682E-002  0.2307768E+03  0.7546771E-02  0.1126094E+00
         21   -1    0    0  502  501  0.00000000000E+00  0.00000000000E+00  0.18671744292E+04  0.18671744292E+04  0.00000000000E+00 0.  1.
         21   -1    0    0  501  502 -0.00000000000E+00 -0.00000000000E+00 -0.28523264047E+02  0.28523264047E+02  0.00000000000E+00 0.  1.
         25    1    1    2    0    0 -0.97847711813E+02  0.13315494335E+03  0.13367381917E+04  0.13527004128E+04  0.12500000000E+03 0.  0.
         25    1    1    2    0    0  0.97847711813E+02 -0.13315494335E+03  0.50191297339E+03  0.54299728039E+03  0.12500000000E+03 0.  0.
</event>
<event>
 4    0  0.2176682E-002  0.2209600E+03  0.7546771E-02  0.1133169E+00
         21   -1    0    0  502  501  0.00000000000E+00  0.00000000000E+00  0.49959815620E+02  0.49959815620E+02  0.00000000000E+00 0.  1.
         21   -1    0    0  501  502 -0.00000000000E+00 -0.00000000000E+00 -0.97725222814E+03  0.97725222814E+03  0.00000000000E+00 0.  1.
         25    1    1    2    0    0  0.79163613258E+02  0.15438113580E+03 -0.33427070502E+03  0.39681521769E+03  0.12500000000E+03 0.  0.
         25    1    1    2    0    0 -0.79163613258E+02 -0.15438113580E+03 -0.59302170751E+03  0.63039682608E+03  0.12500000000E+03 0.  0.
</event>
<event>
 4    0  0.2176682E-002  0.1673801E+03  0.7546771E-02  0.1180608E+00
         21   -1    0    0  502  501  0.00000000000E+00  0.00000000000E+00  0.91432578401E+03  0.91432578401E+03  0.00000000000E+00 0.  1.
         21   -1    0    0  501  502 -0.00000000000E+00 -0.00000000000E+00 -0.30641275160E+02  0.30641275160E+02  0.00000000000E+00 0.  1.
         25    1    1    2    0    0 -0.10722297595E+03 -0.28149483216E+02  0.47034403776E+03  0.49913692894E+03  0.12500000000E+03 0.  0.
         25    1    1    2    0    0  0.10722297595E+03  0.28149483216E+02  0.41334047109E+03  0.44583013023E+03  0.12500000000E+03 0.  0.
</event>
<event>
 4    0  0.2176682E-002  0.2811088E+03  0.7546771E-02  0.1095085E+00
         21   -1    0    0  502  501  0.00000000000E+00  0.00000000000E+00  0.62287622251E+03  0.62287622251E+03  0.00000000000E+00 0. -1.
         21   -1    0    0  501  502 -0.00000000000E+00 -0.00000000000E+00 -0.12686657592E+03  0.12686657592E+03  0.00000000000E+00 0. -1.
         25    1    1    2    0    0  0.17344032638E+03 -0.15246552506E+03  0.38182456709E+03  0.46340293825E+03  0.12500000000E+03 0.  0.
         25    1    1    2    0    0 -0.17344032638E+03  0.15246552506E+03  0.11418507950E+03  0.28633986018E+03  0.12500000000E+03 0.  0.
</event>
<event>
 4    0  0.2176682E-002  0.1797673E+03  0.7546771E-02  0.1168028E+00
         21   -1    0    0  502  501  0.00000000000E+00  0.00000000000E+00  0.44043610581E+02  0.44043610581E+02  0.00000000000E+00 0.  1.
         21   -1    0    0  501  502 -0.00000000000E+00 -0.00000000000E+00 -0.73373340939E+03  0.73373340939E+03  0.00000000000E+00 0.  1.
         25    1    1    2    0    0  0.77358063448E+02  0.85739811125E+02 -0.47016045813E+03  0.50001144145E+03  0.12500000000E+03 0.  0.
         25    1    1    2    0    0 -0.77358063448E+02 -0.85739811125E+02 -0.21952934069E+03  0.27776557853E+03  0.12500000000E+03 0.  0.
</event>
<event>
 4    0  0.2176682E-002  0.1625206E+03  0.7546771E-02  0.1185880E+00
         21   -1    0    0  502  501  0.00000000000E+00  0.00000000000E+00  0.48887404858E+03  0.48887404858E+03  0.00000000000E+00 0.  1.
         21   -1    0    0  501  502 -0.00000000000E+00 -0.00000000000E+00 -0.54028117831E+02  0.54028117831E+02  0.00000000000E+00 0.  1.
         25    1    1    2    0    0  0.72861408443E+02 -0.50078807937E+02  0.30846761642E+03  0.34437471194E+03  0.12500000000E+03 0.  0.
         25    1    1    2    0    0 -0.72861408443E+02  0.50078807937E+02  0.12637831432E+03  0.19852745446E+03  0.12500000000E+03 0.  0.
</event>
<event>
 4    0  0.2176682E-002  0.2079504E+03  0.7546771E-02  0.1143199E+00
         21   -1    0    0  502  501  0.00000000000E+00  0.00000000000E+00  0.19553626417E+03  0.19553626417E+03  0.00000000000E+00 0.  1.
         21   -1    0    0  501  502 -0.00000000000E+00 -0.00000000000E+00 -0.22115268319E+03  0.22115268319E+03  0.00000000000E+00 0.  1.
         25    1    1    2    0    0  0.12462635699E+02 -0.11999419405E+03  0.10170819774E+03  0.20130444948E+03  0.12500000000E+03 0.  0.
         25    1    1    2    0    0 -0.12462635699E+02  0.11999419405E+03 -0.12732461675E+03  0.21538449788E+03  0.12500000000E+03 0.  0.
</event>
<event>
 4    0  0.2176682E-002  0.1929172E+03  0.7546771E-02  0.1155856E+00
         21   -1    0    0  502  501  0.00000000000E+00  0.00000000000E+00  0.80387614101E+03  0.80387614101E+03  0.00000000000E+00 0.  1.
         21   -1    0    0  501  502 -0.00000000000E+00 -0.00000000000E+00 -0.46296988133E+02  0.46296988133E+02  0.00000000000E+00 0.  1.
         25    1    1    2    0    0 -0.78228770675E+02  0.48238938100E+02  0.63142359506E+03  0.65020573060E+03  0.12500000000E+03 0.  0.
         25    1    1    2    0    0  0.78228770675E+02 -0.48238938100E+02  0.12615555782E+03  0.19996739854E+03  0.12500000000E+03 0.  0.
</event>
<event>
 4    0  0.2176682E-002  0.2816283E+03  0.7546771E-02  0.1094803E+00
         21   -1    0    0  502  501  0.00000000000E+00  0.00000000000E+00  0.51181640152E+03  0.51181640152E+03  0.00000000000E+00 0. -1.
         21   -1    0    0  501  502 -0.00000000000E+00 -0.00000000000E+00 -0.15496665894E+03  0.15496665894E+03  0.00000000000E+00 0. -1.
         25    1    1    2    0    0 -0.11721622095E+03  0.21478644782E+03  0.25155858458E+03  0.37253131694E+03  0.12500000000E+03 0.  0.
         25    1    1    2    0    0  0.11721622095E+03 -0.21478644782E+03  0.10529115800E+03  0.29425174353E+03  0.12500000000E+03 0.  0.
</event>
<event>
 4    0  0.2176682E-002  0.1814737E+03  0.7546771E-02  0.1166384E+00
         21   -1    0    0  502  501  0.00000000000E+00  0.00000000000E+00  0.91054487251E+02  0.91054487251E+02  0.00000000000E+00 0. -1.
         21   -1    0    0  501  502 -0.00000000000E+00 -0.00000000000E+00 -0.36168127779E+03  0.36168127779E+03  0.00000000000E+00 0. -1.
         25    1    1    2    0    0  0.25239559424E+02 -0.11066950578E+03 -0.52355815469E+02  0.17677925863E+03  0.12500000000E+03 0.  0.
         25    1    1    2    0    0 -0.25239559424E+02  0.11066950578E+03 -0.21827097507E+03  0.27595650641E+03  0.12500000000E+03 0.  0.
</event>
<event>
 4    0  0.2176682E-002  0.1859154E+03  0.7546771E-02  0.1162198E+00
         21   -1    0    0  502  501  0.00000000000E+00  0.00000000000E+00  0.18128280480E+04  0.18128280480E+04  0.00000000000E+00 0. -1.
         21   -1    0    0  501  502 -0.00000000000E+00 -0.00000000000E+00 -0.19066637061E+02  0.19066637061E+02  0.00000000000E+00 0. -1.
         25    1    1    2    0    0 -0.84893103701E+02  0.66869513740E+02  0.47706540788E+03  0.50487104721E+03  0.12500000000E+03 0.  0.
         25    1    1    2    0    0  0.84893103701E+02 -0.66869513740E+02  0.13166960031E+04  0.13270236379E+04  0.12500000000E+03 0.  0.
</event>
<event>
 4    0  0.2176682E-002  0.2065632E+03  0.7546771E-02  0.1144317E+00
         21   -1    0    0  502  501  0.00000000000E+00  0.00000000000E+00  0.47425729951E+02  0.47425729951E+02  0.00000000000E+00 0. -1.
         21   -1    0    0  501  502 -0.00000000000E+00 -0.00000000000E+00 -0.89968769675E+03  0.89968769675E+03  0.00000000000E+00 0. -1.
         25    1    1    2    0    0 -0.67212252429E+02  0.50015549152E+02 -0.10171831379E+03  0.18163330475E+03  0.12500000000E+03 0.  0.
         25    1    1    2    0    0  0.67212252429E+02 -0.50015549152E+02 -0.75054365301E+03  0.76548012195E+03  0.12500000000E+03 0.  0.
</event>
<event>
 4    0  0.2176682E-002  0.2208033E+03  0.7546771E-02  0.1133286E+00
         21   -1    0    0  502  501  0.00000000000E+00  0.00000000000E+00  0.15115250243E+04  0.15115250243E+04  0.00000000000E+00 0.  1.
         21   -1    0    0  501  502 -0.00000000000E+00 -0.00000000000E+00 -0.32254907771E+02  0.32254907771E+02  0.00000000000E+00 0.  1.
         25    1    1    2    0    0 -0.15693912151E+03  0.85102125338E+02  0.61570121061E+03  0.65313493272E+03  0.12500000000E+03 0.  0.
         25    1    1    2    0    0  0.15693912151E+03 -0.85102125338E+02  0.86356890596E+03  0.89064499939E+03  0.12500000000E+03 0.  0.
</event>
<event>
 4    0  0.2176682E-002  0.2192338E+03  0.7546771E-02  0.1134456E+00
         21   -1    0    0  502  501  0.00000000000E+00  0.00000000000E+00  0.50325167301E+02  0.50325167301E+02  0.00000000000E+00 0.  1.
         21   -1    0    0  501  502 -0.00000000000E+00 -0.00000000000E+00 -0.95505836026E+03  0.95505836026E+03  0.00000000000E+00 0.  1.
         25    1    1    2    0    0  0.11704142990E+01  0.96144134967E+02 -0.80156839933E+03  0.81693449147E+03  0.12500000000E+03 0.  0.
         25    1    1    2    0    0 -0.11704142990E+01 -0.96144134967E+02 -0.10316479364E+03  0.18844903609E+03  0.12500000000E+03 0.  0.
</event>
<event>
 4    0  0.2176682E-002  0.2338009E+03  0.7546771E-02  0.1123993E+00
         21   -1    0    0  502  501  0.00000000000E+00  0.00000000000E+00  0.10267844441E+03  0.10267844441E+03  0.00000000000E+00 0. -1.
         21   -1    0    0  501  502 -0.00000000000E+00 -0.00000000000E+00 -0.53236948816E+03  0.53236948816E+03  0.00000000000E+00 0. -1.
         25    1    1    2    0    0  0.36161159725E+02 -0.13135504520E+03 -0.20509260064E+02  0.18603066178E+03  0.12500000000E+03 0.  0.
         25    1    1    2    0    0 -0.36161159725E+02  0.13135504520E+03 -0.40918178369E+03  0.44901727080E+03  0.12500000000E+03 0.  0.
</event>
<event>
 4    0  0.2176682E-002  0.1754889E+03  0.7546771E-02  0.1172242E+00
         21   -1    0    0  502  501  0.00000000000E+00  0.00000000000E+00  0.91969528033E+03  0.91969528033E+03  0.00000000000E+00 0. -1.
         21   -1    0    0  501  502 -0.00000000000E+00 -0.00000000000E+00 -0.33485385570E+02  0.33485385570E+02  0.00000000000E+00 0. -1.
         25    1    1    2    0    0 -0.17104688372E+02 -0.11086929452E+03  0.58123092509E+03  0.60501153635E+03  0.12500000000E+03 0.  0.
         25    1    1    2    0    0  0.17104688372E+02  0.11086929452E+03  0.30497896967E+03  0.34816912955E+03  0.12500000000E+03 0.  0.
</event>
<event>
 4    0  0.2176682E-002  0.1457419E+03  0.7546771E-02  0.1205805E+00
         21   -1    0    0  502  501  0.00000000000E+00  0.00000000000E+00  0.14343556704E+02  0.14343556704E+02  0.00000000000E+00 0. -1.
         21   -1    0    0  501  502 -0.00000000000E+00 -0.00000000000E+00 -0.14808540127E+04  0.14808540127E+04  0.00000000000E+00 0. -1.
         25    1    1    2    0    0 -0.43027807071E+02  0.59932131907E+02 -0.80061945654E+03  0.81367055176E+03  0.12500000000E+03 0.  0.
         25    1    1    2    0    0  0.43027807071E+02 -0.59932131907E+02 -0.66589099942E+03  0.68152701761E+03  0.12500000000E+03 0.  0.
</event>
<event>
 4    0  0.2176682E-002  0.2615409E+03  0.7546771E-02  0.1106221E+00
         21   -1    0    0  502  501  0.00000000000E+00  0.00000000000E+00  0.77443908283E+02  0.77443908283E+02  0.00000000000E+00 0.  1.
         21   -1    0    0  501  502 -0.00000000000E+00 -0.00000000000E+00 -0.88326672830E+03  0.88326672830E+03  0.00000000000E+00 0.  1.
         25    1    1    2    0    0 -0.18394805656E+03 -0.90377315027E+02 -0.21227533352E+03  0.32045399639E+03  0.12500000000E+03 0.  0.
         25    1    1    2    0    0  0.18394805656E+03  0.90377315027E+02 -0.59354748650E+03  0.64025664019E+03  0.12500000000E+03 0.  0.
</event>
<event>
 4    0  0.2176682E-002  0.2126155E+03  0.7546771E-02  0.1139511E+00
         21   -1    0    0  502  501  0.00000000000E+00  0.00000000000E+00  0.63868294687E+02  0.63868294687E+02  0.00000000000E+00 0.  1.
         21   -1    0    0  501  502 -0.00000000000E+00 -0.00000000000E+00 -0.70779011290E+03  0.70779011290E+03  0.00000000000E+00 0.  1.
         25    1    1    2    0    0 -0.70981992170E+02  0.55378869315E+02 -0.56030722884E+02  0.16391981054E+03  0.12500000000E+03 0.  0.
         25    1    1    2    0    0  0.70981992170E+02 -0.55378869315E+02 -0.58789109533E+03  0.60773859705E+03  0.12500000000E+03 0.  0.
</event>
<event>
 4    0  0.2176682E-002  0.2221809E+03  0.7546771E-02  0.1132268E+00
         21   -1    0    0  502  501  0.00000000000E+00  0.00000000000E+00  0.68883570959E+03  0.68883570959E+03  0.00000000000E+00 0. -1.
         21   -1    0    0  501  502 -0.00000000000E+00 -0.00000000000E+00 -0.71663441924E+02  0.71663441924E+02  0.00000000000E+00 0. -1.
         25    1    1    2    0    0 -0.13211990344E+03 -0.15613291079E+02  0.52533799176E+03  0.55615146258E+03  0.12500000000E+03 0.  0.
         25    1    1    2    0    0  0.13211990344E+03  0.15613291079E+02  0.91834275912E+02  0.20434768894E+03  0.12500000000E+03 0.  0.
</event>
<event>
 4    0  0.2176682E-002  0.3197840E+03  0.7546771E-02  0.1075749E+00
         21   -1    0    0  502  501  0.00000000000E+00  0.00000000000E+00  0.16040816255E+04  0.16040816255E+04  0.00000000000E+00 0. -1.
         21   -1    0    0  501  502 -0.00000000000E+00 -0.00000000000E+00 -0.63751017851E+02  0.63751017851E+02  0.00000000000E+00 0. -1.
         25    1    1    2    0    0 -0.27186121933E+03  0.60534945097E+01  0.10639472128E+04  0.11052392678E+04  0.12500000000E+03 0.  0.
         25    1    1    2    0    0  0.27186121933E+03 -0.60534945097E+01  0.47638339484E+03  0.56259337559E+03  0.12500000000E+03 0.  0.
</event>
<event>
 4    0  0.2176682E-002  0.1770923E+03  0.7546771E-02  0.1170647E+00
         21   -1    0    0  502  501  0.00000000000E+00  0.00000000000E+00  0.52687739656E+03  0.52687739656E+03  0.00000000000E+00 0.  1.
         21   -1    0    0  501  502 -0.00000000000E+00 -0.00000000000E+00 -0.59523660718E+02  0.59523660718E+02  0.00000000000E+00 0.  1.
         25    1    1    2    0    0  0.40250594966E+02 -0.11684258563E+03  0.19799909160E+03  0.26476582198E+03  0.12500000000E+03 0.  0.
         25    1    1    2    0    0 -0.40250594966E+02  0.11684258563E+03  0.26935464423E+03  0.32163523530E+03  0.12500000000E+03 0.  0.
</event>
<event>
 4    0  0.2176682E-002  0.2131226E+03  0.7546771E-02  0.1139117E+00
         21   -1    0    0  502  501  0.00000000000E+00  0.00000000000E+00  0.55197213465E+03  0.55197213465E+03  0.00000000000E+00 0.  1.
         21   -1    0    0  501  502 -0.00000000000E+00 -0.00000000000E+00 -0.82288998590E+02  0.82288998590E+02  0.00000000000E+00 0.  1.
         25    1    1    2    0    0 -0.40172361820E+01 -0.17239247265E+03  0.24645683516E+03  0.32573190573E+03  0.12500000000E+03 0.  0.
         25    1    1    2    0    0  0.40172361820E+01  0.17239247265E+03  0.22322630090E+03  0.30852922751E+03  0.12500000000E+03 0.  0.
</event>
<event>
 4    0  0.2176682E-002  0.3385981E+03  0.7546771E-02  0.1067395E+00
         21   -1    0    0  502  501  0.00000000000E+00  0.00000000000E+00  0.11761777355E+03  0.11761777355E+03  0.00000000000E+00 0. -1.
         21   -1    0    0  501  502 -0.00000000000E+00 -0.00000000000E+00 -0.97475620385E+03  0.97475620385E+03  0.00000000000E+00 0. -1.
         25    1    1    2    0    0  0.12356895960E+03  0.13163900464E+02 -0.89491800512E+03  0.91211063580E+03  0.12500000000E+03 0.  0.
         25    1    1    2    0    0 -0.12356895960E+03 -0.13163900464E+02  0.37779574814E+02  0.18026334160E+03  0.12500000000E+03 0.  0.
</event>
<event>
 4    0  0.2176682E-002  0.3496842E+03  0.7546771E-02  0.1062745E+00
         21   -1    0    0  502  501  0.00000000000E+00  0.00000000000E+00  0.13200079991E+03  0.13200079991E+03  0.00000000000E+00 0.  1.
         21   -1    0    0  501  502 -0.00000000000E+00 -0.00000000000E+00 -0.92635078313E+03  0.92635078313E+03  0.00000000000E+00 0.  1.
         25    1    1    2    0    0 -0.29755678170E+03  0.75706435152E+02 -0.56556985887E+03  0.65556522781E+03  0.12500000000E+03 0.  0.
         25    1    1    2    0    0  0.29755678170E+03 -0.75706435152E+02 -0.22878012434E+03  0.40278635522E+03  0.12500000000E+03 0.  0.
</event>
<event>
 4    0  0.2176682E-002  0.2493625E+03  0.7546771E-02  0.1113708E+00
         21   -1    0    0  502  501  0.00000000000E+00  0.00000000000E+00  0.19510053337E+03  0.19510053337E+03  0.00000000000E+00 0. -1.
         21   -1    0    0  501  502 -0.00000000000E+00 -0.00000000000E+00 -0.31871601681E+03  0.31871601681E+03  0.00000000000E+00 0. -1.
         25    1    1    2    0    0 -0.21012952609E+03  0.12358868892E+02 -0.11067190309E+03  0.26866415747E+03  0.12500000000E+03 0.  0.
         25    1    1    2    0    0  0.21012952609E+03 -0.12358868892E+02 -0.12943580348E+02  0.24515239271E+03  0.12500000000E+03 0.  0.
</event>
<event>
 4    0  0.2230981E-002  0.2033859E+03  0.7546771E-02  0.1146913E+00
         21   -1    0    0  502  501  0.00000000000E+00  0.00000000000E+00  0.24343885358E+03  0.24343885358E+03  0.00000000000E+00 0. -1.
         21   -1    0    0  501  502 -0.00000000000E+00 -0.00000000000E+00 -0.16992293533E+03  0.16992293533E+03  0.00000000000E+00 0. -1.
         25    1    1    2    0    0  0.98655917243E+00  0.11828617345E+02  0.19934988909E+03  0.23559768200E+03  0.12500000000E+03 0.  0.
         25    1    1    2    0    0 -0.98655917243E+00 -0.11828617345E+02 -0.12583397084E+03  0.17776410691E+03  0.12500000000E+03 0.  0.
</event>
<event>
 4    0  0.2176682E-002  0.3405309E+03  0.7546771E-02  0.1066570E+00
         21   -1    0    0  502  501  0.00000000000E+00  0.00000000000E+00  0.10769754106E+03  0.10769754106E+03  0.00000000000E+00 0.  1.
         21   -1    0    0  501  502 -0.00000000000E+00 -0.00000000000E+00 -0.10767312355E+04  0.10767312355E+04  0.00000000000E+00 0.  1.
         25    1    1    2    0    0  0.27142291634E+03  0.91375471432E+02 -0.24915133750E+03  0.39965142972E+03  0.12500000000E+03 0.  0.
         25    1    1    2    0    0 -0.27142291634E+03 -0.91375471432E+02 -0.71988235697E+03  0.78477734688E+03  0.12500000000E+03 0.  0.
</event>
<event>
 4    0  0.2176682E-002  0.1862776E+03  0.7546771E-02  0.1161862E+00
         21   -1    0    0  502  501  0.00000000000E+00  0.00000000000E+00  0.16334763803E+03  0.16334763803E+03  0.00000000000E+00 0.  1.
         21   -1    0    0  501  502 -0.00000000000E+00 -0.00000000000E+00 -0.21242642745E+03  0.21242642745E+03  0.00000000000E+00 0.  1.
         25    1    1    2    0    0 -0.99808603806E+02 -0.85930177931E+02  0.17396281413E+02  0.18240993251E+03  0.12500000000E+03 0.  0.
         25    1    1    2    0    0  0.99808603806E+02  0.85930177931E+02 -0.66475070835E+02  0.19336413296E+03  0.12500000000E+03 0.  0.
</event>
<event>
 4    0  0.2176682E-002  0.1845680E+03  0.7546771E-02  0.1163454E+00
         21   -1    0    0  502  501  0.00000000000E+00  0.00000000000E+00  0.46298953402E+03  0.46298953402E+03  0.00000000000E+00 0. -1.
         21   -1    0    0  501  502 -0.00000000000E+00 -0.00000000000E+00 -0.73576949367E+02  0.73576949367E+02  0.00000000000E+00 0. -1.
         25    1    1    2    0    0  0.24238943406E+02  0.35743467780E+02  0.75661629623E+01  0.13246648138E+03  0.12500000000E+03 0.  0.
         25    1    1    2    0    0 -0.24238943406E+02 -0.35743467780E+02  0.38184642169E+03  0.40410000201E+03  0.12500000000E+03 0.  0.
</event>
<event>
 4    0  0.2176682E-002  0.1709183E+03  0.7546771E-02  0.1176894E+00
         21   -1    0    0  502  501  0.00000000000E+00  0.00000000000E+00  0.46253844066E+02  0.46253844066E+02  0.00000000000E+00 0. -1.
         21   -1    0    0  501  502 -0.00000000000E+00 -0.00000000000E+00 -0.63158158458E+03  0.63158158458E+03  0.00000000000E+00 0. -1.
         25    1    1    2    0    0  0.11097013985E+02 -0.10026392573E+03 -0.40849227467E+03  0.43893842050E+03  0.12500000000E+03 0.  0.
         25    1    1    2    0    0 -0.11097013985E+02  0.10026392573E+03 -0.17683546584E+03  0.23889700815E+03  0.12500000000E+03 0.  0.
</event>
<event>
 4    0  0.2176682E-002  0.2453139E+03  0.7546771E-02  0.1116303E+00
         21   -1    0    0  502  501  0.00000000000E+00  0.00000000000E+00  0.59424082560E+02  0.59424082560E+02  0.00000000000E+00 0.  1.
         21   -1    0    0  501  502 -0.00000000000E+00 -0.00000000000E+00 -0.10127022389E+04  0.10127022389E+04  0.00000000000E+00 0.  1.
         25    1    1    2    0    0  0.58025980207E+02 -0.25802848951E+02 -0.36758843132E+02  0.14494486518E+03  0.12500000000E+03 0.  0.
         25    1    1    2    0    0 -0.58025980207E+02  0.25802848951E+02 -0.91651931323E+03  0.92718145630E+03  0.12500000000E+03 0.  0.
</event>
<event>
 4    0  0.2176682E-002  0.1648327E+03  0.7546771E-02  0.1183346E+00
         21   -1    0    0  502  501  0.00000000000E+00  0.00000000000E+00  0.21234886640E+03  0.21234886640E+03  0.00000000000E+00 0.  1.
         21   -1    0    0  501  502 -0.00000000000E+00 -0.00000000000E+00 -0.12794894348E+03  0.12794894348E+03  0.00000000000E+00 0.  1.
         25    1    1    2    0    0  0.51024697177E+01 -0.10222289083E+03  0.75954112421E+02  0.17852053607E+03  0.12500000000E+03 0.  0.
         25    1    1    2    0    0 -0.51024697177E+01  0.10222289083E+03  0.84458105060E+01  0.16177727381E+03  0.12500000000E+03 0.  0.
</event>
<event>
 4    0  0.2176682E-002  0.2230946E+03  0.7546771E-02  0.1131597E+00
         21   -1    0    0  502  501  0.00000000000E+00  0.00000000000E+00  0.72759522755E+03  0.72759522755E+03  0.00000000000E+00 0. -1.
         21   -1    0    0  501  502 -0.00000000000E+00 -0.00000000000E+00 -0.68405075070E+02  0.68405075070E+02  0.00000000000E+00 0. -1.
         25    1    1    2    0    0  0.14543496984E+02  0.10244858211E+03  0.56468779182E+02  0.17181661242E+03  0.12500000000E+03 0.  0.
         25    1    1    2    0    0 -0.14543496984E+02 -0.10244858211E+03  0.60272137330E+03  0.62418369020E+03  0.12500000000E+03 0.  0.
</event>
<event>
 4    0  0.2176682E-002  0.2289932E+03  0.7546771E-02  0.1127350E+00
         21   -1    0    0  502  501  0.00000000000E+00  0.00000000000E+00  0.11482792452E+03  0.11482792452E+03  0.00000000000E+00 0. -1.
         21   -1    0    0  501  502 -0.00000000000E+00 -0.00000000000E+00 -0.45666505227E+03  0.45666505227E+03  0.00000000000E+00 0. -1.
         25    1    1    2    0    0 -0.90028999852E+02 -0.95311202916E+02 -0.34572039628E+03  0.39030377736E+03  0.12500000000E+03 0.  0.
         25    1    1    2    0    0  0.90028999852E+02  0.95311202916E+02  0.38832685313E+01  0.18118919943E+03  0.12500000000E+03 0.  0.
</event>
<event>
 4    0  0.2176682E-002  0.1749852E+03  0.7546771E-02  0.1172747E+00
         21   -1    0    0  502  501  0.00000000000E+00  0.00000000000E+00  0.32866673974E+03  0.32866673974E+03  0.00000000000E+00 0.  1.
         21   -1    0    0  501  502 -0.00000000000E+00 -0.00000000000E+00 -0.93163775892E+02  0.93163775892E+02  0.00000000000E+00 0.  1.
         25    1    1    2    0    0  0.10301995790E+02  0.12201892837E+03  0.11810182871E+03  0.21111085226E+03  0.12500000000E+03 0.  0.
         25    1    1    2    0    0 -0.10301995790E+02 -0.12201892837E+03  0.11740113513E+03  0.21071966337E+03  0.12500000000E+03 0.  0.
</event>
<event>
 4    0  0.2176682E-002  0.2371692E+03  0.7546771E-02  0.1121693E+00
         21   -1    0    0  502  501  0.00000000000E+00  0.00000000000E+00  0.50650648866E+03  0.50650648866E+03  0.00000000000E+00 0. -1.
         21   -1    0    0  501  502 -0.00000000000E+00 -0.00000000000E+00 -0.11105329589E+03  0.11105329589E+03  0.00000000000E+00 0. -1.
         25    1    1    2    0    0  0.85519632547E+02 -0.77071813904E+02 -0.17666849656E+02  0.17085312296E+03  0.12500000000E+03 0.  0.
         25    1    1    2    0    0 -0.85519632547E+02  0.77071813904E+02  0.41312004242E+03  0.44670666158E+03  0.12500000000E+03 0.  0.
</event>
<event>
 4    0  0.2176682E-002  0.2136201E+03  0.7546771E-02  0.1138731E+00
         21   -1    0    0  502  501  0.00000000000E+00  0.00000000000E+00  0.11472660221E+03  0.11472660221E+03  0.00000000000E+00 0. -1.
         21   -1    0    0  501  502 -0.00000000000E+00 -0.00000000000E+00 -0.39775909724E+03  0.39775909724E+03  0.00000000000E+00 0. -1.
         25    1    1    2    0    0 -0.33050792833E+02  0.16817836004E+03 -0.17167744388E+03  0.27290009240E+03  0.12500000000E+03 0.  0.
         25    1    1    2    0    0  0.33050792833E+02 -0.16817836004E+03 -0.11135505115E+03  0.23958560706E+03  0.12500000000E+03 0.  0.
</event>
<event>
 4    0  0.2176682E-002  0.2247156E+03  0.7546771E-02  0.1130415E+00
         21   -1    0    0  502  501  0.00000000000E+00  0.00000000000E+00  0.78838769741E+02  0.78838769741E+02  0.00000000000E+00 0.  1.
         21   -1    0    0  501  502 -0.00000000000E+00 -0.00000000000E+00 -0.64051123653E+03  0.64051123653E+03  0.00000000000E+00 0.  1.
         25    1    1    2    0    0  0.45498646496E+02  0.15767773915E+03 -0.13821650714E+03  0.24831673142E+03  0.12500000000E+03 0.  0.
         25    1    1    2    0    0 -0.45498646496E+02 -0.15767773915E+03 -0.42345595965E+03  0.47103327485E+03  0.12500000000E+03 0.  0.
</event>
<event>
 4    0  0.2176682E-002  0.1838488E+03  0.7546771E-02  0.1164129E+00
         21   -1    0    0  502  501  0.00000000000E+00  0.00000000000E+00  0.10656960549E+03  0.10656960549E+03  0.00000000000E+00 0.  1.
         21   -1    0    0  501  502 -0.00000000000E+00 -0.00000000000E+00 -0.31716733574E+03  0.31716733574E+03  0.00000000000E+00 0.  1.
         25    1    1    2    0    0  0.83216044904E+02  0.10266144532E+03 -0.74567952683E+02  0.19659517301E+03  0.12500000000E+03 0.  0.
         25    1    1    2    0    0 -0.83216044904E+02 -0.10266144532E+03 -0.13602977756E+03  0.22714176822E+03  0.12500000000E+03 0.  0.
</event>
<event>
 4    0  0.2176682E-002  0.1947826E+03  0.7546771E-02  0.1154217E+00
         21   -1    0    0  502  501  0.00000000000E+00  0.00000000000E+00  0.40691154819E+02  0.40691154819E+02  0.00000000000E+00 0.  1.
         21   -1    0    0  501  502 -0.00000000000E+00 -0.00000000000E+00 -0.93239562072E+03  0.93239562072E+03  0.00000000000E+00 0.  1.
         25    1    1    2    0    0  0.81131362509E+02 -0.12461414350E+03 -0.48155284617E+03  0.51925824635E+03  0.12500000000E+03 0.  0.
         25    1    1    2    0    0 -0.81131362509E+02  0.12461414350E+03 -0.41015161973E+03  0.45382852919E+03  0.12500000000E+03 0.  0.
</event>
<event>
 4    0  0.2176682E-002  0.3238773E+03  0.7546771E-02  0.1073879E+00
         21   -1    0    0  502  501  0.00000000000E+00  0.00000000000E+00  0.16514338839E+03  0.16514338839E+03  0.00000000000E+00 0.  1.
         21   -1    0    0  501  502 -0.00000000000E+00 -0.00000000000E+00 -0.63518441430E+03  0.63518441430E+03  0.00000000000E+00 0.  1.
         25    1    1    2    0    0 -0.49414041543E+02 -0.11065197128E+03 -0.57245212300E+03  0.59834107278E+03  0.12500000000E+03 0.  0.
         25    1    1    2    0    0  0.49414041543E+02  0.11065197128E+03  0.10241109710E+03  0.20198672991E+03  0.12500000000E+03 0.  0.
</event>
<event>
 4    0  0.2176682E-002  0.2687911E+03  0.7546771E-02  0.1101974E+00
         21   -1    0    0  502  501  0.00000000000E+00  0.00000000000E+00  0.27852636555E+03  0.27852636555E+03  0.00000000000E+00 0. -1.
         21   -1    0    0  501  502 -0.00000000000E+00 -0.00000000000E+00 -0.25939605984E+03  0.25939605984E+03  0.00000000000E+00 0. -1.
         25    1    1    2    0    0  0.16640548436E+03  0.16040504149E+03  0.66196729248E+02  0.27097521939E+03  0.12500000000E+03 0.  0.
         25    1    1    2    0    0 -0.16640548436E+03 -0.16040504149E+03 -0.47066423537E+02  0.26694720599E+03  0.12500000000E+03 0.  0.
</event>
<event>
 4    0  0.2176682E-002  0.2600674E+03  0.7546771E-02  0.1107103E+00
         21   -1    0    0  502  501  0.00000000000E+00  0.00000000000E+00  0.44865746232E+03  0.44865746232E+03  0.00000000000E+00 0.  1.
         21   -1    0    0  501  502 -0.00000000000E+00 -0.00000000000E+00 -0.15074986769E+03  0.15074986769E+03  0.00000000000E+00 0.  1.
         25    1    1    2    0    0 -0.16500488447E+03  0.11206333084E+03  0.21534551663E+02  0.23637584253E+03  0.12500000000E+03 0.  0.
         25    1    1    2    0    0  0.16500488447E+03 -0.11206333084E+03  0.27637304297E+03  0.36303148747E+03  0.12500000000E+03 0.  0.
</event>
<event>
 4    0  0.2176682E-002  0.2392150E+03  0.7546771E-02  0.1120317E+00
         21   -1    0    0  502  501  0.00000000000E+00  0.00000000000E+00  0.97138208207E+02  0.97138208207E+02  0.00000000000E+00 0. -1.
         21   -1    0    0  501  502 -0.00000000000E+00 -0.00000000000E+00 -0.58909684518E+03  0.58909684518E+03  0.00000000000E+00 0. -1.
         25    1    1    2    0    0 -0.17856300645E+02 -0.37061749456E+02 -0.53251303850E+03  0.54853218403E+03  0.12500000000E+03 0.  0.
         25    1    1    2    0    0  0.17856300645E+02  0.37061749456E+02  0.40554401527E+02  0.13770286936E+03  0.12500000000E+03 0.  0.
</event>
<event>
 4    0  0.2176682E-002  0.2146021E+03  0.7546771E-02  0.1137973E+00
         21   -1    0    0  502  501  0.00000000000E+00  0.00000000000E+00  0.14048591288E+04  0.14048591288E+04  0.00000000000E+00 0. -1.
         21   -1    0    0  501  502 -0.00000000000E+00 -0.00000000000E+00 -0.32781968509E+02  0.32781968509E+02  0.00000000000E+00 0. -1.
         25    1    1    2    0    0 -0.17007424413E+03  0.37190920592E+02  0.64924919127E+03  0.68370894791E+03  0.12500000000E+03 0.  0.
         25    1    1    2    0    0  0.17007424413E+03 -0.37190920592E+02  0.72282796898E+03  0.75393214936E+03  0.12500000000E+03 0.  0.
</event>
<event>
 4    0  0.2176682E-002  0.3250453E+03  0.7546771E-02  0.1073350E+00
         21   -1    0    0  502  501  0.00000000000E+00  0.00000000000E+00  0.19938468025E+03  0.19938468025E+03  0.00000000000E+00 0. -1.
         21   -1    0    0  501  502 -0.00000000000E+00 -0.00000000000E+00 -0.52990260275E+03  0.52990260275E+03  0.00000000000E+00 0. -1.
         25    1    1    2    0    0 -0.22595964518E+03  0.19031848776E+03 -0.22409403630E+03  0.39130809491E+03  0.12500000000E+03 0.  0.
         25    1    1    2    0    0  0.22595964518E+03 -0.19031848776E+03 -0.10642388619E+03  0.33797918809E+03  0.12500000000E+03 0.  0.
</event>
<event>
 4    0  0.2176682E-002  0.3769819E+03  0.7546771E-02  0.1052055E+00
         21   -1    0    0  502  501  0.00000000000E+00  0.00000000000E+00  0.18683614028E+03  0.18683614028E+03  0.00000000000E+00 0. -1.
         21   -1    0    0  501  502 -0.00000000000E+00 -0.00000000000E+00 -0.76064185193E+03  0.76064185193E+03  0.00000000000E+00 0. -1.
         25    1    1    2    0    0  0.27534374320E+03  0.15320307071E+02 -0.46667472822E+01  0.30281292453E+03  0.12500000000E+03 0.  0.
         25    1    1    2    0    0 -0.27534374320E+03 -0.15320307071E+02 -0.56913896437E+03  0.64466506768E+03  0.12500000000E+03 0.  0.
</event>
<event>
 4    0  0.2176682E-002  0.1890112E+03  0.7546771E-02  0.1159356E+00
         21   -1    0    0  502  501  0.00000000000E+00  0.00000000000E+00  0.59615332504E+03  0.59615332504E+03  0.00000000000E+00 0. -1.
         21   -1    0    0  501  502 -0.00000000000E+00 -0.00000000000E+00 -0.59926281272E+02  0.59926281272E+02  0.00000000000E+00 0. -1.
         25    1    1    2    0    0 -0.75350044737E+02  0.74992798862E+02  0.10531584048E+03  0.19498198732E+03  0.12500000000E+03 0.  0.
         25    1    1    2    0    0  0.75350044737E+02 -0.74992798862E+02  0.43091120329E+03  0.46109761899E+03  0.12500000000E+03 0.  0.
</event>
<event>
 4    0  0.2176682E-002  0.3820502E+03  0.7546771E-02  0.1050179E+00
         21   -1    0    0  502  501  0.00000000000E+00  0.00000000000E+00  0.54969304483E+03  0.54969304483E+03  0.00000000000E+00 0. -1.
         21   -1    0    0  501  502 -0.00000000000E+00 -0.00000000000E+00 -0.26553424829E+03  0.26553424829E+03  0.00000000000E+00 0. -1.
         25    1    1    2    0    0  0.16098216981E+03  0.27047424926E+03 -0.46573184148E+02  0.34185616857E+03  0.12500000000E+03 0.  0.
         25    1    1    2    0    0 -0.16098216981E+03 -0.27047424926E+03  0.33073198068E+03  0.47337112455E+03  0.12500000000E+03 0.  0.
</event>
<event>
 4    0  0.2176682E-002  0.2150967E+03  0.7546771E-02  0.1137592E+00
         21   -1    0    0  502  501  0.00000000000E+00  0.00000000000E+00  0.44476265538E+03  0.44476265538E+03  0.00000000000E+00 0.  1.
         21   -1    0    0  501  502 -0.00000000000E+00 -0.00000000000E+00 -0.10402539452E+03  0.10402539452E+03  0.00000000000E+00 0.  1.
         25    1    1    2    0    0 -0.98262661799E+02 -0.49533229572E+02  0.34403192511E+03  0.38221990663E+03  0.12500000000E+03 0.  0.
         25    1    1    2    0    0  0.98262661799E+02  0.49533229572E+02 -0.32946642448E+01  0.16656814326E+03  0.12500000000E+03 0.  0.
</event>
<event>
 4    0  0.2176682E-002  0.2088235E+03  0.7546771E-02  0.1142501E+00
         21   -1    0    0  502  501  0.00000000000E+00  0.00000000000E+00  0.38850202575E+02  0.38850202575E+02  0.00000000000E+00 0. -1.
         21   -1    0    0  501  502 -0.00000000000E+00 -0.00000000000E+00 -0.11224464793E+04  0.11224464793E+04  0.00000000000E+00 0. -1.
         25    1    1    2    0    0 -0.13225443554E+03 -0.10195134145E+03 -0.51441816194E+03  0.55510031263E+03  0.12500000000E+03 0.  0.
         25    1    1    2    0    0  0.13225443554E+03  0.10195134145E+03 -0.56917811477E+03  0.60619636924E+03  0.12500000000E+03 0.  0.
</event>
<event>
 4    0  0.2176682E-002  0.2809653E+03  0.7546771E-02  0.1095163E+00
         21   -1    0    0  502  501  0.00000000000E+00  0.00000000000E+00  0.99440132850E+02  0.99440132850E+02  0.00000000000E+00 0. -1.
         21   -1    0    0  501  502 -0.00000000000E+00 -0.00000000000E+00 -0.79385932044E+03  0.79385932044E+03  0.00000000000E+00 0. -1.
         25    1    1    2    0    0 -0.36436302546E+02 -0.77662518786E+02  0.28838364320E+02  0.15432343381E+03  0.12500000000E+03 0.  0.
         25    1    1    2    0    0  0.36436302546E+02  0.77662518786E+02 -0.72325755191E+03  0.73897601947E+03  0.12500000000E+03 0.  0.
</event>
<event>
 4    0  0.2176682E-002  0.2250182E+03  0.7546771E-02  0.1130196E+00
         21   -1    0    0  502  501  0.00000000000E+00  0.00000000000E+00  0.26481806373E+04  0.26481806373E+04  0.00000000000E+00 0.  1.
         21   -1    0    0  501  502 -0.00000000000E+00 -0.00000000000E+00 -0.19119986033E+02  0.19119986033E+02  0.00000000000E+00 0.  1.
         25    1    1    2    0    0 -0.16809937082E+03 -0.71163610463E+02  0.10711306555E+04  0.10937401607E+04  0.12500000000E+03 0.  0.
         25    1    1    2    0    0  0.16809937082E+03  0.71163610463E+02  0.15579299958E+04  0.15735604627E+04  0.12500000000E+03 0.  0.
</event>
<event>
 4    0  0.2176682E-002  0.1870280E+03  0.7546771E-02  0.1161170E+00
         21   -1    0    0  502  501  0.00000000000E+00  0.00000000000E+00  0.18457574389E+02  0.18457574389E+02  0.00000000000E+00 0.  1.
         21   -1    0    0  501  502 -0.00000000000E+00 -0.00000000000E+00 -0.18951279218E+04  0.18951279218E+04  0.00000000000E+00 0.  1.
         25    1    1    2    0    0 -0.50316728496E+02  0.41435213403E+02 -0.30957739648E+03  0.34016439333E+03  0.12500000000E+03 0.  0.
         25    1    1    2    0    0  0.50316728496E+02 -0.41435213403E+02 -0.15670929509E+04  0.15734211029E+04  0.12500000000E+03 0.  0.
</event>
<event>
 4    0  0.2176682E-002  0.2620183E+03  0.7546771E-02  0.1105937E+00
         21   -1    0    0  502  501  0.00000000000E+00  0.00000000000E+00  0.19741130997E+03  0.19741130997E+03  0.00000000000E+00 0. -1.
         21   -1    0    0  501  502 -0.00000000000E+00 -0.00000000000E+00 -0.34776930362E+03  0.34776930362E+03  0.00000000000E+00 0. -1.
         25    1    1    2    0    0 -0.41360187517E+02 -0.18627453209E+03 -0.20929812390E+03  0.30957966840E+03  0.12500000000E+03 0.  0.
         25    1    1    2    0    0  0.41360187517E+02  0.18627453209E+03  0.58940130259E+02  0.23560094519E+03  0.12500000000E+03 0.  0.
</event>
<event>
 4    0  0.2176682E-002  0.1706429E+03  0.7546771E-02  0.1177179E+00
         21   -1    0    0  502  501  0.00000000000E+00  0.00000000000E+00  0.18251871317E+04  0.18251871317E+04  0.00000000000E+00 0. -1.
         21   -1    0    0  501  502 -0.00000000000E+00 -0.00000000000E+00 -0.15953976790E+02  0.15953976790E+02  0.00000000000E+00 0. -1.
         25    1    1    2    0    0  0.29323717574E+02 -0.36354453627E+02  0.33083373995E+03  0.35673167816E+03  0.12500000000E+03 0.  0.
         25    1    1    2    0    0 -0.29323717574E+02  0.36354453627E+02  0.14783994150E+04  0.14844094304E+04  0.12500000000E+03 0.  0.
</event>
<event>
 4    0  0.2176682E-002  0.4484407E+03  0.7546771E-02  0.1028188E+00
         21   -1    0    0  502  501  0.00000000000E+00  0.00000000000E+00  0.68630702354E+02  0.68630702354E+02  0.00000000000E+00 0. -1.
         21   -1    0    0  501  502 -0.00000000000E+00 -0.00000000000E+00 -0.29301611940E+04  0.29301611940E+04  0.00000000000E+00 0. -1.
         25    1    1    2    0    0  0.16465254877E+03 -0.38079093722E+03 -0.18172605137E+04  0.18682004641E+04  0.12500000000E+03 0.  0.
         25    1    1    2    0    0 -0.16465254877E+03  0.38079093722E+03 -0.10442699779E+04  0.11305914322E+04  0.12500000000E+03 0.  0.
</event>
<event>
 4    0  0.2176682E-002  0.2023887E+03  0.7546771E-02  0.1147739E+00
         21   -1    0    0  502  501  0.00000000000E+00  0.00000000000E+00  0.35283584070E+03  0.35283584070E+03  0.00000000000E+00 0. -1.
         21   -1    0    0  501  502 -0.00000000000E+00 -0.00000000000E+00 -0.11609134881E+03  0.11609134881E+03  0.00000000000E+00 0. -1.
         25    1    1    2    0    0  0.10524356986E+03  0.11940723878E+03  0.11677918080E+03  0.23365931340E+03  0.12500000000E+03 0.  0.
         25    1    1    2    0    0 -0.10524356986E+03 -0.11940723878E+03  0.11996531108E+03  0.23526787612E+03  0.12500000000E+03 0.  0.
</event>
<event>
 4    0  0.2176682E-002  0.1962629E+03  0.7546771E-02  0.1152931E+00
         21   -1    0    0  502  501  0.00000000000E+00  0.00000000000E+00  0.40567141257E+03  0.40567141257E+03  0.00000000000E+00 0. -1.
         21   -1    0    0  501  502 -0.00000000000E+00 -0.00000000000E+00 -0.94951566364E+02  0.94951566364E+02  0.00000000000E+00 0. -1.
         25    1    1    2    0    0 -0.50348662749E+02  0.75000949599E+02  0.31017132143E+03  0.34639771783E+03  0.12500000000E+03 0.  0.
         25    1    1    2    0    0  0.50348662749E+02 -0.75000949599E+02  0.54852477174E+00  0.15422526110E+03  0.12500000000E+03 0.  0.
</event>
<event>
 4    0  0.2176682E-002  0.4901530E+03  0.7546771E-02  0.1016382E+00
         21   -1    0    0  502  501  0.00000000000E+00  0.00000000000E+00  0.13341497190E+04  0.13341497190E+04  0.00000000000E+00 0. -1.
         21   -1    0    0  501  502 -0.00000000000E+00 -0.00000000000E+00 -0.18007722400E+03  0.18007722400E+03  0.00000000000E+00 0.  1.
         25    1    1    2    0    0  0.24450566142E+03 -0.40134758608E+03  0.48229415110E+03  0.68490550553E+03  0.12500000000E+03 0.  0.
         25    1    1    2    0    0 -0.24450566142E+03  0.40134758608E+03  0.67177834393E+03  0.82932143750E+03  0.12500000000E+03 0.  0.
</event>
<event>
 4    0  0.2176682E-002  0.2207307E+03  0.7546771E-02  0.1133339E+00
         21   -1    0    0  502  501  0.00000000000E+00  0.00000000000E+00  0.19891058592E+04  0.19891058592E+04  0.00000000000E+00 0.  1.
         21   -1    0    0  501  502 -0.00000000000E+00 -0.00000000000E+00 -0.24494446125E+02  0.24494446125E+02  0.00000000000E+00 0.  1.
         25    1    1    2    0    0  0.17105302462E+03 -0.59137751936E+01  0.12635864751E+04  0.12812376400E+04  0.12500000000E+03 0.  0.
         25    1    1    2    0    0 -0.17105302462E+03  0.59137751936E+01  0.70102493796E+03  0.73236266536E+03  0.12500000000E+03 0.  0.
</event>
<event>
 4    0  0.2176682E-002  0.2262714E+03  0.7546771E-02  0.1129292E+00
         21   -1    0    0  502  501  0.00000000000E+00  0.00000000000E+00  0.95780292183E+02  0.95780292183E+02  0.00000000000E+00 0. -1.
         21   -1    0    0  501  502 -0.00000000000E+00 -0.00000000000E+00 -0.53454353363E+03  0.53454353363E+03  0.00000000000E+00 0. -1.
         25    1    1    2    0    0  0.18752425776E+03  0.16890733674E+02 -0.20392841809E+03  0.30440506539E+03  0.12500000000E+03 0.  0.
         25    1    1    2    0    0 -0.18752425776E+03 -0.16890733674E+02 -0.23483482336E+03  0.32591876042E+03  0.12500000000E+03 0.  0.
</event>
<event>
 4    0  0.2176682E-002  0.1514979E+03  0.7546771E-02  0.1198644E+00
         21   -1    0    0  502  501  0.00000000000E+00  0.00000000000E+00  0.34166067904E+02  0.34166067904E+02  0.00000000000E+00 0. -1.
         21   -1    0    0  501  502 -0.00000000000E+00 -0.00000000000E+00 -0.67176609090E+03  0.67176609090E+03  0.00000000000E+00 0. -1.
         25    1    1    2    0    0  0.62033553605E+02  0.46825476607E+02 -0.40234421549E+03  0.42842345264E+03  0.12500000000E+03 0.  0.
         25    1    1    2    0    0 -0.62033553605E+02 -0.46825476607E+02 -0.23525580751E+03  0.27750870617E+03  0.12500000000E+03 0.  0.
</event>
<event>
 4    0  0.2176682E-002  0.4138136E+03  0.7546771E-02  0.1039099E+00
         21   -1    0    0  502  501  0.00000000000E+00  0.00000000000E+00  0.21162599258E+03  0.21162599258E+03  0.00000000000E+00 0. -1.
         21   -1    0    0  501  502 -0.00000000000E+00 -0.00000000000E+00 -0.80917130439E+03  0.80917130439E+03  0.00000000000E+00 0. -1.
         25    1    1    2    0    0  0.26349844571E+03 -0.16836977605E+03 -0.59539725135E+03  0.68403413606E+03  0.12500000000E+03 0.  0.
         25    1    1    2    0    0 -0.26349844571E+03  0.16836977605E+03 -0.21480604615E+01  0.33676316091E+03  0.12500000000E+03 0.  0.
</event>
<event>
 4    0  0.2176682E-002  0.3181879E+03  0.7546771E-02  0.1076486E+00
         21   -1    0    0  502  501  0.00000000000E+00  0.00000000000E+00  0.55607175992E+03  0.55607175992E+03  0.00000000000E+00 0. -1.
         21   -1    0    0  501  502 -0.00000000000E+00 -0.00000000000E+00 -0.18206914202E+03  0.18206914202E+03  0.00000000000E+00 0.  1.
         25    1    1    2    0    0 -0.23753243991E+03 -0.13517304496E+03  0.30823918413E+03  0.43049948517E+03  0.12500000000E+03 0.  0.
         25    1    1    2    0    0  0.23753243991E+03  0.13517304496E+03  0.65763433760E+02  0.30764141677E+03  0.12500000000E+03 0.  0.
</event>
<event>
 4    0  0.2176682E-002  0.2270279E+03  0.7546771E-02  0.1128749E+00
         21   -1    0    0  502  501  0.00000000000E+00  0.00000000000E+00  0.12164753720E+03  0.12164753720E+03  0.00000000000E+00 0. -1.
         21   -1    0    0  501  502 -0.00000000000E+00 -0.00000000000E+00 -0.42369669878E+03  0.42369669878E+03  0.00000000000E+00 0. -1.
         25    1    1    2    0    0  0.98692170418E+02 -0.23057051041E+02  0.41312018417E+02  0.16614287517E+03  0.12500000000E+03 0.  0.
         25    1    1    2    0    0 -0.98692170418E+02  0.23057051041E+02 -0.34336118000E+03  0.37920136081E+03  0.12500000000E+03 0.  0.
</event>
<event>
 4    0  0.2176682E-002  0.2612614E+03  0.7546771E-02  0.1106388E+00
         21   -1    0    0  502  501  0.00000000000E+00  0.00000000000E+00  0.86488737073E+02  0.86488737073E+02  0.00000000000E+00 0.  1.
         21   -1    0    0  501  502 -0.00000000000E+00 -0.00000000000E+00 -0.78920729660E+03  0.78920729660E+03  0.00000000000E+00 0.  1.
         25    1    1    2    0    0  0.16171177367E+03 -0.31051589552E+02 -0.61907159221E+03  0.65267873816E+03  0.12500000000E+03 0.  0.
         25    1    1    2    0    0 -0.16171177367E+03  0.31051589552E+02 -0.83646967312E+02  0.22301729551E+03  0.12500000000E+03 0.  0.
</event>
<event>
 4    0  0.2176682E-002  0.2378936E+03  0.7546771E-02  0.1121204E+00
         21   -1    0    0  502  501  0.00000000000E+00  0.00000000000E+00  0.79820449364E+02  0.79820449364E+02  0.00000000000E+00 0. -1.
         21   -1    0    0  501  502 -0.00000000000E+00 -0.00000000000E+00 -0.70900827350E+03  0.70900827350E+03  0.00000000000E+00 0. -1.
         25    1    1    2    0    0 -0.17599998115E+03  0.87087492077E+02 -0.23323402431E+03  0.32951985485E+03  0.12500000000E+03 0.  0.
         25    1    1    2    0    0  0.17599998115E+03 -0.87087492077E+02 -0.39595379982E+03  0.45930886801E+03  0.12500000000E+03 0.  0.
</event>
<event>
 4    0  0.2176682E-002  0.2691472E+03  0.7546771E-02  0.1101769E+00
         21   -1    0    0  502  501  0.00000000000E+00  0.00000000000E+00  0.74614338761E+02  0.74614338761E+02  0.00000000000E+00 0.  1.
         21   -1    0    0  501  502 -0.00000000000E+00 -0.00000000000E+00 -0.97086212915E+03  0.97086212915E+03  0.00000000000E+00 0.  1.
         25    1    1    2    0    0  0.19125697502E+03  0.12799325861E+02 -0.17295988018E+03  0.28685043732E+03  0.12500000000E+03 0.  0.
         25    1    1    2    0    0 -0.19125697502E+03 -0.12799325861E+02 -0.72328791021E+03  0.75862603060E+03  0.12500000000E+03 0.  0.
</event>
<event>
 4    0  0.2176682E-002  0.2270472E+03  0.7546771E-02  0.1128736E+00
         21   -1    0    0  502  501  0.00000000000E+00  0.00000000000E+00  0.46643544753E+03  0.46643544753E+03  0.00000000000E+00 0. -1.
         21   -1    0    0  501  502 -0.00000000000E+00 -0.00000000000E+00 -0.11051992079E+03  0.11051992079E+03  0.00000000000E+00 0. -1.
         25    1    1    2    0    0  0.71350597369E+02 -0.39038144201E+02  0.39548215355E+03  0.42266537382E+03  0.12500000000E+03 0.  0.
         25    1    1    2    0    0 -0.71350597369E+02  0.39038144201E+02 -0.39566626808E+02  0.15428999451E+03  0.12500000000E+03 0.  0.
</event>
<event>
 4    0  0.2176682E-002  0.2945612E+03  0.7546771E-02  0.1087991E+00
         21   -1    0    0  502  501  0.00000000000E+00  0.00000000000E+00  0.33629788970E+03  0.33629788970E+03  0.00000000000E+00 0. -1.
         21   -1    0    0  501  502 -0.00000000000E+00 -0.00000000000E+00 -0.25800433087E+03  0.25800433087E+03  0.00000000000E+00 0. -1.
         25    1    1    2    0    0  0.22954481711E+03 -0.12377562174E+03  0.95585844666E+02  0.30458641024E+03  0.12500000000E+03 0.  0.
         25    1    1    2    0    0 -0.22954481711E+03  0.12377562174E+03 -0.17292285839E+02  0.28971581032E+03  0.12500000000E+03 0.  0.
</event>
<event>
 4    0  0.2176682E-002  0.2008680E+03  0.7546771E-02  0.1149009E+00
         21   -1    0    0  502  501  0.00000000000E+00  0.00000000000E+00  0.26239658029E+03  0.26239658029E+03  0.00000000000E+00 0. -1.
         21   -1    0    0  501  502 -0.00000000000E+00 -0.00000000000E+00 -0.15376705581E+03  0.15376705581E+03  0.00000000000E+00 0. -1.
         25    1    1    2    0    0  0.11155108533E+03 -0.70065111175E+02 -0.34618167223E+02  0.18486801223E+03  0.12500000000E+03 0.  0.
         25    1    1    2    0    0 -0.11155108533E+03  0.70065111175E+02  0.14324769171E+03  0.23129562387E+03  0.12500000000E+03 0.  0.
</event>
<event>
 4    0  0.2176682E-002  0.2485096E+03  0.7546771E-02  0.1114250E+00
         21   -1    0    0  502  501  0.00000000000E+00  0.00000000000E+00  0.23776583883E+02  0.23776583883E+02  0.00000000000E+00 0. -1.
         21   -1    0    0  501  502 -0.00000000000E+00 -0.00000000000E+00 -0.25973892493E+04  0.25973892493E+04  0.00000000000E+00 0. -1.
         25    1    1    2    0    0 -0.11266746790E+03  0.18187133612E+03 -0.11866182692E+04  0.12122124641E+04  0.12500000000E+03 0.  0.
         25    1    1    2    0    0  0.11266746790E+03 -0.18187133612E+03 -0.13869943962E+04  0.14089533691E+04  0.12500000000E+03 0.  0.
</event>
<event>
 4    0  0.2176682E-002  0.3598424E+03  0.7546771E-02  0.1058646E+00
         21   -1    0    0  502  501  0.00000000000E+00  0.00000000000E+00  0.14257491279E+04  0.14257491279E+04  0.00000000000E+00 0.  1.
         21   -1    0    0  501  502 -0.00000000000E+00 -0.00000000000E+00 -0.90820017090E+02  0.90820017090E+02  0.00000000000E+00 0. -1.
         25    1    1    2    0    0 -0.77717344660E+02 -0.31919358593E+03  0.82983406004E+03  0.90120702292E+03  0.12500000000E+03 0.  0.
         25    1    1    2    0    0  0.77717344660E+02  0.31919358593E+03  0.50509505073E+03  0.61536212203E+03  0.12500000000E+03 0.  0.
</event>
<event>
 4    0  0.2176682E-002  0.2682794E+03  0.7546771E-02  0.1102268E+00
         21   -1    0    0  502  501  0.00000000000E+00  0.00000000000E+00  0.20986374796E+03  0.20986374796E+03  0.00000000000E+00 0. -1.
         21   -1    0    0  501  502 -0.00000000000E+00 -0.00000000000E+00 -0.34295512984E+03  0.34295512984E+03  0.00000000000E+00 0. -1.
         25    1    1    2    0    0 -0.14403215636E+03  0.17206008013E+03  0.13254124068E+02  0.25719759922E+03  0.12500000000E+03 0.  0.
         25    1    1    2    0    0  0.14403215636E+03 -0.17206008013E+03 -0.14634550595E+03  0.29562127858E+03  0.12500000000E+03 0.  0.
</event>
<event>
 4    0  0.2176682E-002  0.1606029E+03  0.7546771E-02  0.1188018E+00
         21   -1    0    0  502  501  0.00000000000E+00  0.00000000000E+00  0.16689730494E+03  0.16689730494E+03  0.00000000000E+00 0.  1.
         21   -1    0    0  501  502 -0.00000000000E+00 -0.00000000000E+00 -0.15454582363E+03  0.15454582363E+03  0.00000000000E+00 0.  1.
         25    1    1    2    0    0  0.91388949684E+01 -0.90755334513E+02 -0.36847093234E+02  0.15906840800E+03  0.12500000000E+03 0.  0.
         25    1    1    2    0    0 -0.91388949684E+01  0.90755334513E+02  0.49198574536E+02  0.16237472057E+03  0.12500000000E+03 0.  0.
</event>
<event>
 4    0  0.2176682E-002  0.1775635E+03  0.7546771E-02  0.1170182E+00
         21   -1    0    0  502  501  0.00000000000E+00  0.00000000000E+00  0.40513295974E+02  0.40513295974E+02  0.00000000000E+00 0. -1.
         21   -1    0    0  501  502 -0.00000000000E+00 -0.00000000000E+00 -0.77823290657E+03  0.77823290657E+03  0.00000000000E+00 0. -1.
         25    1    1    2    0    0  0.42260408432E+02 -0.11851418571E+03 -0.34926631811E+03  0.39171866856E+03  0.12500000000E+03 0.  0.
         25    1    1    2    0    0 -0.42260408432E+02  0.11851418571E+03 -0.38845329249E+03  0.42702753398E+03  0.12500000000E+03 0.  0.
</event>
<event>
 4    0  0.2176682E-002  0.2597145E+03  0.7546771E-02  0.1107315E+00
         21   -1    0    0  502  501  0.00000000000E+00  0.00000000000E+00  0.92457870976E+02  0.92457870976E+02  0.00000000000E+00 0. -1.
         21   -1    0    0  501  502 -0.00000000000E+00 -0.00000000000E+00 -0.72953880044E+03  0.72953880044E+03  0.00000000000E+00 0. -1.
         25    1    1    2    0    0  0.48534582630E+02 -0.16137845405E+03 -0.76319647194E+02  0.22326732786E+03  0.12500000000E+03 0.  0.
         25    1    1    2    0    0 -0.48534582630E+02  0.16137845405E+03 -0.56076128227E+03  0.59872934355E+03  0.12500000000E+03 0.  0.
</event>
<event>
 4    0  0.2176682E-002  0.2244614E+03  0.7546771E-02  0.1130600E+00
         21   -1    0    0  502  501  0.00000000000E+00  0.00000000000E+00  0.20701421823E+02  0.20701421823E+02  0.00000000000E+00 0.  1.
         21   -1    0    0  501  502 -0.00000000000E+00 -0.00000000000E+00 -0.24337899726E+04  0.24337899726E+04  0.00000000000E+00 0.  1.
         25    1    1    2    0    0  0.44421007942E+01  0.18545948393E+03 -0.13077982031E+04  0.13267916538E+04  0.12500000000E+03 0.  0.
         25    1    1    2    0    0 -0.44421007942E+01 -0.18545948393E+03 -0.11052903477E+04  0.11276997407E+04  0.12500000000E+03 0.  0.
</event>
<event>
 4    0  0.2176682E-002  0.3271374E+03  0.7546771E-02  0.1072411E+00
         21   -1    0    0  502  501  0.00000000000E+00  0.00000000000E+00  0.20877450821E+03  0.20877450821E+03  0.00000000000E+00 0. -1.
         21   -1    0    0  501  502 -0.00000000000E+00 -0.00000000000E+00 -0.51260519648E+03  0.51260519648E+03  0.00000000000E+00 0. -1.
         25    1    1    2    0    0  0.41095877454E+02 -0.10266989215E+03  0.15830289794E+03  0.23003213991E+03  0.12500000000E+03 0.  0.
         25    1    1    2    0    0 -0.41095877454E+02  0.10266989215E+03 -0.46213358622E+03  0.49134756477E+03  0.12500000000E+03 0.  0.
</event>
<event>
 4    0  0.2176682E-002  0.2304490E+03  0.7546771E-02  0.1126324E+00
         21   -1    0    0  502  501  0.00000000000E+00  0.00000000000E+00  0.56628856939E+03  0.56628856939E+03  0.00000000000E+00 0. -1.
         21   -1    0    0  501  502 -0.00000000000E+00 -0.00000000000E+00 -0.93780339123E+02  0.93780339123E+02  0.00000000000E+00 0. -1.
         25    1    1    2    0    0 -0.10344228710E+03 -0.10196075676E+03  0.41957562424E+03  0.46126457390E+03  0.12500000000E+03 0.  0.
         25    1    1    2    0    0  0.10344228710E+03  0.10196075676E+03  0.52932606023E+02  0.19880433461E+03  0.12500000000E+03 0.  0.
</event>
<event>
 4    0  0.2176682E-002  0.1763491E+03  0.7546771E-02  0.1171384E+00
         21   -1    0    0  502  501  0.00000000000E+00  0.00000000000E+00  0.23654247908E+03  0.23654247908E+03  0.00000000000E+00 0. -1.
         21   -1    0    0  501  502 -0.00000000000E+00 -0.00000000000E+00 -0.13147328676E+03  0.13147328676E+03  0.00000000000E+00 0. -1.
         25    1    1    2    0    0  0.17523577098E+02  0.36988392689E+02  0.17510447596E+03  0.21900181380E+03  0.12500000000E+03 0.  0.
         25    1    1    2    0    0 -0.17523577098E+02 -0.36988392689E+02 -0.70035283643E+02  0.14901395204E+03  0.12500000000E+03 0.  0.
</event>
<event>
 4    0  0.2176682E-002  0.2342665E+03  0.7546771E-02  0.1123672E+00
         21   -1    0    0  502  501  0.00000000000E+00  0.00000000000E+00  0.10515272909E+03  0.10515272909E+03  0.00000000000E+00 0. -1.
         21   -1    0    0  501  502 -0.00000000000E+00 -0.00000000000E+00 -0.52191493609E+03  0.52191493609E+03  0.00000000000E+00 0. -1.
         25    1    1    2    0    0 -0.84558750725E+02  0.40800152725E+01 -0.44812747026E+03  0.47287425226E+03  0.12500000000E+03 0.  0.
         25    1    1    2    0    0  0.84558750725E+02 -0.40800152725E+01  0.31365263261E+02  0.15419341292E+03  0.12500000000E+03 0.  0.
</event>
<event>
 4    0  0.2176682E-002  0.3159311E+03  0.7546771E-02  0.1077537E+00
         21   -1    0    0  502  501  0.00000000000E+00  0.00000000000E+00  0.11612499998E+03  0.11612499998E+03  0.00000000000E+00 0. -1.
         21   -1    0    0  501  502 -0.00000000000E+00 -0.00000000000E+00 -0.85952580987E+03  0.85952580987E+03  0.00000000000E+00 0. -1.
         25    1    1    2    0    0 -0.35801196955E+02  0.20302222426E+03 -0.56435244154E+02  0.24760792805E+03  0.12500000000E+03 0.  0.
         25    1    1    2    0    0  0.35801196955E+02 -0.20302222426E+03 -0.68696556573E+03  0.72804288181E+03  0.12500000000E+03 0.  0.
</event>
<event>
 4    0  0.2176682E-002  0.1913915E+03  0.7546771E-02  0.1157212E+00
         21   -1    0    0  502  501  0.00000000000E+00  0.00000000000E+00  0.11295463249E+04  0.11295463249E+04  0.00000000000E+00 0.  1.
         21   -1    0    0  501  502 -0.00000000000E+00 -0.00000000000E+00 -0.32429568454E+02  0.32429568454E+02  0.00000000000E+00 0.  1.
         25    1    1    2    0    0 -0.12874659458E+03  0.75193581758E+01  0.34780735655E+03  0.39144243974E+03  0.12500000000E+03 0.  0.
         25    1    1    2    0    0  0.12874659458E+03 -0.75193581758E+01  0.74930939994E+03  0.77053345365E+03  0.12500000000E+03 0.  0.
</event>
<event>
 4    0  0.2176682E-002  0.2517793E+03  0.7546771E-02  0.1112185E+00
         21   -1    0    0  502  501  0.00000000000E+00  0.00000000000E+00  0.10013356733E+03  0.10013356733E+03  0.00000000000E+00 0. -1.
         21   -1    0    0  501  502 -0.00000000000E+00 -0.00000000000E+00 -0.63308269716E+03  0.63308269716E+03  0.00000000000E+00 0. -1.
         25    1    1    2    0    0  0.76932440286E+02 -0.34085947659E+02  0.27230795586E+02  0.15312402955E+03  0.12500000000E+03 0.  0.
         25    1    1    2    0    0 -0.76932440286E+02  0.34085947659E+02 -0.56017992542E+03  0.58009223494E+03  0.12500000000E+03 0.  0.
</event>
<event>
 4    0  0.2176682E-002  0.2899274E+03  0.7546771E-02  0.1090387E+00
         21   -1    0    0  502  501  0.00000000000E+00  0.00000000000E+00  0.14055892880E+03  0.14055892880E+03  0.00000000000E+00 0.  1.
         21   -1    0    0  501  502 -0.00000000000E+00 -0.00000000000E+00 -0.59802615640E+03  0.59802615640E+03  0.00000000000E+00 0.  1.
         25    1    1    2    0    0 -0.14171966249E+03 -0.17575616865E+03 -0.39703249899E+03  0.47353405243E+03  0.12500000000E+03 0.  0.
         25    1    1    2    0    0  0.14171966249E+03  0.17575616865E+03 -0.60434728608E+02  0.26505103277E+03  0.12500000000E+03 0.  0.
</event>
<event>
 4    0  0.2176682E-002  0.2216270E+03  0.7546771E-02  0.1132676E+00
         21   -1    0    0  502  501  0.00000000000E+00  0.00000000000E+00  0.32673967400E+03  0.32673967400E+03  0.00000000000E+00 0.  1.
         21   -1    0    0  501  502 -0.00000000000E+00 -0.00000000000E+00 -0.15032924736E+03  0.15032924736E+03  0.00000000000E+00 0.  1.
         25    1    1    2    0    0 -0.30521828942E+02  0.15431929379E+03 -0.12457932272E+02  0.20131126783E+03  0.12500000000E+03 0.  0.
         25    1    1    2    0    0  0.30521828942E+02 -0.15431929379E+03  0.18886835891E+03  0.27575765352E+03  0.12500000000E+03 0.  0.
</event>
<event>
 4    0  0.2176682E-002  0.1485938E+03  0.7546771E-02  0.1202212E+00
         21   -1    0    0  502  501  0.00000000000E+00  0.00000000000E+00  0.16272036071E+02  0.16272036071E+02  0.00000000000E+00 0.  1.
         21   -1    0    0  501  502 -0.00000000000E+00 -0.00000000000E+00 -0.13569372106E+04  0.13569372106E+04  0.00000000000E+00 0.  1.
         25    1    1    2    0    0  0.53053075230E+02  0.50478093237E+00 -0.94911884540E+03  0.95878384753E+03  0.12500000000E+03 0.  0.
         25    1    1    2    0    0 -0.53053075230E+02 -0.50478093237E+00 -0.39154632909E+03  0.41442539910E+03  0.12500000000E+03 0.  0.
</event>
<event>
 4    0  0.2176682E-002  0.2438670E+03  0.7546771E-02  0.1117243E+00
         21   -1    0    0  502  501  0.00000000000E+00  0.00000000000E+00  0.13781086234E+03  0.13781086234E+03  0.00000000000E+00 0.  1.
         21   -1    0    0  501  502 -0.00000000000E+00 -0.00000000000E+00 -0.43154146146E+03  0.43154146146E+03  0.00000000000E+00 0.  1.
         25    1    1    2    0    0  0.10553131385E+03  0.17655852403E+03 -0.10111010414E+03  0.26107091713E+03  0.12500000000E+03 0.  0.
         25    1    1    2    0    0 -0.10553131385E+03 -0.17655852403E+03 -0.19262049499E+03  0.30828140668E+03  0.12500000000E+03 0.  0.
</event>
<event>
 4    0  0.2176682E-002  0.3674148E+03  0.7546771E-02  0.1055686E+00
         21   -1    0    0  502  501  0.00000000000E+00  0.00000000000E+00  0.56152374134E+03  0.56152374134E+03  0.00000000000E+00 0.  1.
         21   -1    0    0  501  502 -0.00000000000E+00 -0.00000000000E+00 -0.24040598721E+03  0.24040598721E+03  0.00000000000E+00 0. -1.
         25    1    1    2    0    0  0.11365708490E+03  0.32626707777E+03  0.16135366351E+03  0.40128312163E+03  0.12500000000E+03 0.  0.
         25    1    1    2    0    0 -0.11365708490E+03 -0.32626707777E+03  0.15976409063E+03  0.40064660692E+03  0.12500000000E+03 0.  0.
</event>
<event>
 4    0  0.2176682E-002  0.1465180E+03  0.7546771E-02  0.1204818E+00
         21   -1    0    0  502  501  0.00000000000E+00  0.00000000000E+00  0.10629070945E+03  0.10629070945E+03  0.00000000000E+00 0. -1.
         21   -1    0    0  501  502 -0.00000000000E+00 -0.00000000000E+00 -0.20196989055E+03  0.20196989055E+03  0.00000000000E+00 0. -1.
         25    1    1    2    0    0  0.61796422211E+02  0.44965056302E+02 -0.46401499708E+02  0.15368393950E+03  0.12500000000E+03 0.  0.
         25    1    1    2    0    0 -0.61796422211E+02 -0.44965056302E+02 -0.49277681400E+02  0.15457666050E+03  0.12500000000E+03 0.  0.
</event>
<event>
 4    0  0.2176682E-002  0.2800833E+03  0.7546771E-02  0.1095643E+00
         21   -1    0    0  502  501  0.00000000000E+00  0.00000000000E+00  0.25399460390E+03  0.25399460390E+03  0.00000000000E+00 0.  1.
         21   -1    0    0  501  502 -0.00000000000E+00 -0.00000000000E+00 -0.30885163340E+03  0.30885163340E+03  0.00000000000E+00 0.  1.
         25    1    1    2    0    0 -0.13450951370E+03  0.20587618193E+03 -0.76073295754E+02  0.28616421490E+03  0.12500000000E+03 0.  0.
         25    1    1    2    0    0  0.13450951370E+03 -0.20587618193E+03  0.21216266254E+02  0.27668202239E+03  0.12500000000E+03 0.  0.
</event>
<event>
 4    0  0.2176682E-002  0.2979337E+03  0.7546771E-02  0.1086278E+00
         21   -1    0    0  502  501  0.00000000000E+00  0.00000000000E+00  0.21642737143E+03  0.21642737143E+03  0.00000000000E+00 0.  1.
         21   -1    0    0  501  502 -0.00000000000E+00 -0.00000000000E+00 -0.41013518268E+03  0.41013518268E+03  0.00000000000E+00 0.  1.
         25    1    1    2    0    0  0.17858638147E+03  0.18456441159E+03 -0.18596842633E+03  0.34083188416E+03  0.12500000000E+03 0.  0.
         25    1    1    2    0    0 -0.17858638147E+03 -0.18456441159E+03 -0.77393849278E+01  0.28573066995E+03  0.12500000000E+03 0.  0.
</event>
<event>
 4    0  0.2176682E-002  0.2128136E+03  0.7546771E-02  0.1139357E+00
         21   -1    0    0  502  501  0.00000000000E+00  0.00000000000E+00  0.65525049650E+03  0.65525049650E+03  0.00000000000E+00 0. -1.
         21   -1    0    0  501  502 -0.00000000000E+00 -0.00000000000E+00 -0.69118053237E+02  0.69118053237E+02  0.00000000000E+00 0. -1.
         25    1    1    2    0    0  0.10684734368E+03  0.13011907314E+03  0.23129669623E+03  0.31220264210E+03  0.12500000000E+03 0.  0.
         25    1    1    2    0    0 -0.10684734368E+03 -0.13011907314E+03  0.35483574703E+03  0.41216590764E+03  0.12500000000E+03 0.  0.
</event>
<event>
 4    0  0.2176682E-002  0.2679261E+03  0.7546771E-02  0.1102472E+00
         21   -1    0    0  502  501  0.00000000000E+00  0.00000000000E+00  0.47132789831E+02  0.47132789831E+02  0.00000000000E+00 0.  1.
         21   -1    0    0  501  502 -0.00000000000E+00 -0.00000000000E+00 -0.15230240970E+04  0.15230240970E+04  0.00000000000E+00 0.  1.
         25    1    1    2    0    0 -0.91894784452E+02 -0.12631005193E+02 -0.98951313609E+02  0.18444662146E+03  0.12500000000E+03 0.  0.
         25    1    1    2    0    0  0.91894784452E+02  0.12631005193E+02 -0.13769399935E+04  0.13857102654E+04  0.12500000000E+03 0.  0.
</event>
<event>
 4    0  0.2176682E-002  0.1837598E+03  0.7546771E-02  0.1164213E+00
         21   -1    0    0  502  501  0.00000000000E+00  0.00000000000E+00  0.87871130207E+02  0.87871130207E+02  0.00000000000E+00 0. -1.
         21   -1    0    0  501  502 -0.00000000000E+00 -0.00000000000E+00 -0.38428605604E+03  0.38428605604E+03  0.00000000000E+00 0. -1.
         25    1    1    2    0    0 -0.31751996698E+02  0.75015881627E+02 -0.28601999834E+03  0.32259573965E+03  0.12500000000E+03 0.  0.
         25    1    1    2    0    0  0.31751996698E+02 -0.75015881627E+02 -0.10394927493E+02  0.14956144660E+03  0.12500000000E+03 0.  0.
</event>
<event>
 4    0  0.2176682E-002  0.2586079E+03  0.7546771E-02  0.1107983E+00
         21   -1    0    0  502  501  0.00000000000E+00  0.00000000000E+00  0.52556080897E+03  0.52556080897E+03  0.00000000000E+00 0.  1.
         21   -1    0    0  501  502 -0.00000000000E+00 -0.00000000000E+00 -0.12725085447E+03  0.12725085447E+03  0.00000000000E+00 0.  1.
         25    1    1    2    0    0  0.33478382676E+02  0.40623557704E+02 -0.78756365555E+02  0.15683953794E+03  0.12500000000E+03 0.  0.
         25    1    1    2    0    0 -0.33478382676E+02 -0.40623557704E+02  0.47706632005E+03  0.49597212550E+03  0.12500000000E+03 0.  0.
</event>
<event>
 4    0  0.2176682E-002  0.1925403E+03  0.7546771E-02  0.1156190E+00
         21   -1    0    0  502  501  0.00000000000E+00  0.00000000000E+00  0.12784962305E+04  0.12784962305E+04  0.00000000000E+00 0.  1.
         21   -1    0    0  501  502 -0.00000000000E+00 -0.00000000000E+00 -0.28996369107E+02  0.28996369107E+02  0.00000000000E+00 0.  1.
         25    1    1    2    0    0 -0.11422096701E+03 -0.83600480293E+02  0.49719591186E+03  0.53184983255E+03  0.12500000000E+03 0.  0.
         25    1    1    2    0    0  0.11422096701E+03  0.83600480293E+02  0.75230394950E+03  0.77564276703E+03  0.12500000000E+03 0.  0.
</event>
<event>
 4    0  0.2176682E-002  0.1646302E+03  0.7546771E-02  0.1183566E+00
         21   -1    0    0  502  501  0.00000000000E+00  0.00000000000E+00  0.38340933263E+02  0.38340933263E+02  0.00000000000E+00 0. -1.
         21   -1    0    0  501  502 -0.00000000000E+00 -0.00000000000E+00 -0.70689723979E+03  0.70689723979E+03  0.00000000000E+00 0. -1.
         25    1    1    2    0    0 -0.97848564643E+02  0.37990001941E+02 -0.38284936519E+03  0.41619252549E+03  0.12500000000E+03 0.  0.
         25    1    1    2    0    0  0.97848564643E+02 -0.37990001941E+02 -0.28570694134E+03  0.32904564756E+03  0.12500000000E+03 0.  0.
</event>
<event>
 4    0  0.2176682E-002  0.2652064E+03  0.7546771E-02  0.1104055E+00
         21   -1    0    0  502  501  0.00000000000E+00  0.00000000000E+00  0.21063775144E+03  0.21063775144E+03  0.00000000000E+00 0. -1.
         21   -1    0    0  501  502 -0.00000000000E+00 -0.00000000000E+00 -0.33391177782E+03  0.33391177782E+03  0.00000000000E+00 0. -1.
         25    1    1    2    0    0 -0.17369608788E+03  0.40193922527E+02 -0.21707755270E+03  0.30746308110E+03  0.12500000000E+03 0.  0.
         25    1    1    2    0    0  0.17369608788E+03 -0.40193922527E+02  0.93803526317E+02  0.23708644816E+03  0.12500000000E+03 0.  0.
</event>
<event>
 4    0  0.2176682E-002  0.1570758E+03  0.7546771E-02  0.1192038E+00
         21   -1    0    0  502  501  0.00000000000E+00  0.00000000000E+00  0.32305786232E+02  0.32305786232E+02  0.00000000000E+00 0.  1.
         21   -1    0    0  501  502 -0.00000000000E+00 -0.00000000000E+00 -0.76372755391E+03  0.76372755391E+03  0.00000000000E+00 0.  1.
         25    1    1    2    0    0 -0.39875129183E+02  0.60055568739E+02 -0.20846274870E+03  0.25353188135E+03  0.12500000000E+03 0.  0.
         25    1    1    2    0    0  0.39875129183E+02 -0.60055568739E+02 -0.52295901898E+03  0.54250145880E+03  0.12500000000E+03 0.  0.
</event>
<event>
 4    0  0.2176682E-002  0.1566771E+03  0.7546771E-02  0.1192500E+00
         21   -1    0    0  502  501  0.00000000000E+00  0.00000000000E+00  0.14034208488E+03  0.14034208488E+03  0.00000000000E+00 0. -1.
         21   -1    0    0  501  502 -0.00000000000E+00 -0.00000000000E+00 -0.17491335455E+03  0.17491335455E+03  0.00000000000E+00 0. -1.
         25    1    1    2    0    0 -0.58965935962E+02  0.55072451324E+02  0.32132137058E+02  0.15220851070E+03  0.12500000000E+03 0.  0.
         25    1    1    2    0    0  0.58965935962E+02 -0.55072451324E+02 -0.66703406725E+02  0.16304692873E+03  0.12500000000E+03 0.  0.
</event>
<event>
 4    0  0.2176682E-002  0.3142295E+03  0.7546771E-02  0.1078336E+00
         21   -1    0    0  502  501  0.00000000000E+00  0.00000000000E+00  0.21931083352E+04  0.21931083352E+04  0.00000000000E+00 0. -1.
         21   -1    0    0  501  502 -0.00000000000E+00 -0.00000000000E+00 -0.45022937088E+02  0.45022937088E+02  0.00000000000E+00 0. -1.
         25    1    1    2    0    0  0.18475360248E+03 -0.22118842777E+03  0.11009215285E+04  0.11448630600E+04  0.12500000000E+03 0.  0.
         25    1    1    2    0    0 -0.18475360248E+03  0.22118842777E+03  0.10471638696E+04  0.10932682123E+04  0.12500000000E+03 0.  0.
</event>
<event>
 4    0  0.2176682E-002  0.2272050E+03  0.7546771E-02  0.1128623E+00
         21   -1    0    0  502  501  0.00000000000E+00  0.00000000000E+00  0.38548588634E+02  0.38548588634E+02  0.00000000000E+00 0.  1.
         21   -1    0    0  501  502 -0.00000000000E+00 -0.00000000000E+00 -0.13391438410E+04  0.13391438410E+04  0.00000000000E+00 0.  1.
         25    1    1    2    0    0  0.73709793481E+02 -0.14272554644E+03 -0.95639791330E+03  0.97781679461E+03  0.12500000000E+03 0.  0.
         25    1    1    2    0    0 -0.73709793481E+02  0.14272554644E+03 -0.34419733906E+03  0.39987563501E+03  0.12500000000E+03 0.  0.
</event>
<event>
 4    0  0.2176682E-002  0.1978280E+03  0.7546771E-02  0.1151585E+00
         21   -1    0    0  502  501  0.00000000000E+00  0.00000000000E+00  0.18881085268E+03  0.18881085268E+03  0.00000000000E+00 0.  1.
         21   -1    0    0  501  502 -0.00000000000E+00 -0.00000000000E+00 -0.20727581728E+03  0.20727581728E+03  0.00000000000E+00 0.  1.
         25    1    1    2    0    0 -0.81498626519E+02 -0.10228505107E+03  0.70896288030E+02  0.19430785227E+03  0.12500000000E+03 0.  0.
         25    1    1    2    0    0  0.81498626519E+02  0.10228505107E+03 -0.89361252637E+02  0.20177881769E+03  0.12500000000E+03 0.  0.
</event>
<event>
 4    0  0.2176682E-002  0.1893064E+03  0.7546771E-02  0.1159088E+00
         21   -1    0    0  502  501  0.00000000000E+00  0.00000000000E+00  0.18941573925E+03  0.18941573925E+03  0.00000000000E+00 0.  1.
         21   -1    0    0  501  502 -0.00000000000E+00 -0.00000000000E+00 -0.18919713639E+03  0.18919713639E+03  0.00000000000E+00 0.  1.
         25    1    1    2    0    0 -0.13064536248E+03 -0.55847455077E+02  0.50858950721E+01  0.18930931120E+03  0.12500000000E+03 0.  0.
         25    1    1    2    0    0  0.13064536248E+03  0.55847455077E+02 -0.48672922065E+01  0.18930356444E+03  0.12500000000E+03 0.  0.
</event>
<event>
 4    0  0.2176682E-002  0.2093224E+03  0.7546771E-02  0.1142104E+00
         21   -1    0    0  502  501  0.00000000000E+00  0.00000000000E+00  0.34044147608E+03  0.34044147608E+03  0.00000000000E+00 0. -1.
         21   -1    0    0  501  502 -0.00000000000E+00 -0.00000000000E+00 -0.12870310687E+03  0.12870310687E+03  0.00000000000E+00 0. -1.
         25    1    1    2    0    0 -0.91864879626E+02  0.91235770033E+02  0.22566493187E+03  0.28863953873E+03  0.12500000000E+03 0.  0.
         25    1    1    2    0    0  0.91864879626E+02 -0.91235770033E+02 -0.13926562661E+02  0.18050504422E+03  0.12500000000E+03 0.  0.
</event>
<event>
 4    0  0.2176682E-002  0.2129418E+03  0.7546771E-02  0.1139257E+00
         21   -1    0    0  502  501  0.00000000000E+00  0.00000000000E+00  0.62641767398E+03  0.62641767398E+03  0.00000000000E+00 0.  1.
         21   -1    0    0  501  502 -0.00000000000E+00 -0.00000000000E+00 -0.72386551372E+02  0.72386551372E+02  0.00000000000E+00 0.  1.
         25    1    1    2    0    0  0.80369557701E+01 -0.29296330727E+02  0.55545662544E+03  0.57015781184E+03  0.12500000000E+03 0.  0.
         25    1    1    2    0    0 -0.80369557701E+01  0.29296330727E+02 -0.14255028318E+01  0.12864641352E+03  0.12500000000E+03 0.  0.
</event>
<event>
 4    0  0.2176682E-002  0.2070113E+03  0.7546771E-02  0.1143955E+00
         21   -1    0    0  502  501  0.00000000000E+00  0.00000000000E+00  0.56516342851E+03  0.56516342851E+03  0.00000000000E+00 0. -1.
         21   -1    0    0  501  502 -0.00000000000E+00 -0.00000000000E+00 -0.75825303734E+02  0.75825303734E+02  0.00000000000E+00 0. -1.
         25    1    1    2    0    0 -0.49396269081E+01 -0.13621122584E+03  0.10067181304E+03  0.21056522007E+03  0.12500000000E+03 0.  0.
         25    1    1    2    0    0  0.49396269081E+01  0.13621122584E+03  0.38866631173E+03  0.43042351218E+03  0.12500000000E+03 0.  0.
</event>
<event>
 4    0  0.2176682E-002  0.3072099E+03  0.7546771E-02  0.1081691E+00
         21   -1    0    0  502  501  0.00000000000E+00  0.00000000000E+00  0.14182634403E+03  0.14182634403E+03  0.00000000000E+00 0. -1.
         21   -1    0    0  501  502 -0.00000000000E+00 -0.00000000000E+00 -0.66544711752E+03  0.66544711752E+03  0.00000000000E+00 0. -1.
         25    1    1    2    0    0 -0.54662285641E+02 -0.24187158988E+03 -0.43443982195E+03  0.51560914495E+03  0.12500000000E+03 0.  0.
         25    1    1    2    0    0  0.54662285641E+02  0.24187158988E+03 -0.89180951551E+02  0.29166431660E+03  0.12500000000E+03 0.  0.
</event>
<event>
 4    0  0.2176682E-002  0.2111203E+03  0.7546771E-02  0.1140682E+00
         21   -1    0    0  502  501  0.00000000000E+00  0.00000000000E+00  0.48452724562E+02  0.48452724562E+02  0.00000000000E+00 0. -1.
         21   -1    0    0  501  502 -0.00000000000E+00 -0.00000000000E+00 -0.91990234366E+03  0.91990234366E+03  0.00000000000E+00 0. -1.
         25    1    1    2    0    0  0.67708346298E+02 -0.70826661032E+02 -0.11674031358E+03  0.19711452733E+03  0.12500000000E+03 0.  0.
         25    1    1    2    0    0 -0.67708346298E+02  0.70826661032E+02 -0.75470930552E+03  0.77124054089E+03  0.12500000000E+03 0.  0.
</event>
<event>
 4    0  0.2176682E-002  0.4061351E+03  0.7546771E-02  0.1041676E+00
         21   -1    0    0  502  501  0.00000000000E+00  0.00000000000E+00  0.81979376217E+03  0.81979376217E+03  0.00000000000E+00 0. -1.
         21   -1    0    0  501  502 -0.00000000000E+00 -0.00000000000E+00 -0.20120387972E+03  0.20120387972E+03  0.00000000000E+00 0. -1.
         25    1    1    2    0    0  0.35132151497E+03  0.10019025174E+03  0.15101778651E+03  0.41460374488E+03  0.12500000000E+03 0.  0.
         25    1    1    2    0    0 -0.35132151497E+03 -0.10019025174E+03  0.46757209594E+03  0.60639389701E+03  0.12500000000E+03 0.  0.
</event>
<event>
 4    0  0.2176682E-002  0.1928203E+03  0.7546771E-02  0.1155942E+00
         21   -1    0    0  502  501  0.00000000000E+00  0.00000000000E+00  0.84082865881E+02  0.84082865881E+02  0.00000000000E+00 0.  1.
         21   -1    0    0  501  502 -0.00000000000E+00 -0.00000000000E+00 -0.44217910307E+03  0.44217910307E+03  0.00000000000E+00 0.  1.
         25    1    1    2    0    0  0.12038020648E+03  0.19382615323E+02 -0.29064562243E+03  0.33906777748E+03  0.12500000000E+03 0.  0.
         25    1    1    2    0    0 -0.12038020648E+03 -0.19382615323E+02 -0.67450614755E+02  0.18719419147E+03  0.12500000000E+03 0.  0.
</event>
<event>
 4    0  0.2176682E-002  0.2240662E+03  0.7546771E-02  0.1130887E+00
         21   -1    0    0  502  501  0.00000000000E+00  0.00000000000E+00  0.16325404344E+03  0.16325404344E+03  0.00000000000E+00 0.  1.
         21   -1    0    0  501  502 -0.00000000000E+00 -0.00000000000E+00 -0.30753094760E+03  0.30753094760E+03  0.00000000000E+00 0.  1.
         25    1    1    2    0    0  0.16718025239E+03  0.67589853881E+02 -0.11985517770E+03  0.25001577702E+03  0.12500000000E+03 0.  0.
         25    1    1    2    0    0 -0.16718025239E+03 -0.67589853881E+02 -0.24421726465E+02  0.22076921402E+03  0.12500000000E+03 0.  0.
</event>
<event>
 4    0  0.2176682E-002  0.3069139E+03  0.7546771E-02  0.1081835E+00
         21   -1    0    0  502  501  0.00000000000E+00  0.00000000000E+00  0.24946476757E+03  0.24946476757E+03  0.00000000000E+00 0. -1.
         21   -1    0    0  501  502 -0.00000000000E+00 -0.00000000000E+00 -0.37759291907E+03  0.37759291907E+03  0.00000000000E+00 0. -1.
         25    1    1    2    0    0 -0.21062076611E+03 -0.68180955084E+02  0.11157588158E+03  0.27763992347E+03  0.12500000000E+03 0.  0.
         25    1    1    2    0    0  0.21062076611E+03  0.68180955084E+02 -0.23970403308E+03  0.34941776318E+03  0.12500000000E+03 0.  0.
</event>
<event>
 4    0  0.2176682E-002  0.2162283E+03  0.7546771E-02  0.1136727E+00
         21   -1    0    0  502  501  0.00000000000E+00  0.00000000000E+00  0.79029382439E+02  0.79029382439E+02  0.00000000000E+00 0. -1.
         21   -1    0    0  501  502 -0.00000000000E+00 -0.00000000000E+00 -0.59161139558E+03  0.59161139558E+03  0.00000000000E+00 0. -1.
         25    1    1    2    0    0 -0.86776802222E+02  0.48424448492E+02 -0.30205207779E+02  0.16251921484E+03  0.12500000000E+03 0.  0.
         25    1    1    2    0    0  0.86776802222E+02 -0.48424448492E+02 -0.48237680536E+03  0.50812156318E+03  0.12500000000E+03 0.  0.
</event>
<event>
 4    0  0.2176682E-002  0.3052621E+03  0.7546771E-02  0.1082639E+00
         21   -1    0    0  502  501  0.00000000000E+00  0.00000000000E+00  0.38142289633E+03  0.38142289633E+03  0.00000000000E+00 0.  1.
         21   -1    0    0  501  502 -0.00000000000E+00 -0.00000000000E+00 -0.24430880559E+03  0.24430880559E+03  0.00000000000E+00 0. -1.
         25    1    1    2    0    0  0.20961449548E+03  0.18289052953E+03  0.82029420620E+02  0.31581799879E+03  0.12500000000E+03 0.  0.
         25    1    1    2    0    0 -0.20961449548E+03 -0.18289052953E+03  0.55084670123E+02  0.30991370314E+03  0.12500000000E+03 0.  0.
</event>
<event>
 4    0  0.2176682E-002  0.2144659E+03  0.7546771E-02  0.1138078E+00
         21   -1    0    0  502  501  0.00000000000E+00  0.00000000000E+00  0.89892923204E+02  0.89892923204E+02  0.00000000000E+00 0. -1.
         21   -1    0    0  501  502 -0.00000000000E+00 -0.00000000000E+00 -0.51167106927E+03  0.51167106927E+03  0.00000000000E+00 0. -1.
         25    1    1    2    0    0 -0.15919893246E+03 -0.69946411800E+02 -0.22711217535E+03  0.31215659662E+03  0.12500000000E+03 0.  0.
         25    1    1    2    0    0  0.15919893246E+03  0.69946411800E+02 -0.19466597072E+03  0.28940739586E+03  0.12500000000E+03 0.  0.
</event>
<event>
 4    0  0.2176682E-002  0.2448622E+03  0.7546771E-02  0.1116596E+00
         21   -1    0    0  502  501  0.00000000000E+00  0.00000000000E+00  0.19160210771E+03  0.19160210771E+03  0.00000000000E+00 0.  1.
         21   -1    0    0  501  502 -0.00000000000E+00 -0.00000000000E+00 -0.31292703248E+03  0.31292703248E+03  0.00000000000E+00 0.  1.
         25    1    1    2    0    0  0.81805841370E+02  0.14625551566E+03  0.70665139593E+02  0.22068401278E+03  0.12500000000E+03 0.  0.
         25    1    1    2    0    0 -0.81805841370E+02 -0.14625551566E+03 -0.19199006436E+03  0.28384512741E+03  0.12500000000E+03 0.  0.
</event>
<event>
 4    0  0.2176682E-002  0.2164967E+03  0.7546771E-02  0.1136522E+00
         21   -1    0    0  502  501  0.00000000000E+00  0.00000000000E+00  0.90986848093E+03  0.90986848093E+03  0.00000000000E+00 0.  1.
         21   -1    0    0  501  502 -0.00000000000E+00 -0.00000000000E+00 -0.51513846172E+02  0.51513846172E+02  0.00000000000E+00 0.  1.
         25    1    1    2    0    0 -0.11772300759E+03  0.10349161822E+03  0.61060043669E+03  0.64267185627E+03  0.12500000000E+03 0.  0.
         25    1    1    2    0    0  0.11772300759E+03 -0.10349161822E+03  0.24775419806E+03  0.31871047083E+03  0.12500000000E+03 0.  0.
</event>
<event>
 4    0  0.2176682E-002  0.2278861E+03  0.7546771E-02  0.1128137E+00
         21   -1    0    0  502  501  0.00000000000E+00  0.00000000000E+00  0.83436403124E+02  0.83436403124E+02  0.00000000000E+00 0.  1.
         21   -1    0    0  501  502 -0.00000000000E+00 -0.00000000000E+00 -0.62241503286E+03  0.62241503286E+03  0.00000000000E+00 0.  1.
         25    1    1    2    0    0  0.15302223137E+03 -0.55801444344E+01 -0.93863574701E+02  0.21882027320E+03  0.12500000000E+03 0.  0.
         25    1    1    2    0    0 -0.15302223137E+03  0.55801444344E+01 -0.44511505503E+03  0.48703116278E+03  0.12500000000E+03 0.  0.
</event>
<event>
 4    0  0.2176682E-002  0.3350445E+03  0.7546771E-02  0.1068926E+00
         21   -1    0    0  502  501  0.00000000000E+00  0.00000000000E+00  0.63529409225E+03  0.63529409225E+03  0.00000000000E+00 0. -1.
         21   -1    0    0  501  502 -0.00000000000E+00 -0.00000000000E+00 -0.17669742929E+03  0.17669742929E+03  0.00000000000E+00 0. -1.
         25    1    1    2    0    0 -0.71897157086E+02  0.20771300440E+03 -0.37058714389E+02  0.25556259841E+03  0.12500000000E+03 0.  0.
         25    1    1    2    0    0  0.71897157086E+02 -0.20771300440E+03  0.49565537735E+03  0.55642892313E+03  0.12500000000E+03 0.  0.
</event>
<event>
 4    0  0.2176682E-002  0.1719410E+03  0.7546771E-02  0.1175839E+00
         21   -1    0    0  502  501  0.00000000000E+00  0.00000000000E+00  0.49732563348E+02  0.49732563348E+02  0.00000000000E+00 0.  1.
         21   -1    0    0  501  502 -0.00000000000E+00 -0.00000000000E+00 -0.59445350010E+03  0.59445350010E+03  0.00000000000E+00 0.  1.
         25    1    1    2    0    0 -0.85004422824E+02  0.34233111999E+02 -0.41180373445E+03  0.44000565174E+03  0.12500000000E+03 0.  0.
         25    1    1    2    0    0  0.85004422824E+02 -0.34233111999E+02 -0.13291720230E+03  0.20418041171E+03  0.12500000000E+03 0.  0.
</event>
<event>
 4    0  0.2176682E-002  0.3823372E+03  0.7546771E-02  0.1050073E+00
         21   -1    0    0  502  501  0.00000000000E+00  0.00000000000E+00  0.52219630778E+03  0.52219630778E+03  0.00000000000E+00 0. -1.
         21   -1    0    0  501  502 -0.00000000000E+00 -0.00000000000E+00 -0.27993631427E+03  0.27993631427E+03  0.00000000000E+00 0. -1.
         25    1    1    2    0    0  0.14242422325E+03  0.30330047332E+03 -0.20700013239E+02  0.35823082926E+03  0.12500000000E+03 0.  0.
         25    1    1    2    0    0 -0.14242422325E+03 -0.30330047332E+03  0.26296000676E+03  0.44390179279E+03  0.12500000000E+03 0.  0.
</event>
<event>
 4    0  0.2176682E-002  0.2099826E+03  0.7546771E-02  0.1141580E+00
         21   -1    0    0  502  501  0.00000000000E+00  0.00000000000E+00  0.15649474893E+04  0.15649474893E+04  0.00000000000E+00 0. -1.
         21   -1    0    0  501  502 -0.00000000000E+00 -0.00000000000E+00 -0.28175185773E+02  0.28175185773E+02  0.00000000000E+00 0. -1.
         25    1    1    2    0    0 -0.11845214064E+03  0.74064132202E+02  0.11272903498E+04  0.11427707285E+04  0.12500000000E+03 0.  0.
         25    1    1    2    0    0  0.11845214064E+03 -0.74064132202E+02  0.40948195374E+03  0.45035194653E+03  0.12500000000E+03 0.  0.
</event>
<event>
 4    0  0.2176682E-002  0.4410689E+03  0.7546771E-02  0.1030419E+00
         21   -1    0    0  502  501  0.00000000000E+00  0.00000000000E+00  0.93662530084E+02  0.93662530084E+02  0.00000000000E+00 0.  1.
         21   -1    0    0  501  502 -0.00000000000E+00 -0.00000000000E+00 -0.20770503680E+04  0.20770503680E+04  0.00000000000E+00 0.  1.
         25    1    1    2    0    0 -0.10309974605E+03 -0.19185446236E+01  0.17760636620E+02  0.16301435109E+03  0.12500000000E+03 0.  0.
         25    1    1    2    0    0  0.10309974605E+03  0.19185446236E+01 -0.20011484745E+04  0.20076985470E+04  0.12500000000E+03 0.  0.
</event>
<event>
 4    0  0.2176682E-002  0.2329450E+03  0.7546771E-02  0.1124584E+00
         21   -1    0    0  502  501  0.00000000000E+00  0.00000000000E+00  0.28687681016E+03  0.28687681016E+03  0.00000000000E+00 0. -1.
         21   -1    0    0  501  502 -0.00000000000E+00 -0.00000000000E+00 -0.18915223758E+03  0.18915223758E+03  0.00000000000E+00 0. -1.
         25    1    1    2    0    0 -0.91805987542E+02 -0.13594342692E+03 -0.61797176739E+02  0.21529711035E+03  0.12500000000E+03 0.  0.
         25    1    1    2    0    0  0.91805987542E+02  0.13594342692E+03  0.15952174932E+03  0.26073193739E+03  0.12500000000E+03 0.  0.
</event>
<event>
 4    0  0.2176682E-002  0.1485965E+03  0.7546771E-02  0.1202208E+00
         21   -1    0    0  502  501  0.00000000000E+00  0.00000000000E+00  0.50244656278E+02  0.50244656278E+02  0.00000000000E+00 0. -1.
         21   -1    0    0  501  502 -0.00000000000E+00 -0.00000000000E+00 -0.43946826244E+03  0.43946826244E+03  0.00000000000E+00 0. -1.
         25    1    1    2    0    0  0.62119386517E+02  0.30785103750E+02 -0.12769045559E+03  0.19166740266E+03  0.12500000000E+03 0.  0.
         25    1    1    2    0    0 -0.62119386517E+02 -0.30785103750E+02 -0.26153315057E+03  0.29804551606E+03  0.12500000000E+03 0.  0.
</event>
<event>
 4    0  0.2176682E-002  0.2159767E+03  0.7546771E-02  0.1136919E+00
         21   -1    0    0  502  501  0.00000000000E+00  0.00000000000E+00  0.89864926053E+02  0.89864926053E+02  0.00000000000E+00 0.  1.
         21   -1    0    0  501  502 -0.00000000000E+00 -0.00000000000E+00 -0.51906703065E+03  0.51906703065E+03  0.00000000000E+00 0.  1.
         25    1    1    2    0    0  0.16585754327E+03  0.10728019161E+02 -0.13243613165E+03  0.24655251778E+03  0.12500000000E+03 0.  0.
         25    1    1    2    0    0 -0.16585754327E+03 -0.10728019161E+02 -0.29676597295E+03  0.36237943893E+03  0.12500000000E+03 0.  0.
</event>
<event>
 4    0  0.2176682E-002  0.1956324E+03  0.7546771E-02  0.1153477E+00
         21   -1    0    0  502  501  0.00000000000E+00  0.00000000000E+00  0.61737444562E+02  0.61737444562E+02  0.00000000000E+00 0. -1.
         21   -1    0    0  501  502 -0.00000000000E+00 -0.00000000000E+00 -0.61991630443E+03  0.61991630443E+03  0.00000000000E+00 0. -1.
         25    1    1    2    0    0 -0.64020038877E+02  0.86447219479E+02 -0.46243563704E+03  0.49096171494E+03  0.12500000000E+03 0.  0.
         25    1    1    2    0    0  0.64020038877E+02 -0.86447219479E+02 -0.95743222829E+02  0.19069203405E+03  0.12500000000E+03 0.  0.
</event>
<event>
 4    0  0.2176682E-002  0.1986990E+03  0.7546771E-02  0.1150841E+00
         21   -1    0    0  502  501  0.00000000000E+00  0.00000000000E+00  0.11760458212E+03  0.11760458212E+03  0.00000000000E+00 0.  1.
         21   -1    0    0  501  502 -0.00000000000E+00 -0.00000000000E+00 -0.33571204255E+03  0.33571204255E+03  0.00000000000E+00 0.  1.
         25    1    1    2    0    0  0.83293749336E+02  0.98982748138E+02 -0.20531281421E+03  0.27297213188E+03  0.12500000000E+03 0.  0.
         25    1    1    2    0    0 -0.83293749336E+02 -0.98982748138E+02 -0.12794646218E+02  0.18034449279E+03  0.12500000000E+03 0.  0.
</event>
<event>
 4    0  0.2176682E-002  0.2710791E+03  0.7546771E-02  0.1100664E+00
         21   -1    0    0  502  501  0.00000000000E+00  0.00000000000E+00  0.15644021979E+03  0.15644021979E+03  0.00000000000E+00 0.  1.
         21   -1    0    0  501  502 -0.00000000000E+00 -0.00000000000E+00 -0.46972490903E+03  0.46972490903E+03  0.00000000000E+00 0.  1.
         25    1    1    2    0    0  0.23915176719E+03  0.24535032511E+02 -0.16583362437E+03  0.31768117122E+03  0.12500000000E+03 0.  0.
         25    1    1    2    0    0 -0.23915176719E+03 -0.24535032511E+02 -0.14745106487E+03  0.30848395761E+03  0.12500000000E+03 0.  0.
</event>
<event>
 4    0  0.2176682E-002  0.3054996E+03  0.7546771E-02  0.1082523E+00
         21   -1    0    0  502  501  0.00000000000E+00  0.00000000000E+00  0.29265538100E+03  0.29265538100E+03  0.00000000000E+00 0. -1.
         21   -1    0    0  501  502 -0.00000000000E+00 -0.00000000000E+00 -0.31890759363E+03  0.31890759363E+03  0.00000000000E+00 0. -1.
         25    1    1    2    0    0  0.18898411338E+03 -0.20419504902E+03  0.40481088798E+01  0.30504425964E+03  0.12500000000E+03 0.  0.
         25    1    1    2    0    0 -0.18898411338E+03  0.20419504902E+03 -0.30300321517E+02  0.30651871499E+03  0.12500000000E+03 0.  0.
</event>
<event>
 4    0  0.2176682E-002  0.1559451E+03  0.7546771E-02  0.1193352E+00
         21   -1    0    0  502  501  0.00000000000E+00  0.00000000000E+00  0.15466149612E+03  0.15466149612E+03  0.00000000000E+00 0.  1.
         21   -1    0    0  501  502 -0.00000000000E+00 -0.00000000000E+00 -0.15723933891E+03  0.15723933891E+03  0.00000000000E+00 0.  1.
         25    1    1    2    0    0  0.21240366719E+02  0.82253096946E+02 -0.39723894774E+02  0.15626808040E+03  0.12500000000E+03 0.  0.
         25    1    1    2    0    0 -0.21240366719E+02 -0.82253096946E+02  0.37146051990E+02  0.15563275463E+03  0.12500000000E+03 0.  0.
</event>
<event>
 4    0  0.2176682E-002  0.3121397E+03  0.7546771E-02  0.1079325E+00
         21   -1    0    0  502  501  0.00000000000E+00  0.00000000000E+00  0.17688837683E+03  0.17688837683E+03  0.00000000000E+00 0.  1.
         21   -1    0    0  501  502 -0.00000000000E+00 -0.00000000000E+00 -0.55080620012E+03  0.55080620012E+03  0.00000000000E+00 0. -1.
         25    1    1    2    0    0  0.18650941503E+03 -0.10740300763E+02 -0.43941166490E+03  0.49356734819E+03  0.12500000000E+03 0.  0.
         25    1    1    2    0    0 -0.18650941503E+03  0.10740300763E+02  0.65493841606E+02  0.23412722875E+03  0.12500000000E+03 0.  0.
</event>
<event>
 4    0  0.2176682E-002  0.2697317E+03  0.7546771E-02  0.1101433E+00
         21   -1    0    0  502  501  0.00000000000E+00  0.00000000000E+00  0.11555557686E+03  0.11555557686E+03  0.00000000000E+00 0. -1.
         21   -1    0    0  501  502 -0.00000000000E+00 -0.00000000000E+00 -0.62961202479E+03  0.62961202479E+03  0.00000000000E+00 0. -1.
         25    1    1    2    0    0 -0.48653819879E+02 -0.10845680185E+03  0.29407237240E+02  0.17498530698E+03  0.12500000000E+03 0.  0.
         25    1    1    2    0    0  0.48653819879E+02  0.10845680185E+03 -0.54346368517E+03  0.57018229467E+03  0.12500000000E+03 0.  0.
</event>
<event>
 4    0  0.2176682E-002  0.2089198E+03  0.7546771E-02  0.1142424E+00
         21   -1    0    0  502  501  0.00000000000E+00  0.00000000000E+00  0.15117171085E+04  0.15117171085E+04  0.00000000000E+00 0. -1.
         21   -1    0    0  501  502 -0.00000000000E+00 -0.00000000000E+00 -0.28872778081E+02  0.28872778081E+02  0.00000000000E+00 0. -1.
         25    1    1    2    0    0  0.99749729217E+02 -0.72641254550E+02  0.11584929114E+04  0.11717327281E+04  0.12500000000E+03 0.  0.
         25    1    1    2    0    0 -0.99749729217E+02  0.72641254550E+02  0.32435141902E+03  0.36885715848E+03  0.12500000000E+03 0.  0.
</event>
<event>
 4    0  0.2176682E-002  0.1830600E+03  0.7546771E-02  0.1164874E+00
         21   -1    0    0  502  501  0.00000000000E+00  0.00000000000E+00  0.76983827570E+03  0.76983827570E+03  0.00000000000E+00 0. -1.
         21   -1    0    0  501  502 -0.00000000000E+00 -0.00000000000E+00 -0.43529874822E+02  0.43529874822E+02  0.00000000000E+00 0. -1.
         25    1    1    2    0    0  0.65922887714E+02 -0.78085484088E+02  0.17149410415E+03  0.23553852702E+03  0.12500000000E+03 0.  0.
         25    1    1    2    0    0 -0.65922887714E+02  0.78085484088E+02  0.55481429673E+03  0.57782962351E+03  0.12500000000E+03 0.  0.
</event>
<event>
 4    0  0.2176682E-002  0.4001441E+03  0.7546771E-02  0.1043730E+00
         21   -1    0    0  502  501  0.00000000000E+00  0.00000000000E+00  0.22359691863E+03  0.22359691863E+03  0.00000000000E+00 0. -1.
         21   -1    0    0  501  502 -0.00000000000E+00 -0.00000000000E+00 -0.71608891091E+03  0.71608891091E+03  0.00000000000E+00 0. -1.
         25    1    1    2    0    0 -0.37961223912E+03 -0.14592413883E+02 -0.23085193682E+03  0.46177484488E+03  0.12500000000E+03 0.  0.
         25    1    1    2    0    0  0.37961223912E+03  0.14592413883E+02 -0.26164005547E+03  0.47791098466E+03  0.12500000000E+03 0.  0.
</event>
<event>
 4    0  0.2176682E-002  0.2119072E+03  0.7546771E-02  0.1140065E+00
         21   -1    0    0  502  501  0.00000000000E+00  0.00000000000E+00  0.33877485414E+03  0.33877485414E+03  0.00000000000E+00 0. -1.
         21   -1    0    0  501  502 -0.00000000000E+00 -0.00000000000E+00 -0.13255019871E+03  0.13255019871E+03  0.00000000000E+00 0. -1.
         25    1    1    2    0    0 -0.16459970446E+03 -0.30398577421E+02  0.63596872813E+02  0.21837284275E+03  0.12500000000E+03 0.  0.
         25    1    1    2    0    0  0.16459970446E+03  0.30398577421E+02  0.14262778262E+03  0.25295221010E+03  0.12500000000E+03 0.  0.
</event>
<event>
 4    0  0.2176682E-002  0.1545341E+03  0.7546771E-02  0.1195010E+00
         21   -1    0    0  502  501  0.00000000000E+00  0.00000000000E+00  0.25554054528E+02  0.25554054528E+02  0.00000000000E+00 0. -1.
         21   -1    0    0  501  502 -0.00000000000E+00 -0.00000000000E+00 -0.93452095766E+03  0.93452095766E+03  0.00000000000E+00 0. -1.
         25    1    1    2    0    0  0.54038552766E+02 -0.73041971607E+02 -0.45669029128E+03  0.48212686811E+03  0.12500000000E+03 0.  0.
         25    1    1    2    0    0 -0.54038552766E+02  0.73041971607E+02 -0.45227661185E+03  0.47794814408E+03  0.12500000000E+03 0.  0.
</event>
<event>
 4    0  0.2176682E-002  0.2006864E+03  0.7546771E-02  0.1149161E+00
         21   -1    0    0  502  501  0.00000000000E+00  0.00000000000E+00  0.23578986028E+03  0.23578986028E+03  0.00000000000E+00 0.  1.
         21   -1    0    0  501  502 -0.00000000000E+00 -0.00000000000E+00 -0.17080906470E+03  0.17080906470E+03  0.00000000000E+00 0.  1.
         25    1    1    2    0    0  0.23432477858E+02 -0.87376676882E+02  0.16248220135E+03  0.22407416281E+03  0.12500000000E+03 0.  0.
         25    1    1    2    0    0 -0.23432477858E+02  0.87376676882E+02 -0.97501405765E+02  0.18252476218E+03  0.12500000000E+03 0.  0.
</event>
<event>
 4    0  0.2176682E-002  0.1782902E+03  0.7546771E-02  0.1169468E+00
         21   -1    0    0  502  501  0.00000000000E+00  0.00000000000E+00  0.72907846571E+03  0.72907846571E+03  0.00000000000E+00 0.  1.
         21   -1    0    0  501  502 -0.00000000000E+00 -0.00000000000E+00 -0.43599400059E+02  0.43599400059E+02  0.00000000000E+00 0.  1.
         25    1    1    2    0    0 -0.85402805732E+02 -0.78762932001E+02  0.45460640783E+03  0.48558132658E+03  0.12500000000E+03 0.  0.
         25    1    1    2    0    0  0.85402805732E+02  0.78762932001E+02  0.23087265782E+03  0.28709653919E+03  0.12500000000E+03 0.  0.
</event>
<event>
 4    0  0.2176682E-002  0.2344037E+03  0.7546771E-02  0.1123578E+00
         21   -1    0    0  502  501  0.00000000000E+00  0.00000000000E+00  0.90274663491E+03  0.90274663491E+03  0.00000000000E+00 0. -1.
         21   -1    0    0  501  502 -0.00000000000E+00 -0.00000000000E+00 -0.60864346158E+02  0.60864346158E+02  0.00000000000E+00 0. -1.
         25    1    1    2    0    0 -0.97559211179E+02  0.46017147421E+02  0.76294207217E+03  0.78060296119E+03  0.12500000000E+03 0.  0.
         25    1    1    2    0    0  0.97559211179E+02 -0.46017147421E+02  0.78940216582E+02  0.18300801987E+03  0.12500000000E+03 0.  0.
</event>
<event>
 4    0  0.2176682E-002  0.1783834E+03  0.7546771E-02  0.1169377E+00
         21   -1    0    0  502  501  0.00000000000E+00  0.00000000000E+00  0.12890286592E+04  0.12890286592E+04  0.00000000000E+00 0. -1.
         21   -1    0    0  501  502 -0.00000000000E+00 -0.00000000000E+00 -0.24685755480E+02  0.24685755480E+02  0.00000000000E+00 0. -1.
         25    1    1    2    0    0 -0.67168142395E+02 -0.25751879363E+02  0.24560376635E+03  0.28481736023E+03  0.12500000000E+03 0.  0.
         25    1    1    2    0    0  0.67168142395E+02  0.25751879363E+02  0.10187391374E+04  0.10288970545E+04  0.12500000000E+03 0.  0.
</event>
<event>
 4    0  0.2176682E-002  0.1714695E+03  0.7546771E-02  0.1176324E+00
         21   -1    0    0  502  501  0.00000000000E+00  0.00000000000E+00  0.10944033734E+04  0.10944033734E+04  0.00000000000E+00 0.  1.
         21   -1    0    0  501  502 -0.00000000000E+00 -0.00000000000E+00 -0.26865593061E+02  0.26865593061E+02  0.00000000000E+00 0.  1.
         25    1    1    2    0    0 -0.12992480015E+02  0.95317179317E+02  0.75365016129E+03  0.76997904830E+03  0.12500000000E+03 0.  0.
         25    1    1    2    0    0  0.12992480015E+02 -0.95317179317E+02  0.31388761907E+03  0.35128991818E+03  0.12500000000E+03 0.  0.
</event>
<event>
 4    0  0.2176682E-002  0.1810466E+03  0.7546771E-02  0.1166794E+00
         21   -1    0    0  502  501  0.00000000000E+00  0.00000000000E+00  0.16232367514E+02  0.16232367514E+02  0.00000000000E+00 0.  1.
         21   -1    0    0  501  502 -0.00000000000E+00 -0.00000000000E+00 -0.20192903634E+04  0.20192903634E+04  0.00000000000E+00 0.  1.
         25    1    1    2    0    0  0.71123897008E+02 -0.89950764826E+02 -0.13572050673E+04  0.13677647252E+04  0.12500000000E+03 0.  0.
         25    1    1    2    0    0 -0.71123897008E+02  0.89950764826E+02 -0.64585292853E+03  0.66775800565E+03  0.12500000000E+03 0.  0.
</event>
<event>
 4    0  0.2176682E-002  0.2242526E+03  0.7546771E-02  0.1130752E+00
         21   -1    0    0  502  501  0.00000000000E+00  0.00000000000E+00  0.16101399475E+03  0.16101399475E+03  0.00000000000E+00 0. -1.
         21   -1    0    0  501  502 -0.00000000000E+00 -0.00000000000E+00 -0.31232820236E+03  0.31232820236E+03  0.00000000000E+00 0. -1.
         25    1    1    2    0    0  0.22928833995E+02  0.31750393076E+02  0.11644012725E+03  0.17526300842E+03  0.12500000000E+03 0.  0.
         25    1    1    2    0    0 -0.22928833995E+02 -0.31750393076E+02 -0.26775433486E+03  0.29807918868E+03  0.12500000000E+03 0.  0.
</event>
<event>
 4    0  0.2176682E-002  0.1446456E+03  0.7546771E-02  0.1207211E+00
         21   -1    0    0  502  501  0.00000000000E+00  0.00000000000E+00  0.46026995015E+03  0.46026995015E+03  0.00000000000E+00 0.  1.
         21   -1    0    0  501  502 -0.00000000000E+00 -0.00000000000E+00 -0.45456684118E+02  0.45456684118E+02  0.00000000000E+00 0.  1.
         25    1    1    2    0    0  0.43137727523E+02 -0.50575253242E+02  0.15558839301E+03  0.21036032852E+03  0.12500000000E+03 0.  0.
         25    1    1    2    0    0 -0.43137727523E+02  0.50575253242E+02  0.25922487303E+03  0.29536630575E+03  0.12500000000E+03 0.  0.
</event>
<event>
 4    0  0.2176682E-002  0.2582376E+03  0.7546771E-02  0.1108207E+00
         21   -1    0    0  502  501  0.00000000000E+00  0.00000000000E+00  0.31551383033E+02  0.31551383033E+02  0.00000000000E+00 0.  1.
         21   -1    0    0  501  502 -0.00000000000E+00 -0.00000000000E+00 -0.21135882659E+04  0.21135882659E+04  0.00000000000E+00 0.  1.
         25    1    1    2    0    0  0.20699609769E+03  0.48639760838E+02 -0.13586513829E+04  0.13808590772E+04  0.12500000000E+03 0.  0.
         25    1    1    2    0    0 -0.20699609769E+03 -0.48639760838E+02 -0.72338550001E+03  0.76428057179E+03  0.12500000000E+03 0.  0.
</event>
<event>
 4    0  0.2176682E-002  0.1764068E+03  0.7546771E-02  0.1171327E+00
         21   -1    0    0  502  501  0.00000000000E+00  0.00000000000E+00  0.88403463167E+02  0.88403463167E+02  0.00000000000E+00 0.  1.
         21   -1    0    0  501  502 -0.00000000000E+00 -0.00000000000E+00 -0.35201522657E+03  0.35201522657E+03  0.00000000000E+00 0.  1.
         25    1    1    2    0    0 -0.27528229403E+02  0.34374732373E+02 -0.27714053275E+03  0.30719912196E+03  0.12500000000E+03 0.  0.
         25    1    1    2    0    0  0.27528229403E+02 -0.34374732373E+02  0.13528769344E+02  0.13321956778E+03  0.12500000000E+03 0.  0.
</event>
<event>
 4    0  0.2176682E-002  0.1884307E+03  0.7546771E-02  0.1159884E+00
         21   -1    0    0  502  501  0.00000000000E+00  0.00000000000E+00  0.35583626131E+03  0.35583626131E+03  0.00000000000E+00 0.  1.
         21   -1    0    0  501  502 -0.00000000000E+00 -0.00000000000E+00 -0.99782239581E+02  0.99782239581E+02  0.00000000000E+00 0.  1.
         25    1    1    2    0    0  0.11411447368E+03 -0.22616122929E+02  0.31705729974E+02  0.17367744653E+03  0.12500000000E+03 0.  0.
         25    1    1    2    0    0 -0.11411447368E+03  0.22616122929E+02  0.22434829176E+03  0.28194105436E+03  0.12500000000E+03 0.  0.
</event>
<event>
 4    0  0.2176682E-002  0.1524749E+03  0.7546771E-02  0.1197464E+00
         21   -1    0    0  502  501  0.00000000000E+00  0.00000000000E+00  0.78659758528E+02  0.78659758528E+02  0.00000000000E+00 0. -1.
         21   -1    0    0  501  502 -0.00000000000E+00 -0.00000000000E+00 -0.29555892649E+03  0.29555892649E+03  0.00000000000E+00 0. -1.
         25    1    1    2    0    0 -0.19026938093E+02  0.14177388765E+02 -0.53357245589E+01  0.12734399351E+03  0.12500000000E+03 0.  0.
         25    1    1    2    0    0  0.19026938093E+02 -0.14177388765E+02 -0.21156344341E+03  0.24687469152E+03  0.12500000000E+03 0.  0.
</event>
<event>
 4    0  0.2176682E-002  0.4189625E+03  0.7546771E-02  0.1037404E+00
         21   -1    0    0  502  501  0.00000000000E+00  0.00000000000E+00  0.41814729337E+03  0.41814729337E+03  0.00000000000E+00 0.  1.
         21   -1    0    0  501  502 -0.00000000000E+00 -0.00000000000E+00 -0.41977931865E+03  0.41977931865E+03  0.00000000000E+00 0.  1.
         25    1    1    2    0    0  0.73865397282E+02 -0.11951431080E+03 -0.37520264464E+03  0.41969249689E+03  0.12500000000E+03 0.  0.
         25    1    1    2    0    0 -0.73865397282E+02  0.11951431080E+03  0.37357061937E+03  0.41823411513E+03  0.12500000000E+03 0.  0.
</event>
<event>
 4    0  0.2176682E-002  0.2107288E+03  0.7546771E-02  0.1140990E+00
         21   -1    0    0  502  501  0.00000000000E+00  0.00000000000E+00  0.12060248565E+03  0.12060248565E+03  0.00000000000E+00 0.  1.
         21   -1    0    0  501  502 -0.00000000000E+00 -0.00000000000E+00 -0.36820671118E+03  0.36820671118E+03  0.00000000000E+00 0.  1.
         25    1    1    2    0    0 -0.12825519302E+03  0.33256621580E+02 -0.91603191660E+00  0.18215717535E+03  0.12500000000E+03 0.  0.
         25    1    1    2    0    0  0.12825519302E+03 -0.33256621580E+02 -0.24668819361E+03  0.30665202149E+03  0.12500000000E+03 0.  0.
</event>
<event>
 4    0  0.2176682E-002  0.3713458E+03  0.7546771E-02  0.1054180E+00
         21   -1    0    0  502  501  0.00000000000E+00  0.00000000000E+00  0.14975410150E+03  0.14975410150E+03  0.00000000000E+00 0. -1.
         21   -1    0    0  501  502 -0.00000000000E+00 -0.00000000000E+00 -0.92082755680E+03  0.92082755680E+03  0.00000000000E+00 0. -1.
         25    1    1    2    0    0 -0.20261739075E+03  0.10779645823E+03 -0.76582437995E+03  0.80918839856E+03  0.12500000000E+03 0.  0.
         25    1    1    2    0    0  0.20261739075E+03 -0.10779645823E+03 -0.52490753530E+01  0.26139325973E+03  0.12500000000E+03 0.  0.
</event>
<event>
 4    0  0.2176682E-002  0.1704625E+03  0.7546771E-02  0.1177366E+00
         21   -1    0    0  502  501  0.00000000000E+00  0.00000000000E+00  0.79706999498E+02  0.79706999498E+02  0.00000000000E+00 0. -1.
         21   -1    0    0  501  502 -0.00000000000E+00 -0.00000000000E+00 -0.36455329801E+03  0.36455329801E+03  0.00000000000E+00 0. -1.
         25    1    1    2    0    0  0.10460987355E+03  0.42149846014E+02 -0.10763702436E+03  0.19982633504E+03  0.12500000000E+03 0.  0.
         25    1    1    2    0    0 -0.10460987355E+03 -0.42149846014E+02 -0.17720927415E+03  0.24443396247E+03  0.12500000000E+03 0.  0.
</event>
<event>
 4    0  0.2176682E-002  0.2528775E+03  0.7546771E-02  0.1111500E+00
         21   -1    0    0  502  501  0.00000000000E+00  0.00000000000E+00  0.65450263939E+03  0.65450263939E+03  0.00000000000E+00 0. -1.
         21   -1    0    0  501  502 -0.00000000000E+00 -0.00000000000E+00 -0.97703245964E+02  0.97703245964E+02  0.00000000000E+00 0. -1.
         25    1    1    2    0    0 -0.33820519004E+02 -0.12077746029E+03  0.54690040981E+03  0.57485309486E+03  0.12500000000E+03 0.  0.
         25    1    1    2    0    0  0.33820519004E+02  0.12077746029E+03  0.98989836137E+01  0.17735279049E+03  0.12500000000E+03 0.  0.
</event>
<event>
 4    0  0.2176682E-002  0.3323319E+03  0.7546771E-02  0.1070110E+00
         21   -1    0    0  502  501  0.00000000000E+00  0.00000000000E+00  0.27576942142E+03  0.27576942142E+03  0.00000000000E+00 0. -1.
         21   -1    0    0  501  502 -0.00000000000E+00 -0.00000000000E+00 -0.40049585695E+03  0.40049585695E+03  0.00000000000E+00 0. -1.
         25    1    1    2    0    0 -0.16370274465E+03  0.14599214870E+02  0.20258121954E+03  0.28926782779E+03  0.12500000000E+03 0.  0.
         25    1    1    2    0    0  0.16370274465E+03 -0.14599214870E+02 -0.32730765508E+03  0.38699745058E+03  0.12500000000E+03 0.  0.
</event>
<event>
 4    0  0.2176682E-002  0.1794923E+03  0.7546771E-02  0.1168295E+00
         21   -1    0    0  502  501  0.00000000000E+00  0.00000000000E+00  0.36593027849E+02  0.36593027849E+02  0.00000000000E+00 0. -1.
         21   -1    0    0  501  502 -0.00000000000E+00 -0.00000000000E+00 -0.88042641626E+03  0.88042641626E+03  0.00000000000E+00 0. -1.
         25    1    1    2    0    0 -0.39421640502E+02 -0.93735627146E+02 -0.62389909863E+03  0.64437218966E+03  0.12500000000E+03 0.  0.
         25    1    1    2    0    0  0.39421640502E+02  0.93735627146E+02 -0.21993428977E+03  0.27264725444E+03  0.12500000000E+03 0.  0.
</event>
<event>
 4    0  0.2176682E-002  0.2572397E+03  0.7546771E-02  0.1108813E+00
         21   -1    0    0  502  501  0.00000000000E+00  0.00000000000E+00  0.21562375632E+03  0.21562375632E+03  0.00000000000E+00 0.  1.
         21   -1    0    0  501  502 -0.00000000000E+00 -0.00000000000E+00 -0.30688751275E+03  0.30688751275E+03  0.00000000000E+00 0.  1.
         25    1    1    2    0    0  0.14107709562E+03 -0.14554529213E+03 -0.14441838659E+03  0.27851005252E+03  0.12500000000E+03 0.  0.
         25    1    1    2    0    0 -0.14107709562E+03  0.14554529213E+03  0.53154630154E+02  0.24400121655E+03  0.12500000000E+03 0.  0.
</event>
<event>
 4    0  0.2176682E-002  0.1868882E+03  0.7546771E-02  0.1161298E+00
         21   -1    0    0  502  501  0.00000000000E+00  0.00000000000E+00  0.80274524194E+02  0.80274524194E+02  0.00000000000E+00 0. -1.
         21   -1    0    0  501  502 -0.00000000000E+00 -0.00000000000E+00 -0.43509676688E+03  0.43509676688E+03  0.00000000000E+00 0. -1.
         25    1    1    2    0    0 -0.38561528156E+01 -0.12246708872E+03 -0.87110041754E+02  0.19551526055E+03  0.12500000000E+03 0.  0.
         25    1    1    2    0    0  0.38561528156E+01  0.12246708872E+03 -0.26771220093E+03  0.31985603052E+03  0.12500000000E+03 0.  0.
</event>
<event>
 4    0  0.2176682E-002  0.2759939E+03  0.7546771E-02  0.1097897E+00
         21   -1    0    0  502  501  0.00000000000E+00  0.00000000000E+00  0.55844460084E+03  0.55844460084E+03  0.00000000000E+00 0. -1.
         21   -1    0    0  501  502 -0.00000000000E+00 -0.00000000000E+00 -0.13640139722E+03  0.13640139722E+03  0.00000000000E+00 0. -1.
         25    1    1    2    0    0 -0.15214327596E+03 -0.18845402755E+03  0.15636666418E+03  0.31422608196E+03  0.12500000000E+03 0.  0.
         25    1    1    2    0    0  0.15214327596E+03  0.18845402755E+03  0.26567653944E+03  0.38061991610E+03  0.12500000000E+03 0.  0.
</event>
<event>
 4    0  0.2176682E-002  0.1797533E+03  0.7546771E-02  0.1168042E+00
         21   -1    0    0  502  501  0.00000000000E+00  0.00000000000E+00  0.71052506405E+02  0.71052506405E+02  0.00000000000E+00 0. -1.
         21   -1    0    0  501  502 -0.00000000000E+00 -0.00000000000E+00 -0.45475194882E+03  0.45475194882E+03  0.00000000000E+00 0. -1.
         25    1    1    2    0    0  0.10517494019E+02  0.38939932039E+02 -0.37133139133E+03  0.39387680583E+03  0.12500000000E+03 0.  0.
         25    1    1    2    0    0 -0.10517494019E+02 -0.38939932039E+02 -0.12368051092E+02  0.13192764940E+03  0.12500000000E+03 0.  0.
</event>
<event>
 4    0  0.2176682E-002  0.2229478E+03  0.7546771E-02  0.1131704E+00
         21   -1    0    0  502  501  0.00000000000E+00  0.00000000000E+00  0.85889166825E+02  0.85889166825E+02  0.00000000000E+00 0. -1.
         21   -1    0    0  501  502 -0.00000000000E+00 -0.00000000000E+00 -0.57871946577E+03  0.57871946577E+03  0.00000000000E+00 0. -1.
         25    1    1    2    0    0  0.11961663770E+03 -0.10728247704E+03 -0.11092638885E+03  0.23183471189E+03  0.12500000000E+03 0.  0.
         25    1    1    2    0    0 -0.11961663770E+03  0.10728247704E+03 -0.38190391010E+03  0.43277392071E+03  0.12500000000E+03 0.  0.
</event>
<event>
 4    0  0.2176682E-002  0.3474049E+03  0.7546771E-02  0.1063685E+00
         21   -1    0    0  502  501  0.00000000000E+00  0.00000000000E+00  0.20200159510E+04  0.20200159510E+04  0.00000000000E+00 0.  1.
         21   -1    0    0  501  502 -0.00000000000E+00 -0.00000000000E+00 -0.59747118758E+02  0.59747118758E+02  0.00000000000E+00 0.  1.
         25    1    1    2    0    0  0.17822825981E+03  0.12875778740E+03  0.16930217358E+04  0.17118094164E+04  0.12500000000E+03 0.  0.
         25    1    1    2    0    0 -0.17822825981E+03 -0.12875778740E+03  0.26724709644E+03  0.36795365329E+03  0.12500000000E+03 0.  0.
</event>
<event>
 4    0  0.2176682E-002  0.2354265E+03  0.7546771E-02  0.1122878E+00
         21   -1    0    0  502  501  0.00000000000E+00  0.00000000000E+00  0.15865964946E+04  0.15865964946E+04  0.00000000000E+00 0. -1.
         21   -1    0    0  501  502 -0.00000000000E+00 -0.00000000000E+00 -0.34933679244E+02  0.34933679244E+02  0.00000000000E+00 0. -1.
         25    1    1    2    0    0  0.14634551213E+03  0.46716720836E+02  0.33748937684E+03  0.39131003105E+03  0.12500000000E+03 0.  0.
         25    1    1    2    0    0 -0.14634551213E+03 -0.46716720836E+02  0.12141734386E+04  0.12302201428E+04  0.12500000000E+03 0.  0.
</event>
<event>
 4    0  0.2176682E-002  0.1880928E+03  0.7546771E-02  0.1160193E+00
         21   -1    0    0  502  501  0.00000000000E+00  0.00000000000E+00  0.40243754182E+03  0.40243754182E+03  0.00000000000E+00 0.  1.
         21   -1    0    0  501  502 -0.00000000000E+00 -0.00000000000E+00 -0.87911534950E+02  0.87911534950E+02  0.00000000000E+00 0.  1.
         25    1    1    2    0    0  0.11556151053E+03 -0.65255728081E+02  0.96948100367E+02  0.20648657808E+03  0.12500000000E+03 0.  0.
         25    1    1    2    0    0 -0.11556151053E+03  0.65255728081E+02  0.21757790650E+03  0.28386249869E+03  0.12500000000E+03 0.  0.
</event>
<event>
 4    0  0.2176682E-002  0.2831008E+03  0.7546771E-02  0.1094007E+00
         21   -1    0    0  502  501  0.00000000000E+00  0.00000000000E+00  0.90369036461E+03  0.90369036461E+03  0.00000000000E+00 0.  1.
         21   -1    0    0  501  502 -0.00000000000E+00 -0.00000000000E+00 -0.88687532572E+02  0.88687532572E+02  0.00000000000E+00 0.  1.
         25    1    1    2    0    0 -0.24719737206E+03  0.37773100531E+02  0.32935957072E+03  0.43201397513E+03  0.12500000000E+03 0.  0.
         25    1    1    2    0    0  0.24719737206E+03 -0.37773100531E+02  0.48564326131E+03  0.56036392205E+03  0.12500000000E+03 0.  0.
</event>
<event>
 4    0  0.2176682E-002  0.1942843E+03  0.7546771E-02  0.1154653E+00
         21   -1    0    0  502  501  0.00000000000E+00  0.00000000000E+00  0.43915129731E+03  0.43915129731E+03  0.00000000000E+00 0. -1.
         21   -1    0    0  501  502 -0.00000000000E+00 -0.00000000000E+00 -0.85953069076E+02  0.85953069076E+02  0.00000000000E+00 0. -1.
         25    1    1    2    0    0 -0.84887321903E+02  0.75331355231E+02  0.30650565707E+03  0.34993054785E+03  0.12500000000E+03 0.  0.
         25    1    1    2    0    0  0.84887321903E+02 -0.75331355231E+02  0.46692571167E+02  0.17517381854E+03  0.12500000000E+03 0.  0.
</event>
<event>
 4    0  0.2176682E-002  0.2361544E+03  0.7546771E-02  0.1122382E+00
         21   -1    0    0  502  501  0.00000000000E+00  0.00000000000E+00  0.20173520857E+03  0.20173520857E+03  0.00000000000E+00 0. -1.
         21   -1    0    0  501  502 -0.00000000000E+00 -0.00000000000E+00 -0.27644595287E+03  0.27644595287E+03  0.00000000000E+00 0. -1.
         25    1    1    2    0    0  0.64489550391E+02  0.72438461939E+02  0.14014604385E+03  0.21135786355E+03  0.12500000000E+03 0.  0.
         25    1    1    2    0    0 -0.64489550391E+02 -0.72438461939E+02 -0.21485678816E+03  0.26682329789E+03  0.12500000000E+03 0.  0.
</event>
<event>
 4    0  0.2176682E-002  0.2684314E+03  0.7546771E-02  0.1102181E+00
         21   -1    0    0  502  501  0.00000000000E+00  0.00000000000E+00  0.13087677820E+04  0.13087677820E+04  0.00000000000E+00 0.  1.
         21   -1    0    0  501  502 -0.00000000000E+00 -0.00000000000E+00 -0.55055907106E+02  0.55055907106E+02  0.00000000000E+00 0.  1.
         25    1    1    2    0    0 -0.15730545867E+03  0.52234859659E+02  0.19457002796E+03  0.28452765010E+03  0.12500000000E+03 0.  0.
         25    1    1    2    0    0  0.15730545867E+03 -0.52234859659E+02  0.10591418470E+04  0.10792960390E+04  0.12500000000E+03 0.  0.
</event>
<event>
 4    0  0.2176682E-002  0.2902562E+03  0.7546771E-02  0.1090215E+00
         21   -1    0    0  502  501  0.00000000000E+00  0.00000000000E+00  0.41005154181E+03  0.41005154181E+03  0.00000000000E+00 0. -1.
         21   -1    0    0  501  502 -0.00000000000E+00 -0.00000000000E+00 -0.20545877233E+03  0.20545877233E+03  0.00000000000E+00 0. -1.
         25    1    1    2    0    0  0.42965428779E+02 -0.18206987324E+03  0.29673195014E+03  0.37238463589E+03  0.12500000000E+03 0.  0.
         25    1    1    2    0    0 -0.42965428779E+02  0.18206987324E+03 -0.92139180663E+02  0.24312567825E+03  0.12500000000E+03 0.  0.
</event>
<event>
 4    0  0.2176682E-002  0.1989160E+03  0.7546771E-02  0.1150657E+00
         21   -1    0    0  502  501  0.00000000000E+00  0.00000000000E+00  0.10901977613E+04  0.10901977613E+04  0.00000000000E+00 0.  1.
         21   -1    0    0  501  502 -0.00000000000E+00 -0.00000000000E+00 -0.36293936063E+02  0.36293936063E+02  0.00000000000E+00 0.  1.
         25    1    1    2    0    0  0.22947837810E+02  0.10081679711E+03  0.85291469736E+03  0.86820453282E+03  0.12500000000E+03 0.  0.
         25    1    1    2    0    0 -0.22947837810E+02 -0.10081679711E+03  0.20098912787E+03  0.25828716453E+03  0.12500000000E+03 0.  0.
</event>
<event>
 4    0  0.2176682E-002  0.2320707E+03  0.7546771E-02  0.1125191E+00
         21   -1    0    0  502  501  0.00000000000E+00  0.00000000000E+00  0.47003653206E+03  0.47003653206E+03  0.00000000000E+00 0. -1.
         21   -1    0    0  501  502 -0.00000000000E+00 -0.00000000000E+00 -0.11458000279E+03  0.11458000279E+03  0.00000000000E+00 0. -1.
         25    1    1    2    0    0 -0.13238395435E+03 -0.14116066891E+03  0.21290470158E+03  0.31369612330E+03  0.12500000000E+03 0.  0.
         25    1    1    2    0    0  0.13238395435E+03  0.14116066891E+03  0.14255182769E+03  0.27092041155E+03  0.12500000000E+03 0.  0.
</event>
<event>
 4    0  0.2176682E-002  0.1794252E+03  0.7546771E-02  0.1168360E+00
         21   -1    0    0  502  501  0.00000000000E+00  0.00000000000E+00  0.62066923422E+02  0.62066923422E+02  0.00000000000E+00 0.  1.
         21   -1    0    0  501  502 -0.00000000000E+00 -0.00000000000E+00 -0.51868859933E+03  0.51868859933E+03  0.00000000000E+00 0.  1.
         25    1    1    2    0    0  0.67362977742E+02 -0.19258727116E+02 -0.53557992764E+02  0.15297754060E+03  0.12500000000E+03 0.  0.
         25    1    1    2    0    0 -0.67362977742E+02  0.19258727116E+02 -0.40306368315E+03  0.42777798215E+03  0.12500000000E+03 0.  0.
</event>
<event>
 4    0  0.2176682E-002  0.2535820E+03  0.7546771E-02  0.1111062E+00
         21   -1    0    0  502  501  0.00000000000E+00  0.00000000000E+00  0.10604686148E+03  0.10604686148E+03  0.00000000000E+00 0. -1.
         21   -1    0    0  501  502 -0.00000000000E+00 -0.00000000000E+00 -0.60637189988E+03  0.60637189988E+03  0.00000000000E+00 0. -1.
         25    1    1    2    0    0  0.60909923292E+01 -0.12078986387E+03 -0.50937465030E+03  0.53825163796E+03  0.12500000000E+03 0.  0.
         25    1    1    2    0    0 -0.60909923292E+01  0.12078986387E+03  0.90496118987E+01  0.17416712341E+03  0.12500000000E+03 0.  0.
</event>
<event>
 4    0  0.2176682E-002  0.2238850E+03  0.7546771E-02  0.1131019E+00
         21   -1    0    0  502  501  0.00000000000E+00  0.00000000000E+00  0.20078083319E+03  0.20078083319E+03  0.00000000000E+00 0. -1.
         21   -1    0    0  501  502 -0.00000000000E+00 -0.00000000000E+00 -0.24964786413E+03  0.24964786413E+03  0.00000000000E+00 0. -1.
         25    1    1    2    0    0  0.97961013878E+02  0.15669840814E+03 -0.43219376553E+02  0.22725242763E+03  0.12500000000E+03 0.  0.
         25    1    1    2    0    0 -0.97961013878E+02 -0.15669840814E+03 -0.56476543896E+01  0.22317626969E+03  0.12500000000E+03 0.  0.
</event>
<event>
 4    0  0.2176682E-002  0.2175855E+03  0.7546771E-02  0.1135696E+00
         21   -1    0    0  502  501  0.00000000000E+00  0.00000000000E+00  0.66373050172E+03  0.66373050172E+03  0.00000000000E+00 0. -1.
         21   -1    0    0  501  502 -0.00000000000E+00 -0.00000000000E+00 -0.71329304012E+02  0.71329304012E+02  0.00000000000E+00 0. -1.
         25    1    1    2    0    0 -0.14990568907E+03  0.44569342257E+02  0.44012680180E+03  0.48352326061E+03  0.12500000000E+03 0.  0.
         25    1    1    2    0    0  0.14990568907E+03 -0.44569342257E+02  0.15227439591E+03  0.25153654512E+03  0.12500000000E+03 0.  0.
</event>
<event>
 4    0  0.2176682E-002  0.1998234E+03  0.7546771E-02  0.1149888E+00
         21   -1    0    0  502  501  0.00000000000E+00  0.00000000000E+00  0.11506150790E+03  0.11506150790E+03  0.00000000000E+00 0.  1.
         21   -1    0    0  501  502 -0.00000000000E+00 -0.00000000000E+00 -0.34702650301E+03  0.34702650301E+03  0.00000000000E+00 0.  1.
         25    1    1    2    0    0 -0.82156937572E+01 -0.12625787561E+03 -0.22129468637E+03  0.28390999805E+03  0.12500000000E+03 0.  0.
         25    1    1    2    0    0  0.82156937572E+01  0.12625787561E+03 -0.10670308740E+02  0.17817801286E+03  0.12500000000E+03 0.  0.
</event>
<event>
 4    0  0.2176682E-002  0.2839760E+03  0.7546771E-02  0.1093537E+00
         21   -1    0    0  502  501  0.00000000000E+00  0.00000000000E+00  0.28036550613E+03  0.28036550613E+03  0.00000000000E+00 0.  1.
         21   -1    0    0  501  502 -0.00000000000E+00 -0.00000000000E+00 -0.28763292231E+03  0.28763292231E+03  0.00000000000E+00 0.  1.
         25    1    1    2    0    0 -0.25220914121E+03  0.34911328491E+02  0.10118711236E+02  0.28382325501E+03  0.12500000000E+03 0.  0.
         25    1    1    2    0    0  0.25220914121E+03 -0.34911328491E+02 -0.17386127417E+02  0.28417517343E+03  0.12500000000E+03 0.  0.
</event>
<event>
 4    0  0.2176682E-002  0.2266917E+03  0.7546771E-02  0.1128990E+00
         21   -1    0    0  502  501  0.00000000000E+00  0.00000000000E+00  0.43511162181E+03  0.43511162181E+03  0.00000000000E+00 0. -1.
         21   -1    0    0  501  502 -0.00000000000E+00 -0.00000000000E+00 -0.11810562814E+03  0.11810562814E+03  0.00000000000E+00 0. -1.
         25    1    1    2    0    0 -0.18591174237E+03 -0.27249314829E+02  0.13237736910E+03  0.26163804953E+03  0.12500000000E+03 0.  0.
         25    1    1    2    0    0  0.18591174237E+03  0.27249314829E+02  0.18462862457E+03  0.29157920042E+03  0.12500000000E+03 0.  0.
</event>
<event>
 4    0  0.2176682E-002  0.1867688E+03  0.7546771E-02  0.1161408E+00
         21   -1    0    0  502  501  0.00000000000E+00  0.00000000000E+00  0.35205405430E+02  0.35205405430E+02  0.00000000000E+00 0.  1.
         21   -1    0    0  501  502 -0.00000000000E+00 -0.00000000000E+00 -0.99083021963E+03  0.99083021963E+03  0.00000000000E+00 0.  1.
         25    1    1    2    0    0 -0.29284163139E+02 -0.50256667480E+02 -0.82389139410E+03  0.83534742719E+03  0.12500000000E+03 0.  0.
         25    1    1    2    0    0  0.29284163139E+02  0.50256667480E+02 -0.13173342010E+03  0.19068819788E+03  0.12500000000E+03 0.  0.
</event>
<event>
 4    0  0.2176682E-002  0.2578999E+03  0.7546771E-02  0.1108412E+00
         21   -1    0    0  502  501  0.00000000000E+00  0.00000000000E+00  0.11110938365E+03  0.11110938365E+03  0.00000000000E+00 0.  1.
         21   -1    0    0  501  502 -0.00000000000E+00 -0.00000000000E+00 -0.59862069506E+03  0.59862069506E+03  0.00000000000E+00 0.  1.
         25    1    1    2    0    0 -0.28841339523E+01  0.22138026978E+03 -0.30325518840E+03  0.39573507725E+03  0.12500000000E+03 0.  0.
         25    1    1    2    0    0  0.28841339523E+01 -0.22138026978E+03 -0.18425612301E+03  0.31399500146E+03  0.12500000000E+03 0.  0.
</event>
<event>
 4    0  0.2176682E-002  0.2646660E+03  0.7546771E-02  0.1104372E+00
         21   -1    0    0  502  501  0.00000000000E+00  0.00000000000E+00  0.12135355136E+04  0.12135355136E+04  0.00000000000E+00 0. -1.
         21   -1    0    0  501  502 -0.00000000000E+00 -0.00000000000E+00 -0.57722339225E+02  0.57722339225E+02  0.00000000000E+00 0. -1.
         25    1    1    2    0    0  0.13822165300E+03  0.16199079605E+03  0.80671573820E+03  0.84365960293E+03  0.12500000000E+03 0.  0.
         25    1    1    2    0    0 -0.13822165300E+03 -0.16199079605E+03  0.34909743613E+03  0.42759824985E+03  0.12500000000E+03 0.  0.
</event>
<event>
 4    0  0.2176682E-002  0.3165411E+03  0.7546771E-02  0.1077252E+00
         21   -1    0    0  502  501  0.00000000000E+00  0.00000000000E+00  0.71104511706E+03  0.71104511706E+03  0.00000000000E+00 0. -1.
         21   -1    0    0  501  502 -0.00000000000E+00 -0.00000000000E+00 -0.14091685160E+03  0.14091685160E+03  0.00000000000E+00 0. -1.
         25    1    1    2    0    0  0.11786124331E+03 -0.32935822765E+02 -0.69958504581E+02  0.18840178730E+03  0.12500000000E+03 0.  0.
         25    1    1    2    0    0 -0.11786124331E+03  0.32935822765E+02  0.64008677005E+03  0.66356018136E+03  0.12500000000E+03 0.  0.
</event>
<event>
 4    0  0.2176682E-002  0.3075154E+03  0.7546771E-02  0.1081543E+00
         21   -1    0    0  502  501  0.00000000000E+00  0.00000000000E+00  0.27013759305E+03  0.27013759305E+03  0.00000000000E+00 0. -1.
         21   -1    0    0  501  502 -0.00000000000E+00 -0.00000000000E+00 -0.35006501967E+03  0.35006501967E+03  0.00000000000E+00 0. -1.
         25    1    1    2    0    0 -0.15203719863E+03 -0.88785042798E+02 -0.26076298885E+03  0.33855639109E+03  0.12500000000E+03 0.  0.
         25    1    1    2    0    0  0.15203719863E+03  0.88785042798E+02  0.18083556224E+03  0.28164622164E+03  0.12500000000E+03 0.  0.
</event>
<event>
 4    0  0.2176682E-002  0.4719139E+03  0.7546771E-02  0.1021381E+00
         21   -1    0    0  502  501  0.00000000000E+00  0.00000000000E+00  0.31693483279E+03  0.31693483279E+03  0.00000000000E+00 0. -1.
         21   -1    0    0  501  502 -0.00000000000E+00 -0.00000000000E+00 -0.70267673253E+03  0.70267673253E+03  0.00000000000E+00 0. -1.
         25    1    1    2    0    0 -0.58226807000E+02  0.71162515202E+02 -0.67432744051E+03  0.69195156019E+03  0.12500000000E+03 0.  0.
         25    1    1    2    0    0  0.58226807000E+02 -0.71162515202E+02  0.28858554077E+03  0.32766000513E+03  0.12500000000E+03 0.  0.
</event>
<event>
 4    0  0.2176682E-002  0.1860245E+03  0.7546771E-02  0.1162097E+00
         21   -1    0    0  502  501  0.00000000000E+00  0.00000000000E+00  0.24381277116E+03  0.24381277116E+03  0.00000000000E+00 0. -1.
         21   -1    0    0  501  502 -0.00000000000E+00 -0.00000000000E+00 -0.14193316663E+03  0.14193316663E+03  0.00000000000E+00 0. -1.
         25    1    1    2    0    0  0.73553386177E+02  0.11598584634E+03  0.39710494306E+02  0.18990718924E+03  0.12500000000E+03 0.  0.
         25    1    1    2    0    0 -0.73553386177E+02 -0.11598584634E+03  0.62169110222E+02  0.19583874855E+03  0.12500000000E+03 0.  0.
</event>
<event>
 4    0  0.2176682E-002  0.5591446E+03  0.7546771E-02  0.9993992E-01
         21   -1    0    0  502  501  0.00000000000E+00  0.00000000000E+00  0.20341039395E+03  0.20341039395E+03  0.00000000000E+00 0.  1.
         21   -1    0    0  501  502 -0.00000000000E+00 -0.00000000000E+00 -0.15370041935E+04  0.15370041935E+04  0.00000000000E+00 0.  1.
         25    1    1    2    0    0 -0.41901425931E+03  0.95900692949E+02 -0.11882165784E+04  0.12697454586E+04  0.12500000000E+03 0.  0.
         25    1    1    2    0    0  0.41901425931E+03 -0.95900692949E+02 -0.14537722113E+03  0.47066912884E+03  0.12500000000E+03 0.  0.
</event>
<event>
 4    0  0.2176682E-002  0.2229247E+03  0.7546771E-02  0.1131721E+00
         21   -1    0    0  502  501  0.00000000000E+00  0.00000000000E+00  0.43978470851E+02  0.43978470851E+02  0.00000000000E+00 0.  1.
         21   -1    0    0  501  502 -0.00000000000E+00 -0.00000000000E+00 -0.11299945551E+04  0.11299945551E+04  0.00000000000E+00 0.  1.
         25    1    1    2    0    0 -0.77540622405E+02 -0.24889815785E+02 -0.97917135260E+03  0.99047139726E+03  0.12500000000E+03 0.  0.
         25    1    1    2    0    0  0.77540622405E+02  0.24889815785E+02 -0.10684473168E+03  0.18350162871E+03  0.12500000000E+03 0.  0.
</event>
<event>
 4    0  0.2176682E-002  0.2098462E+03  0.7546771E-02  0.1141688E+00
         21   -1    0    0  502  501  0.00000000000E+00  0.00000000000E+00  0.45247360358E+02  0.45247360358E+02  0.00000000000E+00 0. -1.
         21   -1    0    0  501  502 -0.00000000000E+00 -0.00000000000E+00 -0.97321549081E+03  0.97321549081E+03  0.00000000000E+00 0. -1.
         25    1    1    2    0    0  0.15089689192E+03  0.31008154722E+02 -0.62997834101E+03  0.66047640971E+03  0.12500000000E+03 0.  0.
         25    1    1    2    0    0 -0.15089689192E+03 -0.31008154722E+02 -0.29798978944E+03  0.35798644145E+03  0.12500000000E+03 0.  0.
</event>
<event>
 4    0  0.2176682E-002  0.1754294E+03  0.7546771E-02  0.1172301E+00
         21   -1    0    0  502  501  0.00000000000E+00  0.00000000000E+00  0.11753987050E+04  0.11753987050E+04  0.00000000000E+00 0.  1.
         21   -1    0    0  501  502 -0.00000000000E+00 -0.00000000000E+00 -0.26183018669E+02  0.26183018669E+02  0.00000000000E+00 0.  1.
         25    1    1    2    0    0 -0.70439464803E+02  0.59689433155E+02  0.29583876873E+03  0.33417080022E+03  0.12500000000E+03 0.  0.
         25    1    1    2    0    0  0.70439464803E+02 -0.59689433155E+02  0.85337691755E+03  0.86741092340E+03  0.12500000000E+03 0.  0.
</event>
<event>
 4    0  0.2176682E-002  0.1605501E+03  0.7546771E-02  0.1188077E+00
         21   -1    0    0  502  501  0.00000000000E+00  0.00000000000E+00  0.31335103944E+03  0.31335103944E+03  0.00000000000E+00 0.  1.
         21   -1    0    0  501  502 -0.00000000000E+00 -0.00000000000E+00 -0.82260297869E+02  0.82260297869E+02  0.00000000000E+00 0.  1.
         25    1    1    2    0    0  0.97137333061E+02  0.26410882546E+02  0.12079477493E+03  0.20087203350E+03  0.12500000000E+03 0.  0.
         25    1    1    2    0    0 -0.97137333061E+02 -0.26410882546E+02  0.11029596663E+03  0.19473930381E+03  0.12500000000E+03 0.  0.
</event>
<event>
 4    0  0.2176682E-002  0.2907792E+03  0.7546771E-02  0.1089943E+00
         21   -1    0    0  502  501  0.00000000000E+00  0.00000000000E+00  0.42253882412E+03  0.42253882412E+03  0.00000000000E+00 0.  1.
         21   -1    0    0  501  502 -0.00000000000E+00 -0.00000000000E+00 -0.20010601709E+03  0.20010601709E+03  0.00000000000E+00 0.  1.
         25    1    1    2    0    0 -0.26318878926E+02 -0.26654094030E+02  0.38942945582E+03  0.41071087785E+03  0.12500000000E+03 0.  0.
         25    1    1    2    0    0  0.26318878926E+02  0.26654094030E+02 -0.16699664880E+03  0.21193396336E+03  0.12500000000E+03 0.  0.
</event>
<event>
 4    0  0.2176682E-002  0.2552368E+03  0.7546771E-02  0.1110039E+00
         21   -1    0    0  502  501  0.00000000000E+00  0.00000000000E+00  0.30472486830E+03  0.30472486830E+03  0.00000000000E+00 0. -1.
         21   -1    0    0  501  502 -0.00000000000E+00 -0.00000000000E+00 -0.21378571855E+03  0.21378571855E+03  0.00000000000E+00 0. -1.
         25    1    1    2    0    0  0.15008246596E+03  0.21640604400E+02  0.21090733808E+03  0.28827064991E+03  0.12500000000E+03 0.  0.
         25    1    1    2    0    0 -0.15008246596E+03 -0.21640604400E+02 -0.11996818833E+03  0.23023993693E+03  0.12500000000E+03 0.  0.
</event>
<event>
 4    0  0.2176682E-002  0.1712763E+03  0.7546771E-02  0.1176523E+00
         21   -1    0    0  502  501  0.00000000000E+00  0.00000000000E+00  0.44414105527E+02  0.44414105527E+02  0.00000000000E+00 0. -1.
         21   -1    0    0  501  502 -0.00000000000E+00 -0.00000000000E+00 -0.66050148318E+03  0.66050148318E+03  0.00000000000E+00 0. -1.
         25    1    1    2    0    0  0.25856086554E+01 -0.11616305666E+03 -0.33786744112E+03  0.37852337956E+03  0.12500000000E+03 0.  0.
         25    1    1    2    0    0 -0.25856086554E+01  0.11616305666E+03 -0.27821993653E+03  0.32639220914E+03  0.12500000000E+03 0.  0.
</event>
<event>
 4    0  0.2176682E-002  0.2152923E+03  0.7546771E-02  0.1137442E+00
         21   -1    0    0  502  501  0.00000000000E+00  0.00000000000E+00  0.10057255744E+04  0.10057255744E+04  0.00000000000E+00 0.  1.
         21   -1    0    0  501  502 -0.00000000000E+00 -0.00000000000E+00 -0.46086899762E+02  0.46086899762E+02  0.00000000000E+00 0.  1.
         25    1    1    2    0    0  0.52077506194E+02  0.21196536561E+02  0.74260183017E+02  0.15588757037E+03  0.12500000000E+03 0.  0.
         25    1    1    2    0    0 -0.52077506194E+02 -0.21196536561E+02  0.88537849159E+03  0.89592490376E+03  0.12500000000E+03 0.  0.
</event>
<event>
 4    0  0.2176682E-002  0.2126421E+03  0.7546771E-02  0.1139491E+00
         21   -1    0    0  502  501  0.00000000000E+00  0.00000000000E+00  0.19392239311E+03  0.19392239311E+03  0.00000000000E+00 0.  1.
         21   -1    0    0  501  502 -0.00000000000E+00 -0.00000000000E+00 -0.23316890378E+03  0.23316890378E+03  0.00000000000E+00 0.  1.
         25    1    1    2    0    0  0.12591056807E+03 -0.59002619009E+02 -0.12132989666E+03  0.22289173162E+03  0.12500000000E+03 0.  0.
         25    1    1    2    0    0 -0.12591056807E+03  0.59002619009E+02  0.82083385986E+02  0.20419956527E+03  0.12500000000E+03 0.  0.
</event>
<event>
 4    0  0.2176682E-002  0.2708027E+03  0.7546771E-02  0.1100821E+00
         21   -1    0    0  502  501  0.00000000000E+00  0.00000000000E+00  0.40078124689E+03  0.40078124689E+03  0.00000000000E+00 0. -1.
         21   -1    0    0  501  502 -0.00000000000E+00 -0.00000000000E+00 -0.18297791985E+03  0.18297791985E+03  0.00000000000E+00 0. -1.
         25    1    1    2    0    0  0.20411348709E+02 -0.14312819112E+03 -0.97881324826E+02  0.21472786498E+03  0.12500000000E+03 0.  0.
         25    1    1    2    0    0 -0.20411348709E+02  0.14312819112E+03  0.31568465187E+03  0.36903130176E+03  0.12500000000E+03 0.  0.
</event>
<event>
 4    0  0.2176682E-002  0.2484794E+03  0.7546771E-02  0.1114270E+00
         21   -1    0    0  502  501  0.00000000000E+00  0.00000000000E+00  0.34179284498E+03  0.34179284498E+03  0.00000000000E+00 0. -1.
         21   -1    0    0  501  502 -0.00000000000E+00 -0.00000000000E+00 -0.18064161347E+03  0.18064161347E+03  0.00000000000E+00 0. -1.
         25    1    1    2    0    0  0.43655765990E+02 -0.19544892450E+03  0.16208006045E+03  0.28635826160E+03  0.12500000000E+03 0.  0.
         25    1    1    2    0    0 -0.43655765990E+02  0.19544892450E+03 -0.92882894117E+00  0.23607619684E+03  0.12500000000E+03 0.  0.
</event>
<event>
 4    0  0.2176682E-002  0.1827723E+03  0.7546771E-02  0.1165147E+00
         21   -1    0    0  502  501  0.00000000000E+00  0.00000000000E+00  0.27265937691E+03  0.27265937691E+03  0.00000000000E+00 0.  1.
         21   -1    0    0  501  502 -0.00000000000E+00 -0.00000000000E+00 -0.12251810330E+03  0.12251810330E+03  0.00000000000E+00 0.  1.
         25    1    1    2    0    0  0.55316280989E+02  0.12039056678E+03  0.58785253556E+02  0.19140137290E+03  0.12500000000E+03 0.  0.
         25    1    1    2    0    0 -0.55316280989E+02 -0.12039056678E+03  0.91356020055E+02  0.20377610731E+03  0.12500000000E+03 0.  0.
</event>
<event>
 4    0  0.2176682E-002  0.1886989E+03  0.7546771E-02  0.1159640E+00
         21   -1    0    0  502  501  0.00000000000E+00  0.00000000000E+00  0.11571913622E+03  0.11571913622E+03  0.00000000000E+00 0.  1.
         21   -1    0    0  501  502 -0.00000000000E+00 -0.00000000000E+00 -0.30770415487E+03  0.30770415487E+03  0.00000000000E+00 0.  1.
         25    1    1    2    0    0  0.28145239934E+02  0.96631444418E+02 -0.20735732483E+03  0.26220574124E+03  0.12500000000E+03 0.  0.
         25    1    1    2    0    0 -0.28145239934E+02 -0.96631444418E+02  0.15372306169E+02  0.16121754985E+03  0.12500000000E+03 0.  0.
</event>
<event>
 4    0  0.2176682E-002  0.2074779E+03  0.7546771E-02  0.1143579E+00
         21   -1    0    0  502  501  0.00000000000E+00  0.00000000000E+00  0.16567882892E+04  0.16567882892E+04  0.00000000000E+00 0. -1.
         21   -1    0    0  501  502 -0.00000000000E+00 -0.00000000000E+00 -0.25982236204E+02  0.25982236204E+02  0.00000000000E+00 0. -1.
         25    1    1    2    0    0 -0.68572462878E+02 -0.14995136916E+03  0.87749932950E+03  0.90156401273E+03  0.12500000000E+03 0.  0.
         25    1    1    2    0    0  0.68572462878E+02  0.14995136916E+03  0.75330672348E+03  0.78120651266E+03  0.12500000000E+03 0.  0.
</event>
<event>
 4    0  0.2176682E-002  0.2772308E+03  0.7546771E-02  0.1097211E+00
         21   -1    0    0  502  501  0.00000000000E+00  0.00000000000E+00  0.88616448121E+03  0.88616448121E+03  0.00000000000E+00 0. -1.
         21   -1    0    0  501  502 -0.00000000000E+00 -0.00000000000E+00 -0.86729832694E+02  0.86729832694E+02  0.00000000000E+00 0. -1.
         25    1    1    2    0    0 -0.19485965536E+03  0.13435248896E+03  0.27305261182E+03  0.38236580051E+03  0.12500000000E+03 0.  0.
         25    1    1    2    0    0  0.19485965536E+03 -0.13435248896E+03  0.52638203670E+03  0.59052851340E+03  0.12500000000E+03 0.  0.
</event>
<event>
 4    0  0.2176682E-002  0.1927664E+03  0.7546771E-02  0.1155990E+00
         21   -1    0    0  502  501  0.00000000000E+00  0.00000000000E+00  0.93749409108E+02  0.93749409108E+02  0.00000000000E+00 0.  1.
         21   -1    0    0  501  502 -0.00000000000E+00 -0.00000000000E+00 -0.39636402476E+03  0.39636402476E+03  0.00000000000E+00 0.  1.
         25    1    1    2    0    0 -0.84610669070E+02  0.98157557708E+02 -0.23883095152E+03  0.29909713282E+03  0.12500000000E+03 0.  0.
         25    1    1    2    0    0  0.84610669070E+02 -0.98157557708E+02 -0.63783664128E+02  0.19101630105E+03  0.12500000000E+03 0.  0.
</event>
<event>
 4    0  0.2176682E-002  0.2291575E+03  0.7546771E-02  0.1127234E+00
         21   -1    0    0  502  501  0.00000000000E+00  0.00000000000E+00  0.17496044956E+03  0.17496044956E+03  0.00000000000E+00 0. -1.
         21   -1    0    0  501  502 -0.00000000000E+00 -0.00000000000E+00 -0.30014297953E+03  0.30014297953E+03  0.00000000000E+00 0. -1.
         25    1    1    2    0    0  0.94337677447E+02  0.13030705658E+03  0.46174108582E+02  0.20889369231E+03  0.12500000000E+03 0.  0.
         25    1    1    2    0    0 -0.94337677447E+02 -0.13030705658E+03 -0.17135663855E+03  0.26620973678E+03  0.12500000000E+03 0.  0.
</event>
<event>
 4    0  0.2176682E-002  0.1774855E+03  0.7546771E-02  0.1170259E+00
         21   -1    0    0  502  501  0.00000000000E+00  0.00000000000E+00  0.45852214766E+03  0.45852214766E+03  0.00000000000E+00 0.  1.
         21   -1    0    0  501  502 -0.00000000000E+00 -0.00000000000E+00 -0.68701394203E+02  0.68701394203E+02  0.00000000000E+00 0.  1.
         25    1    1    2    0    0 -0.14859939003E+02 -0.11421225179E+03  0.11901886477E+03  0.20749878654E+03  0.12500000000E+03 0.  0.
         25    1    1    2    0    0  0.14859939003E+02  0.11421225179E+03  0.27080188869E+03  0.31972475532E+03  0.12500000000E+03 0.  0.
</event>
<event>
 4    0  0.2176682E-002  0.1337430E+03  0.7546771E-02  0.1222005E+00
         21   -1    0    0  502  501  0.00000000000E+00  0.00000000000E+00  0.11199659025E+03  0.11199659025E+03  0.00000000000E+00 0.  1.
         21   -1    0    0  501  502 -0.00000000000E+00 -0.00000000000E+00 -0.15971200277E+03  0.15971200277E+03  0.00000000000E+00 0.  1.
         25    1    1    2    0    0 -0.91410913561E+01  0.46061520873E+02 -0.31525139317E+02  0.13720079324E+03  0.12500000000E+03 0.  0.
         25    1    1    2    0    0  0.91410913561E+01 -0.46061520873E+02 -0.16190273206E+02  0.13450779978E+03  0.12500000000E+03 0.  0.
</event>
<event>
 4    0  0.2176682E-002  0.2929108E+03  0.7546771E-02  0.1088839E+00
         21   -1    0    0  502  501  0.00000000000E+00  0.00000000000E+00  0.25199004994E+03  0.25199004994E+03  0.00000000000E+00 0. -1.
         21   -1    0    0  501  502 -0.00000000000E+00 -0.00000000000E+00 -0.34047671740E+03  0.34047671740E+03  0.00000000000E+00 0. -1.
         25    1    1    2    0    0  0.19892519764E+03  0.17359803934E+03 -0.22452898888E+02  0.29297891765E+03  0.12500000000E+03 0.  0.
         25    1    1    2    0    0 -0.19892519764E+03 -0.17359803934E+03 -0.66033768576E+02  0.29948784969E+03  0.12500000000E+03 0.  0.
</event>
<event>
 4    0  0.2176682E-002  0.2239277E+03  0.7546771E-02  0.1130988E+00
         21   -1    0    0  502  501  0.00000000000E+00  0.00000000000E+00  0.69572830649E+03  0.69572830649E+03  0.00000000000E+00 0. -1.
         21   -1    0    0  501  502 -0.00000000000E+00 -0.00000000000E+00 -0.72073557920E+02  0.72073557920E+02  0.00000000000E+00 0. -1.
         25    1    1    2    0    0 -0.16028995681E+03  0.56725259219E+02  0.18344218381E+03  0.27961877635E+03  0.12500000000E+03 0.  0.
         25    1    1    2    0    0  0.16028995681E+03 -0.56725259219E+02  0.44021256476E+03  0.48818308805E+03  0.12500000000E+03 0.  0.
</event>
<event>
 4    0  0.2176682E-002  0.2670418E+03  0.7546771E-02  0.1102985E+00
         21   -1    0    0  502  501  0.00000000000E+00  0.00000000000E+00  0.89699893978E+02  0.89699893978E+02  0.00000000000E+00 0.  1.
         21   -1    0    0  501  502 -0.00000000000E+00 -0.00000000000E+00 -0.79499917073E+03  0.79499917073E+03  0.00000000000E+00 0.  1.
         25    1    1    2    0    0  0.14031927647E+03  0.24596077080E+02 -0.66427877418E+03  0.69078633179E+03  0.12500000000E+03 0.  0.
         25    1    1    2    0    0 -0.14031927647E+03 -0.24596077080E+02 -0.41020502568E+02  0.19391273292E+03  0.12500000000E+03 0.  0.
</event>
<event>
 4    0  0.2176682E-002  0.2024903E+03  0.7546771E-02  0.1147655E+00
         21   -1    0    0  502  501  0.00000000000E+00  0.00000000000E+00  0.69808203796E+02  0.69808203796E+02  0.00000000000E+00 0. -1.
         21   -1    0    0  501  502 -0.00000000000E+00 -0.00000000000E+00 -0.58735665673E+03  0.58735665673E+03  0.00000000000E+00 0. -1.
         25    1    1    2    0    0  0.73702985422E+02 -0.32740039323E+01 -0.29665073427E+02  0.14814812096E+03  0.12500000000E+03 0.  0.
         25    1    1    2    0    0 -0.73702985422E+02  0.32740039323E+01 -0.48788337951E+03  0.50901673957E+03  0.12500000000E+03 0.  0.
</event>
<event>
 4    0  0.2176682E-002  0.2180475E+03  0.7546771E-02  0.1135347E+00
         21   -1    0    0  502  501  0.00000000000E+00  0.00000000000E+00  0.25910786090E+03  0.25910786090E+03  0.00000000000E+00 0. -1.
         21   -1    0    0  501  502 -0.00000000000E+00 -0.00000000000E+00 -0.18349386567E+03  0.18349386567E+03  0.00000000000E+00 0. -1.
         25    1    1    2    0    0  0.89968857699E+02 -0.48368801596E+02  0.18657429262E+03  0.24671623982E+03  0.12500000000E+03 0.  0.
         25    1    1    2    0    0 -0.89968857699E+02  0.48368801596E+02 -0.11096029739E+03  0.19588548675E+03  0.12500000000E+03 0.  0.
</event>
<event>
 4    0  0.2176682E-002  0.1854482E+03  0.7546771E-02  0.1162632E+00
         21   -1    0    0  502  501  0.00000000000E+00  0.00000000000E+00  0.28410427616E+02  0.28410427616E+02  0.00000000000E+00 0. -1.
         21   -1    0    0  501  502 -0.00000000000E+00 -0.00000000000E+00 -0.12105076789E+04  0.12105076789E+04  0.00000000000E+00 0. -1.
         25    1    1    2    0    0  0.12541895473E+03 -0.47236860796E+02 -0.49628636106E+03  0.52904289750E+03  0.12500000000E+03 0.  0.
         25    1    1    2    0    0 -0.12541895473E+03  0.47236860796E+02 -0.68581089019E+03  0.70987520898E+03  0.12500000000E+03 0.  0.
</event>
<event>
 4    0  0.2176682E-002  0.2052357E+03  0.7546771E-02  0.1145395E+00
         21   -1    0    0  502  501  0.00000000000E+00  0.00000000000E+00  0.14201246080E+03  0.14201246080E+03  0.00000000000E+00 0.  1.
         21   -1    0    0  501  502 -0.00000000000E+00 -0.00000000000E+00 -0.29660571646E+03  0.29660571646E+03  0.00000000000E+00 0.  1.
         25    1    1    2    0    0  0.14284961961E+03  0.76738312341E+02 -0.62112180472E+02  0.21395725126E+03  0.12500000000E+03 0.  0.
         25    1    1    2    0    0 -0.14284961961E+03 -0.76738312341E+02 -0.92481075187E+02  0.22466092600E+03  0.12500000000E+03 0.  0.
</event>
<event>
 4    0  0.2176682E-002  0.3056728E+03  0.7546771E-02  0.1082439E+00
         21   -1    0    0  502  501  0.00000000000E+00  0.00000000000E+00  0.31656595274E+03  0.31656595274E+03  0.00000000000E+00 0.  1.
         21   -1    0    0  501  502 -0.00000000000E+00 -0.00000000000E+00 -0.29515447652E+03  0.29515447652E+03  0.00000000000E+00 0.  1.
         25    1    1    2    0    0 -0.11650340496E+03 -0.13589973899E+03  0.22477399392E+03  0.31335304493E+03  0.12500000000E+03 0.  0.
         25    1    1    2    0    0  0.11650340496E+03  0.13589973899E+03 -0.20336251769E+03  0.29836738433E+03  0.12500000000E+03 0.  0.
</event>
<event>
 4    0  0.2176682E-002  0.2120508E+03  0.7546771E-02  0.1139952E+00
         21   -1    0    0  502  501  0.00000000000E+00  0.00000000000E+00  0.75597849416E+02  0.75597849416E+02  0.00000000000E+00 0.  1.
         21   -1    0    0  501  502 -0.00000000000E+00 -0.00000000000E+00 -0.59479913699E+03  0.59479913699E+03  0.00000000000E+00 0.  1.
         25    1    1    2    0    0 -0.13076118018E+03 -0.10845053265E+03 -0.29425222205E+03  0.36203504590E+03  0.12500000000E+03 0.  0.
         25    1    1    2    0    0  0.13076118018E+03  0.10845053265E+03 -0.22494906552E+03  0.30836194051E+03  0.12500000000E+03 0.  0.
</event>
<event>
 4    0  0.2176682E-002  0.2009517E+03  0.7546771E-02  0.1148938E+00
         21   -1    0    0  502  501  0.00000000000E+00  0.00000000000E+00  0.13451009393E+03  0.13451009393E+03  0.00000000000E+00 0. -1.
         21   -1    0    0  501  502 -0.00000000000E+00 -0.00000000000E+00 -0.30021245493E+03  0.30021245493E+03  0.00000000000E+00 0. -1.
         25    1    1    2    0    0 -0.10680097515E+03 -0.85016042517E+02 -0.16748662620E+03  0.24962160510E+03  0.12500000000E+03 0.  0.
         25    1    1    2    0    0  0.10680097515E+03  0.85016042517E+02  0.17842651974E+01  0.18510094376E+03  0.12500000000E+03 0.  0.
</event>
<event>
 4    0  0.2176682E-002  0.2990203E+03  0.7546771E-02  0.1085731E+00
         21   -1    0    0  502  501  0.00000000000E+00  0.00000000000E+00  0.61975579353E+03  0.61975579353E+03  0.00000000000E+00 0.  1.
         21   -1    0    0  501  502 -0.00000000000E+00 -0.00000000000E+00 -0.14427156517E+03  0.14427156517E+03  0.00000000000E+00 0.  1.
         25    1    1    2    0    0  0.18425648865E+03  0.41043175239E+02  0.48728397121E+03  0.53731337639E+03  0.12500000000E+03 0.  0.
         25    1    1    2    0    0 -0.18425648865E+03 -0.41043175239E+02 -0.11799742853E+02  0.22671398231E+03  0.12500000000E+03 0.  0.
</event>
<event>
 4    0  0.2176682E-002  0.2901549E+03  0.7546771E-02  0.1090268E+00
         21   -1    0    0  502  501  0.00000000000E+00  0.00000000000E+00  0.87313369379E+03  0.87313369379E+03  0.00000000000E+00 0.  1.
         21   -1    0    0  501  502 -0.00000000000E+00 -0.00000000000E+00 -0.96422637806E+02  0.96422637806E+02  0.00000000000E+00 0.  1.
         25    1    1    2    0    0  0.55037906250E+02 -0.12752815598E+03  0.75921927366E+03  0.78187691306E+03  0.12500000000E+03 0.  0.
         25    1    1    2    0    0 -0.55037906250E+02  0.12752815598E+03  0.17491782329E+02  0.18767941853E+03  0.12500000000E+03 0.  0.
</event>
<event>
 4    0  0.2176682E-002  0.1891756E+03  0.7546771E-02  0.1159207E+00
         21   -1    0    0  502  501  0.00000000000E+00  0.00000000000E+00  0.22786579411E+03  0.22786579411E+03  0.00000000000E+00 0. -1.
         21   -1    0    0  501  502 -0.00000000000E+00 -0.00000000000E+00 -0.15705481002E+03  0.15705481002E+03  0.00000000000E+00 0. -1.
         25    1    1    2    0    0  0.18980503769E+02 -0.14041971430E+03  0.26055525822E+02  0.19074025824E+03  0.12500000000E+03 0.  0.
         25    1    1    2    0    0 -0.18980503769E+02  0.14041971430E+03  0.44755458275E+02  0.19418034589E+03  0.12500000000E+03 0.  0.
</event>
<event>
 4    0  0.2176682E-002  0.2637837E+03  0.7546771E-02  0.1104891E+00
         21   -1    0    0  502  501  0.00000000000E+00  0.00000000000E+00  0.20142183088E+03  0.20142183088E+03  0.00000000000E+00 0. -1.
         21   -1    0    0  501  502 -0.00000000000E+00 -0.00000000000E+00 -0.34545319617E+03  0.34545319617E+03  0.00000000000E+00 0. -1.
         25    1    1    2    0    0 -0.21967546093E+03  0.58500409413E+02 -0.22549125365E+02  0.26040942589E+03  0.12500000000E+03 0.  0.
         25    1    1    2    0    0  0.21967546093E+03 -0.58500409413E+02 -0.12148223992E+03  0.28646560116E+03  0.12500000000E+03 0.  0.
</event>
<event>
 4    0  0.2176682E-002  0.2628401E+03  0.7546771E-02  0.1105449E+00
         21   -1    0    0  502  501  0.00000000000E+00  0.00000000000E+00  0.14875491916E+04  0.14875491916E+04  0.00000000000E+00 0. -1.
         21   -1    0    0  501  502 -0.00000000000E+00 -0.00000000000E+00 -0.46442096440E+02  0.46442096440E+02  0.00000000000E+00 0. -1.
         25    1    1    2    0    0 -0.19197361575E+03 -0.50656240785E+02  0.37478574281E+03  0.44216430983E+03  0.12500000000E+03 0.  0.
         25    1    1    2    0    0  0.19197361575E+03  0.50656240785E+02  0.10663213524E+04  0.10918269783E+04  0.12500000000E+03 0.  0.
</event>
<event>
 4    0  0.2176682E-002  0.2569012E+03  0.7546771E-02  0.1109019E+00
         21   -1    0    0  502  501  0.00000000000E+00  0.00000000000E+00  0.23676186991E+03  0.23676186991E+03  0.00000000000E+00 0.  1.
         21   -1    0    0  501  502 -0.00000000000E+00 -0.00000000000E+00 -0.27875356673E+03  0.27875356673E+03  0.00000000000E+00 0.  1.
         25    1    1    2    0    0  0.14229141212E+03  0.99257385900E+02  0.12186688518E+03  0.24612072713E+03  0.12500000000E+03 0.  0.
         25    1    1    2    0    0 -0.14229141212E+03 -0.99257385900E+02 -0.16385858200E+03  0.26939470951E+03  0.12500000000E+03 0.  0.
</event>
<event>
 4    0  0.2176682E-002  0.2113352E+03  0.7546771E-02  0.1140513E+00
         21   -1    0    0  502  501  0.00000000000E+00  0.00000000000E+00  0.87909213952E+02  0.87909213952E+02  0.00000000000E+00 0.  1.
         21   -1    0    0  501  502 -0.00000000000E+00 -0.00000000000E+00 -0.50805320187E+03  0.50805320187E+03  0.00000000000E+00 0.  1.
         25    1    1    2    0    0  0.10889859129E+03 -0.28789565504E+01 -0.25312459871E+02  0.16772868628E+03  0.12500000000E+03 0.  0.
         25    1    1    2    0    0 -0.10889859129E+03  0.28789565504E+01 -0.39483152804E+03  0.42823372954E+03  0.12500000000E+03 0.  0.
</event>
<event>
 4    0  0.2176682E-002  0.2106014E+03  0.7546771E-02  0.1141091E+00
         21   -1    0    0  502  501  0.00000000000E+00  0.00000000000E+00  0.77706484833E+03  0.77706484833E+03  0.00000000000E+00 0. -1.
         21   -1    0    0  501  502 -0.00000000000E+00 -0.00000000000E+00 -0.57077536453E+02  0.57077536453E+02  0.00000000000E+00 0. -1.
         25    1    1    2    0    0 -0.23008884019E+02  0.98484963112E+02  0.62934926179E+03  0.64956461573E+03  0.12500000000E+03 0.  0.
         25    1    1    2    0    0  0.23008884019E+02 -0.98484963112E+02  0.90638050093E+02  0.18457776905E+03  0.12500000000E+03 0.  0.
</event>
<event>
 4    0  0.2176682E-002  0.1680678E+03  0.7546771E-02  0.1179878E+00
         21   -1    0    0  502  501  0.00000000000E+00  0.00000000000E+00  0.20281173227E+03  0.20281173227E+03  0.00000000000E+00 0.  1.
         21   -1    0    0  501  502 -0.00000000000E+00 -0.00000000000E+00 -0.13927581294E+03  0.13927581294E+03  0.00000000000E+00 0.  1.
         25    1    1    2    0    0 -0.99770604265E+02  0.19938295911E+02 -0.16720850168E+02  0.16203794602E+03  0.12500000000E+03 0.  0.
         25    1    1    2    0    0  0.99770604265E+02 -0.19938295911E+02  0.80256769497E+02  0.18004959919E+03  0.12500000000E+03 0.  0.
</event>
<event>
 4    0  0.2176682E-002  0.2554503E+03  0.7546771E-02  0.1109908E+00
         21   -1    0    0  502  501  0.00000000000E+00  0.00000000000E+00  0.92036371231E+02  0.92036371231E+02  0.00000000000E+00 0.  1.
         21   -1    0    0  501  502 -0.00000000000E+00 -0.00000000000E+00 -0.70901177297E+03  0.70901177297E+03  0.00000000000E+00 0.  1.
         25    1    1    2    0    0 -0.29556090306E+02  0.20812136065E+03 -0.19282488962E+03  0.31143940228E+03  0.12500000000E+03 0.  0.
         25    1    1    2    0    0  0.29556090306E+02 -0.20812136065E+03 -0.42415051213E+03  0.48960874193E+03  0.12500000000E+03 0.  0.
</event>
<event>
 4    0  0.2176682E-002  0.3331937E+03  0.7546771E-02  0.1069732E+00
         21   -1    0    0  502  501  0.00000000000E+00  0.00000000000E+00  0.22744240815E+03  0.22744240815E+03  0.00000000000E+00 0.  1.
         21   -1    0    0  501  502 -0.00000000000E+00 -0.00000000000E+00 -0.48811481770E+03  0.48811481770E+03  0.00000000000E+00 0.  1.
         25    1    1    2    0    0  0.25761061014E+03 -0.91624539300E+02 -0.28458330941E+03  0.41396973640E+03  0.12500000000E+03 0.  0.
         25    1    1    2    0    0 -0.25761061014E+03  0.91624539300E+02  0.23910899867E+02  0.30158748945E+03  0.12500000000E+03 0.  0.
</event>
<event>
 4    0  0.2176682E-002  0.2582998E+03  0.7546771E-02  0.1108169E+00
         21   -1    0    0  502  501  0.00000000000E+00  0.00000000000E+00  0.16009304746E+04  0.16009304746E+04  0.00000000000E+00 0.  1.
         21   -1    0    0  501  502 -0.00000000000E+00 -0.00000000000E+00 -0.41675001727E+02  0.41675001727E+02  0.00000000000E+00 0.  1.
         25    1    1    2    0    0  0.59338560652E+02  0.12331482990E+03  0.20758975528E+03  0.27829142738E+03  0.12500000000E+03 0.  0.
         25    1    1    2    0    0 -0.59338560652E+02 -0.12331482990E+03  0.13516657176E+04  0.13643140490E+04  0.12500000000E+03 0.  0.
</event>
<event>
 4    0  0.2176682E-002  0.1746852E+03  0.7546771E-02  0.1173048E+00
         21   -1    0    0  502  501  0.00000000000E+00  0.00000000000E+00  0.45700972881E+02  0.45700972881E+02  0.00000000000E+00 0.  1.
         21   -1    0    0  501  502 -0.00000000000E+00 -0.00000000000E+00 -0.66770847423E+03  0.66770847423E+03  0.00000000000E+00 0.  1.
         25    1    1    2    0    0 -0.12073284179E+03  0.17692382780E+02 -0.30957819132E+03  0.35546180672E+03  0.12500000000E+03 0.  0.
         25    1    1    2    0    0  0.12073284179E+03 -0.17692382780E+02 -0.31242931003E+03  0.35794764039E+03  0.12500000000E+03 0.  0.
</event>
<event>
 4    0  0.2176682E-002  0.2904159E+03  0.7546771E-02  0.1090132E+00
         21   -1    0    0  502  501  0.00000000000E+00  0.00000000000E+00  0.20433404170E+03  0.20433404170E+03  0.00000000000E+00 0.  1.
         21   -1    0    0  501  502 -0.00000000000E+00 -0.00000000000E+00 -0.41276226281E+03  0.41276226281E+03  0.00000000000E+00 0.  1.
         25    1    1    2    0    0 -0.72569303391E+02 -0.25026002926E+03 -0.13463754915E+03  0.31882386310E+03  0.12500000000E+03 0.  0.
         25    1    1    2    0    0  0.72569303391E+02  0.25026002926E+03 -0.73790671962E+02  0.29827244141E+03  0.12500000000E+03 0.  0.
</event>
<event>
 4    0  0.2176682E-002  0.1874025E+03  0.7546771E-02  0.1160825E+00
         21   -1    0    0  502  501  0.00000000000E+00  0.00000000000E+00  0.13290487028E+04  0.13290487028E+04  0.00000000000E+00 0. -1.
         21   -1    0    0  501  502 -0.00000000000E+00 -0.00000000000E+00 -0.26424698518E+02  0.26424698518E+02  0.00000000000E+00 0. -1.
         25    1    1    2    0    0 -0.51774325258E+02 -0.12959481825E+03  0.66720542114E+03  0.69301044124E+03  0.12500000000E+03 0.  0.
         25    1    1    2    0    0  0.51774325258E+02  0.12959481825E+03  0.63541858319E+03  0.66246296012E+03  0.12500000000E+03 0.  0.
</event>
<event>
 4    0  0.2176682E-002  0.1832933E+03  0.7546771E-02  0.1164653E+00
         21   -1    0    0  502  501  0.00000000000E+00  0.00000000000E+00  0.55280472148E+03  0.55280472148E+03  0.00000000000E+00 0. -1.
         21   -1    0    0  501  502 -0.00000000000E+00 -0.00000000000E+00 -0.60774515307E+02  0.60774515307E+02  0.00000000000E+00 0. -1.
         25    1    1    2    0    0 -0.12316607985E+03  0.52546537269E+02  0.25665597350E+03  0.31532255000E+03  0.12500000000E+03 0.  0.
         25    1    1    2    0    0  0.12316607985E+03 -0.52546537269E+02  0.23537423267E+03  0.29825668678E+03  0.12500000000E+03 0.  0.
</event>
<event>
 4    0  0.2176682E-002  0.2162642E+03  0.7546771E-02  0.1136699E+00
         21   -1    0    0  502  501  0.00000000000E+00  0.00000000000E+00  0.14852995819E+04  0.14852995819E+04  0.00000000000E+00 0.  1.
         21   -1    0    0  501  502 -0.00000000000E+00 -0.00000000000E+00 -0.31488747130E+02  0.31488747130E+02  0.00000000000E+00 0.  1.
         25    1    1    2    0    0  0.83985783641E+02 -0.88627968867E+01  0.12703234339E+04  0.12792493064E+04  0.12500000000E+03 0.  0.
         25    1    1    2    0    0 -0.83985783641E+02  0.88627968867E+01  0.18348740081E+03  0.23753902264E+03  0.12500000000E+03 0.  0.
</event>
<event>
 4    0  0.2176682E-002  0.2500323E+03  0.7546771E-02  0.1113284E+00
         21   -1    0    0  502  501  0.00000000000E+00  0.00000000000E+00  0.38367018016E+03  0.38367018016E+03  0.00000000000E+00 0.  1.
         21   -1    0    0  501  502 -0.00000000000E+00 -0.00000000000E+00 -0.16294242109E+03  0.16294242109E+03  0.00000000000E+00 0.  1.
         25    1    1    2    0    0 -0.92623508653E+02 -0.18797470238E+03  0.17001006885E+03  0.29739204192E+03  0.12500000000E+03 0.  0.
         25    1    1    2    0    0  0.92623508653E+02  0.18797470238E+03  0.50717690218E+02  0.24922055932E+03  0.12500000000E+03 0.  0.
</event>
<event>
 4    0  0.2176682E-002  0.2276900E+03  0.7546771E-02  0.1128276E+00
         21   -1    0    0  502  501  0.00000000000E+00  0.00000000000E+00  0.46606516014E+03  0.46606516014E+03  0.00000000000E+00 0. -1.
         21   -1    0    0  501  502 -0.00000000000E+00 -0.00000000000E+00 -0.11123495211E+03  0.11123495211E+03  0.00000000000E+00 0. -1.
         25    1    1    2    0    0  0.15090205519E+03 -0.29542059072E+02  0.31956843200E+03  0.37602280016E+03  0.12500000000E+03 0.  0.
         25    1    1    2    0    0 -0.15090205519E+03  0.29542059072E+02  0.35261776033E+02  0.20127731209E+03  0.12500000000E+03 0.  0.
</event>
<event>
 4    0  0.2176682E-002  0.2014487E+03  0.7546771E-02  0.1148522E+00
         21   -1    0    0  502  501  0.00000000000E+00  0.00000000000E+00  0.12296277941E+03  0.12296277941E+03  0.00000000000E+00 0. -1.
         21   -1    0    0  501  502 -0.00000000000E+00 -0.00000000000E+00 -0.33003153849E+03  0.33003153849E+03  0.00000000000E+00 0. -1.
         25    1    1    2    0    0 -0.13366284079E+03  0.72629130376E+02 -0.55623058229E+02  0.20459635919E+03  0.12500000000E+03 0.  0.
         25    1    1    2    0    0  0.13366284079E+03 -0.72629130376E+02 -0.15144570085E+03  0.24839795872E+03  0.12500000000E+03 0.  0.
</event>
<event>
 4    0  0.2176682E-002  0.2605619E+03  0.7546771E-02  0.1106806E+00
         21   -1    0    0  502  501  0.00000000000E+00  0.00000000000E+00  0.26499792665E+03  0.26499792665E+03  0.00000000000E+00 0. -1.
         21   -1    0    0  501  502 -0.00000000000E+00 -0.00000000000E+00 -0.25620005376E+03  0.25620005376E+03  0.00000000000E+00 0. -1.
         25    1    1    2    0    0  0.12537488038E+03  0.15342023636E+03 -0.10968244608E+03  0.25867328531E+03  0.12500000000E+03 0.  0.
         25    1    1    2    0    0 -0.12537488038E+03 -0.15342023636E+03  0.11848031897E+03  0.26252469510E+03  0.12500000000E+03 0.  0.
</event>
<event>
 4    0  0.2176682E-002  0.2731024E+03  0.7546771E-02  0.1099517E+00
         21   -1    0    0  502  501  0.00000000000E+00  0.00000000000E+00  0.13079712909E+03  0.13079712909E+03  0.00000000000E+00 0. -1.
         21   -1    0    0  501  502 -0.00000000000E+00 -0.00000000000E+00 -0.57023357466E+03  0.57023357466E+03  0.00000000000E+00 0.  1.
         25    1    1    2    0    0 -0.11231909712E+03  0.21401042590E+03 -0.24964983422E+03  0.36927778392E+03  0.12500000000E+03 0.  0.
         25    1    1    2    0    0  0.11231909712E+03 -0.21401042590E+03 -0.18978661135E+03  0.33175291983E+03  0.12500000000E+03 0.  0.
</event>
<event>
 4    0  0.2176682E-002  0.1937742E+03  0.7546771E-02  0.1155101E+00
         21   -1    0    0  502  501  0.00000000000E+00  0.00000000000E+00  0.33040502117E+03  0.33040502117E+03  0.00000000000E+00 0.  1.
         21   -1    0    0  501  502 -0.00000000000E+00 -0.00000000000E+00 -0.11364369605E+03  0.11364369605E+03  0.00000000000E+00 0.  1.
         25    1    1    2    0    0  0.68210104258E+02 -0.12472373816E+03  0.15582820520E+03  0.24518576370E+03  0.12500000000E+03 0.  0.
         25    1    1    2    0    0 -0.68210104258E+02  0.12472373816E+03  0.60933119920E+02  0.19886295353E+03  0.12500000000E+03 0.  0.
</event>
<event>
 4    0  0.2176682E-002  0.1799450E+03  0.7546771E-02  0.1167856E+00
         21   -1    0    0  502  501  0.00000000000E+00  0.00000000000E+00  0.76568776633E+02  0.76568776633E+02  0.00000000000E+00 0.  1.
         21   -1    0    0  501  502 -0.00000000000E+00 -0.00000000000E+00 -0.42289033881E+03  0.42289033881E+03  0.00000000000E+00 0.  1.
         25    1    1    2    0    0  0.95278694218E+02 -0.52769398235E+02 -0.27023371505E+03  0.31703927156E+03  0.12500000000E+03 0.  0.
         25    1    1    2    0    0 -0.95278694218E+02  0.52769398235E+02 -0.76087847129E+02  0.18241984388E+03  0.12500000000E+03 0.  0.
</event>
<event>
 4    0  0.2176682E-002  0.2229620E+03  0.7546771E-02  0.1131694E+00
         21   -1    0    0  502  501  0.00000000000E+00  0.00000000000E+00  0.46900862552E+03  0.46900862552E+03  0.00000000000E+00 0. -1.
         21   -1    0    0  501  502 -0.00000000000E+00 -0.00000000000E+00 -0.10599388767E+03  0.10599388767E+03  0.00000000000E+00 0. -1.
         25    1    1    2    0    0  0.45822709114E+02  0.17742068757E+03  0.15240928248E+03  0.26913084259E+03  0.12500000000E+03 0.  0.
         25    1    1    2    0    0 -0.45822709114E+02 -0.17742068757E+03  0.21060545537E+03  0.30587167060E+03  0.12500000000E+03 0.  0.
</event>
<event>
 4    0  0.2176682E-002  0.1749140E+03  0.7546771E-02  0.1172818E+00
         21   -1    0    0  502  501  0.00000000000E+00  0.00000000000E+00  0.54896390312E+03  0.54896390312E+03  0.00000000000E+00 0. -1.
         21   -1    0    0  501  502 -0.00000000000E+00 -0.00000000000E+00 -0.55732100562E+02  0.55732100562E+02  0.00000000000E+00 0. -1.
         25    1    1    2    0    0  0.10349988227E+02  0.98070148246E+02  0.37180217339E+03  0.40445856694E+03  0.12500000000E+03 0.  0.
         25    1    1    2    0    0 -0.10349988227E+02 -0.98070148246E+02  0.12142962917E+03  0.20023743674E+03  0.12500000000E+03 0.  0.
</event>
<event>
 4    0  0.2176682E-002  0.2101090E+03  0.7546771E-02  0.1141480E+00
         21   -1    0    0  502  501  0.00000000000E+00  0.00000000000E+00  0.16228711141E+03  0.16228711141E+03  0.00000000000E+00 0. -1.
         21   -1    0    0  501  502 -0.00000000000E+00 -0.00000000000E+00 -0.27202266023E+03  0.27202266023E+03  0.00000000000E+00 0. -1.
         25    1    1    2    0    0  0.99407017080E+02  0.73922746688E+02  0.63761315930E+02  0.18718128360E+03  0.12500000000E+03 0.  0.
         25    1    1    2    0    0 -0.99407017080E+02 -0.73922746688E+02 -0.17349686474E+03  0.24712848803E+03  0.12500000000E+03 0.  0.
</event>
<event>
 4    0  0.2176682E-002  0.2347162E+03  0.7546771E-02  0.1123364E+00
         21   -1    0    0  502  501  0.00000000000E+00  0.00000000000E+00  0.58059211458E+03  0.58059211458E+03  0.00000000000E+00 0.  1.
         21   -1    0    0  501  502 -0.00000000000E+00 -0.00000000000E+00 -0.94888842656E+02  0.94888842656E+02  0.00000000000E+00 0.  1.
         25    1    1    2    0    0 -0.19623102070E+03 -0.11040245931E+02  0.20119182977E+03  0.30778507579E+03  0.12500000000E+03 0.  0.
         25    1    1    2    0    0  0.19623102070E+03  0.11040245931E+02  0.28451144216E+03  0.36769588145E+03  0.12500000000E+03 0.  0.
</event>
<event>
 4    0  0.2176682E-002  0.2284389E+03  0.7546771E-02  0.1127743E+00
         21   -1    0    0  502  501  0.00000000000E+00  0.00000000000E+00  0.48713423668E+02  0.48713423668E+02  0.00000000000E+00 0. -1.
         21   -1    0    0  501  502 -0.00000000000E+00 -0.00000000000E+00 -0.10712516228E+04  0.10712516228E+04  0.00000000000E+00 0. -1.
         25    1    1    2    0    0 -0.34534471914E+02  0.15601893410E+03 -0.25388027124E+03  0.32498419911E+03  0.12500000000E+03 0.  0.
         25    1    1    2    0    0  0.34534471914E+02 -0.15601893410E+03 -0.76865792787E+03  0.79498084733E+03  0.12500000000E+03 0.  0.
</event>
<event>
 4    0  0.2176682E-002  0.1990964E+03  0.7546771E-02  0.1150504E+00
         21   -1    0    0  502  501  0.00000000000E+00  0.00000000000E+00  0.20797068765E+03  0.20797068765E+03  0.00000000000E+00 0. -1.
         21   -1    0    0  501  502 -0.00000000000E+00 -0.00000000000E+00 -0.19060072372E+03  0.19060072372E+03  0.00000000000E+00 0. -1.
         25    1    1    2    0    0  0.13936129174E+03 -0.52999105207E+02  0.50961255606E+02  0.20112812922E+03  0.12500000000E+03 0.  0.
         25    1    1    2    0    0 -0.13936129174E+03  0.52999105207E+02 -0.33591291675E+02  0.19744328215E+03  0.12500000000E+03 0.  0.
</event>
<event>
 4    0  0.2176682E-002  0.1991579E+03  0.7546771E-02  0.1150451E+00
         21   -1    0    0  502  501  0.00000000000E+00  0.00000000000E+00  0.29046357114E+02  0.29046357114E+02  0.00000000000E+00 0. -1.
         21   -1    0    0  501  502 -0.00000000000E+00 -0.00000000000E+00 -0.13655365345E+04  0.13655365345E+04  0.00000000000E+00 0. -1.
         25    1    1    2    0    0 -0.52352892918E+01 -0.12883890368E+03 -0.96967355617E+03  0.98616361568E+03  0.12500000000E+03 0.  0.
         25    1    1    2    0    0  0.52352892918E+01  0.12883890368E+03 -0.36681662125E+03  0.40841927596E+03  0.12500000000E+03 0.  0.
</event>
<event>
 4    0  0.2176682E-002  0.2041162E+03  0.7546771E-02  0.1146312E+00
         21   -1    0    0  502  501  0.00000000000E+00  0.00000000000E+00  0.56701106118E+03  0.56701106118E+03  0.00000000000E+00 0.  1.
         21   -1    0    0  501  502 -0.00000000000E+00 -0.00000000000E+00 -0.73479063974E+02  0.73479063974E+02  0.00000000000E+00 0.  1.
         25    1    1    2    0    0 -0.12380282727E+03  0.94560146794E+02  0.18076472455E+03  0.26938754062E+03  0.12500000000E+03 0.  0.
         25    1    1    2    0    0  0.12380282727E+03 -0.94560146794E+02  0.31276727266E+03  0.37110258453E+03  0.12500000000E+03 0.  0.
</event>
<event>
 4    0  0.2176682E-002  0.1589583E+03  0.7546771E-02  0.1189878E+00
         21   -1    0    0  502  501  0.00000000000E+00  0.00000000000E+00  0.71950340144E+03  0.71950340144E+03  0.00000000000E+00 0.  1.
         21   -1    0    0  501  502 -0.00000000000E+00 -0.00000000000E+00 -0.35118303918E+02  0.35118303918E+02  0.00000000000E+00 0.  1.
         25    1    1    2    0    0  0.55146674911E+02  0.37166292694E+02  0.17069348312E+03  0.22177410635E+03  0.12500000000E+03 0.  0.
         25    1    1    2    0    0 -0.55146674911E+02 -0.37166292694E+02  0.51369161440E+03  0.53284759901E+03  0.12500000000E+03 0.  0.
</event>
<event>
 4    0  0.2176682E-002  0.1922511E+03  0.7546771E-02  0.1156447E+00
         21   -1    0    0  502  501  0.00000000000E+00  0.00000000000E+00  0.14887116625E+03  0.14887116625E+03  0.00000000000E+00 0. -1.
         21   -1    0    0  501  502 -0.00000000000E+00 -0.00000000000E+00 -0.24827160403E+03  0.24827160403E+03  0.00000000000E+00 0. -1.
         25    1    1    2    0    0 -0.88055780693E+02 -0.11323660380E+03 -0.78158400589E+02  0.20569415290E+03  0.12500000000E+03 0.  0.
         25    1    1    2    0    0  0.88055780693E+02  0.11323660380E+03 -0.21242037191E+02  0.19144861738E+03  0.12500000000E+03 0.  0.
</event>
<event>
 4    0  0.2176682E-002  0.2017059E+03  0.7546771E-02  0.1148308E+00
         21   -1    0    0  502  501  0.00000000000E+00  0.00000000000E+00  0.98815162030E+03  0.98815162030E+03  0.00000000000E+00 0.  1.
         21   -1    0    0  501  502 -0.00000000000E+00 -0.00000000000E+00 -0.41173099669E+02  0.41173099669E+02  0.00000000000E+00 0.  1.
         25    1    1    2    0    0  0.37631637968E+02 -0.10395095346E+03  0.76259585739E+03  0.78064036702E+03  0.12500000000E+03 0.  0.
         25    1    1    2    0    0 -0.37631637968E+02  0.10395095346E+03  0.18438266324E+03  0.24868435295E+03  0.12500000000E+03 0.  0.
</event>
<event>
 4    0  0.2176682E-002  0.2839544E+03  0.7546771E-02  0.1093549E+00
         21   -1    0    0  502  501  0.00000000000E+00  0.00000000000E+00  0.22080001230E+04  0.22080001230E+04  0.00000000000E+00 0.  1.
         21   -1    0    0  501  502 -0.00000000000E+00 -0.00000000000E+00 -0.36517263288E+02  0.36517263288E+02  0.00000000000E+00 0.  1.
         25    1    1    2    0    0  0.13387677852E+03  0.21540390394E+03  0.11890523600E+04  0.12222079809E+04  0.12500000000E+03 0.  0.
         25    1    1    2    0    0 -0.13387677852E+03 -0.21540390394E+03  0.98243049965E+03  0.10223094054E+04  0.12500000000E+03 0.  0.
</event>
<event>
 4    0  0.2176682E-002  0.2231421E+03  0.7546771E-02  0.1131562E+00
         21   -1    0    0  502  501  0.00000000000E+00  0.00000000000E+00  0.76329756993E+03  0.76329756993E+03  0.00000000000E+00 0. -1.
         21   -1    0    0  501  502 -0.00000000000E+00 -0.00000000000E+00 -0.65233277175E+02  0.65233277175E+02  0.00000000000E+00 0. -1.
         25    1    1    2    0    0 -0.17741953216E+02 -0.18327017962E+03  0.37923489545E+03  0.43971222585E+03  0.12500000000E+03 0.  0.
         25    1    1    2    0    0  0.17741953216E+02  0.18327017962E+03  0.31882939731E+03  0.38881862125E+03  0.12500000000E+03 0.  0.
</event>
<event>
 4    0  0.2176682E-002  0.1905211E+03  0.7546771E-02  0.1157992E+00
         21   -1    0    0  502  501  0.00000000000E+00  0.00000000000E+00  0.17203852383E+03  0.17203852383E+03  0.00000000000E+00 0.  1.
         21   -1    0    0  501  502 -0.00000000000E+00 -0.00000000000E+00 -0.21098931060E+03  0.21098931060E+03  0.00000000000E+00 0.  1.
         25    1    1    2    0    0  0.80688846280E+02 -0.55207058442E+02 -0.12545143672E+03  0.20229081094E+03  0.12500000000E+03 0.  0.
         25    1    1    2    0    0 -0.80688846280E+02  0.55207058442E+02  0.86500649951E+02  0.18073702348E+03  0.12500000000E+03 0.  0.
</event>
<event>
 4    0  0.2176682E-002  0.1746341E+03  0.7546771E-02  0.1173100E+00
         21   -1    0    0  502  501  0.00000000000E+00  0.00000000000E+00  0.33858142687E+03  0.33858142687E+03  0.00000000000E+00 0.  1.
         21   -1    0    0  501  502 -0.00000000000E+00 -0.00000000000E+00 -0.90073020858E+02  0.90073020858E+02  0.00000000000E+00 0.  1.
         25    1    1    2    0    0  0.26536921071E+02  0.10884815465E+03  0.65140904731E+02  0.18005684219E+03  0.12500000000E+03 0.  0.
         25    1    1    2    0    0 -0.26536921071E+02 -0.10884815465E+03  0.18336750128E+03  0.24859760553E+03  0.12500000000E+03 0.  0.
</event>
<event>
 4    0  0.2176682E-002  0.2453028E+03  0.7546771E-02  0.1116310E+00
         21   -1    0    0  502  501  0.00000000000E+00  0.00000000000E+00  0.31219337590E+04  0.31219337590E+04  0.00000000000E+00 0. -1.
         21   -1    0    0  501  502 -0.00000000000E+00 -0.00000000000E+00 -0.19274419935E+02  0.19274419935E+02  0.00000000000E+00 0. -1.
         25    1    1    2    0    0 -0.17189462922E+03 -0.11752105046E+03  0.17721538904E+04  0.17887183602E+04  0.12500000000E+03 0.  0.
         25    1    1    2    0    0  0.17189462922E+03  0.11752105046E+03  0.13305054487E+04  0.13524898188E+04  0.12500000000E+03 0.  0.
</event>
<event>
 4    0  0.2176682E-002  0.2374212E+03  0.7546771E-02  0.1121523E+00
         21   -1    0    0  502  501  0.00000000000E+00  0.00000000000E+00  0.23061041308E+04  0.23061041308E+04  0.00000000000E+00 0.  1.
         21   -1    0    0  501  502 -0.00000000000E+00 -0.00000000000E+00 -0.24443307314E+02  0.24443307314E+02  0.00000000000E+00 0. -1.
         25    1    1    2    0    0  0.45557317249E+02  0.19647083595E+03  0.11004907530E+04  0.11257802432E+04  0.12500000000E+03 0.  0.
         25    1    1    2    0    0 -0.45557317249E+02 -0.19647083595E+03  0.11811700704E+04  0.12047671948E+04  0.12500000000E+03 0.  0.
</event>
<event>
 4    0  0.2176682E-002  0.2318930E+03  0.7546771E-02  0.1125314E+00
         21   -1    0    0  502  501  0.00000000000E+00  0.00000000000E+00  0.41851306185E+03  0.41851306185E+03  0.00000000000E+00 0. -1.
         21   -1    0    0  501  502 -0.00000000000E+00 -0.00000000000E+00 -0.12848909686E+03  0.12848909686E+03  0.00000000000E+00 0. -1.
         25    1    1    2    0    0  0.56289589827E+02  0.10040755965E+03  0.33111946211E+03  0.37217642879E+03  0.12500000000E+03 0.  0.
         25    1    1    2    0    0 -0.56289589827E+02 -0.10040755965E+03 -0.41095497114E+02  0.17482572992E+03  0.12500000000E+03 0.  0.
</event>
<event>
 4    0  0.2176682E-002  0.2164052E+03  0.7546771E-02  0.1136592E+00
         21   -1    0    0  502  501  0.00000000000E+00  0.00000000000E+00  0.68743272430E+03  0.68743272430E+03  0.00000000000E+00 0.  1.
         21   -1    0    0  501  502 -0.00000000000E+00 -0.00000000000E+00 -0.68124797679E+02  0.68124797679E+02  0.00000000000E+00 0.  1.
         25    1    1    2    0    0 -0.74362658170E+02 -0.14969814191E+03  0.20987564231E+03  0.29599345239E+03  0.12500000000E+03 0.  0.
         25    1    1    2    0    0  0.74362658170E+02  0.14969814191E+03  0.40943228431E+03  0.45956406959E+03  0.12500000000E+03 0.  0.
</event>
<event>
 4    0  0.2176682E-002  0.1475538E+03  0.7546771E-02  0.1203512E+00
         21   -1    0    0  502  501  0.00000000000E+00  0.00000000000E+00  0.24964425270E+03  0.24964425270E+03  0.00000000000E+00 0.  1.
         21   -1    0    0  501  502 -0.00000000000E+00 -0.00000000000E+00 -0.87212586958E+02  0.87212586958E+02  0.00000000000E+00 0.  1.
         25    1    1    2    0    0 -0.70499988533E+02  0.17177900746E+02  0.11511181244E+03  0.18477299050E+03  0.12500000000E+03 0.  0.
         25    1    1    2    0    0  0.70499988533E+02 -0.17177900746E+02  0.47319853309E+02  0.15208384916E+03  0.12500000000E+03 0.  0.
</event>
<event>
 4    0  0.2176682E-002  0.2399600E+03  0.7546771E-02  0.1119819E+00
         21   -1    0    0  502  501  0.00000000000E+00  0.00000000000E+00  0.32040201307E+02  0.32040201307E+02  0.00000000000E+00 0.  1.
         21   -1    0    0  501  502 -0.00000000000E+00 -0.00000000000E+00 -0.17971420584E+04  0.17971420584E+04  0.00000000000E+00 0.  1.
         25    1    1    2    0    0 -0.79559555262E+01 -0.62835078519E+02 -0.16249905555E+04  0.16310214130E+04  0.12500000000E+03 0.  0.
         25    1    1    2    0    0  0.79559555262E+01  0.62835078519E+02 -0.14011130161E+03  0.19816084669E+03  0.12500000000E+03 0.  0.
</event>
<event>
 4    0  0.2176682E-002  0.2719288E+03  0.7546771E-02  0.1100181E+00
         21   -1    0    0  502  501  0.00000000000E+00  0.00000000000E+00  0.75078608700E+03  0.75078608700E+03  0.00000000000E+00 0.  1.
         21   -1    0    0  501  502 -0.00000000000E+00 -0.00000000000E+00 -0.98490456440E+02  0.98490456440E+02  0.00000000000E+00 0.  1.
         25    1    1    2    0    0 -0.87581284471E+02 -0.33291516391E+00  0.67758868897E+03  0.69456606859E+03  0.12500000000E+03 0.  0.
         25    1    1    2    0    0  0.87581284471E+02  0.33291516391E+00 -0.25293058413E+02  0.15471047484E+03  0.12500000000E+03 0.  0.
</event>
<event>
 4    0  0.2176682E-002  0.2827277E+03  0.7546771E-02  0.1094208E+00
         21   -1    0    0  502  501  0.00000000000E+00  0.00000000000E+00  0.45214304787E+03  0.45214304787E+03  0.00000000000E+00 0.  1.
         21   -1    0    0  501  502 -0.00000000000E+00 -0.00000000000E+00 -0.17679133010E+03  0.17679133010E+03  0.00000000000E+00 0.  1.
         25    1    1    2    0    0  0.82935132451E+02 -0.23373376993E+03  0.19653393498E+03  0.34023565216E+03  0.12500000000E+03 0.  0.
         25    1    1    2    0    0 -0.82935132451E+02  0.23373376993E+03  0.78817782783E+02  0.28869872581E+03  0.12500000000E+03 0.  0.
</event>
<event>
 4    0  0.2176682E-002  0.2574987E+03  0.7546771E-02  0.1108655E+00
         21   -1    0    0  502  501  0.00000000000E+00  0.00000000000E+00  0.16295723652E+03  0.16295723652E+03  0.00000000000E+00 0. -1.
         21   -1    0    0  501  502 -0.00000000000E+00 -0.00000000000E+00 -0.40688937009E+03  0.40688937009E+03  0.00000000000E+00 0. -1.
         25    1    1    2    0    0  0.95040096325E+02  0.19102202680E+03 -0.20143841884E+03  0.31894273971E+03  0.12500000000E+03 0.  0.
         25    1    1    2    0    0 -0.95040096325E+02 -0.19102202680E+03 -0.42493714742E+02  0.25090386690E+03  0.12500000000E+03 0.  0.
</event>
<event>
 4    0  0.2176682E-002  0.2072712E+03  0.7546771E-02  0.1143745E+00
         21   -1    0    0  502  501  0.00000000000E+00  0.00000000000E+00  0.63087603563E+03  0.63087603563E+03  0.00000000000E+00 0. -1.
         21   -1    0    0  501  502 -0.00000000000E+00 -0.00000000000E+00 -0.68097913738E+02  0.68097913738E+02  0.00000000000E+00 0. -1.
         25    1    1    2    0    0  0.16370166935E+03  0.93247110195E+01  0.24557488216E+03  0.32065122724E+03  0.12500000000E+03 0.  0.
         25    1    1    2    0    0 -0.16370166935E+03 -0.93247110195E+01  0.31720323973E+03  0.37832272213E+03  0.12500000000E+03 0.  0.
</event>
<event>
 4    0  0.2176682E-002  0.2240739E+03  0.7546771E-02  0.1130882E+00
         21   -1    0    0  502  501  0.00000000000E+00  0.00000000000E+00  0.10100540962E+04  0.10100540962E+04  0.00000000000E+00 0. -1.
         21   -1    0    0  501  502 -0.00000000000E+00 -0.00000000000E+00 -0.49709321150E+02  0.49709321150E+02  0.00000000000E+00 0. -1.
         25    1    1    2    0    0 -0.73397778767E+02 -0.23316838205E+02  0.88046190690E+03  0.89261922362E+03  0.12500000000E+03 0.  0.
         25    1    1    2    0    0  0.73397778767E+02  0.23316838205E+02  0.79882868135E+02  0.16714419372E+03  0.12500000000E+03 0.  0.
</event>
<event>
 4    0  0.2176682E-002  0.4849113E+03  0.7546771E-02  0.1017794E+00
         21   -1    0    0  502  501  0.00000000000E+00  0.00000000000E+00  0.21766615651E+03  0.21766615651E+03  0.00000000000E+00 0. -1.
         21   -1    0    0  501  502 -0.00000000000E+00 -0.00000000000E+00 -0.10802736532E+04  0.10802736532E+04  0.00000000000E+00 0. -1.
         25    1    1    2    0    0  0.23712503755E+03 -0.40349797376E+03 -0.40213203396E+03  0.62958245767E+03  0.12500000000E+03 0.  0.
         25    1    1    2    0    0 -0.23712503755E+03  0.40349797376E+03 -0.46047546274E+03  0.66835735206E+03  0.12500000000E+03 0.  0.
</event>
<event>
 4    0  0.2176682E-002  0.1338108E+03  0.7546771E-02  0.1221908E+00
         21   -1    0    0  502  501  0.00000000000E+00  0.00000000000E+00  0.28962758227E+02  0.28962758227E+02  0.00000000000E+00 0. -1.
         21   -1    0    0  501  502 -0.00000000000E+00 -0.00000000000E+00 -0.61821922429E+03  0.61821922429E+03  0.00000000000E+00 0. -1.
         25    1    1    2    0    0 -0.11355525289E+02  0.16472980001E+02 -0.18977369248E+03  0.22812137423E+03  0.12500000000E+03 0.  0.
         25    1    1    2    0    0  0.11355525289E+02 -0.16472980001E+02 -0.39948277358E+03  0.41906060828E+03  0.12500000000E+03 0.  0.
</event>
<event>
 4    0  0.2176682E-002  0.1499607E+03  0.7546771E-02  0.1200521E+00
         21   -1    0    0  502  501  0.00000000000E+00  0.00000000000E+00  0.12670876575E+03  0.12670876575E+03  0.00000000000E+00 0. -1.
         21   -1    0    0  501  502 -0.00000000000E+00 -0.00000000000E+00 -0.17747945116E+03  0.17747945116E+03  0.00000000000E+00 0. -1.
         25    1    1    2    0    0 -0.17763443645E+02  0.80916203781E+02 -0.24898685187E+02  0.15201288264E+03  0.12500000000E+03 0.  0.
         25    1    1    2    0    0  0.17763443645E+02 -0.80916203781E+02 -0.25872000230E+02  0.15217533427E+03  0.12500000000E+03 0.  0.
</event>
<event>
 4    0  0.2176682E-002  0.1982524E+03  0.7546771E-02  0.1151222E+00
         21   -1    0    0  502  501  0.00000000000E+00  0.00000000000E+00  0.36583237594E+03  0.36583237594E+03  0.00000000000E+00 0.  1.
         21   -1    0    0  501  502 -0.00000000000E+00 -0.00000000000E+00 -0.10743717721E+03  0.10743717721E+03  0.00000000000E+00 0.  1.
         25    1    1    2    0    0 -0.15343140194E+03 -0.10995125931E+02  0.12428930241E+03  0.23395494992E+03  0.12500000000E+03 0.  0.
         25    1    1    2    0    0  0.15343140194E+03  0.10995125931E+02  0.13410589632E+03  0.23931460324E+03  0.12500000000E+03 0.  0.
</event>
<event>
 4    0  0.2176682E-002  0.1997710E+03  0.7546771E-02  0.1149932E+00
         21   -1    0    0  502  501  0.00000000000E+00  0.00000000000E+00  0.12632489394E+03  0.12632489394E+03  0.00000000000E+00 0. -1.
         21   -1    0    0  501  502 -0.00000000000E+00 -0.00000000000E+00 -0.31591921469E+03  0.31591921469E+03  0.00000000000E+00 0. -1.
         25    1    1    2    0    0 -0.14981568666E+03 -0.42873914235E+02 -0.93977173888E+02  0.22077051819E+03  0.12500000000E+03 0.  0.
         25    1    1    2    0    0  0.14981568666E+03  0.42873914235E+02 -0.95617146861E+02  0.22147359044E+03  0.12500000000E+03 0.  0.
</event>
<event>
 4    0  0.2176682E-002  0.1969033E+03  0.7546771E-02  0.1152378E+00
         21   -1    0    0  502  501  0.00000000000E+00  0.00000000000E+00  0.17030694199E+03  0.17030694199E+03  0.00000000000E+00 0. -1.
         21   -1    0    0  501  502 -0.00000000000E+00 -0.00000000000E+00 -0.22765309665E+03  0.22765309665E+03  0.00000000000E+00 0. -1.
         25    1    1    2    0    0  0.71068917042E+02 -0.13179900533E+03 -0.14795235578E+01  0.19506142049E+03  0.12500000000E+03 0.  0.
         25    1    1    2    0    0 -0.71068917042E+02  0.13179900533E+03 -0.55866631098E+02  0.20289861815E+03  0.12500000000E+03 0.  0.
</event>
<event>
 4    0  0.2176682E-002  0.1910089E+03  0.7546771E-02  0.1157555E+00
         21   -1    0    0  502  501  0.00000000000E+00  0.00000000000E+00  0.18428955950E+02  0.18428955950E+02  0.00000000000E+00 0. -1.
         21   -1    0    0  501  502 -0.00000000000E+00 -0.00000000000E+00 -0.19797316339E+04  0.19797316339E+04  0.00000000000E+00 0. -1.
         25    1    1    2    0    0  0.14169579933E+03 -0.53465844754E+01 -0.11241915698E+04  0.11399727940E+04  0.12500000000E+03 0.  0.
         25    1    1    2    0    0 -0.14169579933E+03  0.53465844754E+01 -0.83711110817E+03  0.85818779585E+03  0.12500000000E+03 0.  0.
</event>
<event>
 4    0  0.2176682E-002  0.2576394E+03  0.7546771E-02  0.1108570E+00
         21   -1    0    0  502  501  0.00000000000E+00  0.00000000000E+00  0.26095711701E+03  0.26095711701E+03  0.00000000000E+00 0.  1.
         21   -1    0    0  501  502 -0.00000000000E+00 -0.00000000000E+00 -0.25436394923E+03  0.25436394923E+03  0.00000000000E+00 0.  1.
         25    1    1    2    0    0 -0.15189192569E+02 -0.93238899593E+02 -0.20124125404E+03  0.25504361646E+03  0.12500000000E+03 0.  0.
         25    1    1    2    0    0  0.15189192569E+02  0.93238899593E+02  0.20783442182E+03  0.26027744978E+03  0.12500000000E+03 0.  0.
</event>
<event>
 4    0  0.2176682E-002  0.3037052E+03  0.7546771E-02  0.1083403E+00
         21   -1    0    0  502  501  0.00000000000E+00  0.00000000000E+00  0.37315153452E+03  0.37315153452E+03  0.00000000000E+00 0. -1.
         21   -1    0    0  501  502 -0.00000000000E+00 -0.00000000000E+00 -0.24718336160E+03  0.24718336160E+03  0.00000000000E+00 0. -1.
         25    1    1    2    0    0 -0.17066999846E+03 -0.10533400290E+03  0.25780033060E+03  0.34972776698E+03  0.12500000000E+03 0.  0.
         25    1    1    2    0    0  0.17066999846E+03  0.10533400290E+03 -0.13183215768E+03  0.27060712914E+03  0.12500000000E+03 0.  0.
</event>
<event>
 4    0  0.2176682E-002  0.2007678E+03  0.7546771E-02  0.1149093E+00
         21   -1    0    0  502  501  0.00000000000E+00  0.00000000000E+00  0.23085826758E+03  0.23085826758E+03  0.00000000000E+00 0.  1.
         21   -1    0    0  501  502 -0.00000000000E+00 -0.00000000000E+00 -0.17459932601E+03  0.17459932601E+03  0.00000000000E+00 0.  1.
         25    1    1    2    0    0 -0.88518473590E+02  0.24537379967E+02  0.15683066285E+03  0.22058662696E+03  0.12500000000E+03 0.  0.
         25    1    1    2    0    0  0.88518473590E+02 -0.24537379967E+02 -0.10057172128E+03  0.18487096663E+03  0.12500000000E+03 0.  0.
</event>
<event>
 4    0  0.2176682E-002  0.3022556E+03  0.7546771E-02  0.1084118E+00
         21   -1    0    0  502  501  0.00000000000E+00  0.00000000000E+00  0.22984194925E+03  0.22984194925E+03  0.00000000000E+00 0.  1.
         21   -1    0    0  501  502 -0.00000000000E+00 -0.00000000000E+00 -0.39748382775E+03  0.39748382775E+03  0.00000000000E+00 0.  1.
         25    1    1    2    0    0  0.23339391251E+01 -0.39038609261E+02 -0.36650570781E+03  0.38920546520E+03  0.12500000000E+03 0.  0.
         25    1    1    2    0    0 -0.23339391251E+01  0.39038609261E+02  0.19886382930E+03  0.23812031180E+03  0.12500000000E+03 0.  0.
</event>
<event>
 4    0  0.2176682E-002  0.1845557E+03  0.7546771E-02  0.1163465E+00
         21   -1    0    0  502  501  0.00000000000E+00  0.00000000000E+00  0.34327281108E+03  0.34327281108E+03  0.00000000000E+00 0. -1.
         21   -1    0    0  501  502 -0.00000000000E+00 -0.00000000000E+00 -0.99223725574E+02  0.99223725574E+02  0.00000000000E+00 0. -1.
         25    1    1    2    0    0 -0.11247895511E+03 -0.47192459566E+02  0.50524824035E+02  0.18181419479E+03  0.12500000000E+03 0.  0.
         25    1    1    2    0    0  0.11247895511E+03  0.47192459566E+02  0.19352426147E+03  0.26068234187E+03  0.12500000000E+03 0.  0.
</event>
<event>
 4    0  0.2176682E-002  0.2158184E+03  0.7546771E-02  0.1137040E+00
         21   -1    0    0  502  501  0.00000000000E+00  0.00000000000E+00  0.19627587861E+04  0.19627587861E+04  0.00000000000E+00 0. -1.
         21   -1    0    0  501  502 -0.00000000000E+00 -0.00000000000E+00 -0.23730667497E+02  0.23730667497E+02  0.00000000000E+00 0. -1.
         25    1    1    2    0    0  0.24854516503E+01 -0.16668127495E+03  0.71065164929E+03  0.74056707429E+03  0.12500000000E+03 0.  0.
         25    1    1    2    0    0 -0.24854516503E+01  0.16668127495E+03  0.12283764693E+04  0.12459223793E+04  0.12500000000E+03 0.  0.
</event>
<event>
 4    0  0.2176682E-002  0.1475180E+03  0.7546771E-02  0.1203556E+00
         21   -1    0    0  502  501  0.00000000000E+00  0.00000000000E+00  0.98717130277E+03  0.98717130277E+03  0.00000000000E+00 0. -1.
         21   -1    0    0  501  502 -0.00000000000E+00 -0.00000000000E+00 -0.22044355785E+02  0.22044355785E+02  0.00000000000E+00 0. -1.
         25    1    1    2    0    0  0.46735853441E+02  0.62688695411E+02  0.49876845022E+03  0.52010487352E+03  0.12500000000E+03 0.  0.
         25    1    1    2    0    0 -0.46735853441E+02 -0.62688695411E+02  0.46635849677E+03  0.48911078503E+03  0.12500000000E+03 0.  0.
</event>
<event>
 4    0  0.2176682E-002  0.1991022E+03  0.7546771E-02  0.1150499E+00
         21   -1    0    0  502  501  0.00000000000E+00  0.00000000000E+00  0.78010673080E+02  0.78010673080E+02  0.00000000000E+00 0.  1.
         21   -1    0    0  501  502 -0.00000000000E+00 -0.00000000000E+00 -0.50815695997E+03  0.50815695997E+03  0.00000000000E+00 0.  1.
         25    1    1    2    0    0  0.11437219526E+03  0.10319288367E+03 -0.19013992880E+03  0.27478712272E+03  0.12500000000E+03 0.  0.
         25    1    1    2    0    0 -0.11437219526E+03 -0.10319288367E+03 -0.24000635808E+03  0.31138051032E+03  0.12500000000E+03 0.  0.
</event>
<event>
 4    0  0.2176682E-002  0.2755714E+03  0.7546771E-02  0.1098133E+00
         21   -1    0    0  502  501  0.00000000000E+00  0.00000000000E+00  0.11946456053E+04  0.11946456053E+04  0.00000000000E+00 0.  1.
         21   -1    0    0  501  502 -0.00000000000E+00 -0.00000000000E+00 -0.63566649095E+02  0.63566649095E+02  0.00000000000E+00 0.  1.
         25    1    1    2    0    0  0.17733372142E+03  0.16806241954E+03  0.50858579172E+03  0.57790720117E+03  0.12500000000E+03 0.  0.
         25    1    1    2    0    0 -0.17733372142E+03 -0.16806241954E+03  0.62249316443E+03  0.68030505318E+03  0.12500000000E+03 0.  0.
</event>
<event>
 4    0  0.2176682E-002  0.2389839E+03  0.7546771E-02  0.1120472E+00
         21   -1    0    0  502  501  0.00000000000E+00  0.00000000000E+00  0.67980700194E+03  0.67980700194E+03  0.00000000000E+00 0. -1.
         21   -1    0    0  501  502 -0.00000000000E+00 -0.00000000000E+00 -0.84013985691E+02  0.84013985691E+02  0.00000000000E+00 0. -1.
         25    1    1    2    0    0 -0.18062501442E+03  0.70441887990E+02  0.39770605111E+03  0.45976358980E+03  0.12500000000E+03 0.  0.
         25    1    1    2    0    0  0.18062501442E+03 -0.70441887990E+02  0.19808696514E+03  0.30405739783E+03  0.12500000000E+03 0.  0.
</event>
<event>
 4    0  0.2176682E-002  0.2239821E+03  0.7546771E-02  0.1130949E+00
         21   -1    0    0  502  501  0.00000000000E+00  0.00000000000E+00  0.19013072931E+02  0.19013072931E+02  0.00000000000E+00 0. -1.
         21   -1    0    0  501  502 -0.00000000000E+00 -0.00000000000E+00 -0.26386044726E+04  0.26386044726E+04  0.00000000000E+00 0. -1.
         25    1    1    2    0    0 -0.35128870426E+02  0.18245605818E+03 -0.12841212302E+04  0.13035016627E+04  0.12500000000E+03 0.  0.
         25    1    1    2    0    0  0.35128870426E+02 -0.18245605818E+03 -0.13354701695E+04  0.13541158829E+04  0.12500000000E+03 0.  0.
</event>
<event>
 4    0  0.2176682E-002  0.1974417E+03  0.7546771E-02  0.1151916E+00
         21   -1    0    0  502  501  0.00000000000E+00  0.00000000000E+00  0.68685536592E+02  0.68685536592E+02  0.00000000000E+00 0. -1.
         21   -1    0    0  501  502 -0.00000000000E+00 -0.00000000000E+00 -0.56756067154E+03  0.56756067154E+03  0.00000000000E+00 0. -1.
         25    1    1    2    0    0  0.54149837885E+02  0.14013669881E+03 -0.29465850787E+03  0.35358045132E+03  0.12500000000E+03 0.  0.
         25    1    1    2    0    0 -0.54149837885E+02 -0.14013669881E+03 -0.20421662708E+03  0.28266575681E+03  0.12500000000E+03 0.  0.
</event>
<event>
 4    0  0.2176682E-002  0.2978691E+03  0.7546771E-02  0.1086311E+00
         21   -1    0    0  502  501  0.00000000000E+00  0.00000000000E+00  0.16073307643E+03  0.16073307643E+03  0.00000000000E+00 0. -1.
         21   -1    0    0  501  502 -0.00000000000E+00 -0.00000000000E+00 -0.55200850840E+03  0.55200850840E+03  0.00000000000E+00 0. -1.
         25    1    1    2    0    0 -0.24706199450E+03  0.10980183937E+03 -0.19297516230E+03  0.35490912403E+03  0.12500000000E+03 0.  0.
         25    1    1    2    0    0  0.24706199450E+03 -0.10980183937E+03 -0.19830026967E+03  0.35783246080E+03  0.12500000000E+03 0.  0.
</event>
<event>
 4    0  0.2176682E-002  0.1809773E+03  0.7546771E-02  0.1166861E+00
         21   -1    0    0  502  501  0.00000000000E+00  0.00000000000E+00  0.15322438160E+04  0.15322438160E+04  0.00000000000E+00 0.  1.
         21   -1    0    0  501  502 -0.00000000000E+00 -0.00000000000E+00 -0.21375704200E+02  0.21375704200E+02  0.00000000000E+00 0.  1.
         25    1    1    2    0    0 -0.10222378835E+03  0.80941047692E+02  0.70713190327E+03  0.72983675211E+03  0.12500000000E+03 0.  0.
         25    1    1    2    0    0  0.10222378835E+03 -0.80941047692E+02  0.80373620856E+03  0.82378276812E+03  0.12500000000E+03 0.  0.
</event>
<event>
 4    0  0.2176682E-002  0.2448995E+03  0.7546771E-02  0.1116571E+00
         21   -1    0    0  502  501  0.00000000000E+00  0.00000000000E+00  0.86730914197E+02  0.86730914197E+02  0.00000000000E+00 0. -1.
         21   -1    0    0  501  502 -0.00000000000E+00 -0.00000000000E+00 -0.69151515539E+03  0.69151515539E+03  0.00000000000E+00 0. -1.
         25    1    1    2    0    0  0.14610479221E+03  0.10557590283E+03 -0.47541450273E+03  0.52358077789E+03  0.12500000000E+03 0.  0.
         25    1    1    2    0    0 -0.14610479221E+03 -0.10557590283E+03 -0.12936973846E+03  0.25466529170E+03  0.12500000000E+03 0.  0.
</event>
<event>
 4    0  0.2176682E-002  0.2803407E+03  0.7546771E-02  0.1095503E+00
         21   -1    0    0  502  501  0.00000000000E+00  0.00000000000E+00  0.11615915536E+03  0.11615915536E+03  0.00000000000E+00 0. -1.
         21   -1    0    0  501  502 -0.00000000000E+00 -0.00000000000E+00 -0.67657974693E+03  0.67657974693E+03  0.00000000000E+00 0. -1.
         25    1    1    2    0    0  0.70498158471E+02 -0.20107835401E+03 -0.92832247410E+02  0.26390399951E+03  0.12500000000E+03 0.  0.
         25    1    1    2    0    0 -0.70498158471E+02  0.20107835401E+03 -0.46758834417E+03  0.52883490278E+03  0.12500000000E+03 0.  0.
</event>
<event>
 4    0  0.2176682E-002  0.1653320E+03  0.7546771E-02  0.1182805E+00
         21   -1    0    0  502  501  0.00000000000E+00  0.00000000000E+00  0.12134230627E+04  0.12134230627E+04  0.00000000000E+00 0.  1.
         21   -1    0    0  501  502 -0.00000000000E+00 -0.00000000000E+00 -0.22526895507E+02  0.22526895507E+02  0.00000000000E+00 0.  1.
         25    1    1    2    0    0  0.10045831013E+02  0.88187804722E+01  0.99681994487E+03  0.10047157270E+04  0.12500000000E+03 0.  0.
         25    1    1    2    0    0 -0.10045831013E+02 -0.88187804722E+01  0.19407622237E+03  0.23123423124E+03  0.12500000000E+03 0.  0.
</event>
<event>
 4    0  0.2176682E-002  0.1979637E+03  0.7546771E-02  0.1151469E+00
         21   -1    0    0  502  501  0.00000000000E+00  0.00000000000E+00  0.73682008153E+03  0.73682008153E+03  0.00000000000E+00 0. -1.
         21   -1    0    0  501  502 -0.00000000000E+00 -0.00000000000E+00 -0.53187496875E+02  0.53187496875E+02  0.00000000000E+00 0. -1.
         25    1    1    2    0    0 -0.14269342147E+03  0.46322405307E+02  0.27693145508E+03  0.33885573416E+03  0.12500000000E+03 0.  0.
         25    1    1    2    0    0  0.14269342147E+03 -0.46322405307E+02  0.40670112958E+03  0.45115184424E+03  0.12500000000E+03 0.  0.
</event>
<event>
 4    0  0.2176682E-002  0.2866299E+03  0.7546771E-02  0.1092122E+00
         21   -1    0    0  502  501  0.00000000000E+00  0.00000000000E+00  0.51878294779E+02  0.51878294779E+02  0.00000000000E+00 0.  1.
         21   -1    0    0  501  502 -0.00000000000E+00 -0.00000000000E+00 -0.15836434573E+04  0.15836434573E+04  0.00000000000E+00 0.  1.
         25    1    1    2    0    0 -0.24589114267E+03  0.75192930943E+02 -0.82402339953E+03  0.87221327316E+03  0.12500000000E+03 0.  0.
         25    1    1    2    0    0  0.24589114267E+03 -0.75192930943E+02 -0.70774176300E+03  0.76330847893E+03  0.12500000000E+03 0.  0.
</event>
<event>
 4    0  0.2176682E-002  0.2256961E+03  0.7546771E-02  0.1129706E+00
         21   -1    0    0  502  501  0.00000000000E+00  0.00000000000E+00  0.49599884138E+03  0.49599884138E+03  0.00000000000E+00 0.  1.
         21   -1    0    0  501  502 -0.00000000000E+00 -0.00000000000E+00 -0.10269931763E+03  0.10269931763E+03  0.00000000000E+00 0.  1.
         25    1    1    2    0    0  0.21727553756E+02 -0.18657351581E+03  0.18914931132E+03  0.29442184933E+03  0.12500000000E+03 0.  0.
         25    1    1    2    0    0 -0.21727553756E+02  0.18657351581E+03  0.20415021243E+03  0.30427630967E+03  0.12500000000E+03 0.  0.
</event>
<event>
 4    0  0.2176682E-002  0.2436198E+03  0.7546771E-02  0.1117405E+00
         21   -1    0    0  502  501  0.00000000000E+00  0.00000000000E+00  0.10785806498E+03  0.10785806498E+03  0.00000000000E+00 0. -1.
         21   -1    0    0  501  502 -0.00000000000E+00 -0.00000000000E+00 -0.55026570854E+03  0.55026570854E+03  0.00000000000E+00 0. -1.
         25    1    1    2    0    0  0.49138325342E+02  0.14664106860E+03 -0.31105201952E+02  0.20127272942E+03  0.12500000000E+03 0.  0.
         25    1    1    2    0    0 -0.49138325342E+02 -0.14664106860E+03 -0.41130244162E+03  0.45685104410E+03  0.12500000000E+03 0.  0.
</event>
<event>
 4    0  0.2176682E-002  0.1940918E+03  0.7546771E-02  0.1154822E+00
         21   -1    0    0  502  501  0.00000000000E+00  0.00000000000E+00  0.13964835652E+03  0.13964835652E+03  0.00000000000E+00 0.  1.
         21   -1    0    0  501  502 -0.00000000000E+00 -0.00000000000E+00 -0.26976051179E+03  0.26976051179E+03  0.00000000000E+00 0.  1.
         25    1    1    2    0    0 -0.17711704408E+02 -0.86067737203E+02 -0.19128860759E+03  0.24482175405E+03  0.12500000000E+03 0.  0.
         25    1    1    2    0    0  0.17711704408E+02  0.86067737203E+02  0.61176452321E+02  0.16458711426E+03  0.12500000000E+03 0.  0.
</event>
<event>
 4    0  0.2176682E-002  0.2234627E+03  0.7546771E-02  0.1131327E+00
         21   -1    0    0  502  501  0.00000000000E+00  0.00000000000E+00  0.87860196783E+02  0.87860196783E+02  0.00000000000E+00 0.  1.
         21   -1    0    0  501  502 -0.00000000000E+00 -0.00000000000E+00 -0.56835274749E+03  0.56835274749E+03  0.00000000000E+00 0.  1.
         25    1    1    2    0    0 -0.14856635581E+03  0.22816947586E+02 -0.81305018013E+02  0.21172642993E+03  0.12500000000E+03 0.  0.
         25    1    1    2    0    0  0.14856635581E+03 -0.22816947586E+02 -0.39918753269E+03  0.44448651434E+03  0.12500000000E+03 0.  0.
</event>
<event>
 4    0  0.2176682E-002  0.2670517E+03  0.7546771E-02  0.1102979E+00
         21   -1    0    0  502  501  0.00000000000E+00  0.00000000000E+00  0.70827709018E+02  0.70827709018E+02  0.00000000000E+00 0.  1.
         21   -1    0    0  501  502 -0.00000000000E+00 -0.00000000000E+00 -0.10069026093E+04  0.10069026093E+04  0.00000000000E+00 0.  1.
         25    1    1    2    0    0  0.54349035900E+02 -0.60759813985E+02 -0.91491312442E+03  0.92700409812E+03  0.12500000000E+03 0.  0.
         25    1    1    2    0    0 -0.54349035900E+02  0.60759813985E+02 -0.21161775869E+02  0.15072622020E+03  0.12500000000E+03 0.  0.
</event>
<event>
 4    0  0.2176682E-002  0.2676614E+03  0.7546771E-02  0.1102626E+00
         21   -1    0    0  502  501  0.00000000000E+00  0.00000000000E+00  0.66058344693E+03  0.66058344693E+03  0.00000000000E+00 0. -1.
         21   -1    0    0  501  502 -0.00000000000E+00 -0.00000000000E+00 -0.10845356983E+03  0.10845356983E+03  0.00000000000E+00 0. -1.
         25    1    1    2    0    0  0.10603820078E+03 -0.77847115067E+01  0.57983715537E+03  0.60261167306E+03  0.12500000000E+03 0.  0.
         25    1    1    2    0    0 -0.10603820078E+03  0.77847115067E+01 -0.27707278261E+02  0.16642534370E+03  0.12500000000E+03 0.  0.
</event>
<event>
 4    0  0.2176682E-002  0.1699716E+03  0.7546771E-02  0.1177878E+00
         21   -1    0    0  502  501  0.00000000000E+00  0.00000000000E+00  0.42476986721E+02  0.42476986721E+02  0.00000000000E+00 0. -1.
         21   -1    0    0  501  502 -0.00000000000E+00 -0.00000000000E+00 -0.68014076956E+03  0.68014076956E+03  0.00000000000E+00 0. -1.
         25    1    1    2    0    0 -0.44583231985E+02  0.90481285258E+02 -0.20065351128E+03  0.25702404390E+03  0.12500000000E+03 0.  0.
         25    1    1    2    0    0  0.44583231985E+02 -0.90481285258E+02 -0.43701027156E+03  0.46559371238E+03  0.12500000000E+03 0.  0.
</event>
<event>
 4    0  0.2176682E-002  0.2065825E+03  0.7546771E-02  0.1144301E+00
         21   -1    0    0  502  501  0.00000000000E+00  0.00000000000E+00  0.14033901938E+03  0.14033901938E+03  0.00000000000E+00 0.  1.
         21   -1    0    0  501  502 -0.00000000000E+00 -0.00000000000E+00 -0.30409452033E+03  0.30409452033E+03  0.00000000000E+00 0.  1.
         25    1    1    2    0    0 -0.14430587762E+03  0.73449909080E+02 -0.50845693737E+02  0.21078273182E+03  0.12500000000E+03 0.  0.
         25    1    1    2    0    0  0.14430587762E+03 -0.73449909080E+02 -0.11290980721E+03  0.23365080789E+03  0.12500000000E+03 0.  0.
</event>
<event>
 4    0  0.2176682E-002  0.2061468E+03  0.7546771E-02  0.1144654E+00
         21   -1    0    0  502  501  0.00000000000E+00  0.00000000000E+00  0.34544091122E+03  0.34544091122E+03  0.00000000000E+00 0.  1.
         21   -1    0    0  501  502 -0.00000000000E+00 -0.00000000000E+00 -0.12302101910E+03  0.12302101910E+03  0.00000000000E+00 0.  1.
         25    1    1    2    0    0  0.15605921457E+03 -0.42982626646E+02  0.81810053524E+02  0.22027226222E+03  0.12500000000E+03 0.  0.
         25    1    1    2    0    0 -0.15605921457E+03  0.42982626646E+02  0.14060983859E+03  0.24818966810E+03  0.12500000000E+03 0.  0.
</event>
<event>
 4    0  0.2176682E-002  0.1813028E+03  0.7546771E-02  0.1166548E+00
         21   -1    0    0  502  501  0.00000000000E+00  0.00000000000E+00  0.17990439414E+02  0.17990439414E+02  0.00000000000E+00 0. -1.
         21   -1    0    0  501  502 -0.00000000000E+00 -0.00000000000E+00 -0.18271216001E+04  0.18271216001E+04  0.00000000000E+00 0. -1.
         25    1    1    2    0    0  0.11529912406E+03 -0.31050734893E+02 -0.62643067959E+03  0.64984492956E+03  0.12500000000E+03 0.  0.
         25    1    1    2    0    0 -0.11529912406E+03  0.31050734893E+02 -0.11827004811E+04  0.11952671099E+04  0.12500000000E+03 0.  0.
</event>
<event>
 4    0  0.2176682E-002  0.2092002E+03  0.7546771E-02  0.1142201E+00
         21   -1    0    0  502  501  0.00000000000E+00  0.00000000000E+00  0.91474307080E+02  0.91474307080E+02  0.00000000000E+00 0.  1.
         21   -1    0    0  501  502 -0.00000000000E+00 -0.00000000000E+00 -0.47843731142E+03  0.47843731142E+03  0.00000000000E+00 0.  1.
         25    1    1    2    0    0 -0.97722896066E+02  0.12296500659E+03 -0.27371447783E+03  0.33943301642E+03  0.12500000000E+03 0.  0.
         25    1    1    2    0    0  0.97722896066E+02 -0.12296500659E+03 -0.11324852651E+03  0.23047860208E+03  0.12500000000E+03 0.  0.
</event>
<event>
 4    0  0.2176682E-002  0.2329867E+03  0.7546771E-02  0.1124555E+00
         21   -1    0    0  502  501  0.00000000000E+00  0.00000000000E+00  0.45547452559E+03  0.45547452559E+03  0.00000000000E+00 0. -1.
         21   -1    0    0  501  502 -0.00000000000E+00 -0.00000000000E+00 -0.11917854380E+03  0.11917854380E+03  0.00000000000E+00 0. -1.
         25    1    1    2    0    0 -0.40156840845E+02  0.15370256464E+03  0.31101530840E+03  0.37093472782E+03  0.12500000000E+03 0.  0.
         25    1    1    2    0    0  0.40156840845E+02 -0.15370256464E+03  0.25280673386E+02  0.20371834157E+03  0.12500000000E+03 0.  0.
</event>
<event>
 4    0  0.2176682E-002  0.2191406E+03  0.7546771E-02  0.1134525E+00
         21   -1    0    0  502  501  0.00000000000E+00  0.00000000000E+00  0.14319417657E+04  0.14319417657E+04  0.00000000000E+00 0.  1.
         21   -1    0    0  501  502 -0.00000000000E+00 -0.00000000000E+00 -0.33536699359E+02  0.33536699359E+02  0.00000000000E+00 0.  1.
         25    1    1    2    0    0 -0.50618262934E+02 -0.12623904355E+03  0.30499957135E+03  0.35657852316E+03  0.12500000000E+03 0.  0.
         25    1    1    2    0    0  0.50618262934E+02  0.12623904355E+03  0.10934054950E+04  0.11088999419E+04  0.12500000000E+03 0.  0.
</event>
<event>
 4    0  0.2176682E-002  0.2801372E+03  0.7546771E-02  0.1095614E+00
         21   -1    0    0  502  501  0.00000000000E+00  0.00000000000E+00  0.12535681346E+03  0.12535681346E+03  0.00000000000E+00 0. -1.
         21   -1    0    0  501  502 -0.00000000000E+00 -0.00000000000E+00 -0.62602770829E+03  0.62602770829E+03  0.00000000000E+00 0. -1.
         25    1    1    2    0    0  0.20661378059E+03 -0.51866075876E+02 -0.42760696194E+03  0.49381378885E+03  0.12500000000E+03 0.  0.
         25    1    1    2    0    0 -0.20661378059E+03  0.51866075876E+02 -0.73063932881E+02  0.25757073289E+03  0.12500000000E+03 0.  0.
</event>
<event>
 4    0  0.2176682E-002  0.2264119E+03  0.7546771E-02  0.1129191E+00
         21   -1    0    0  502  501  0.00000000000E+00  0.00000000000E+00  0.79127092816E+03  0.79127092816E+03  0.00000000000E+00 0. -1.
         21   -1    0    0  501  502 -0.00000000000E+00 -0.00000000000E+00 -0.64784805611E+02  0.64784805611E+02  0.00000000000E+00 0. -1.
         25    1    1    2    0    0 -0.86099319203E+02  0.16313197184E+03  0.43915015327E+03  0.49244592609E+03  0.12500000000E+03 0.  0.
         25    1    1    2    0    0  0.86099319203E+02 -0.16313197184E+03  0.28733596928E+03  0.36360980769E+03  0.12500000000E+03 0.  0.
</event>
<event>
 4    0  0.2176682E-002  0.2456089E+03  0.7546771E-02  0.1116112E+00
         21   -1    0    0  502  501  0.00000000000E+00  0.00000000000E+00  0.46269613368E+02  0.46269613368E+02  0.00000000000E+00 0. -1.
         21   -1    0    0  501  502 -0.00000000000E+00 -0.00000000000E+00 -0.13037439827E+04  0.13037439827E+04  0.00000000000E+00 0. -1.
         25    1    1    2    0    0 -0.17620487581E+03  0.11106135655E+03 -0.52903992422E+03  0.58214347424E+03  0.12500000000E+03 0.  0.
         25    1    1    2    0    0  0.17620487581E+03 -0.11106135655E+03 -0.72843444516E+03  0.76787012187E+03  0.12500000000E+03 0.  0.
</event>
<event>
 4    0  0.2176682E-002  0.2227437E+03  0.7546771E-02  0.1131854E+00
         21   -1    0    0  502  501  0.00000000000E+00  0.00000000000E+00  0.14907833128E+03  0.14907833128E+03  0.00000000000E+00 0.  1.
         21   -1    0    0  501  502 -0.00000000000E+00 -0.00000000000E+00 -0.33281005020E+03  0.33281005020E+03  0.00000000000E+00 0.  1.
         25    1    1    2    0    0 -0.10470656409E+03  0.12290713914E+03  0.44011194497E+01  0.20424005304E+03  0.12500000000E+03 0.  0.
         25    1    1    2    0    0  0.10470656409E+03 -0.12290713914E+03 -0.18813283837E+03  0.27764832844E+03  0.12500000000E+03 0.  0.
</event>
<event>
 4    0  0.2176682E-002  0.1935601E+03  0.7546771E-02  0.1155289E+00
         21   -1    0    0  502  501  0.00000000000E+00  0.00000000000E+00  0.12342547715E+03  0.12342547715E+03  0.00000000000E+00 0.  1.
         21   -1    0    0  501  502 -0.00000000000E+00 -0.00000000000E+00 -0.30354749960E+03  0.30354749960E+03  0.00000000000E+00 0.  1.
         25    1    1    2    0    0 -0.11886669378E+03 -0.73400158659E+02 -0.14322741478E+03  0.23591516807E+03  0.12500000000E+03 0.  0.
         25    1    1    2    0    0  0.11886669378E+03  0.73400158659E+02 -0.36894607670E+02  0.19105780868E+03  0.12500000000E+03 0.  0.
</event>
<event>
 4    0  0.2176682E-002  0.3384253E+03  0.7546771E-02  0.1067469E+00
         21   -1    0    0  502  501  0.00000000000E+00  0.00000000000E+00  0.23286580099E+03  0.23286580099E+03  0.00000000000E+00 0. -1.
         21   -1    0    0  501  502 -0.00000000000E+00 -0.00000000000E+00 -0.49183552220E+03  0.49183552220E+03  0.00000000000E+00 0. -1.
         25    1    1    2    0    0  0.55306028269E+02  0.25073177729E+03 -0.32393193140E+03  0.43183570613E+03  0.12500000000E+03 0.  0.
         25    1    1    2    0    0 -0.55306028269E+02 -0.25073177729E+03  0.64962210196E+02  0.29286561707E+03  0.12500000000E+03 0.  0.
</event>
<event>
 4    0  0.2176682E-002  0.3612996E+03  0.7546771E-02  0.1058070E+00
         21   -1    0    0  502  501  0.00000000000E+00  0.00000000000E+00  0.52889590031E+03  0.52889590031E+03  0.00000000000E+00 0. -1.
         21   -1    0    0  501  502 -0.00000000000E+00 -0.00000000000E+00 -0.24681110664E+03  0.24681110664E+03  0.00000000000E+00 0. -1.
         25    1    1    2    0    0 -0.48145692266E+02 -0.33546107055E+03  0.13271018213E+03  0.38482350498E+03  0.12500000000E+03 0.  0.
         25    1    1    2    0    0  0.48145692266E+02  0.33546107055E+03  0.14937461154E+03  0.39088350197E+03  0.12500000000E+03 0.  0.
</event>
<event>
 4    0  0.2176682E-002  0.2394980E+03  0.7546771E-02  0.1120128E+00
         21   -1    0    0  502  501  0.00000000000E+00  0.00000000000E+00  0.35647132907E+03  0.35647132907E+03  0.00000000000E+00 0.  1.
         21   -1    0    0  501  502 -0.00000000000E+00 -0.00000000000E+00 -0.16090852404E+03  0.16090852404E+03  0.00000000000E+00 0.  1.
         25    1    1    2    0    0 -0.85377384320E+02  0.18535508451E+03  0.10794099945E+03  0.26253012107E+03  0.12500000000E+03 0.  0.
         25    1    1    2    0    0  0.85377384320E+02 -0.18535508451E+03  0.87621805589E+02  0.25484973204E+03  0.12500000000E+03 0.  0.
</event>
<event>
 4    0  0.2176682E-002  0.2025568E+03  0.7546771E-02  0.1147600E+00
         21   -1    0    0  502  501  0.00000000000E+00  0.00000000000E+00  0.56001818341E+03  0.56001818341E+03  0.00000000000E+00 0. -1.
         21   -1    0    0  501  502 -0.00000000000E+00 -0.00000000000E+00 -0.73264130149E+02  0.73264130149E+02  0.00000000000E+00 0. -1.
         25    1    1    2    0    0  0.12019602711E+03  0.14365471930E+02  0.81292761027E+02  0.19205979462E+03  0.12500000000E+03 0.  0.
         25    1    1    2    0    0 -0.12019602711E+03 -0.14365471930E+02  0.40546129224E+03  0.44122251894E+03  0.12500000000E+03 0.  0.
</event>
<event>
 4    0  0.2176682E-002  0.1999562E+03  0.7546771E-02  0.1149776E+00
         21   -1    0    0  502  501  0.00000000000E+00  0.00000000000E+00  0.16526797674E+03  0.16526797674E+03  0.00000000000E+00 0.  1.
         21   -1    0    0  501  502 -0.00000000000E+00 -0.00000000000E+00 -0.24192522080E+03  0.24192522080E+03  0.00000000000E+00 0.  1.
         25    1    1    2    0    0 -0.87635884987E+02  0.89830089543E+02  0.56139804138E+02  0.18581219264E+03  0.12500000000E+03 0.  0.
         25    1    1    2    0    0  0.87635884987E+02 -0.89830089543E+02 -0.13279704820E+03  0.22138100491E+03  0.12500000000E+03 0.  0.
</event>
<event>
 4    0  0.2176682E-002  0.1570676E+03  0.7546771E-02  0.1192048E+00
         21   -1    0    0  502  501  0.00000000000E+00  0.00000000000E+00  0.43362737762E+03  0.43362737762E+03  0.00000000000E+00 0.  1.
         21   -1    0    0  501  502 -0.00000000000E+00 -0.00000000000E+00 -0.56892702854E+02  0.56892702854E+02  0.00000000000E+00 0.  1.
         25    1    1    2    0    0 -0.85192176895E+02  0.41694801264E+02  0.19930560592E+03  0.25366097061E+03  0.12500000000E+03 0.  0.
         25    1    1    2    0    0  0.85192176895E+02 -0.41694801264E+02  0.17742906884E+03  0.23685910987E+03  0.12500000000E+03 0.  0.
</event>
<event>
 4    0  0.2176682E-002  0.2448357E+03  0.7546771E-02  0.1116613E+00
         21   -1    0    0  502  501  0.00000000000E+00  0.00000000000E+00  0.11261068510E+03  0.11261068510E+03  0.00000000000E+00 0.  1.
         21   -1    0    0  501  502 -0.00000000000E+00 -0.00000000000E+00 -0.53231659380E+03  0.53231659380E+03  0.00000000000E+00 0.  1.
         25    1    1    2    0    0 -0.55264529032E+02  0.46834149624E+02  0.50485537116E+02  0.15304050182E+03  0.12500000000E+03 0.  0.
         25    1    1    2    0    0  0.55264529032E+02 -0.46834149624E+02 -0.47019144582E+03  0.49188677708E+03  0.12500000000E+03 0.  0.
</event>
<event>
 4    0  0.2176682E-002  0.1498616E+03  0.7546771E-02  0.1200643E+00
         21   -1    0    0  502  501  0.00000000000E+00  0.00000000000E+00  0.10366495427E+03  0.10366495427E+03  0.00000000000E+00 0. -1.
         21   -1    0    0  501  502 -0.00000000000E+00 -0.00000000000E+00 -0.21664506288E+03  0.21664506288E+03  0.00000000000E+00 0. -1.
         25    1    1    2    0    0  0.78735242635E+02 -0.75153763544E+01 -0.82178146915E+02  0.16921574142E+03  0.12500000000E+03 0.  0.
         25    1    1    2    0    0 -0.78735242635E+02  0.75153763544E+01 -0.30801961687E+02  0.15109427573E+03  0.12500000000E+03 0.  0.
</event>
<event>
 4    0  0.2176682E-002  0.1964596E+03  0.7546771E-02  0.1152761E+00
         21   -1    0    0  502  501  0.00000000000E+00  0.00000000000E+00  0.17446202545E+03  0.17446202545E+03  0.00000000000E+00 0.  1.
         21   -1    0    0  501  502 -0.00000000000E+00 -0.00000000000E+00 -0.22123069533E+03  0.22123069533E+03  0.00000000000E+00 0.  1.
         25    1    1    2    0    0 -0.55810157309E+02  0.62515688484E+02  0.10379398180E+03  0.18281459357E+03  0.12500000000E+03 0.  0.
         25    1    1    2    0    0  0.55810157309E+02 -0.62515688484E+02 -0.15056265168E+03  0.21287812721E+03  0.12500000000E+03 0.  0.
</event>
<event>
 4    0  0.2176682E-002  0.2076794E+03  0.7546771E-02  0.1143417E+00
         21   -1    0    0  502  501  0.00000000000E+00  0.00000000000E+00  0.20312832619E+03  0.20312832619E+03  0.00000000000E+00 0.  1.
         21   -1    0    0  501  502 -0.00000000000E+00 -0.00000000000E+00 -0.21233249520E+03  0.21233249520E+03  0.00000000000E+00 0.  1.
         25    1    1    2    0    0 -0.15731747975E+03 -0.41680207743E+02 -0.36542903524E+02  0.20843803144E+03  0.12500000000E+03 0.  0.
         25    1    1    2    0    0  0.15731747975E+03  0.41680207743E+02  0.27338734515E+02  0.20702278995E+03  0.12500000000E+03 0.  0.
</event>
<event>
 4    0  0.2176682E-002  0.2709684E+03  0.7546771E-02  0.1100727E+00
         21   -1    0    0  502  501  0.00000000000E+00  0.00000000000E+00  0.52128132230E+03  0.52128132230E+03  0.00000000000E+00 0.  1.
         21   -1    0    0  501  502 -0.00000000000E+00 -0.00000000000E+00 -0.14085269082E+03  0.14085269082E+03  0.00000000000E+00 0.  1.
         25    1    1    2    0    0 -0.60814585131E+02  0.91808764046E+02 -0.70893832992E+02  0.18104750337E+03  0.12500000000E+03 0.  0.
         25    1    1    2    0    0  0.60814585131E+02 -0.91808764046E+02  0.45132246447E+03  0.48108650975E+03  0.12500000000E+03 0.  0.
</event>
<event>
 4    0  0.2176682E-002  0.2722810E+03  0.7546771E-02  0.1099981E+00
         21   -1    0    0  502  501  0.00000000000E+00  0.00000000000E+00  0.22521521708E+03  0.22521521708E+03  0.00000000000E+00 0. -1.
         21   -1    0    0  501  502 -0.00000000000E+00 -0.00000000000E+00 -0.32918274930E+03  0.32918274930E+03  0.00000000000E+00 0.  1.
         25    1    1    2    0    0  0.73413857541E+01 -0.16095266732E+03  0.13169760878E+03  0.24275279035E+03  0.12500000000E+03 0.  0.
         25    1    1    2    0    0 -0.73413857541E+01  0.16095266732E+03 -0.23566514100E+03  0.31164517603E+03  0.12500000000E+03 0.  0.
</event>
<event>
 4    0  0.2176682E-002  0.4214695E+03  0.7546771E-02  0.1036589E+00
         21   -1    0    0  502  501  0.00000000000E+00  0.00000000000E+00  0.48236076423E+03  0.48236076423E+03  0.00000000000E+00 0.  1.
         21   -1    0    0  501  502 -0.00000000000E+00 -0.00000000000E+00 -0.36826492184E+03  0.36826492184E+03  0.00000000000E+00 0.  1.
         25    1    1    2    0    0 -0.21485734398E+03 -0.22620251253E+03  0.31369027314E+03  0.45973670986E+03  0.12500000000E+03 0.  0.
         25    1    1    2    0    0  0.21485734398E+03  0.22620251253E+03 -0.19959443074E+03  0.39088897620E+03  0.12500000000E+03 0.  0.
</event>
<event>
 4    0  0.2176682E-002  0.2363121E+03  0.7546771E-02  0.1122274E+00
         21   -1    0    0  502  501  0.00000000000E+00  0.00000000000E+00  0.25215056550E+03  0.25215056550E+03  0.00000000000E+00 0.  1.
         21   -1    0    0  501  502 -0.00000000000E+00 -0.00000000000E+00 -0.22146856953E+03  0.22146856953E+03  0.00000000000E+00 0.  1.
         25    1    1    2    0    0  0.84677471665E+02 -0.66508038031E+02 -0.15420388707E+03  0.22582611035E+03  0.12500000000E+03 0.  0.
         25    1    1    2    0    0 -0.84677471665E+02  0.66508038031E+02  0.18488588303E+03  0.24779302467E+03  0.12500000000E+03 0.  0.
</event>
<event>
 4    0  0.2176682E-002  0.2616429E+03  0.7546771E-02  0.1106160E+00
         21   -1    0    0  502  501  0.00000000000E+00  0.00000000000E+00  0.61640608300E+02  0.61640608300E+02  0.00000000000E+00 0. -1.
         21   -1    0    0  501  502 -0.00000000000E+00 -0.00000000000E+00 -0.11105829745E+04  0.11105829745E+04  0.00000000000E+00 0. -1.
         25    1    1    2    0    0 -0.32618296618E+02  0.17566042360E+03 -0.20053176201E+03  0.29624065432E+03  0.12500000000E+03 0.  0.
         25    1    1    2    0    0  0.32618296618E+02 -0.17566042360E+03 -0.84841060416E+03  0.87598292845E+03  0.12500000000E+03 0.  0.
</event>
<event>
 4    0  0.2176682E-002  0.2037918E+03  0.7546771E-02  0.1146579E+00
         21   -1    0    0  502  501  0.00000000000E+00  0.00000000000E+00  0.76998160245E+02  0.76998160245E+02  0.00000000000E+00 0.  1.
         21   -1    0    0  501  502 -0.00000000000E+00 -0.00000000000E+00 -0.53937752854E+03  0.53937752854E+03  0.00000000000E+00 0.  1.
         25    1    1    2    0    0 -0.15724521324E+03  0.29157560472E+02 -0.25865545096E+03  0.32879151864E+03  0.12500000000E+03 0.  0.
         25    1    1    2    0    0  0.15724521324E+03 -0.29157560472E+02 -0.20372391734E+03  0.28758417014E+03  0.12500000000E+03 0.  0.
</event>
<event>
 4    0  0.2176682E-002  0.4247061E+03  0.7546771E-02  0.1035545E+00
         21   -1    0    0  502  501  0.00000000000E+00  0.00000000000E+00  0.73902370336E+03  0.73902370336E+03  0.00000000000E+00 0.  1.
         21   -1    0    0  501  502 -0.00000000000E+00 -0.00000000000E+00 -0.24407237889E+03  0.24407237889E+03  0.00000000000E+00 0. -1.
         25    1    1    2    0    0 -0.37931082681E+03  0.11673362543E+03  0.14894950919E+03  0.44194388663E+03  0.12500000000E+03 0.  0.
         25    1    1    2    0    0  0.37931082681E+03 -0.11673362543E+03  0.34600181528E+03  0.54115219562E+03  0.12500000000E+03 0.  0.
</event>
<event>
 4    0  0.2176682E-002  0.2595534E+03  0.7546771E-02  0.1107412E+00
         21   -1    0    0  502  501  0.00000000000E+00  0.00000000000E+00  0.21612442758E+03  0.21612442758E+03  0.00000000000E+00 0.  1.
         21   -1    0    0  501  502 -0.00000000000E+00 -0.00000000000E+00 -0.31170924562E+03  0.31170924562E+03  0.00000000000E+00 0.  1.
         25    1    1    2    0    0  0.18434114396E+02 -0.20850025646E+03 -0.13834462146E+03  0.28031483694E+03  0.12500000000E+03 0.  0.
         25    1    1    2    0    0 -0.18434114396E+02  0.20850025646E+03  0.42759803420E+02  0.24751883627E+03  0.12500000000E+03 0.  0.
</event>
<event>
 4    0  0.2176682E-002  0.2576063E+03  0.7546771E-02  0.1108590E+00
         21   -1    0    0  502  501  0.00000000000E+00  0.00000000000E+00  0.14465237582E+03  0.14465237582E+03  0.00000000000E+00 0. -1.
         21   -1    0    0  501  502 -0.00000000000E+00 -0.00000000000E+00 -0.45876181149E+03  0.45876181149E+03  0.00000000000E+00 0. -1.
         25    1    1    2    0    0  0.21655286689E+03 -0.13607453377E+01 -0.22962145682E+03  0.33948197186E+03  0.12500000000E+03 0.  0.
         25    1    1    2    0    0 -0.21655286689E+03  0.13607453377E+01 -0.84487978859E+02  0.26393221546E+03  0.12500000000E+03 0.  0.
</event>
<event>
 4    0  0.2176682E-002  0.2362047E+03  0.7546771E-02  0.1122347E+00
         21   -1    0    0  502  501  0.00000000000E+00  0.00000000000E+00  0.12551683354E+04  0.12551683354E+04  0.00000000000E+00 0. -1.
         21   -1    0    0  501  502 -0.00000000000E+00 -0.00000000000E+00 -0.44450356880E+02  0.44450356880E+02  0.00000000000E+00 0. -1.
         25    1    1    2    0    0  0.17322681091E+03 -0.96958449567E+02  0.68116065113E+03  0.72042577800E+03  0.12500000000E+03 0.  0.
         25    1    1    2    0    0 -0.17322681091E+03  0.96958449567E+02  0.52955732742E+03  0.57919291431E+03  0.12500000000E+03 0.  0.
</event>
<event>
 4    0  0.2176682E-002  0.3011030E+03  0.7546771E-02  0.1084691E+00
         21   -1    0    0  502  501  0.00000000000E+00  0.00000000000E+00  0.72462156369E+02  0.72462156369E+02  0.00000000000E+00 0.  1.
         21   -1    0    0  501  502 -0.00000000000E+00 -0.00000000000E+00 -0.12511771353E+04  0.12511771353E+04  0.00000000000E+00 0.  1.
         25    1    1    2    0    0 -0.25213228511E+03  0.63901859197E+02 -0.77822891143E+03  0.83001167184E+03  0.12500000000E+03 0.  0.
         25    1    1    2    0    0  0.25213228511E+03 -0.63901859197E+02 -0.40048606754E+03  0.49362761987E+03  0.12500000000E+03 0.  0.
</event>
<event>
 4    0  0.2176682E-002  0.2428723E+03  0.7546771E-02  0.1117894E+00
         21   -1    0    0  502  501  0.00000000000E+00  0.00000000000E+00  0.87059628767E+02  0.87059628767E+02  0.00000000000E+00 0.  1.
         21   -1    0    0  501  502 -0.00000000000E+00 -0.00000000000E+00 -0.67754646704E+03  0.67754646704E+03  0.00000000000E+00 0.  1.
         25    1    1    2    0    0  0.17553346121E+03 -0.87868069912E+02 -0.40463028222E+03  0.46677988282E+03  0.12500000000E+03 0.  0.
         25    1    1    2    0    0 -0.17553346121E+03  0.87868069912E+02 -0.18585655605E+03  0.29782621299E+03  0.12500000000E+03 0.  0.
</event>
<event>
 4    0  0.2176682E-002  0.4975755E+03  0.7546771E-02  0.1014414E+00
         21   -1    0    0  502  501  0.00000000000E+00  0.00000000000E+00  0.52129991345E+03  0.52129991345E+03  0.00000000000E+00 0. -1.
         21   -1    0    0  501  502 -0.00000000000E+00 -0.00000000000E+00 -0.47493086905E+03  0.47493086905E+03  0.00000000000E+00 0. -1.
         25    1    1    2    0    0 -0.12204603965E+03  0.43356770587E+03 -0.14752975788E+03  0.49016958374E+03  0.12500000000E+03 0.  0.
         25    1    1    2    0    0  0.12204603965E+03 -0.43356770587E+03  0.19389880228E+03  0.50606119876E+03  0.12500000000E+03 0.  0.
</event>
<event>
 4    0  0.2176682E-002  0.1804997E+03  0.7546771E-02  0.1167320E+00
         21   -1    0    0  502  501  0.00000000000E+00  0.00000000000E+00  0.50985617973E+03  0.50985617973E+03  0.00000000000E+00 0.  1.
         21   -1    0    0  501  502 -0.00000000000E+00 -0.00000000000E+00 -0.63900645304E+02  0.63900645304E+02  0.00000000000E+00 0.  1.
         25    1    1    2    0    0 -0.81123347936E+02 -0.10185342551E+03  0.22320824595E+03  0.28705755334E+03  0.12500000000E+03 0.  0.
         25    1    1    2    0    0  0.81123347936E+02  0.10185342551E+03  0.22274728847E+03  0.28669927169E+03  0.12500000000E+03 0.  0.
</event>
<event>
 4    0  0.2176682E-002  0.1910979E+03  0.7546771E-02  0.1157475E+00
         21   -1    0    0  502  501  0.00000000000E+00  0.00000000000E+00  0.60156437251E+03  0.60156437251E+03  0.00000000000E+00 0. -1.
         21   -1    0    0  501  502 -0.00000000000E+00 -0.00000000000E+00 -0.60705760522E+02  0.60705760522E+02  0.00000000000E+00 0. -1.
         25    1    1    2    0    0  0.41058527974E+02  0.90420105305E+02  0.45242991524E+03  0.47977018078E+03  0.12500000000E+03 0.  0.
         25    1    1    2    0    0 -0.41058527974E+02 -0.90420105305E+02  0.88428696746E+02  0.18249995225E+03  0.12500000000E+03 0.  0.
</event>
<event>
 4    0  0.2176682E-002  0.1524569E+03  0.7546771E-02  0.1197486E+00
         21   -1    0    0  502  501  0.00000000000E+00  0.00000000000E+00  0.45592183092E+02  0.45592183092E+02  0.00000000000E+00 0.  1.
         21   -1    0    0  501  502 -0.00000000000E+00 -0.00000000000E+00 -0.50980480507E+03  0.50980480507E+03  0.00000000000E+00 0.  1.
         25    1    1    2    0    0  0.50886835216E+02  0.38825760369E+02 -0.34019294266E+03  0.36803960100E+03  0.12500000000E+03 0.  0.
         25    1    1    2    0    0 -0.50886835216E+02 -0.38825760369E+02 -0.12401967932E+03  0.18735738716E+03  0.12500000000E+03 0.  0.
</event>
<event>
 4    0  0.2176682E-002  0.1623480E+03  0.7546771E-02  0.1186071E+00
         21   -1    0    0  502  501  0.00000000000E+00  0.00000000000E+00  0.10412181316E+03  0.10412181316E+03  0.00000000000E+00 0. -1.
         21   -1    0    0  501  502 -0.00000000000E+00 -0.00000000000E+00 -0.25313499978E+03  0.25313499978E+03  0.00000000000E+00 0. -1.
         25    1    1    2    0    0 -0.82293963224E+02  0.22661355424E+02 -0.13909637713E+03  0.20556905298E+03  0.12500000000E+03 0.  0.
         25    1    1    2    0    0  0.82293963224E+02 -0.22661355424E+02 -0.99168095000E+01  0.15168775997E+03  0.12500000000E+03 0.  0.
</event>
<event>
 4    0  0.2176682E-002  0.3044464E+03  0.7546771E-02  0.1083039E+00
         21   -1    0    0  502  501  0.00000000000E+00  0.00000000000E+00  0.10270092411E+03  0.10270092411E+03  0.00000000000E+00 0.  1.
         21   -1    0    0  501  502 -0.00000000000E+00 -0.00000000000E+00 -0.90250047259E+03  0.90250047259E+03  0.00000000000E+00 0.  1.
         25    1    1    2    0    0  0.27480645752E+03 -0.35077639935E+02 -0.42913470274E+03  0.52586179079E+03  0.12500000000E+03 0.  0.
         25    1    1    2    0    0 -0.27480645752E+03  0.35077639935E+02 -0.37066484574E+03  0.47933960590E+03  0.12500000000E+03 0.  0.
</event>
<event>
 4    0  0.2176682E-002  0.1473455E+03  0.7546771E-02  0.1203773E+00
         21   -1    0    0  502  501  0.00000000000E+00  0.00000000000E+00  0.11503607719E+03  0.11503607719E+03  0.00000000000E+00 0.  1.
         21   -1    0    0  501  502 -0.00000000000E+00 -0.00000000000E+00 -0.18872939912E+03  0.18872939912E+03  0.00000000000E+00 0.  1.
         25    1    1    2    0    0 -0.51328687289E+02 -0.16382770371E+02 -0.94998942630E+02  0.16599044673E+03  0.12500000000E+03 0.  0.
         25    1    1    2    0    0  0.51328687289E+02  0.16382770371E+02  0.21305620699E+02  0.13777502959E+03  0.12500000000E+03 0.  0.
</event>
<event>
 4    0  0.2176682E-002  0.1923445E+03  0.7546771E-02  0.1156364E+00
         21   -1    0    0  502  501  0.00000000000E+00  0.00000000000E+00  0.24718793521E+03  0.24718793521E+03  0.00000000000E+00 0. -1.
         21   -1    0    0  501  502 -0.00000000000E+00 -0.00000000000E+00 -0.14966907168E+03  0.14966907168E+03  0.00000000000E+00 0. -1.
         25    1    1    2    0    0  0.72642410685E+01  0.11083581342E+03 -0.49294597292E+02  0.17433388672E+03  0.12500000000E+03 0.  0.
         25    1    1    2    0    0 -0.72642410685E+01 -0.11083581342E+03  0.14681346082E+03  0.22252312017E+03  0.12500000000E+03 0.  0.
</event>
<event>
 4    0  0.2176682E-002  0.2810381E+03  0.7546771E-02  0.1095123E+00
         21   -1    0    0  502  501  0.00000000000E+00  0.00000000000E+00  0.43592831473E+03  0.43592831473E+03  0.00000000000E+00 0.  1.
         21   -1    0    0  501  502 -0.00000000000E+00 -0.00000000000E+00 -0.18118212204E+03  0.18118212204E+03  0.00000000000E+00 0.  1.
         25    1    1    2    0    0 -0.83881436404E+02  0.23266981185E+03  0.17870658157E+03  0.32974593100E+03  0.12500000000E+03 0.  0.
         25    1    1    2    0    0  0.83881436404E+02 -0.23266981185E+03  0.76039611122E+02  0.28736450577E+03  0.12500000000E+03 0.  0.
</event>
<event>
 4    0  0.2176682E-002  0.1958762E+03  0.7546771E-02  0.1153266E+00
         21   -1    0    0  502  501  0.00000000000E+00  0.00000000000E+00  0.91786491804E+02  0.91786491804E+02  0.00000000000E+00 0. -1.
         21   -1    0    0  501  502 -0.00000000000E+00 -0.00000000000E+00 -0.41800796183E+03  0.41800796183E+03  0.00000000000E+00 0. -1.
         25    1    1    2    0    0 -0.64474029207E+01 -0.13315944070E+03 -0.71374932323E+02  0.19619476704E+03  0.12500000000E+03 0.  0.
         25    1    1    2    0    0  0.64474029207E+01  0.13315944070E+03 -0.25484653770E+03  0.31359968659E+03  0.12500000000E+03 0.  0.
</event>
<event>
 4    0  0.2176682E-002  0.2162100E+03  0.7546771E-02  0.1136741E+00
         21   -1    0    0  502  501  0.00000000000E+00  0.00000000000E+00  0.16054320544E+04  0.16054320544E+04  0.00000000000E+00 0. -1.
         21   -1    0    0  501  502 -0.00000000000E+00 -0.00000000000E+00 -0.29117875497E+02  0.29117875497E+02  0.00000000000E+00 0. -1.
         25    1    1    2    0    0 -0.10438679008E+03 -0.69432159537E+01  0.13250902916E+04  0.13350783090E+04  0.12500000000E+03 0.  0.
         25    1    1    2    0    0  0.10438679008E+03  0.69432159537E+01  0.25122388731E+03  0.29947162094E+03  0.12500000000E+03 0.  0.
</event>
<event>
 4    0  0.2176682E-002  0.1783337E+03  0.7546771E-02  0.1169425E+00
         21   -1    0    0  502  501  0.00000000000E+00  0.00000000000E+00  0.43164490744E+03  0.43164490744E+03  0.00000000000E+00 0.  1.
         21   -1    0    0  501  502 -0.00000000000E+00 -0.00000000000E+00 -0.73678438183E+02  0.73678438183E+02  0.00000000000E+00 0.  1.
         25    1    1    2    0    0 -0.56744888934E+02  0.11332545877E+03  0.19419515246E+03  0.26343765727E+03  0.12500000000E+03 0.  0.
         25    1    1    2    0    0  0.56744888934E+02 -0.11332545877E+03  0.16377131680E+03  0.24188568836E+03  0.12500000000E+03 0.  0.
</event>
<event>
 4    0  0.2176682E-002  0.1722096E+03  0.7546771E-02  0.1175563E+00
         21   -1    0    0  502  501  0.00000000000E+00  0.00000000000E+00  0.15264996962E+03  0.15264996962E+03  0.00000000000E+00 0. -1.
         21   -1    0    0  501  502 -0.00000000000E+00 -0.00000000000E+00 -0.19427542524E+03  0.19427542524E+03  0.00000000000E+00 0. -1.
         25    1    1    2    0    0 -0.57228917221E+02  0.62149815576E+02  0.62817869887E+02  0.16342837367E+03  0.12500000000E+03 0.  0.
         25    1    1    2    0    0  0.57228917221E+02 -0.62149815576E+02 -0.10444332551E+03  0.18349702119E+03  0.12500000000E+03 0.  0.
</event>
<event>
 4    0  0.2176682E-002  0.1785206E+03  0.7546771E-02  0.1169243E+00
         21   -1    0    0  502  501  0.00000000000E+00  0.00000000000E+00  0.31671202974E+02  0.31671202974E+02  0.00000000000E+00 0. -1.
         21   -1    0    0  501  502 -0.00000000000E+00 -0.00000000000E+00 -0.10062641695E+04  0.10062641695E+04  0.00000000000E+00 0. -1.
         25    1    1    2    0    0 -0.38010439547E+02 -0.28638264526E+02 -0.14358010304E+03  0.19622739283E+03  0.12500000000E+03 0.  0.
         25    1    1    2    0    0  0.38010439547E+02  0.28638264526E+02 -0.83101286351E+03  0.84170797966E+03  0.12500000000E+03 0.  0.
</event>
<event>
 4    0  0.2176682E-002  0.2367819E+03  0.7546771E-02  0.1121955E+00
         21   -1    0    0  502  501  0.00000000000E+00  0.00000000000E+00  0.10452808385E+04  0.10452808385E+04  0.00000000000E+00 0. -1.
         21   -1    0    0  501  502 -0.00000000000E+00 -0.00000000000E+00 -0.53636939719E+02  0.53636939719E+02  0.00000000000E+00 0.  1.
         25    1    1    2    0    0 -0.12473048614E+03 -0.15119494068E+03  0.39144821800E+03  0.45527388640E+03  0.12500000000E+03 0.  0.
         25    1    1    2    0    0  0.12473048614E+03  0.15119494068E+03  0.60019568082E+03  0.64364389187E+03  0.12500000000E+03 0.  0.
</event>
<event>
 4    0  0.2176682E-002  0.2701245E+03  0.7546771E-02  0.1101208E+00
         21   -1    0    0  502  501  0.00000000000E+00  0.00000000000E+00  0.26348122971E+03  0.26348122971E+03  0.00000000000E+00 0. -1.
         21   -1    0    0  501  502 -0.00000000000E+00 -0.00000000000E+00 -0.27693529465E+03  0.27693529465E+03  0.00000000000E+00 0. -1.
         25    1    1    2    0    0 -0.25481918065E+02 -0.19038110375E+03 -0.14976772816E+03  0.27376936500E+03  0.12500000000E+03 0.  0.
         25    1    1    2    0    0  0.25481918065E+02  0.19038110375E+03  0.13631366322E+03  0.26664715936E+03  0.12500000000E+03 0.  0.
</event>
<event>
 4    0  0.2176682E-002  0.1773760E+03  0.7546771E-02  0.1170367E+00
         21   -1    0    0  502  501  0.00000000000E+00  0.00000000000E+00  0.37594485243E+02  0.37594485243E+02  0.00000000000E+00 0.  1.
         21   -1    0    0  501  502 -0.00000000000E+00 -0.00000000000E+00 -0.83688438201E+03  0.83688438201E+03  0.00000000000E+00 0.  1.
         25    1    1    2    0    0  0.15261636751E+02 -0.46469859939E+02 -0.11381820710E+03  0.17598849311E+03  0.12500000000E+03 0.  0.
         25    1    1    2    0    0 -0.15261636751E+02  0.46469859939E+02 -0.68547168967E+03  0.69849037415E+03  0.12500000000E+03 0.  0.
</event>
<event>
 4    0  0.2176682E-002  0.2167040E+03  0.7546771E-02  0.1136364E+00
         21   -1    0    0  502  501  0.00000000000E+00  0.00000000000E+00  0.47776720061E+03  0.47776720061E+03  0.00000000000E+00 0.  1.
         21   -1    0    0  501  502 -0.00000000000E+00 -0.00000000000E+00 -0.98291892963E+02  0.98291892963E+02  0.00000000000E+00 0.  1.
         25    1    1    2    0    0 -0.16494300237E+03 -0.55361439613E+02  0.23310421637E+03  0.31659699732E+03  0.12500000000E+03 0.  0.
         25    1    1    2    0    0  0.16494300237E+03  0.55361439613E+02  0.14637109128E+03  0.25946209625E+03  0.12500000000E+03 0.  0.
</event>
<event>
 4    0  0.2176682E-002  0.2067388E+03  0.7546771E-02  0.1144175E+00
         21   -1    0    0  502  501  0.00000000000E+00  0.00000000000E+00  0.12738502307E+03  0.12738502307E+03  0.00000000000E+00 0.  1.
         21   -1    0    0  501  502 -0.00000000000E+00 -0.00000000000E+00 -0.33552567254E+03  0.33552567254E+03  0.00000000000E+00 0.  1.
         25    1    1    2    0    0  0.56821223776E+02 -0.10180493551E+03 -0.23426177668E+03  0.28999392473E+03  0.12500000000E+03 0.  0.
         25    1    1    2    0    0 -0.56821223776E+02  0.10180493551E+03  0.26121127211E+02  0.17291677088E+03  0.12500000000E+03 0.  0.
</event>
<event>
 4    0  0.2176682E-002  0.2809081E+03  0.7546771E-02  0.1095194E+00
         21   -1    0    0  502  501  0.00000000000E+00  0.00000000000E+00  0.26439407836E+03  0.26439407836E+03  0.00000000000E+00 0.  1.
         21   -1    0    0  501  502 -0.00000000000E+00 -0.00000000000E+00 -0.29845365948E+03  0.29845365948E+03  0.00000000000E+00 0.  1.
         25    1    1    2    0    0  0.98585140917E+02 -0.94510700655E+02 -0.22868308388E+03  0.29423163562E+03  0.12500000000E+03 0.  0.
         25    1    1    2    0    0 -0.98585140917E+02  0.94510700655E+02  0.19462350276E+03  0.26861610222E+03  0.12500000000E+03 0.  0.
</event>
<event>
 4    0  0.2176682E-002  0.1974474E+03  0.7546771E-02  0.1151911E+00
         21   -1    0    0  502  501  0.00000000000E+00  0.00000000000E+00  0.35091589338E+03  0.35091589338E+03  0.00000000000E+00 0.  1.
         21   -1    0    0  501  502 -0.00000000000E+00 -0.00000000000E+00 -0.11109634869E+03  0.11109634869E+03  0.00000000000E+00 0.  1.
         25    1    1    2    0    0  0.90964101884E+02 -0.10452468125E+03  0.44444015073E+02  0.19183364485E+03  0.12500000000E+03 0.  0.
         25    1    1    2    0    0 -0.90964101884E+02  0.10452468125E+03  0.19537552961E+03  0.27017859722E+03  0.12500000000E+03 0.  0.
</event>
<event>
 4    0  0.2176682E-002  0.4250076E+03  0.7546771E-02  0.1035449E+00
         21   -1    0    0  502  501  0.00000000000E+00  0.00000000000E+00  0.10222643825E+04  0.10222643825E+04  0.00000000000E+00 0.  1.
         21   -1    0    0  501  502 -0.00000000000E+00 -0.00000000000E+00 -0.17669740540E+03  0.17669740540E+03  0.00000000000E+00 0.  1.
         25    1    1    2    0    0 -0.36925023381E+01 -0.36992153068E+03  0.65944340929E+03  0.76638514044E+03  0.12500000000E+03 0.  0.
         25    1    1    2    0    0  0.36925023381E+01  0.36992153068E+03  0.18612356782E+03  0.43257664746E+03  0.12500000000E+03 0.  0.
</event>
<event>
 4    0  0.2176682E-002  0.2382237E+03  0.7546771E-02  0.1120982E+00
         21   -1    0    0  502  501  0.00000000000E+00  0.00000000000E+00  0.55328531177E+02  0.55328531177E+02  0.00000000000E+00 0.  1.
         21   -1    0    0  501  502 -0.00000000000E+00 -0.00000000000E+00 -0.10257011832E+04  0.10257011832E+04  0.00000000000E+00 0.  1.
         25    1    1    2    0    0 -0.42013805228E+02 -0.16358506088E+03 -0.23049555017E+03  0.31189490316E+03  0.12500000000E+03 0.  0.
         25    1    1    2    0    0  0.42013805228E+02  0.16358506088E+03 -0.73987710187E+03  0.76913481123E+03  0.12500000000E+03 0.  0.
</event>
<event>
 4    0  0.2176682E-002  0.1878954E+03  0.7546771E-02  0.1160373E+00
         21   -1    0    0  502  501  0.00000000000E+00  0.00000000000E+00  0.23725933226E+04  0.23725933226E+04  0.00000000000E+00 0. -1.
         21   -1    0    0  501  502 -0.00000000000E+00 -0.00000000000E+00 -0.14880214322E+02  0.14880214322E+02  0.00000000000E+00 0. -1.
         25    1    1    2    0    0 -0.15062499967E+02 -0.12691444022E+03  0.81138338053E+03  0.83084423585E+03  0.12500000000E+03 0.  0.
         25    1    1    2    0    0  0.15062499967E+02  0.12691444022E+03  0.15463297277E+04  0.15566293010E+04  0.12500000000E+03 0.  0.
</event>
<event>
 4    0  0.2176682E-002  0.1734586E+03  0.7546771E-02  0.1174288E+00
         21   -1    0    0  502  501  0.00000000000E+00  0.00000000000E+00  0.95338969813E+03  0.95338969813E+03  0.00000000000E+00 0. -1.
         21   -1    0    0  501  502 -0.00000000000E+00 -0.00000000000E+00 -0.31558853057E+02  0.31558853057E+02  0.00000000000E+00 0. -1.
         25    1    1    2    0    0  0.64017148421E+02 -0.98327476244E+02  0.53583862336E+03  0.56259623014E+03  0.12500000000E+03 0.  0.
         25    1    1    2    0    0 -0.64017148421E+02  0.98327476244E+02  0.38599222171E+03  0.42235232105E+03  0.12500000000E+03 0.  0.
</event>
<event>
 4    0  0.2176682E-002  0.2335922E+03  0.7546771E-02  0.1124137E+00
         21   -1    0    0  502  501  0.00000000000E+00  0.00000000000E+00  0.29384103012E+03  0.29384103012E+03  0.00000000000E+00 0. -1.
         21   -1    0    0  501  502 -0.00000000000E+00 -0.00000000000E+00 -0.18569678784E+03  0.18569678784E+03  0.00000000000E+00 0. -1.
         25    1    1    2    0    0 -0.45902114908E+02 -0.19167254931E+03  0.44069438128E+02  0.23751312741E+03  0.12500000000E+03 0.  0.
         25    1    1    2    0    0  0.45902114908E+02  0.19167254931E+03  0.64074804154E+02  0.24202469056E+03  0.12500000000E+03 0.  0.
</event>
<event>
 4    0  0.2176682E-002  0.1890604E+03  0.7546771E-02  0.1159311E+00
         21   -1    0    0  502  501  0.00000000000E+00  0.00000000000E+00  0.74715131690E+02  0.74715131690E+02  0.00000000000E+00 0. -1.
         21   -1    0    0  501  502 -0.00000000000E+00 -0.00000000000E+00 -0.47840172245E+03  0.47840172245E+03  0.00000000000E+00 0. -1.
         25    1    1    2    0    0 -0.86658540417E+02  0.70538716164E+02 -0.32964782323E+03  0.36983523421E+03  0.12500000000E+03 0.  0.
         25    1    1    2    0    0  0.86658540417E+02 -0.70538716164E+02 -0.74038767531E+02  0.18328161993E+03  0.12500000000E+03 0.  0.
</event>
<event>
 4    0  0.2176682E-002  0.2233852E+03  0.7546771E-02  0.1131384E+00
         21   -1    0    0  502  501  0.00000000000E+00  0.00000000000E+00  0.14743652255E+03  0.14743652255E+03  0.00000000000E+00 0. -1.
         21   -1    0    0  501  502 -0.00000000000E+00 -0.00000000000E+00 -0.33845716185E+03  0.33845716185E+03  0.00000000000E+00 0. -1.
         25    1    1    2    0    0 -0.92275237595E+01  0.34618424402E+02  0.10203356305E+03  0.16528590530E+03  0.12500000000E+03 0.  0.
         25    1    1    2    0    0  0.92275237595E+01 -0.34618424402E+02 -0.29305420235E+03  0.32060777910E+03  0.12500000000E+03 0.  0.
</event>
<event>
 4    0  0.2176682E-002  0.2742495E+03  0.7546771E-02  0.1098872E+00
         21   -1    0    0  502  501  0.00000000000E+00  0.00000000000E+00  0.98876356799E+02  0.98876356799E+02  0.00000000000E+00 0.  1.
         21   -1    0    0  501  502 -0.00000000000E+00 -0.00000000000E+00 -0.76067495240E+03  0.76067495240E+03  0.00000000000E+00 0.  1.
         25    1    1    2    0    0 -0.19941303928E+03 -0.11763130818E+03 -0.20966343236E+03  0.33643192441E+03  0.12500000000E+03 0.  0.
         25    1    1    2    0    0  0.19941303928E+03  0.11763130818E+03 -0.45213516324E+03  0.52311938479E+03  0.12500000000E+03 0.  0.
</event>
<event>
 4    0  0.2176682E-002  0.2107249E+03  0.7546771E-02  0.1140993E+00
         21   -1    0    0  502  501  0.00000000000E+00  0.00000000000E+00  0.11752133209E+04  0.11752133209E+04  0.00000000000E+00 0. -1.
         21   -1    0    0  501  502 -0.00000000000E+00 -0.00000000000E+00 -0.37784624560E+02  0.37784624560E+02  0.00000000000E+00 0. -1.
         25    1    1    2    0    0  0.24624283523E+02 -0.87299411599E+02  0.98133026523E+03  0.99340909602E+03  0.12500000000E+03 0.  0.
         25    1    1    2    0    0 -0.24624283523E+02  0.87299411599E+02  0.15609843113E+03  0.21958884946E+03  0.12500000000E+03 0.  0.
</event>
<event>
 4    0  0.2176682E-002  0.3516044E+03  0.7546771E-02  0.1061958E+00
         21   -1    0    0  502  501  0.00000000000E+00  0.00000000000E+00  0.68564015579E+03  0.68564015579E+03  0.00000000000E+00 0. -1.
         21   -1    0    0  501  502 -0.00000000000E+00 -0.00000000000E+00 -0.18030689919E+03  0.18030689919E+03  0.00000000000E+00 0. -1.
         25    1    1    2    0    0 -0.75375664437E+02 -0.58597357219E+01 -0.14116686568E+03  0.20314751108E+03  0.12500000000E+03 0.  0.
         25    1    1    2    0    0  0.75375664437E+02  0.58597357219E+01  0.64650012228E+03  0.66279954391E+03  0.12500000000E+03 0.  0.
</event>
<event>
 4    0  0.2176682E-002  0.1853710E+03  0.7546771E-02  0.1162704E+00
         21   -1    0    0  502  501  0.00000000000E+00  0.00000000000E+00  0.33833194533E+02  0.33833194533E+02  0.00000000000E+00 0. -1.
         21   -1    0    0  501  502 -0.00000000000E+00 -0.00000000000E+00 -0.10156418006E+04  0.10156418006E+04  0.00000000000E+00 0. -1.
         25    1    1    2    0    0  0.69691037856E+01 -0.13667247218E+03 -0.49961708598E+03  0.53288851147E+03  0.12500000000E+03 0.  0.
         25    1    1    2    0    0 -0.69691037856E+01  0.13667247218E+03 -0.48219152014E+03  0.51658648371E+03  0.12500000000E+03 0.  0.
</event>
<event>
 4    0  0.2176682E-002  0.2482624E+03  0.7546771E-02  0.1114408E+00
         21   -1    0    0  502  501  0.00000000000E+00  0.00000000000E+00  0.44181955452E+03  0.44181955452E+03  0.00000000000E+00 0. -1.
         21   -1    0    0  501  502 -0.00000000000E+00 -0.00000000000E+00 -0.13950084833E+03  0.13950084833E+03  0.00000000000E+00 0. -1.
         25    1    1    2    0    0  0.21419971752E+03  0.10544454230E+02  0.14640389368E+03  0.28818709996E+03  0.12500000000E+03 0.  0.
         25    1    1    2    0    0 -0.21419971752E+03 -0.10544454230E+02  0.15591481251E+03  0.29313330289E+03  0.12500000000E+03 0.  0.
</event>
<event>
 4    0  0.2176682E-002  0.3134544E+03  0.7546771E-02  0.1078702E+00
         21   -1    0    0  502  501  0.00000000000E+00  0.00000000000E+00  0.99884181917E+03  0.99884181917E+03  0.00000000000E+00 0.  1.
         21   -1    0    0  501  502 -0.00000000000E+00 -0.00000000000E+00 -0.98367579506E+02  0.98367579506E+02  0.00000000000E+00 0.  1.
         25    1    1    2    0    0 -0.83632527874E+02 -0.27001888675E+03  0.54158384037E+03  0.62357249383E+03  0.12500000000E+03 0.  0.
         25    1    1    2    0    0  0.83632527874E+02  0.27001888675E+03  0.35889039929E+03  0.47363690484E+03  0.12500000000E+03 0.  0.
</event>
<event>
 4    0  0.2176682E-002  0.2746256E+03  0.7546771E-02  0.1098661E+00
         21   -1    0    0  502  501  0.00000000000E+00  0.00000000000E+00  0.35587628678E+03  0.35587628678E+03  0.00000000000E+00 0. -1.
         21   -1    0    0  501  502 -0.00000000000E+00 -0.00000000000E+00 -0.21192536666E+03  0.21192536666E+03  0.00000000000E+00 0. -1.
         25    1    1    2    0    0  0.18864439689E+03  0.15435082987E+03  0.51735508883E+02  0.27876952854E+03  0.12500000000E+03 0.  0.
         25    1    1    2    0    0 -0.18864439689E+03 -0.15435082987E+03  0.92215411233E+02  0.28903212491E+03  0.12500000000E+03 0.  0.
</event>
<event>
 4    0  0.2176682E-002  0.1916465E+03  0.7546771E-02  0.1156985E+00
         21   -1    0    0  502  501  0.00000000000E+00  0.00000000000E+00  0.25117036021E+03  0.25117036021E+03  0.00000000000E+00 0.  1.
         21   -1    0    0  501  502 -0.00000000000E+00 -0.00000000000E+00 -0.14622898980E+03  0.14622898980E+03  0.00000000000E+00 0.  1.
         25    1    1    2    0    0  0.85929417063E+02 -0.16260620051E+02 -0.67794503963E+02  0.16694120896E+03  0.12500000000E+03 0.  0.
         25    1    1    2    0    0 -0.85929417063E+02  0.16260620051E+02  0.17273587437E+03  0.23045814105E+03  0.12500000000E+03 0.  0.
</event>
<event>
 4    0  0.2176682E-002  0.2410003E+03  0.7546771E-02  0.1119128E+00
         21   -1    0    0  502  501  0.00000000000E+00  0.00000000000E+00  0.32288550001E+03  0.32288550001E+03  0.00000000000E+00 0. -1.
         21   -1    0    0  501  502 -0.00000000000E+00 -0.00000000000E+00 -0.17988151137E+03  0.17988151137E+03  0.00000000000E+00 0. -1.
         25    1    1    2    0    0 -0.62406057373E+02  0.91155788513E+01  0.27611273812E+03  0.30958174030E+03  0.12500000000E+03 0.  0.
         25    1    1    2    0    0  0.62406057373E+02 -0.91155788513E+01 -0.13310874948E+03  0.19318527108E+03  0.12500000000E+03 0.  0.
</event>
<event>
 4    0  0.2176682E-002  0.3305352E+03  0.7546771E-02  0.1070900E+00
         21   -1    0    0  502  501  0.00000000000E+00  0.00000000000E+00  0.11907638651E+04  0.11907638651E+04  0.00000000000E+00 0.  1.
         21   -1    0    0  501  502 -0.00000000000E+00 -0.00000000000E+00 -0.91750766906E+02  0.91750766906E+02  0.00000000000E+00 0. -1.
         25    1    1    2    0    0  0.29692413707E+03 -0.13603622043E+01  0.40611667123E+03  0.51838358810E+03  0.12500000000E+03 0.  0.
         25    1    1    2    0    0 -0.29692413707E+03  0.13603622043E+01  0.69289642700E+03  0.76413104394E+03  0.12500000000E+03 0.  0.
</event>
<event>
 4    0  0.2176682E-002  0.1843655E+03  0.7546771E-02  0.1163644E+00
         21   -1    0    0  502  501  0.00000000000E+00  0.00000000000E+00  0.30388406921E+03  0.30388406921E+03  0.00000000000E+00 0.  1.
         21   -1    0    0  501  502 -0.00000000000E+00 -0.00000000000E+00 -0.11185397936E+03  0.11185397936E+03  0.00000000000E+00 0.  1.
         25    1    1    2    0    0  0.48431606867E+02 -0.27136853954E+01  0.23868804784E+03  0.27376991948E+03  0.12500000000E+03 0.  0.
         25    1    1    2    0    0 -0.48431606867E+02  0.27136853954E+01 -0.46657957985E+02  0.14196812908E+03  0.12500000000E+03 0.  0.
</event>
<event>
 4    0  0.2176682E-002  0.2195735E+03  0.7546771E-02  0.1134201E+00
         21   -1    0    0  502  501  0.00000000000E+00  0.00000000000E+00  0.31720686648E+03  0.31720686648E+03  0.00000000000E+00 0. -1.
         21   -1    0    0  501  502 -0.00000000000E+00 -0.00000000000E+00 -0.15199085370E+03  0.15199085370E+03  0.00000000000E+00 0. -1.
         25    1    1    2    0    0  0.13095531951E+03  0.96483486808E+01 -0.49744306710E+02  0.18799436797E+03  0.12500000000E+03 0.  0.
         25    1    1    2    0    0 -0.13095531951E+03 -0.96483486808E+01  0.21496031949E+03  0.28120335221E+03  0.12500000000E+03 0.  0.
</event>
<event>
 4    0  0.2176682E-002  0.2030774E+03  0.7546771E-02  0.1147168E+00
         21   -1    0    0  502  501  0.00000000000E+00  0.00000000000E+00  0.56912722449E+02  0.56912722449E+02  0.00000000000E+00 0. -1.
         21   -1    0    0  501  502 -0.00000000000E+00 -0.00000000000E+00 -0.72462590372E+03  0.72462590372E+03  0.00000000000E+00 0. -1.
         25    1    1    2    0    0 -0.96209225520E+02  0.12315888958E+03 -0.26744650966E+03  0.33403137979E+03  0.12500000000E+03 0.  0.
         25    1    1    2    0    0  0.96209225520E+02 -0.12315888958E+03 -0.40026667161E+03  0.44750724638E+03  0.12500000000E+03 0.  0.
</event>
<event>
 4    0  0.2176682E-002  0.1974356E+03  0.7546771E-02  0.1151921E+00
         21   -1    0    0  502  501  0.00000000000E+00  0.00000000000E+00  0.49531379403E+02  0.49531379403E+02  0.00000000000E+00 0.  1.
         21   -1    0    0  501  502 -0.00000000000E+00 -0.00000000000E+00 -0.78699250259E+03  0.78699250259E+03  0.00000000000E+00 0.  1.
         25    1    1    2    0    0 -0.60572601033E+01  0.77420497169E+02 -0.64757499152E+03  0.66408507995E+03  0.12500000000E+03 0.  0.
         25    1    1    2    0    0  0.60572601033E+01 -0.77420497169E+02 -0.89886131673E+02  0.17243880204E+03  0.12500000000E+03 0.  0.
</event>
<event>
 4    0  0.2176682E-002  0.2136149E+03  0.7546771E-02  0.1138735E+00
         21   -1    0    0  502  501  0.00000000000E+00  0.00000000000E+00  0.16024098054E+03  0.16024098054E+03  0.00000000000E+00 0. -1.
         21   -1    0    0  501  502 -0.00000000000E+00 -0.00000000000E+00 -0.28476686888E+03  0.28476686888E+03  0.00000000000E+00 0. -1.
         25    1    1    2    0    0  0.89109893288E+02 -0.74099609314E+02 -0.19636421070E+03  0.26002928379E+03  0.12500000000E+03 0.  0.
         25    1    1    2    0    0 -0.89109893288E+02  0.74099609314E+02  0.71838322359E+02  0.18497856563E+03  0.12500000000E+03 0.  0.
</event>
<event>
 4    0  0.2176682E-002  0.2162127E+03  0.7546771E-02  0.1136739E+00
         21   -1    0    0  502  501  0.00000000000E+00  0.00000000000E+00  0.30858842869E+03  0.30858842869E+03  0.00000000000E+00 0.  1.
         21   -1    0    0  501  502 -0.00000000000E+00 -0.00000000000E+00 -0.15148957026E+03  0.15148957026E+03  0.00000000000E+00 0.  1.
         25    1    1    2    0    0  0.10479908270E+03  0.13132088264E+03  0.21304429819E+02  0.21049204422E+03  0.12500000000E+03 0.  0.
         25    1    1    2    0    0 -0.10479908270E+03 -0.13132088264E+03  0.13579442861E+03  0.24958595472E+03  0.12500000000E+03 0.  0.
</event>
<event>
 4    0  0.2176682E-002  0.1916202E+03  0.7546771E-02  0.1157008E+00
         21   -1    0    0  502  501  0.00000000000E+00  0.00000000000E+00  0.20229252617E+04  0.20229252617E+04  0.00000000000E+00 0. -1.
         21   -1    0    0  501  502 -0.00000000000E+00 -0.00000000000E+00 -0.18151094383E+02  0.18151094383E+02  0.00000000000E+00 0. -1.
         25    1    1    2    0    0  0.39214501416E+02 -0.11567298078E+03  0.14209075206E+04  0.14316148916E+04  0.12500000000E+03 0.  0.
         25    1    1    2    0    0 -0.39214501416E+02  0.11567298078E+03  0.58386664669E+03  0.60946146451E+03  0.12500000000E+03 0.  0.
</event>
<event>
 4    0  0.2176682E-002  0.3783309E+03  0.7546771E-02  0.1051552E+00
         21   -1    0    0  502  501  0.00000000000E+00  0.00000000000E+00  0.14035453530E+04  0.14035453530E+04  0.00000000000E+00 0.  1.
         21   -1    0    0  501  502 -0.00000000000E+00 -0.00000000000E+00 -0.10198050176E+03  0.10198050176E+03  0.00000000000E+00 0.  1.
         25    1    1    2    0    0  0.11094761117E+03  0.42088240407E+02  0.13208945197E+04  0.13320916352E+04  0.12500000000E+03 0.  0.
         25    1    1    2    0    0 -0.11094761117E+03 -0.42088240407E+02 -0.19329668520E+02  0.17343421949E+03  0.12500000000E+03 0.  0.
</event>
<event>
 4    0  0.2176682E-002  0.2739321E+03  0.7546771E-02  0.1099050E+00
         21   -1    0    0  502  501  0.00000000000E+00  0.00000000000E+00  0.54436502587E+03  0.54436502587E+03  0.00000000000E+00 0. -1.
         21   -1    0    0  501  502 -0.00000000000E+00 -0.00000000000E+00 -0.13784644484E+03  0.13784644484E+03  0.00000000000E+00 0. -1.
         25    1    1    2    0    0 -0.72181780399E+02  0.10792771118E+03  0.46013459958E+03  0.49417350192E+03  0.12500000000E+03 0.  0.
         25    1    1    2    0    0  0.72181780399E+02 -0.10792771118E+03 -0.53616018550E+02  0.18803796879E+03  0.12500000000E+03 0.  0.
</event>
<event>
 4    0  0.2176682E-002  0.2858793E+03  0.7546771E-02  0.1092520E+00
         21   -1    0    0  502  501  0.00000000000E+00  0.00000000000E+00  0.46875041214E+03  0.46875041214E+03  0.00000000000E+00 0. -1.
         21   -1    0    0  501  502 -0.00000000000E+00 -0.00000000000E+00 -0.17435068929E+03  0.17435068929E+03  0.00000000000E+00 0. -1.
         25    1    1    2    0    0  0.25296547431E+02  0.23415252228E+03  0.26319184012E+03  0.37464952116E+03  0.12500000000E+03 0.  0.
         25    1    1    2    0    0 -0.25296547431E+02 -0.23415252228E+03  0.31207882737E+02  0.26845158027E+03  0.12500000000E+03 0.  0.
</event>
<event>
 4    0  0.2176682E-002  0.1670931E+03  0.7546771E-02  0.1180914E+00
         21   -1    0    0  502  501  0.00000000000E+00  0.00000000000E+00  0.52014168954E+03  0.52014168954E+03  0.00000000000E+00 0. -1.
         21   -1    0    0  501  502 -0.00000000000E+00 -0.00000000000E+00 -0.53677889454E+02  0.53677889454E+02  0.00000000000E+00 0. -1.
         25    1    1    2    0    0 -0.13380528537E+01 -0.16570017512E+02  0.44989907853E+02  0.13388595025E+03  0.12500000000E+03 0.  0.
         25    1    1    2    0    0  0.13380528537E+01  0.16570017512E+02  0.42147389223E+03  0.43993362874E+03  0.12500000000E+03 0.  0.
</event>
<event>
 4    0  0.2176682E-002  0.2095656E+03  0.7546771E-02  0.1141910E+00
         21   -1    0    0  502  501  0.00000000000E+00  0.00000000000E+00  0.66969099810E+03  0.66969099810E+03  0.00000000000E+00 0. -1.
         21   -1    0    0  501  502 -0.00000000000E+00 -0.00000000000E+00 -0.65579104394E+02  0.65579104394E+02  0.00000000000E+00 0. -1.
         25    1    1    2    0    0 -0.34314579347E+02 -0.90246963890E+02  0.54367933697E+03  0.56615742184E+03  0.12500000000E+03 0.  0.
         25    1    1    2    0    0  0.34314579347E+02  0.90246963890E+02  0.60432556734E+02  0.16911268066E+03  0.12500000000E+03 0.  0.
</event>
<event>
 4    0  0.2176682E-002  0.2160155E+03  0.7546771E-02  0.1136889E+00
         21   -1    0    0  502  501  0.00000000000E+00  0.00000000000E+00  0.30188271623E+03  0.30188271623E+03  0.00000000000E+00 0. -1.
         21   -1    0    0  501  502 -0.00000000000E+00 -0.00000000000E+00 -0.15457230648E+03  0.15457230648E+03  0.00000000000E+00 0. -1.
         25    1    1    2    0    0 -0.11470565096E+03 -0.72957968981E+02  0.19205034103E+03  0.26643683133E+03  0.12500000000E+03 0.  0.
         25    1    1    2    0    0  0.11470565096E+03  0.72957968981E+02 -0.44739931279E+02  0.19001819137E+03  0.12500000000E+03 0.  0.
</event>
<event>
 4    0  0.2176682E-002  0.2070719E+03  0.7546771E-02  0.1143906E+00
         21   -1    0    0  502  501  0.00000000000E+00  0.00000000000E+00  0.67022957800E+03  0.67022957800E+03  0.00000000000E+00 0. -1.
         21   -1    0    0  501  502 -0.00000000000E+00 -0.00000000000E+00 -0.63976216060E+02  0.63976216060E+02  0.00000000000E+00 0. -1.
         25    1    1    2    0    0  0.38563547744E+02 -0.99378056798E+02  0.79647544680E+02  0.18257019680E+03  0.12500000000E+03 0.  0.
         25    1    1    2    0    0 -0.38563547744E+02  0.99378056798E+02  0.52660581726E+03  0.55163559726E+03  0.12500000000E+03 0.  0.
</event>
<event>
 4    0  0.2176682E-002  0.1929414E+03  0.7546771E-02  0.1155835E+00
         21   -1    0    0  502  501  0.00000000000E+00  0.00000000000E+00  0.24881498140E+03  0.24881498140E+03  0.00000000000E+00 0.  1.
         21   -1    0    0  501  502 -0.00000000000E+00 -0.00000000000E+00 -0.14961479583E+03  0.14961479583E+03  0.00000000000E+00 0.  1.
         25    1    1    2    0    0 -0.12676846951E+03  0.10880851815E+02 -0.26363559575E+02  0.18030162249E+03  0.12500000000E+03 0.  0.
         25    1    1    2    0    0  0.12676846951E+03 -0.10880851815E+02  0.12556374515E+03  0.21812815475E+03  0.12500000000E+03 0.  0.
</event>
<event>
 4    0  0.2176682E-002  0.2815643E+03  0.7546771E-02  0.1094838E+00
         21   -1    0    0  502  501  0.00000000000E+00  0.00000000000E+00  0.76111838575E+03  0.76111838575E+03  0.00000000000E+00 0. -1.
         21   -1    0    0  501  502 -0.00000000000E+00 -0.00000000000E+00 -0.10416049952E+03  0.10416049952E+03  0.00000000000E+00 0. -1.
         25    1    1    2    0    0  0.10237768260E+03 -0.46567100434E+01 -0.25765093512E+02  0.16368174879E+03  0.12500000000E+03 0.  0.
         25    1    1    2    0    0 -0.10237768260E+03  0.46567100434E+01  0.68272297975E+03  0.70159713648E+03  0.12500000000E+03 0.  0.
</event>
<event>
 4    0  0.2176682E-002  0.1706873E+03  0.7546771E-02  0.1177133E+00
         21   -1    0    0  502  501  0.00000000000E+00  0.00000000000E+00  0.17318862221E+04  0.17318862221E+04  0.00000000000E+00 0. -1.
         21   -1    0    0  501  502 -0.00000000000E+00 -0.00000000000E+00 -0.16822212272E+02  0.16822212272E+02  0.00000000000E+00 0. -1.
         25    1    1    2    0    0  0.65754587599E+01 -0.95620965027E+02  0.52074425090E+03  0.54404611979E+03  0.12500000000E+03 0.  0.
         25    1    1    2    0    0 -0.65754587599E+01  0.95620965027E+02  0.11943197589E+04  0.12046623145E+04  0.12500000000E+03 0.  0.
</event>
<event>
 4    0  0.2176682E-002  0.2173101E+03  0.7546771E-02  0.1135905E+00
         21   -1    0    0  502  501  0.00000000000E+00  0.00000000000E+00  0.30697347634E+03  0.30697347634E+03  0.00000000000E+00 0.  1.
         21   -1    0    0  501  502 -0.00000000000E+00 -0.00000000000E+00 -0.15383633144E+03  0.15383633144E+03  0.00000000000E+00 0.  1.
         25    1    1    2    0    0 -0.70963277316E+02  0.86828768146E+02 -0.69668935715E+02  0.18180699191E+03  0.12500000000E+03 0.  0.
         25    1    1    2    0    0  0.70963277316E+02 -0.86828768146E+02  0.22280608061E+03  0.27900281587E+03  0.12500000000E+03 0.  0.
</event>
<event>
 4    0  0.2176682E-002  0.2513547E+03  0.7546771E-02  0.1112452E+00
         21   -1    0    0  502  501  0.00000000000E+00  0.00000000000E+00  0.36615518289E+02  0.36615518289E+02  0.00000000000E+00 0. -1.
         21   -1    0    0  501  502 -0.00000000000E+00 -0.00000000000E+00 -0.17254750957E+04  0.17254750957E+04  0.00000000000E+00 0. -1.
         25    1    1    2    0    0  0.17059251662E+03 -0.70712908126E+02 -0.12509717913E+04  0.12706917584E+04  0.12500000000E+03 0.  0.
         25    1    1    2    0    0 -0.17059251662E+03  0.70712908126E+02 -0.43788778612E+03  0.49139885565E+03  0.12500000000E+03 0.  0.
</event>
<event>
 4    0  0.2176682E-002  0.1836484E+03  0.7546771E-02  0.1164318E+00
         21   -1    0    0  502  501  0.00000000000E+00  0.00000000000E+00  0.91346486426E+02  0.91346486426E+02  0.00000000000E+00 0.  1.
         21   -1    0    0  501  502 -0.00000000000E+00 -0.00000000000E+00 -0.36921766129E+03  0.36921766129E+03  0.00000000000E+00 0.  1.
         25    1    1    2    0    0 -0.82017490004E+02 -0.97640570920E+02 -0.85130685323E+02  0.19782007820E+03  0.12500000000E+03 0.  0.
         25    1    1    2    0    0  0.82017490004E+02  0.97640570920E+02 -0.19274048954E+03  0.26274406951E+03  0.12500000000E+03 0.  0.
</event>
<event>
 4    0  0.2176682E-002  0.3097787E+03  0.7546771E-02  0.1080452E+00
         21   -1    0    0  502  501  0.00000000000E+00  0.00000000000E+00  0.12776868983E+04  0.12776868983E+04  0.00000000000E+00 0.  1.
         21   -1    0    0  501  502 -0.00000000000E+00 -0.00000000000E+00 -0.75106713877E+02  0.75106713877E+02  0.00000000000E+00 0.  1.
         25    1    1    2    0    0  0.21742407978E+03 -0.92853635598E+01  0.99780985901E+03  0.10288872451E+04  0.12500000000E+03 0.  0.
         25    1    1    2    0    0 -0.21742407978E+03  0.92853635598E+01  0.20477032540E+03  0.32390636704E+03  0.12500000000E+03 0.  0.
</event>
<event>
 4    0  0.2176682E-002  0.2026560E+03  0.7546771E-02  0.1147517E+00
         21   -1    0    0  502  501  0.00000000000E+00  0.00000000000E+00  0.45818100858E+02  0.45818100858E+02  0.00000000000E+00 0.  1.
         21   -1    0    0  501  502 -0.00000000000E+00 -0.00000000000E+00 -0.89635866920E+03  0.89635866920E+03  0.00000000000E+00 0.  1.
         25    1    1    2    0    0  0.37164956325E+02 -0.14772556321E+03 -0.53529832749E+03  0.57041509046E+03  0.12500000000E+03 0.  0.
         25    1    1    2    0    0 -0.37164956325E+02  0.14772556321E+03 -0.31524224085E+03  0.37176167960E+03  0.12500000000E+03 0.  0.
</event>
<event>
 4    0  0.2176682E-002  0.2249192E+03  0.7546771E-02  0.1130268E+00
         21   -1    0    0  502  501  0.00000000000E+00  0.00000000000E+00  0.18854569775E+03  0.18854569775E+03  0.00000000000E+00 0. -1.
         21   -1    0    0  501  502 -0.00000000000E+00 -0.00000000000E+00 -0.26830980261E+03  0.26830980261E+03  0.00000000000E+00 0. -1.
         25    1    1    2    0    0 -0.16197956730E+03 -0.48843805942E+02  0.40987703660E+02  0.21430839800E+03  0.12500000000E+03 0.  0.
         25    1    1    2    0    0  0.16197956730E+03  0.48843805942E+02 -0.12075180852E+03  0.24254710236E+03  0.12500000000E+03 0.  0.
</event>
<event>
 4    0  0.2176682E-002  0.3637711E+03  0.7546771E-02  0.1057101E+00
         21   -1    0    0  502  501  0.00000000000E+00  0.00000000000E+00  0.16427814168E+03  0.16427814168E+03  0.00000000000E+00 0. -1.
         21   -1    0    0  501  502 -0.00000000000E+00 -0.00000000000E+00 -0.80552052027E+03  0.80552052027E+03  0.00000000000E+00 0. -1.
         25    1    1    2    0    0 -0.32571960272E+03  0.85499245309E+02 -0.39720700869E+03  0.53553878319E+03  0.12500000000E+03 0.  0.
         25    1    1    2    0    0  0.32571960272E+03 -0.85499245309E+02 -0.24403536989E+03  0.43425987876E+03  0.12500000000E+03 0.  0.
</event>
<event>
 4    0  0.2176682E-002  0.3035211E+03  0.7546771E-02  0.1083494E+00
         21   -1    0    0  502  501  0.00000000000E+00  0.00000000000E+00  0.12583670274E+04  0.12583670274E+04  0.00000000000E+00 0. -1.
         21   -1    0    0  501  502 -0.00000000000E+00 -0.00000000000E+00 -0.73209996611E+02  0.73209996611E+02  0.00000000000E+00 0. -1.
         25    1    1    2    0    0 -0.47362018554E+02 -0.38410271934E+01  0.11902639261E+04  0.11977525320E+04  0.12500000000E+03 0.  0.
         25    1    1    2    0    0  0.47362018554E+02  0.38410271934E+01 -0.51068952156E+01  0.13382449204E+03  0.12500000000E+03 0.  0.
</event>
<event>
 4    0  0.2176682E-002  0.1908451E+03  0.7546771E-02  0.1157701E+00
         21   -1    0    0  502  501  0.00000000000E+00  0.00000000000E+00  0.40733721292E+03  0.40733721292E+03  0.00000000000E+00 0.  1.
         21   -1    0    0  501  502 -0.00000000000E+00 -0.00000000000E+00 -0.89414538893E+02  0.89414538893E+02  0.00000000000E+00 0.  1.
         25    1    1    2    0    0 -0.70844891722E+02  0.12267146380E+03  0.12380808905E+03  0.22587768732E+03  0.12500000000E+03 0.  0.
         25    1    1    2    0    0  0.70844891722E+02 -0.12267146380E+03  0.19411458498E+03  0.27087406449E+03  0.12500000000E+03 0.  0.
</event>
<event>
 4    0  0.2176682E-002  0.3297269E+03  0.7546771E-02  0.1071258E+00
         21   -1    0    0  502  501  0.00000000000E+00  0.00000000000E+00  0.11553376763E+03  0.11553376763E+03  0.00000000000E+00 0. -1.
         21   -1    0    0  501  502 -0.00000000000E+00 -0.00000000000E+00 -0.94102183575E+03  0.94102183575E+03  0.00000000000E+00 0. -1.
         25    1    1    2    0    0  0.65251377889E+02  0.23135446594E+03 -0.71381593693E+03  0.76350561428E+03  0.12500000000E+03 0.  0.
         25    1    1    2    0    0 -0.65251377889E+02 -0.23135446594E+03 -0.11167213120E+03  0.29304998911E+03  0.12500000000E+03 0.  0.
</event>
<event>
 4    0  0.2176682E-002  0.2151939E+03  0.7546771E-02  0.1137518E+00
         21   -1    0    0  502  501  0.00000000000E+00  0.00000000000E+00  0.19929043598E+03  0.19929043598E+03  0.00000000000E+00 0.  1.
         21   -1    0    0  501  502 -0.00000000000E+00 -0.00000000000E+00 -0.23236655969E+03  0.23236655969E+03  0.00000000000E+00 0.  1.
         25    1    1    2    0    0 -0.11721211802E+03  0.10376085418E+03  0.62296757147E+02  0.20978770560E+03  0.12500000000E+03 0.  0.
         25    1    1    2    0    0  0.11721211802E+03 -0.10376085418E+03 -0.95372880857E+02  0.22186929007E+03  0.12500000000E+03 0.  0.
</event>
<event>
 4    0  0.2176682E-002  0.1463855E+03  0.7546771E-02  0.1204986E+00
         21   -1    0    0  502  501  0.00000000000E+00  0.00000000000E+00  0.43873311382E+02  0.43873311382E+02  0.00000000000E+00 0. -1.
         21   -1    0    0  501  502 -0.00000000000E+00 -0.00000000000E+00 -0.48842242204E+03  0.48842242204E+03  0.00000000000E+00 0. -1.
         25    1    1    2    0    0 -0.32819116074E+02  0.55596608946E+02 -0.29580509366E+03  0.32755721751E+03  0.12500000000E+03 0.  0.
         25    1    1    2    0    0  0.32819116074E+02 -0.55596608946E+02 -0.14874401700E+03  0.20473851591E+03  0.12500000000E+03 0.  0.
</event>
<event>
 4    0  0.2176682E-002  0.3754074E+03  0.7546771E-02  0.1052644E+00
         21   -1    0    0  502  501  0.00000000000E+00  0.00000000000E+00  0.14545620868E+03  0.14545620868E+03  0.00000000000E+00 0.  1.
         21   -1    0    0  501  502 -0.00000000000E+00 -0.00000000000E+00 -0.96888735652E+03  0.96888735652E+03  0.00000000000E+00 0.  1.
         25    1    1    2    0    0 -0.10906772302E+02  0.23494077880E+03 -0.80436317802E+03  0.84731413854E+03  0.12500000000E+03 0.  0.
         25    1    1    2    0    0  0.10906772302E+02 -0.23494077880E+03 -0.19067969823E+02  0.26702942665E+03  0.12500000000E+03 0.  0.
</event>
<event>
 4    0  0.2176682E-002  0.2003547E+03  0.7546771E-02  0.1149440E+00
         21   -1    0    0  502  501  0.00000000000E+00  0.00000000000E+00  0.20370201296E+04  0.20370201296E+04  0.00000000000E+00 0. -1.
         21   -1    0    0  501  502 -0.00000000000E+00 -0.00000000000E+00 -0.19706247199E+02  0.19706247199E+02  0.00000000000E+00 0. -1.
         25    1    1    2    0    0  0.40815763990E+02  0.14611672135E+03  0.12075122338E+04  0.12234078705E+04  0.12500000000E+03 0.  0.
         25    1    1    2    0    0 -0.40815763990E+02 -0.14611672135E+03  0.80980164863E+03  0.83331850632E+03  0.12500000000E+03 0.  0.
</event>
<event>
 4    0  0.2176682E-002  0.2219978E+03  0.7546771E-02  0.1132402E+00
         21   -1    0    0  502  501  0.00000000000E+00  0.00000000000E+00  0.91753894446E+02  0.91753894446E+02  0.00000000000E+00 0. -1.
         21   -1    0    0  501  502 -0.00000000000E+00 -0.00000000000E+00 -0.53712203996E+03  0.53712203996E+03  0.00000000000E+00 0. -1.
         25    1    1    2    0    0 -0.96975027813E+02  0.10277684857E+03 -0.56954240762E+02  0.19706857223E+03  0.12500000000E+03 0.  0.
         25    1    1    2    0    0  0.96975027813E+02 -0.10277684857E+03 -0.38841390475E+03  0.43180736217E+03  0.12500000000E+03 0.  0.
</event>
<event>
 4    0  0.2176682E-002  0.1757639E+03  0.7546771E-02  0.1171967E+00
         21   -1    0    0  502  501  0.00000000000E+00  0.00000000000E+00  0.85446658755E+02  0.85446658755E+02  0.00000000000E+00 0. -1.
         21   -1    0    0  501  502 -0.00000000000E+00 -0.00000000000E+00 -0.36154668697E+03  0.36154668697E+03  0.00000000000E+00 0. -1.
         25    1    1    2    0    0  0.23354400966E+02 -0.11960037546E+03 -0.16405604734E+03  0.23956014803E+03  0.12500000000E+03 0.  0.
         25    1    1    2    0    0 -0.23354400966E+02  0.11960037546E+03 -0.11204398088E+03  0.20743319770E+03  0.12500000000E+03 0.  0.
</event>
<event>
 4    0  0.2176682E-002  0.2054690E+03  0.7546771E-02  0.1145205E+00
         21   -1    0    0  502  501  0.00000000000E+00  0.00000000000E+00  0.65820046467E+03  0.65820046467E+03  0.00000000000E+00 0.  1.
         21   -1    0    0  501  502 -0.00000000000E+00 -0.00000000000E+00 -0.64140777504E+02  0.64140777504E+02  0.00000000000E+00 0.  1.
         25    1    1    2    0    0 -0.87991367743E+02  0.13643365669E+01  0.55705825482E+02  0.16270366070E+03  0.12500000000E+03 0.  0.
         25    1    1    2    0    0  0.87991367743E+02 -0.13643365669E+01  0.53835386168E+03  0.55963758148E+03  0.12500000000E+03 0.  0.
</event>
<event>
 4    0  0.2176682E-002  0.1766874E+03  0.7546771E-02  0.1171048E+00
         21   -1    0    0  502  501  0.00000000000E+00  0.00000000000E+00  0.23574580571E+02  0.23574580571E+02  0.00000000000E+00 0.  1.
         21   -1    0    0  501  502 -0.00000000000E+00 -0.00000000000E+00 -0.13242407316E+04  0.13242407316E+04  0.00000000000E+00 0.  1.
         25    1    1    2    0    0  0.10930129029E+03 -0.42303117835E+01 -0.42057351618E+03  0.45218552620E+03  0.12500000000E+03 0.  0.
         25    1    1    2    0    0 -0.10930129029E+03  0.42303117835E+01 -0.88009263487E+03  0.89562978599E+03  0.12500000000E+03 0.  0.
</event>
<event>
 4    0  0.2176682E-002  0.1959398E+03  0.7546771E-02  0.1153211E+00
         21   -1    0    0  502  501  0.00000000000E+00  0.00000000000E+00  0.54058288084E+03  0.54058288084E+03  0.00000000000E+00 0. -1.
         21   -1    0    0  501  502 -0.00000000000E+00 -0.00000000000E+00 -0.71020391929E+02  0.71020391929E+02  0.00000000000E+00 0. -1.
         25    1    1    2    0    0 -0.86137090586E+02 -0.10350559827E+03  0.34102757135E+03  0.38737296197E+03  0.12500000000E+03 0.  0.
         25    1    1    2    0    0  0.86137090586E+02  0.10350559827E+03  0.12853491756E+03  0.22423031080E+03  0.12500000000E+03 0.  0.
</event>
<event>
 4    0  0.2176682E-002  0.1608811E+03  0.7546771E-02  0.1187706E+00
         21   -1    0    0  502  501  0.00000000000E+00  0.00000000000E+00  0.10699946015E+02  0.10699946015E+02  0.00000000000E+00 0. -1.
         21   -1    0    0  501  502 -0.00000000000E+00 -0.00000000000E+00 -0.24189599362E+04  0.24189599362E+04  0.00000000000E+00 0. -1.
         25    1    1    2    0    0 -0.12951399747E+02 -0.98306276082E+02 -0.10482993070E+04  0.10603717743E+04  0.12500000000E+03 0.  0.
         25    1    1    2    0    0  0.12951399747E+02  0.98306276082E+02 -0.13599606832E+04  0.13692881079E+04  0.12500000000E+03 0.  0.
</event>
<event>
 4    0  0.2176682E-002  0.2369217E+03  0.7546771E-02  0.1121861E+00
         21   -1    0    0  502  501  0.00000000000E+00  0.00000000000E+00  0.64445133944E+02  0.64445133944E+02  0.00000000000E+00 0.  1.
         21   -1    0    0  501  502 -0.00000000000E+00 -0.00000000000E+00 -0.87100276478E+03  0.87100276478E+03  0.00000000000E+00 0.  1.
         25    1    1    2    0    0  0.20078709618E+03 -0.11314395183E+02 -0.38755763087E+03  0.45416890115E+03  0.12500000000E+03 0.  0.
         25    1    1    2    0    0 -0.20078709618E+03  0.11314395183E+02 -0.41899999997E+03  0.48127899757E+03  0.12500000000E+03 0.  0.
</event>
<event>
 4    0  0.2176682E-002  0.2294074E+03  0.7546771E-02  0.1127058E+00
         21   -1    0    0  502  501  0.00000000000E+00  0.00000000000E+00  0.90852888035E+02  0.90852888035E+02  0.00000000000E+00 0. -1.
         21   -1    0    0  501  502 -0.00000000000E+00 -0.00000000000E+00 -0.57926322520E+03  0.57926322520E+03  0.00000000000E+00 0. -1.
         25    1    1    2    0    0  0.15734416228E+03 -0.10246762434E+03 -0.18317745995E+03  0.29057835651E+03  0.12500000000E+03 0.  0.
         25    1    1    2    0    0 -0.15734416228E+03  0.10246762434E+03 -0.30523287722E+03  0.37953775672E+03  0.12500000000E+03 0.  0.
</event>
<event>
 4    0  0.2176682E-002  0.1883363E+03  0.7546771E-02  0.1159971E+00
         21   -1    0    0  502  501  0.00000000000E+00  0.00000000000E+00  0.15875356945E+02  0.15875356945E+02  0.00000000000E+00 0. -1.
         21   -1    0    0  501  502 -0.00000000000E+00 -0.00000000000E+00 -0.22343150209E+04  0.22343150209E+04  0.00000000000E+00 0. -1.
         25    1    1    2    0    0 -0.13623008802E+03 -0.29475975965E+02 -0.98707243859E+03  0.10046713239E+04  0.12500000000E+03 0.  0.
         25    1    1    2    0    0  0.13623008802E+03  0.29475975965E+02 -0.12313672254E+04  0.12455190540E+04  0.12500000000E+03 0.  0.
</event>
<event>
 4    0  0.2176682E-002  0.2720165E+03  0.7546771E-02  0.1100131E+00
         21   -1    0    0  502  501  0.00000000000E+00  0.00000000000E+00  0.33195175858E+03  0.33195175858E+03  0.00000000000E+00 0. -1.
         21   -1    0    0  501  502 -0.00000000000E+00 -0.00000000000E+00 -0.22290272275E+03  0.22290272275E+03  0.00000000000E+00 0. -1.
         25    1    1    2    0    0  0.21171098617E+03  0.66387889814E+02 -0.42975484663E+02  0.25826495283E+03  0.12500000000E+03 0.  0.
         25    1    1    2    0    0 -0.21171098617E+03 -0.66387889814E+02  0.15202452049E+03  0.29658952849E+03  0.12500000000E+03 0.  0.
</event>
<event>
 4    0  0.2176682E-002  0.1627489E+03  0.7546771E-02  0.1185628E+00
         21   -1    0    0  502  501  0.00000000000E+00  0.00000000000E+00  0.12806867033E+03  0.12806867033E+03  0.00000000000E+00 0.  1.
         21   -1    0    0  501  502 -0.00000000000E+00 -0.00000000000E+00 -0.20682023635E+03  0.20682023635E+03  0.00000000000E+00 0.  1.
         25    1    1    2    0    0  0.59396581464E+02  0.72663668597E+02  0.72554972267E+01  0.15647876809E+03  0.12500000000E+03 0.  0.
         25    1    1    2    0    0 -0.59396581464E+02 -0.72663668597E+02 -0.86007063247E+02  0.17841013859E+03  0.12500000000E+03 0.  0.
</event>
<event>
 4    0  0.2176682E-002  0.2754230E+03  0.7546771E-02  0.1098215E+00
         21   -1    0    0  502  501  0.00000000000E+00  0.00000000000E+00  0.17577440487E+03  0.17577440487E+03  0.00000000000E+00 0.  1.
         21   -1    0    0  501  502 -0.00000000000E+00 -0.00000000000E+00 -0.43156348878E+03  0.43156348878E+03  0.00000000000E+00 0.  1.
         25    1    1    2    0    0 -0.16556786347E+03 -0.17882449701E+03 -0.95903398374E+02  0.29019541686E+03  0.12500000000E+03 0.  0.
         25    1    1    2    0    0  0.16556786347E+03  0.17882449701E+03 -0.15988568554E+03  0.31714247679E+03  0.12500000000E+03 0.  0.
</event>
<event>
 4    0  0.2176682E-002  0.1854604E+03  0.7546771E-02  0.1162621E+00
         21   -1    0    0  502  501  0.00000000000E+00  0.00000000000E+00  0.55450730333E+02  0.55450730333E+02  0.00000000000E+00 0. -1.
         21   -1    0    0  501  502 -0.00000000000E+00 -0.00000000000E+00 -0.62029022043E+03  0.62029022043E+03  0.00000000000E+00 0. -1.
         25    1    1    2    0    0 -0.11313605206E+03 -0.45844784447E+01 -0.14189625153E+03  0.22040945968E+03  0.12500000000E+03 0.  0.
         25    1    1    2    0    0  0.11313605206E+03  0.45844784447E+01 -0.42294323857E+03  0.45533149108E+03  0.12500000000E+03 0.  0.
</event>
<event>
 4    0  0.2176682E-002  0.2551392E+03  0.7546771E-02  0.1110099E+00
         21   -1    0    0  502  501  0.00000000000E+00  0.00000000000E+00  0.49897589084E+03  0.49897589084E+03  0.00000000000E+00 0.  1.
         21   -1    0    0  501  502 -0.00000000000E+00 -0.00000000000E+00 -0.13045924454E+03  0.13045924454E+03  0.00000000000E+00 0.  1.
         25    1    1    2    0    0 -0.19122340028E+03 -0.84341329080E+02  0.90388305257E+02  0.25975930076E+03  0.12500000000E+03 0.  0.
         25    1    1    2    0    0  0.19122340028E+03  0.84341329080E+02  0.27812834105E+03  0.36967583462E+03  0.12500000000E+03 0.  0.
</event>
<event>
 4    0  0.2176682E-002  0.3250238E+03  0.7546771E-02  0.1073360E+00
         21   -1    0    0  502  501  0.00000000000E+00  0.00000000000E+00  0.20989426441E+04  0.20989426441E+04  0.00000000000E+00 0. -1.
         21   -1    0    0  501  502 -0.00000000000E+00 -0.00000000000E+00 -0.50330341115E+02  0.50330341115E+02  0.00000000000E+00 0. -1.
         25    1    1    2    0    0 -0.25745618965E+03 -0.15403166413E+03  0.10324427609E+04  0.10823920259E+04  0.12500000000E+03 0.  0.
         25    1    1    2    0    0  0.25745618965E+03  0.15403166413E+03  0.10161695421E+04  0.10668809594E+04  0.12500000000E+03 0.  0.
</event>
<event>
 4    0  0.2176682E-002  0.1834135E+03  0.7546771E-02  0.1164540E+00
         21   -1    0    0  502  501  0.00000000000E+00  0.00000000000E+00  0.95686494098E+02  0.95686494098E+02  0.00000000000E+00 0.  1.
         21   -1    0    0  501  502 -0.00000000000E+00 -0.00000000000E+00 -0.35157009180E+03  0.35157009180E+03  0.00000000000E+00 0.  1.
         25    1    1    2    0    0  0.11731942566E+03 -0.63238723000E+02 -0.10856650332E+03  0.21254333527E+03  0.12500000000E+03 0.  0.
         25    1    1    2    0    0 -0.11731942566E+03  0.63238723000E+02 -0.14731709437E+03  0.23471325062E+03  0.12500000000E+03 0.  0.
</event>
<event>
 4    0  0.2176682E-002  0.2076672E+03  0.7546771E-02  0.1143427E+00
         21   -1    0    0  502  501  0.00000000000E+00  0.00000000000E+00  0.35337987513E+03  0.35337987513E+03  0.00000000000E+00 0. -1.
         21   -1    0    0  501  502 -0.00000000000E+00 -0.00000000000E+00 -0.12203769896E+03  0.12203769896E+03  0.00000000000E+00 0. -1.
         25    1    1    2    0    0  0.48162609080E+02 -0.29092325928E+02  0.29423349178E+03  0.32459874927E+03  0.12500000000E+03 0.  0.
         25    1    1    2    0    0 -0.48162609080E+02  0.29092325928E+02 -0.62891315610E+02  0.15081882482E+03  0.12500000000E+03 0.  0.
</event>
<event>
 4    0  0.2176682E-002  0.2375369E+03  0.7546771E-02  0.1121445E+00
         21   -1    0    0  502  501  0.00000000000E+00  0.00000000000E+00  0.84355023432E+02  0.84355023432E+02  0.00000000000E+00 0.  1.
         21   -1    0    0  501  502 -0.00000000000E+00 -0.00000000000E+00 -0.66888474421E+03  0.66888474421E+03  0.00000000000E+00 0.  1.
         25    1    1    2    0    0 -0.46062771234E+02 -0.18540896875E+03 -0.18828893447E+03  0.29593240348E+03  0.12500000000E+03 0.  0.
         25    1    1    2    0    0  0.46062771234E+02  0.18540896875E+03 -0.39624078631E+03  0.45730736416E+03  0.12500000000E+03 0.  0.
</event>
<event>
 4    0  0.2176682E-002  0.1981729E+03  0.7546771E-02  0.1151290E+00
         21   -1    0    0  502  501  0.00000000000E+00  0.00000000000E+00  0.67786549685E+03  0.67786549685E+03  0.00000000000E+00 0. -1.
         21   -1    0    0  501  502 -0.00000000000E+00 -0.00000000000E+00 -0.57935517506E+02  0.57935517506E+02  0.00000000000E+00 0. -1.
         25    1    1    2    0    0 -0.38442593846E+02  0.14259158677E+03  0.38953979602E+03  0.43494418759E+03  0.12500000000E+03 0.  0.
         25    1    1    2    0    0  0.38442593846E+02 -0.14259158677E+03  0.23039018333E+03  0.30085682677E+03  0.12500000000E+03 0.  0.
</event>
<event>
 4    0  0.2176682E-002  0.2623618E+03  0.7546771E-02  0.1105732E+00
         21   -1    0    0  502  501  0.00000000000E+00  0.00000000000E+00  0.16658653491E+03  0.16658653491E+03  0.00000000000E+00 0.  1.
         21   -1    0    0  501  502 -0.00000000000E+00 -0.00000000000E+00 -0.41320093439E+03  0.41320093439E+03  0.00000000000E+00 0.  1.
         25    1    1    2    0    0  0.20937116757E+03 -0.25061944156E+02 -0.22663124009E+03  0.33384293589E+03  0.12500000000E+03 0.  0.
         25    1    1    2    0    0 -0.20937116757E+03  0.25061944156E+02 -0.19983159390E+02  0.24594453341E+03  0.12500000000E+03 0.  0.
</event>
<event>
 4    0  0.2176682E-002  0.1825039E+03  0.7546771E-02  0.1165402E+00
         21   -1    0    0  502  501  0.00000000000E+00  0.00000000000E+00  0.40866657767E+02  0.40866657767E+02  0.00000000000E+00 0.  1.
         21   -1    0    0  501  502 -0.00000000000E+00 -0.00000000000E+00 -0.81503284964E+03  0.81503284964E+03  0.00000000000E+00 0.  1.
         25    1    1    2    0    0 -0.85123326778E+02  0.43340253254E+02 -0.60401062833E+03  0.62416199616E+03  0.12500000000E+03 0.  0.
         25    1    1    2    0    0  0.85123326778E+02 -0.43340253254E+02 -0.17015556354E+03  0.23173751124E+03  0.12500000000E+03 0.  0.
</event>
<event>
 4    0  0.2176682E-002  0.2223995E+03  0.7546771E-02  0.1132107E+00
         21   -1    0    0  502  501  0.00000000000E+00  0.00000000000E+00  0.38586917311E+02  0.38586917311E+02  0.00000000000E+00 0. -1.
         21   -1    0    0  501  502 -0.00000000000E+00 -0.00000000000E+00 -0.12818210976E+04  0.12818210976E+04  0.00000000000E+00 0. -1.
         25    1    1    2    0    0  0.34849580934E+02  0.18060399983E+03 -0.61551409802E+03  0.65445771667E+03  0.12500000000E+03 0.  0.
         25    1    1    2    0    0 -0.34849580934E+02 -0.18060399983E+03 -0.62772008229E+03  0.66595029826E+03  0.12500000000E+03 0.  0.
</event>
<event>
 4    0  0.2176682E-002  0.1845126E+03  0.7546771E-02  0.1163506E+00
         21   -1    0    0  502  501  0.00000000000E+00  0.00000000000E+00  0.83541120351E+02  0.83541120351E+02  0.00000000000E+00 0.  1.
         21   -1    0    0  501  502 -0.00000000000E+00 -0.00000000000E+00 -0.40752263255E+03  0.40752263255E+03  0.00000000000E+00 0.  1.
         25    1    1    2    0    0  0.65148642771E+02  0.10928208032E+03 -0.22487243739E+03  0.28701834756E+03  0.12500000000E+03 0.  0.
         25    1    1    2    0    0 -0.65148642771E+02 -0.10928208032E+03 -0.99109074803E+02  0.20404540534E+03  0.12500000000E+03 0.  0.
</event>
<event>
 4    0  0.2176682E-002  0.2281879E+03  0.7546771E-02  0.1127922E+00
         21   -1    0    0  502  501  0.00000000000E+00  0.00000000000E+00  0.90026716289E+02  0.90026716289E+02  0.00000000000E+00 0. -1.
         21   -1    0    0  501  502 -0.00000000000E+00 -0.00000000000E+00 -0.57838059731E+03  0.57838059731E+03  0.00000000000E+00 0. -1.
         25    1    1    2    0    0 -0.28457920442E+02 -0.17118433187E+03 -0.12764441713E+03  0.24906229329E+03  0.12500000000E+03 0.  0.
         25    1    1    2    0    0  0.28457920442E+02  0.17118433187E+03 -0.36070946389E+03  0.41934502031E+03  0.12500000000E+03 0.  0.
</event>
<event>
 4    0  0.2176682E-002  0.3303001E+03  0.7546771E-02  0.1071004E+00
         21   -1    0    0  502  501  0.00000000000E+00  0.00000000000E+00  0.11177450255E+04  0.11177450255E+04  0.00000000000E+00 0. -1.
         21   -1    0    0  501  502 -0.00000000000E+00 -0.00000000000E+00 -0.97605558614E+02  0.97605558614E+02  0.00000000000E+00 0. -1.
         25    1    1    2    0    0 -0.28217769097E+03  0.36099822997E+02  0.71613749423E+03  0.78064419369E+03  0.12500000000E+03 0.  0.
         25    1    1    2    0    0  0.28217769097E+03 -0.36099822997E+02  0.30400197269E+03  0.43470639046E+03  0.12500000000E+03 0.  0.
</event>
<event>
 4    0  0.2176682E-002  0.3522146E+03  0.7546771E-02  0.1061710E+00
         21   -1    0    0  502  501  0.00000000000E+00  0.00000000000E+00  0.11290942121E+04  0.11290942121E+04  0.00000000000E+00 0.  1.
         21   -1    0    0  501  502 -0.00000000000E+00 -0.00000000000E+00 -0.10987137979E+03  0.10987137979E+03  0.00000000000E+00 0.  1.
         25    1    1    2    0    0  0.28645871802E+03 -0.81837635281E+02  0.26291105500E+03  0.41653717544E+03  0.12500000000E+03 0.  0.
         25    1    1    2    0    0 -0.28645871802E+03  0.81837635281E+02  0.75631177735E+03  0.82242841648E+03  0.12500000000E+03 0.  0.
</event>
<event>
 4    0  0.2176682E-002  0.1898866E+03  0.7546771E-02  0.1158564E+00
         21   -1    0    0  502  501  0.00000000000E+00  0.00000000000E+00  0.45501276729E+03  0.45501276729E+03  0.00000000000E+00 0. -1.
         21   -1    0    0  501  502 -0.00000000000E+00 -0.00000000000E+00 -0.79243723483E+02  0.79243723483E+02  0.00000000000E+00 0. -1.
         25    1    1    2    0    0 -0.76222188687E+02 -0.89502579134E+02  0.73498913466E+02  0.18667518314E+03  0.12500000000E+03 0.  0.
         25    1    1    2    0    0  0.76222188687E+02  0.89502579134E+02  0.30227013035E+03  0.34758130764E+03  0.12500000000E+03 0.  0.
</event>
<event>
 4    0  0.2176682E-002  0.1919321E+03  0.7546771E-02  0.1156730E+00
         21   -1    0    0  502  501  0.00000000000E+00  0.00000000000E+00  0.27239743089E+03  0.27239743089E+03  0.00000000000E+00 0.  1.
         21   -1    0    0  501  502 -0.00000000000E+00 -0.00000000000E+00 -0.13523596174E+03  0.13523596174E+03  0.00000000000E+00 0.  1.
         25    1    1    2    0    0  0.28518740429E+02  0.27913891051E+02 -0.80165629532E+02  0.15376616022E+03  0.12500000000E+03 0.  0.
         25    1    1    2    0    0 -0.28518740429E+02 -0.27913891051E+02  0.21732709869E+03  0.25386723242E+03  0.12500000000E+03 0.  0.
</event>
<event>
 4    0  0.2176682E-002  0.3099670E+03  0.7546771E-02  0.1080362E+00
         21   -1    0    0  502  501  0.00000000000E+00  0.00000000000E+00  0.62114988031E+02  0.62114988031E+02  0.00000000000E+00 0.  1.
         21   -1    0    0  501  502 -0.00000000000E+00 -0.00000000000E+00 -0.15468010093E+04  0.15468010093E+04  0.00000000000E+00 0. -1.
         25    1    1    2    0    0  0.19039764605E+03  0.20618232056E+03 -0.63558446217E+03  0.70594264745E+03  0.12500000000E+03 0.  0.
         25    1    1    2    0    0 -0.19039764605E+03 -0.20618232056E+03 -0.84910155914E+03  0.90297334992E+03  0.12500000000E+03 0.  0.
</event>
<event>
 4    0  0.2176682E-002  0.4664327E+03  0.7546771E-02  0.1022932E+00
         21   -1    0    0  502  501  0.00000000000E+00  0.00000000000E+00  0.33740011936E+03  0.33740011936E+03  0.00000000000E+00 0.  1.
         21   -1    0    0  501  502 -0.00000000000E+00 -0.00000000000E+00 -0.64481137348E+03  0.64481137348E+03  0.00000000000E+00 0.  1.
         25    1    1    2    0    0  0.37599241513E+03 -0.12444627713E+00 -0.41282135241E+03  0.57220344348E+03  0.12500000000E+03 0.  0.
         25    1    1    2    0    0 -0.37599241513E+03  0.12444627713E+00  0.10541009830E+03  0.41000804937E+03  0.12500000000E+03 0.  0.
</event>
<event>
 4    0  0.2176682E-002  0.3017874E+03  0.7546771E-02  0.1084351E+00
         21   -1    0    0  502  501  0.00000000000E+00  0.00000000000E+00  0.24697746730E+03  0.24697746730E+03  0.00000000000E+00 0. -1.
         21   -1    0    0  501  502 -0.00000000000E+00 -0.00000000000E+00 -0.36876093150E+03  0.36876093150E+03  0.00000000000E+00 0. -1.
         25    1    1    2    0    0 -0.14116834713E+03 -0.23265518756E+03 -0.98976397490E+02  0.31540175299E+03  0.12500000000E+03 0.  0.
         25    1    1    2    0    0  0.14116834713E+03  0.23265518756E+03 -0.22807066710E+02  0.30033664582E+03  0.12500000000E+03 0.  0.
</event>
<event>
 4    0  0.2176682E-002  0.1934188E+03  0.7546771E-02  0.1155413E+00
         21   -1    0    0  502  501  0.00000000000E+00  0.00000000000E+00  0.73990304144E+02  0.73990304144E+02  0.00000000000E+00 0. -1.
         21   -1    0    0  501  502 -0.00000000000E+00 -0.00000000000E+00 -0.50561799433E+03  0.50561799433E+03  0.00000000000E+00 0. -1.
         25    1    1    2    0    0  0.61623464493E+02 -0.10953034700E+03 -0.99836537773E+02  0.20343717105E+03  0.12500000000E+03 0.  0.
         25    1    1    2    0    0 -0.61623464493E+02  0.10953034700E+03 -0.33179115242E+03  0.37617112743E+03  0.12500000000E+03 0.  0.
</event>
<event>
 4    0  0.2176682E-002  0.2254816E+03  0.7546771E-02  0.1129861E+00
         21   -1    0    0  502  501  0.00000000000E+00  0.00000000000E+00  0.68626143645E+03  0.68626143645E+03  0.00000000000E+00 0. -1.
         21   -1    0    0  501  502 -0.00000000000E+00 -0.00000000000E+00 -0.74085426677E+02  0.74085426677E+02  0.00000000000E+00 0. -1.
         25    1    1    2    0    0  0.16088342318E+03 -0.83625525202E+02  0.38765289917E+03  0.44584355390E+03  0.12500000000E+03 0.  0.
         25    1    1    2    0    0 -0.16088342318E+03  0.83625525202E+02  0.22452311061E+03  0.31450330923E+03  0.12500000000E+03 0.  0.
</event>
<event>
 4    0  0.2176682E-002  0.2190802E+03  0.7546771E-02  0.1134571E+00
         21   -1    0    0  502  501  0.00000000000E+00  0.00000000000E+00  0.57926644882E+03  0.57926644882E+03  0.00000000000E+00 0.  1.
         21   -1    0    0  501  502 -0.00000000000E+00 -0.00000000000E+00 -0.82856779357E+02  0.82856779357E+02  0.00000000000E+00 0.  1.
         25    1    1    2    0    0 -0.34412802740E+02  0.16912777532E+03  0.17140802427E+03  0.27348520282E+03  0.12500000000E+03 0.  0.
         25    1    1    2    0    0  0.34412802740E+02 -0.16912777532E+03  0.32500164519E+03  0.38863802535E+03  0.12500000000E+03 0.  0.
</event>
<event>
 4    0  0.2176682E-002  0.2118235E+03  0.7546771E-02  0.1140130E+00
         21   -1    0    0  502  501  0.00000000000E+00  0.00000000000E+00  0.29056013151E+02  0.29056013151E+02  0.00000000000E+00 0.  1.
         21   -1    0    0  501  502 -0.00000000000E+00 -0.00000000000E+00 -0.15442308148E+04  0.15442308148E+04  0.00000000000E+00 0.  1.
         25    1    1    2    0    0  0.51632040020E+01  0.14503387378E+03 -0.10935201232E+04  0.11101678896E+04  0.12500000000E+03 0.  0.
         25    1    1    2    0    0 -0.51632040020E+01 -0.14503387378E+03 -0.42165467849E+03  0.46311893841E+03  0.12500000000E+03 0.  0.
</event>
<event>
 4    0  0.2176682E-002  0.2879663E+03  0.7546771E-02  0.1091416E+00
         21   -1    0    0  502  501  0.00000000000E+00  0.00000000000E+00  0.13953315190E+03  0.13953315190E+03  0.00000000000E+00 0.  1.
         21   -1    0    0  501  502 -0.00000000000E+00 -0.00000000000E+00 -0.59430046117E+03  0.59430046117E+03  0.00000000000E+00 0.  1.
         25    1    1    2    0    0 -0.11667297938E+03  0.60890311995E+02 -0.51223704848E+03  0.54344457679E+03  0.12500000000E+03 0.  0.
         25    1    1    2    0    0  0.11667297938E+03 -0.60890311995E+02  0.57469739207E+02  0.19038903628E+03  0.12500000000E+03 0.  0.
</event>
<event>
 4    0  0.2176682E-002  0.1544139E+03  0.7546771E-02  0.1195152E+00
         21   -1    0    0  502  501  0.00000000000E+00  0.00000000000E+00  0.14626226403E+04  0.14626226403E+04  0.00000000000E+00 0. -1.
         21   -1    0    0  501  502 -0.00000000000E+00 -0.00000000000E+00 -0.16301979764E+02  0.16301979764E+02  0.00000000000E+00 0. -1.
         25    1    1    2    0    0  0.65768156051E+02  0.62393200190E+02  0.72570744870E+03  0.74195327540E+03  0.12500000000E+03 0.  0.
         25    1    1    2    0    0 -0.65768156051E+02 -0.62393200190E+02  0.72061321184E+03  0.73697134467E+03  0.12500000000E+03 0.  0.
</event>
<event>
 4    0  0.2176682E-002  0.1996709E+03  0.7546771E-02  0.1150017E+00
         21   -1    0    0  502  501  0.00000000000E+00  0.00000000000E+00  0.61505804092E+02  0.61505804092E+02  0.00000000000E+00 0. -1.
         21   -1    0    0  501  502 -0.00000000000E+00 -0.00000000000E+00 -0.64820679113E+03  0.64820679113E+03  0.00000000000E+00 0. -1.
         25    1    1    2    0    0  0.67925667831E+02  0.13362431412E+03 -0.36820706587E+03  0.41673828362E+03  0.12500000000E+03 0.  0.
         25    1    1    2    0    0 -0.67925667831E+02 -0.13362431412E+03 -0.21849392116E+03  0.29297431160E+03  0.12500000000E+03 0.  0.
</event>
<event>
 4    0  0.2176682E-002  0.2405693E+03  0.7546771E-02  0.1119414E+00
         21   -1    0    0  502  501  0.00000000000E+00  0.00000000000E+00  0.16649832365E+04  0.16649832365E+04  0.00000000000E+00 0.  1.
         21   -1    0    0  501  502 -0.00000000000E+00 -0.00000000000E+00 -0.34759275535E+02  0.34759275535E+02  0.00000000000E+00 0.  1.
         25    1    1    2    0    0  0.13515510691E+03  0.98299131763E+02  0.12378477780E+04  0.12553173876E+04  0.12500000000E+03 0.  0.
         25    1    1    2    0    0 -0.13515510691E+03 -0.98299131763E+02  0.39237618298E+03  0.44442512440E+03  0.12500000000E+03 0.  0.
</event>
<event>
 4    0  0.2176682E-002  0.1521034E+03  0.7546771E-02  0.1197912E+00
         21   -1    0    0  502  501  0.00000000000E+00  0.00000000000E+00  0.79111572684E+03  0.79111572684E+03  0.00000000000E+00 0.  1.
         21   -1    0    0  501  502 -0.00000000000E+00 -0.00000000000E+00 -0.29244076100E+02  0.29244076100E+02  0.00000000000E+00 0.  1.
         25    1    1    2    0    0  0.33680303973E+02  0.55616706174E+02  0.53544778517E+03  0.55367581808E+03  0.12500000000E+03 0.  0.
         25    1    1    2    0    0 -0.33680303973E+02 -0.55616706174E+02  0.22642386557E+03  0.26668398486E+03  0.12500000000E+03 0.  0.
</event>
<event>
 4    0  0.2176682E-002  0.2869243E+03  0.7546771E-02  0.1091966E+00
         21   -1    0    0  502  501  0.00000000000E+00  0.00000000000E+00  0.28131155345E+03  0.28131155345E+03  0.00000000000E+00 0. -1.
         21   -1    0    0  501  502 -0.00000000000E+00 -0.00000000000E+00 -0.29264902061E+03  0.29264902061E+03  0.00000000000E+00 0. -1.
         25    1    1    2    0    0  0.93892931629E+02  0.13992125164E+03  0.19009046488E+03  0.28311344742E+03  0.12500000000E+03 0.  0.
         25    1    1    2    0    0 -0.93892931629E+02 -0.13992125164E+03 -0.20142793204E+03  0.29084712664E+03  0.12500000000E+03 0.  0.
</event>
<event>
 4    0  0.2176682E-002  0.2763603E+03  0.7546771E-02  0.1097694E+00
         21   -1    0    0  502  501  0.00000000000E+00  0.00000000000E+00  0.23516176689E+03  0.23516176689E+03  0.00000000000E+00 0.  1.
         21   -1    0    0  501  502 -0.00000000000E+00 -0.00000000000E+00 -0.32477659953E+03  0.32477659953E+03  0.00000000000E+00 0.  1.
         25    1    1    2    0    0  0.12528643696E+03 -0.12246334827E+03  0.13082337098E+03  0.25186051169E+03  0.12500000000E+03 0.  0.
         25    1    1    2    0    0 -0.12528643696E+03  0.12246334827E+03 -0.22043820362E+03  0.30807785472E+03  0.12500000000E+03 0.  0.
</event>
<event>
 4    0  0.2176682E-002  0.1724186E+03  0.7546771E-02  0.1175349E+00
         21   -1    0    0  502  501  0.00000000000E+00  0.00000000000E+00  0.11315971896E+03  0.11315971896E+03  0.00000000000E+00 0.  1.
         21   -1    0    0  501  502 -0.00000000000E+00 -0.00000000000E+00 -0.26270993289E+03  0.26270993289E+03  0.00000000000E+00 0.  1.
         25    1    1    2    0    0  0.27950136409E+02  0.89187563252E+02 -0.15463177088E+03  0.21970802473E+03  0.12500000000E+03 0.  0.
         25    1    1    2    0    0 -0.27950136409E+02 -0.89187563252E+02  0.50815569457E+01  0.15616162712E+03  0.12500000000E+03 0.  0.
</event>
<event>
 4    0  0.2176682E-002  0.3950301E+03  0.7546771E-02  0.1045514E+00
         21   -1    0    0  502  501  0.00000000000E+00  0.00000000000E+00  0.82834691425E+03  0.82834691425E+03  0.00000000000E+00 0. -1.
         21   -1    0    0  501  502 -0.00000000000E+00 -0.00000000000E+00 -0.18838582724E+03  0.18838582724E+03  0.00000000000E+00 0. -1.
         25    1    1    2    0    0 -0.33921624095E+03  0.13411128111E+03  0.20949896124E+03  0.43882605735E+03  0.12500000000E+03 0.  0.
         25    1    1    2    0    0  0.33921624095E+03 -0.13411128111E+03  0.43046212577E+03  0.57790668414E+03  0.12500000000E+03 0.  0.
</event>
<event>
 4    0  0.2176682E-002  0.1340865E+03  0.7546771E-02  0.1221515E+00
         21   -1    0    0  502  501  0.00000000000E+00  0.00000000000E+00  0.49883139133E+03  0.49883139133E+03  0.00000000000E+00 0. -1.
         21   -1    0    0  501  502 -0.00000000000E+00 -0.00000000000E+00 -0.36042601265E+02  0.36042601265E+02  0.00000000000E+00 0. -1.
         25    1    1    2    0    0  0.39446613298E+02  0.28146696318E+02  0.22654599990E+03  0.26324202150E+03  0.12500000000E+03 0.  0.
         25    1    1    2    0    0 -0.39446613298E+02 -0.28146696318E+02  0.23624279017E+03  0.27163197110E+03  0.12500000000E+03 0.  0.
</event>
<event>
 4    0  0.2176682E-002  0.2171443E+03  0.7546771E-02  0.1136030E+00
         21   -1    0    0  502  501  0.00000000000E+00  0.00000000000E+00  0.37670321541E+03  0.37670321541E+03  0.00000000000E+00 0.  1.
         21   -1    0    0  501  502 -0.00000000000E+00 -0.00000000000E+00 -0.12516926212E+03  0.12516926212E+03  0.00000000000E+00 0.  1.
         25    1    1    2    0    0 -0.10590191668E+03 -0.13793437073E+03  0.84332626608E+02  0.23016971672E+03  0.12500000000E+03 0.  0.
         25    1    1    2    0    0  0.10590191668E+03  0.13793437073E+03  0.16720132668E+03  0.27170276081E+03  0.12500000000E+03 0.  0.
</event>
<event>
 4    0  0.2176682E-002  0.2861489E+03  0.7546771E-02  0.1092377E+00
         21   -1    0    0  502  501  0.00000000000E+00  0.00000000000E+00  0.98629518047E+03  0.98629518047E+03  0.00000000000E+00 0.  1.
         21   -1    0    0  501  502 -0.00000000000E+00 -0.00000000000E+00 -0.83018972453E+02  0.83018972453E+02  0.00000000000E+00 0.  1.
         25    1    1    2    0    0  0.78770706904E+02  0.22649562404E+03  0.27684873381E+03  0.38700815675E+03  0.12500000000E+03 0.  0.
         25    1    1    2    0    0 -0.78770706904E+02 -0.22649562404E+03  0.62642747421E+03  0.68230599618E+03  0.12500000000E+03 0.  0.
</event>
<event>
 4    0  0.2176682E-002  0.2541532E+03  0.7546771E-02  0.1110708E+00
         21   -1    0    0  502  501  0.00000000000E+00  0.00000000000E+00  0.40945591811E+03  0.40945591811E+03  0.00000000000E+00 0. -1.
         21   -1    0    0  501  502 -0.00000000000E+00 -0.00000000000E+00 -0.15775529873E+03  0.15775529873E+03  0.00000000000E+00 0. -1.
         25    1    1    2    0    0  0.23228429128E+02 -0.90339317272E+02  0.34977385845E+03  0.38297193660E+03  0.12500000000E+03 0.  0.
         25    1    1    2    0    0 -0.23228429128E+02  0.90339317272E+02 -0.98073239073E+02  0.18423928025E+03  0.12500000000E+03 0.  0.
</event>
<event>
 4    0  0.2176682E-002  0.2563525E+03  0.7546771E-02  0.1109355E+00
         21   -1    0    0  502  501  0.00000000000E+00  0.00000000000E+00  0.43593623092E+03  0.43593623092E+03  0.00000000000E+00 0. -1.
         21   -1    0    0  501  502 -0.00000000000E+00 -0.00000000000E+00 -0.15074824557E+03  0.15074824557E+03  0.00000000000E+00 0.  1.
         25    1    1    2    0    0 -0.17781291140E+03 -0.32345223246E+02 -0.84698318115E+01  0.21990994288E+03  0.12500000000E+03 0.  0.
         25    1    1    2    0    0  0.17781291140E+03  0.32345223246E+02  0.29365781716E+03  0.36677453361E+03  0.12500000000E+03 0.  0.
</event>
<event>
 4    0  0.2176682E-002  0.2218397E+03  0.7546771E-02  0.1132519E+00
         21   -1    0    0  502  501  0.00000000000E+00  0.00000000000E+00  0.35327406415E+03  0.35327406415E+03  0.00000000000E+00 0. -1.
         21   -1    0    0  501  502 -0.00000000000E+00 -0.00000000000E+00 -0.13930508084E+03  0.13930508084E+03  0.00000000000E+00 0. -1.
         25    1    1    2    0    0  0.10634915102E+03 -0.11271930144E+03 -0.16355683548E+01  0.19910664962E+03  0.12500000000E+03 0.  0.
         25    1    1    2    0    0 -0.10634915102E+03  0.11271930144E+03  0.21560455166E+03  0.29347249537E+03  0.12500000000E+03 0.  0.
</event>
<event>
 4    0  0.2176682E-002  0.2011066E+03  0.7546771E-02  0.1148809E+00
         21   -1    0    0  502  501  0.00000000000E+00  0.00000000000E+00  0.78257963457E+03  0.78257963457E+03  0.00000000000E+00 0.  1.
         21   -1    0    0  501  502 -0.00000000000E+00 -0.00000000000E+00 -0.51680191439E+02  0.51680191439E+02  0.00000000000E+00 0.  1.
         25    1    1    2    0    0  0.10169065194E+03 -0.10080736424E+03  0.22918819663E+03  0.29775047078E+03  0.12500000000E+03 0.  0.
         25    1    1    2    0    0 -0.10169065194E+03  0.10080736424E+03  0.50171124650E+03  0.53650935522E+03  0.12500000000E+03 0.  0.
</event>
<event>
 4    0  0.2176682E-002  0.2117428E+03  0.7546771E-02  0.1140193E+00
         21   -1    0    0  502  501  0.00000000000E+00  0.00000000000E+00  0.36314988428E+02  0.36314988428E+02  0.00000000000E+00 0. -1.
         21   -1    0    0  501  502 -0.00000000000E+00 -0.00000000000E+00 -0.12346145318E+04  0.12346145318E+04  0.00000000000E+00 0. -1.
         25    1    1    2    0    0 -0.35120755047E+02  0.16586570018E+03 -0.66387338666E+03  0.69648960613E+03  0.12500000000E+03 0.  0.
         25    1    1    2    0    0  0.35120755047E+02 -0.16586570018E+03 -0.53442615667E+03  0.57443991406E+03  0.12500000000E+03 0.  0.
</event>
<event>
 4    0  0.2176682E-002  0.2481863E+03  0.7546771E-02  0.1114456E+00
         21   -1    0    0  502  501  0.00000000000E+00  0.00000000000E+00  0.65457585190E+03  0.65457585190E+03  0.00000000000E+00 0. -1.
         21   -1    0    0  501  502 -0.00000000000E+00 -0.00000000000E+00 -0.94101278388E+02  0.94101278388E+02  0.00000000000E+00 0. -1.
         25    1    1    2    0    0  0.10085452013E+03  0.18679452535E+03  0.23479784423E+03  0.34032169574E+03  0.12500000000E+03 0.  0.
         25    1    1    2    0    0 -0.10085452013E+03 -0.18679452535E+03  0.32567672928E+03  0.40835543455E+03  0.12500000000E+03 0.  0.
</event>
<event>
 4    0  0.2176682E-002  0.2260048E+03  0.7546771E-02  0.1129484E+00
         21   -1    0    0  502  501  0.00000000000E+00  0.00000000000E+00  0.39495148364E+02  0.39495148364E+02  0.00000000000E+00 0.  1.
         21   -1    0    0  501  502 -0.00000000000E+00 -0.00000000000E+00 -0.12932767322E+04  0.12932767322E+04  0.00000000000E+00 0.  1.
         25    1    1    2    0    0 -0.13413838042E+03 -0.26134502623E+02 -0.10088050540E+04  0.10256650303E+04  0.12500000000E+03 0.  0.
         25    1    1    2    0    0  0.13413838042E+03  0.26134502623E+02 -0.24497652981E+03  0.30710685027E+03  0.12500000000E+03 0.  0.
</event>
<event>
 4    0  0.2176682E-002  0.2568076E+03  0.7546771E-02  0.1109077E+00
         21   -1    0    0  502  501  0.00000000000E+00  0.00000000000E+00  0.13402394349E+03  0.13402394349E+03  0.00000000000E+00 0.  1.
         21   -1    0    0  501  502 -0.00000000000E+00 -0.00000000000E+00 -0.49207725723E+03  0.49207725723E+03  0.00000000000E+00 0.  1.
         25    1    1    2    0    0  0.18088336751E+03  0.68435424419E+01 -0.34056025510E+03  0.40542806276E+03  0.12500000000E+03 0.  0.
         25    1    1    2    0    0 -0.18088336751E+03 -0.68435424419E+01 -0.17493058637E+02  0.22067313796E+03  0.12500000000E+03 0.  0.
</event>
<event>
 4    0  0.2176682E-002  0.1995618E+03  0.7546771E-02  0.1150109E+00
         21   -1    0    0  502  501  0.00000000000E+00  0.00000000000E+00  0.82461146841E+02  0.82461146841E+02  0.00000000000E+00 0. -1.
         21   -1    0    0  501  502 -0.00000000000E+00 -0.00000000000E+00 -0.48295387900E+03  0.48295387900E+03  0.00000000000E+00 0. -1.
         25    1    1    2    0    0  0.53573638333E+02 -0.65200964535E+02 -0.15112294159E+02  0.15157401471E+03  0.12500000000E+03 0.  0.
         25    1    1    2    0    0 -0.53573638333E+02  0.65200964535E+02 -0.38538043800E+03  0.41384101113E+03  0.12500000000E+03 0.  0.
</event>
<event>
 4    0  0.2176682E-002  0.2570783E+03  0.7546771E-02  0.1108911E+00
         21   -1    0    0  502  501  0.00000000000E+00  0.00000000000E+00  0.21782925157E+03  0.21782925157E+03  0.00000000000E+00 0.  1.
         21   -1    0    0  501  502 -0.00000000000E+00 -0.00000000000E+00 -0.30339942330E+03  0.30339942330E+03  0.00000000000E+00 0.  1.
         25    1    1    2    0    0  0.11109992365E+03 -0.17095342183E+03  0.52830856525E+02  0.24491705713E+03  0.12500000000E+03 0.  0.
         25    1    1    2    0    0 -0.11109992365E+03  0.17095342183E+03 -0.13840102826E+03  0.27631161774E+03  0.12500000000E+03 0.  0.
</event>
<event>
 4    0  0.2176682E-002  0.2102463E+03  0.7546771E-02  0.1141371E+00
         21   -1    0    0  502  501  0.00000000000E+00  0.00000000000E+00  0.29302465340E+03  0.29302465340E+03  0.00000000000E+00 0. -1.
         21   -1    0    0  501  502 -0.00000000000E+00 -0.00000000000E+00 -0.15085255008E+03  0.15085255008E+03  0.00000000000E+00 0. -1.
         25    1    1    2    0    0  0.91078805915E+02  0.14066719095E+03  0.94593489856E+02  0.22946794072E+03  0.12500000000E+03 0.  0.
         25    1    1    2    0    0 -0.91078805915E+02 -0.14066719095E+03  0.47578613469E+02  0.21440926276E+03  0.12500000000E+03 0.  0.
</event>
<event>
 4    0  0.2176682E-002  0.2045221E+03  0.7546771E-02  0.1145979E+00
         21   -1    0    0  502  501  0.00000000000E+00  0.00000000000E+00  0.12667998368E+02  0.12667998368E+02  0.00000000000E+00 0.  1.
         21   -1    0    0  501  502 -0.00000000000E+00 -0.00000000000E+00 -0.33019638267E+04  0.33019638267E+04  0.00000000000E+00 0.  1.
         25    1    1    2    0    0 -0.13886060323E+03 -0.72195717710E+02 -0.19797180459E+04  0.19898248742E+04  0.12500000000E+03 0.  0.
         25    1    1    2    0    0  0.13886060323E+03  0.72195717710E+02 -0.13095777824E+04  0.13248069508E+04  0.12500000000E+03 0.  0.
</event>
<event>
 4    0  0.2176682E-002  0.2333561E+03  0.7546771E-02  0.1124300E+00
         21   -1    0    0  502  501  0.00000000000E+00  0.00000000000E+00  0.61536363794E+02  0.61536363794E+02  0.00000000000E+00 0. -1.
         21   -1    0    0  501  502 -0.00000000000E+00 -0.00000000000E+00 -0.88492507603E+03  0.88492507603E+03  0.00000000000E+00 0. -1.
         25    1    1    2    0    0  0.16070618116E+03 -0.10926627759E+03 -0.34553038498E+03  0.41567035380E+03  0.12500000000E+03 0.  0.
         25    1    1    2    0    0 -0.16070618116E+03  0.10926627759E+03 -0.47785832725E+03  0.53079108603E+03  0.12500000000E+03 0.  0.
</event>
<event>
 4    0  0.2176682E-002  0.2369291E+03  0.7546771E-02  0.1121856E+00
         21   -1    0    0  502  501  0.00000000000E+00  0.00000000000E+00  0.21461708701E+02  0.21461708701E+02  0.00000000000E+00 0. -1.
         21   -1    0    0  501  502 -0.00000000000E+00 -0.00000000000E+00 -0.26156074550E+04  0.26156074550E+04  0.00000000000E+00 0. -1.
         25    1    1    2    0    0 -0.97421468643E+02  0.17117894737E+03 -0.10664579456E+04  0.10916733597E+04  0.12500000000E+03 0.  0.
         25    1    1    2    0    0  0.97421468643E+02 -0.17117894737E+03 -0.15276878007E+04  0.15453958040E+04  0.12500000000E+03 0.  0.
</event>
<event>
 4    0  0.2176682E-002  0.2150143E+03  0.7546771E-02  0.1137656E+00
         21   -1    0    0  502  501  0.00000000000E+00  0.00000000000E+00  0.19366434192E+04  0.19366434192E+04  0.00000000000E+00 0.  1.
         21   -1    0    0  501  502 -0.00000000000E+00 -0.00000000000E+00 -0.23871790233E+02  0.23871790233E+02  0.00000000000E+00 0.  1.
         25    1    1    2    0    0 -0.10367020398E+01  0.15533522300E+03  0.58950278140E+03  0.62230911574E+03  0.12500000000E+03 0.  0.
         25    1    1    2    0    0  0.10367020398E+01 -0.15533522300E+03  0.13232688476E+04  0.13382060937E+04  0.12500000000E+03 0.  0.
</event>
<event>
 4    0  0.2176682E-002  0.1892868E+03  0.7546771E-02  0.1159106E+00
         21   -1    0    0  502  501  0.00000000000E+00  0.00000000000E+00  0.59400205673E+03  0.59400205673E+03  0.00000000000E+00 0.  1.
         21   -1    0    0  501  502 -0.00000000000E+00 -0.00000000000E+00 -0.60318778856E+02  0.60318778856E+02  0.00000000000E+00 0.  1.
         25    1    1    2    0    0  0.94914048525E+02 -0.30753517025E+02  0.91855787367E+02  0.18443682140E+03  0.12500000000E+03 0.  0.
         25    1    1    2    0    0 -0.94914048525E+02  0.30753517025E+02  0.44182749050E+03  0.46988401418E+03  0.12500000000E+03 0.  0.
</event>
<event>
 4    0  0.2176682E-002  0.1596051E+03  0.7546771E-02  0.1189143E+00
         21   -1    0    0  502  501  0.00000000000E+00  0.00000000000E+00  0.43444268837E+02  0.43444268837E+02  0.00000000000E+00 0. -1.
         21   -1    0    0  501  502 -0.00000000000E+00 -0.00000000000E+00 -0.58635569520E+03  0.58635569520E+03  0.00000000000E+00 0. -1.
         25    1    1    2    0    0  0.80146055016E+02  0.38799804559E+02 -0.18500389922E+03  0.24037524351E+03  0.12500000000E+03 0.  0.
         25    1    1    2    0    0 -0.80146055016E+02 -0.38799804559E+02 -0.35790752715E+03  0.38942472053E+03  0.12500000000E+03 0.  0.
</event>
<event>
 4    0  0.2176682E-002  0.1703571E+03  0.7546771E-02  0.1177476E+00
         21   -1    0    0  502  501  0.00000000000E+00  0.00000000000E+00  0.11607496497E+03  0.11607496497E+03  0.00000000000E+00 0.  1.
         21   -1    0    0  501  502 -0.00000000000E+00 -0.00000000000E+00 -0.25002423336E+03  0.25002423336E+03  0.00000000000E+00 0.  1.
         25    1    1    2    0    0  0.21291177873E+02  0.10738613839E+03 -0.10734310511E+03  0.19781971385E+03  0.12500000000E+03 0.  0.
         25    1    1    2    0    0 -0.21291177873E+02 -0.10738613839E+03 -0.26606163275E+02  0.16827948448E+03  0.12500000000E+03 0.  0.
</event>
<event>
 4    0  0.2176682E-002  0.2085212E+03  0.7546771E-02  0.1142742E+00
         21   -1    0    0  502  501  0.00000000000E+00  0.00000000000E+00  0.62270203470E+02  0.62270203470E+02  0.00000000000E+00 0. -1.
         21   -1    0    0  501  502 -0.00000000000E+00 -0.00000000000E+00 -0.69826494447E+03  0.69826494447E+03  0.00000000000E+00 0. -1.
         25    1    1    2    0    0  0.60307539317E+02 -0.58749977472E+02 -0.58080112800E+03  0.60003625677E+03  0.12500000000E+03 0.  0.
         25    1    1    2    0    0 -0.60307539317E+02  0.58749977472E+02 -0.55193613001E+02  0.16049889117E+03  0.12500000000E+03 0.  0.
</event>
<event>
 4    0  0.2176682E-002  0.1837491E+03  0.7546771E-02  0.1164223E+00
         21   -1    0    0  502  501  0.00000000000E+00  0.00000000000E+00  0.31627252811E+03  0.31627252811E+03  0.00000000000E+00 0. -1.
         21   -1    0    0  501  502 -0.00000000000E+00 -0.00000000000E+00 -0.10675522715E+03  0.10675522715E+03  0.00000000000E+00 0. -1.
         25    1    1    2    0    0 -0.32004844142E+02 -0.85663171083E+02  0.21857374275E+03  0.26788424729E+03  0.12500000000E+03 0.  0.
         25    1    1    2    0    0  0.32004844142E+02  0.85663171083E+02 -0.90564417896E+01  0.15514350797E+03  0.12500000000E+03 0.  0.
</event>
<event>
 4    0  0.2176682E-002  0.2428454E+03  0.7546771E-02  0.1117912E+00
         21   -1    0    0  502  501  0.00000000000E+00  0.00000000000E+00  0.12483485161E+04  0.12483485161E+04  0.00000000000E+00 0.  1.
         21   -1    0    0  501  502 -0.00000000000E+00 -0.00000000000E+00 -0.47241542977E+02  0.47241542977E+02  0.00000000000E+00 0.  1.
         25    1    1    2    0    0 -0.15552853378E+02 -0.20587562104E+03  0.67224218070E+03  0.71425570498E+03  0.12500000000E+03 0.  0.
         25    1    1    2    0    0  0.15552853378E+02  0.20587562104E+03  0.52886479241E+03  0.58133435409E+03  0.12500000000E+03 0.  0.
</event>
<event>
 4    0  0.2176682E-002  0.2517662E+03  0.7546771E-02  0.1112194E+00
         21   -1    0    0  502  501  0.00000000000E+00  0.00000000000E+00  0.44598578579E+03  0.44598578579E+03  0.00000000000E+00 0. -1.
         21   -1    0    0  501  502 -0.00000000000E+00 -0.00000000000E+00 -0.14212606170E+03  0.14212606170E+03  0.00000000000E+00 0. -1.
         25    1    1    2    0    0 -0.14330536200E+03 -0.83563432533E+02 -0.14242393398E+02  0.20819971135E+03  0.12500000000E+03 0.  0.
         25    1    1    2    0    0  0.14330536200E+03  0.83563432533E+02  0.31810211749E+03  0.37991213614E+03  0.12500000000E+03 0.  0.
</event>
<event>
 4    0  0.2176682E-002  0.2942582E+03  0.7546771E-02  0.1088147E+00
         21   -1    0    0  502  501  0.00000000000E+00  0.00000000000E+00  0.78527726671E+02  0.78527726671E+02  0.00000000000E+00 0.  1.
         21   -1    0    0  501  502 -0.00000000000E+00 -0.00000000000E+00 -0.11026408082E+04  0.11026408082E+04  0.00000000000E+00 0.  1.
         25    1    1    2    0    0  0.46978987618E+02 -0.11972756748E+03 -0.43850266850E+02  0.18463358740E+03  0.12500000000E+03 0.  0.
         25    1    1    2    0    0 -0.46978987618E+02  0.11972756748E+03 -0.98026281468E+03  0.99653494747E+03  0.12500000000E+03 0.  0.
</event>
<event>
 4    0  0.2176682E-002  0.5733841E+03  0.7546771E-02  0.9962218E-01
         21   -1    0    0  502  501  0.00000000000E+00  0.00000000000E+00  0.90933203458E+03  0.90933203458E+03  0.00000000000E+00 0. -1.
         21   -1    0    0  501  502 -0.00000000000E+00 -0.00000000000E+00 -0.36155032403E+03  0.36155032403E+03  0.00000000000E+00 0. -1.
         25    1    1    2    0    0  0.41383425456E+03 -0.53430210406E+02 -0.13933273740E+03  0.45733159670E+03  0.12500000000E+03 0.  0.
         25    1    1    2    0    0 -0.41383425456E+03  0.53430210406E+02  0.68711444795E+03  0.81355076191E+03  0.12500000000E+03 0.  0.
</event>
<event>
 4    0  0.2176682E-002  0.1482235E+03  0.7546771E-02  0.1202673E+00
         21   -1    0    0  502  501  0.00000000000E+00  0.00000000000E+00  0.95380827144E+02  0.95380827144E+02  0.00000000000E+00 0.  1.
         21   -1    0    0  501  502 -0.00000000000E+00 -0.00000000000E+00 -0.23034181145E+03  0.23034181145E+03  0.00000000000E+00 0.  1.
         25    1    1    2    0    0 -0.29366892738E+02 -0.62951302852E+02 -0.11031661739E+03  0.18061017965E+03  0.12500000000E+03 0.  0.
         25    1    1    2    0    0  0.29366892738E+02  0.62951302852E+02 -0.24644366910E+02  0.14511245894E+03  0.12500000000E+03 0.  0.
</event>
<event>
 4    0  0.2176682E-002  0.2715015E+03  0.7546771E-02  0.1100423E+00
         21   -1    0    0  502  501  0.00000000000E+00  0.00000000000E+00  0.19787878276E+03  0.19787878276E+03  0.00000000000E+00 0. -1.
         21   -1    0    0  501  502 -0.00000000000E+00 -0.00000000000E+00 -0.37251625722E+03  0.37251625722E+03  0.00000000000E+00 0. -1.
         25    1    1    2    0    0  0.18598716599E+03 -0.13322280322E+03 -0.76750010085E+01  0.26081304962E+03  0.12500000000E+03 0.  0.
         25    1    1    2    0    0 -0.18598716599E+03  0.13322280322E+03 -0.16696247345E+03  0.30958199036E+03  0.12500000000E+03 0.  0.
</event>
<event>
 4    0  0.2176682E-002  0.1931916E+03  0.7546771E-02  0.1155614E+00
         21   -1    0    0  502  501  0.00000000000E+00  0.00000000000E+00  0.41899939034E+03  0.41899939034E+03  0.00000000000E+00 0.  1.
         21   -1    0    0  501  502 -0.00000000000E+00 -0.00000000000E+00 -0.89076461756E+02  0.89076461756E+02  0.00000000000E+00 0.  1.
         25    1    1    2    0    0 -0.70525675837E+02 -0.39669096692E+02  0.31074376379E+01  0.14893677972E+03  0.12500000000E+03 0.  0.
         25    1    1    2    0    0  0.70525675837E+02  0.39669096692E+02  0.32681549094E+03  0.35913907237E+03  0.12500000000E+03 0.  0.
</event>
<event>
 4    0  0.2176682E-002  0.2893048E+03  0.7546771E-02  0.1090713E+00
         21   -1    0    0  502  501  0.00000000000E+00  0.00000000000E+00  0.67153926776E+03  0.67153926776E+03  0.00000000000E+00 0.  1.
         21   -1    0    0  501  502 -0.00000000000E+00 -0.00000000000E+00 -0.12463499860E+03  0.12463499860E+03  0.00000000000E+00 0.  1.
         25    1    1    2    0    0  0.71264990632E+02 -0.24871559442E+03  0.31979230824E+03  0.42991890655E+03  0.12500000000E+03 0.  0.
         25    1    1    2    0    0 -0.71264990632E+02  0.24871559442E+03  0.22711196092E+03  0.36625535981E+03  0.12500000000E+03 0.  0.
</event>
<event>
 4    0  0.2176682E-002  0.2109330E+03  0.7546771E-02  0.1140829E+00
         21   -1    0    0  502  501  0.00000000000E+00  0.00000000000E+00  0.11388016282E+03  0.11388016282E+03  0.00000000000E+00 0.  1.
         21   -1    0    0  501  502 -0.00000000000E+00 -0.00000000000E+00 -0.39069794700E+03  0.39069794700E+03  0.00000000000E+00 0.  1.
         25    1    1    2    0    0 -0.85666681248E+02 -0.14630942728E+03 -0.15164779618E+03  0.25955208124E+03  0.12500000000E+03 0.  0.
         25    1    1    2    0    0  0.85666681248E+02  0.14630942728E+03 -0.12516998799E+03  0.24502602858E+03  0.12500000000E+03 0.  0.
</event>
<event>
 4    0  0.2176682E-002  0.1944626E+03  0.7546771E-02  0.1154497E+00
         21   -1    0    0  502  501  0.00000000000E+00  0.00000000000E+00  0.44032694314E+03  0.44032694314E+03  0.00000000000E+00 0.  1.
         21   -1    0    0  501  502 -0.00000000000E+00 -0.00000000000E+00 -0.85881004591E+02  0.85881004591E+02  0.00000000000E+00 0.  1.
         25    1    1    2    0    0  0.12340750753E+03 -0.28103936569E+02  0.28351133853E+03  0.33469825700E+03  0.12500000000E+03 0.  0.
         25    1    1    2    0    0 -0.12340750753E+03  0.28103936569E+02  0.70934600027E+02  0.19150969074E+03  0.12500000000E+03 0.  0.
</event>
<event>
 4    0  0.2176682E-002  0.1765374E+03  0.7546771E-02  0.1171197E+00
         21   -1    0    0  502  501  0.00000000000E+00  0.00000000000E+00  0.31464504308E+03  0.31464504308E+03  0.00000000000E+00 0. -1.
         21   -1    0    0  501  502 -0.00000000000E+00 -0.00000000000E+00 -0.99049602420E+02  0.99049602420E+02  0.00000000000E+00 0. -1.
         25    1    1    2    0    0 -0.49015560899E+02  0.76800417158E+01 -0.26200695513E+02  0.13701454192E+03  0.12500000000E+03 0.  0.
         25    1    1    2    0    0  0.49015560899E+02 -0.76800417158E+01  0.24179613618E+03  0.27668010359E+03  0.12500000000E+03 0.  0.
</event>
<event>
 4    0  0.2176682E-002  0.3138547E+03  0.7546771E-02  0.1078513E+00
         21   -1    0    0  502  501  0.00000000000E+00  0.00000000000E+00  0.28416560456E+03  0.28416560456E+03  0.00000000000E+00 0.  1.
         21   -1    0    0  501  502 -0.00000000000E+00 -0.00000000000E+00 -0.34664558800E+03  0.34664558800E+03  0.00000000000E+00 0.  1.
         25    1    1    2    0    0  0.15929595126E+03 -0.32062626828E+01 -0.27220450800E+03  0.33927241913E+03  0.12500000000E+03 0.  0.
         25    1    1    2    0    0 -0.15929595126E+03  0.32062626828E+01  0.20972452456E+03  0.29153877343E+03  0.12500000000E+03 0.  0.
</event>
<event>
 4    0  0.2176682E-002  0.2674826E+03  0.7546771E-02  0.1102729E+00
         21   -1    0    0  502  501  0.00000000000E+00  0.00000000000E+00  0.20006410139E+03  0.20006410139E+03  0.00000000000E+00 0.  1.
         21   -1    0    0  501  502 -0.00000000000E+00 -0.00000000000E+00 -0.35762005147E+03  0.35762005147E+03  0.00000000000E+00 0.  1.
         25    1    1    2    0    0  0.73809460970E+02  0.97649613151E+02 -0.28970370277E+03  0.33843244359E+03  0.12500000000E+03 0.  0.
         25    1    1    2    0    0 -0.73809460970E+02 -0.97649613151E+02  0.13214775269E+03  0.21925170927E+03  0.12500000000E+03 0.  0.
</event>
<event>
 4    0  0.2176682E-002  0.1974777E+03  0.7546771E-02  0.1151885E+00
         21   -1    0    0  502  501  0.00000000000E+00  0.00000000000E+00  0.20578212464E+03  0.20578212464E+03  0.00000000000E+00 0. -1.
         21   -1    0    0  501  502 -0.00000000000E+00 -0.00000000000E+00 -0.18950831167E+03  0.18950831167E+03  0.00000000000E+00 0. -1.
         25    1    1    2    0    0 -0.14730737932E+03 -0.29864487614E+02  0.36108275424E+02  0.19879677859E+03  0.12500000000E+03 0.  0.
         25    1    1    2    0    0  0.14730737932E+03  0.29864487614E+02 -0.19834462459E+02  0.19649365772E+03  0.12500000000E+03 0.  0.
</event>
<event>
 4    0  0.2176682E-002  0.2418159E+03  0.7546771E-02  0.1118589E+00
         21   -1    0    0  502  501  0.00000000000E+00  0.00000000000E+00  0.31504145129E+02  0.31504145129E+02  0.00000000000E+00 0. -1.
         21   -1    0    0  501  502 -0.00000000000E+00 -0.00000000000E+00 -0.18561023249E+04  0.18561023249E+04  0.00000000000E+00 0. -1.
         25    1    1    2    0    0 -0.17161947804E+03  0.24091549310E+02 -0.13541517380E+04  0.13709068450E+04  0.12500000000E+03 0.  0.
         25    1    1    2    0    0  0.17161947804E+03 -0.24091549310E+02 -0.47044644179E+03  0.51669962510E+03  0.12500000000E+03 0.  0.
</event>
<event>
 4    0  0.2176682E-002  0.3040198E+03  0.7546771E-02  0.1083248E+00
         21   -1    0    0  502  501  0.00000000000E+00  0.00000000000E+00  0.49743277119E+03  0.49743277119E+03  0.00000000000E+00 0. -1.
         21   -1    0    0  501  502 -0.00000000000E+00 -0.00000000000E+00 -0.18581010953E+03  0.18581010953E+03  0.00000000000E+00 0. -1.
         25    1    1    2    0    0  0.21999964474E+03  0.16828657006E+03  0.16603771929E+03  0.34628563004E+03  0.12500000000E+03 0.  0.
         25    1    1    2    0    0 -0.21999964474E+03 -0.16828657006E+03  0.14558494237E+03  0.33695725069E+03  0.12500000000E+03 0.  0.
</event>
<event>
 4    0  0.2176682E-002  0.2311429E+03  0.7546771E-02  0.1125838E+00
         21   -1    0    0  502  501  0.00000000000E+00  0.00000000000E+00  0.36581852886E+03  0.36581852886E+03  0.00000000000E+00 0.  1.
         21   -1    0    0  501  502 -0.00000000000E+00 -0.00000000000E+00 -0.14604795997E+03  0.14604795997E+03  0.00000000000E+00 0.  1.
         25    1    1    2    0    0 -0.15684274385E+03  0.10947895649E+03  0.71262030348E+02  0.23935029806E+03  0.12500000000E+03 0.  0.
         25    1    1    2    0    0  0.15684274385E+03 -0.10947895649E+03  0.14850853854E+03  0.27251619077E+03  0.12500000000E+03 0.  0.
</event>
<event>
 4    0  0.2176682E-002  0.1884868E+03  0.7546771E-02  0.1159833E+00
         21   -1    0    0  502  501  0.00000000000E+00  0.00000000000E+00  0.19848720825E+04  0.19848720825E+04  0.00000000000E+00 0.  1.
         21   -1    0    0  501  502 -0.00000000000E+00 -0.00000000000E+00 -0.17899024578E+02  0.17899024578E+02  0.00000000000E+00 0.  1.
         25    1    1    2    0    0  0.31951910620E+01 -0.63213370318E+02  0.31365413652E+03  0.34352591865E+03  0.12500000000E+03 0.  0.
         25    1    1    2    0    0 -0.31951910620E+01  0.63213370318E+02  0.16533189214E+04  0.16592451884E+04  0.12500000000E+03 0.  0.
</event>
<event>
 4    0  0.2176682E-002  0.2368316E+03  0.7546771E-02  0.1121922E+00
         21   -1    0    0  502  501  0.00000000000E+00  0.00000000000E+00  0.46576286293E+03  0.46576286293E+03  0.00000000000E+00 0.  1.
         21   -1    0    0  501  502 -0.00000000000E+00 -0.00000000000E+00 -0.12042440670E+03  0.12042440670E+03  0.00000000000E+00 0.  1.
         25    1    1    2    0    0  0.93461959458E+01  0.17326285411E+03  0.29861410633E+03  0.36729110048E+03  0.12500000000E+03 0.  0.
         25    1    1    2    0    0 -0.93461959458E+01 -0.17326285411E+03  0.46724349902E+02  0.21889616915E+03  0.12500000000E+03 0.  0.
</event>
<event>
 4    0  0.2176682E-002  0.1730111E+03  0.7546771E-02  0.1174744E+00
         21   -1    0    0  502  501  0.00000000000E+00  0.00000000000E+00  0.17785202963E+03  0.17785202963E+03  0.00000000000E+00 0. -1.
         21   -1    0    0  501  502 -0.00000000000E+00 -0.00000000000E+00 -0.16830200052E+03  0.16830200052E+03  0.00000000000E+00 0. -1.
         25    1    1    2    0    0 -0.40226682606E+02 -0.31696399059E+02 -0.10336334821E+03  0.17009359029E+03  0.12500000000E+03 0.  0.
         25    1    1    2    0    0  0.40226682606E+02  0.31696399059E+02  0.11291337732E+03  0.17606043986E+03  0.12500000000E+03 0.  0.
</event>
<event>
 4    0  0.2176682E-002  0.2659636E+03  0.7546771E-02  0.1103612E+00
         21   -1    0    0  502  501  0.00000000000E+00  0.00000000000E+00  0.36398565837E+03  0.36398565837E+03  0.00000000000E+00 0. -1.
         21   -1    0    0  501  502 -0.00000000000E+00 -0.00000000000E+00 -0.19433903595E+03  0.19433903595E+03  0.00000000000E+00 0. -1.
         25    1    1    2    0    0  0.19086074323E+03  0.13230871426E+03  0.48794933844E+02  0.26821514637E+03  0.12500000000E+03 0.  0.
         25    1    1    2    0    0 -0.19086074323E+03 -0.13230871426E+03  0.12085168858E+03  0.29010954794E+03  0.12500000000E+03 0.  0.
</event>
<event>
 4    0  0.2176682E-002  0.2893665E+03  0.7546771E-02  0.1090680E+00
         21   -1    0    0  502  501  0.00000000000E+00  0.00000000000E+00  0.39429672285E+03  0.39429672285E+03  0.00000000000E+00 0.  1.
         21   -1    0    0  501  502 -0.00000000000E+00 -0.00000000000E+00 -0.21236032077E+03  0.21236032077E+03  0.00000000000E+00 0. -1.
         25    1    1    2    0    0  0.69816956015E+02 -0.21928549030E+03 -0.38045154149E+02  0.26463742622E+03  0.12500000000E+03 0.  0.
         25    1    1    2    0    0 -0.69816956015E+02  0.21928549030E+03  0.21998155623E+03  0.34201961739E+03  0.12500000000E+03 0.  0.
</event>
<event>
 4    0  0.2176682E-002  0.2272219E+03  0.7546771E-02  0.1128611E+00
         21   -1    0    0  502  501  0.00000000000E+00  0.00000000000E+00  0.35134222031E+04  0.35134222031E+04  0.00000000000E+00 0.  1.
         21   -1    0    0  501  502 -0.00000000000E+00 -0.00000000000E+00 -0.14695010220E+02  0.14695010220E+02  0.00000000000E+00 0.  1.
         25    1    1    2    0    0 -0.65152917463E+01 -0.37601983374E+02  0.31923989425E+04  0.31950731394E+04  0.12500000000E+03 0.  0.
         25    1    1    2    0    0  0.65152917463E+01  0.37601983374E+02  0.30632825043E+03  0.33304407395E+03  0.12500000000E+03 0.  0.
</event>
<event>
 4    0  0.2176682E-002  0.1697283E+03  0.7546771E-02  0.1178132E+00
         21   -1    0    0  502  501  0.00000000000E+00  0.00000000000E+00  0.38183741193E+03  0.38183741193E+03  0.00000000000E+00 0. -1.
         21   -1    0    0  501  502 -0.00000000000E+00 -0.00000000000E+00 -0.75444909086E+02  0.75444909086E+02  0.00000000000E+00 0. -1.
         25    1    1    2    0    0 -0.46805695312E+02 -0.10077407007E+03  0.19215758674E+03  0.25474639242E+03  0.12500000000E+03 0.  0.
         25    1    1    2    0    0  0.46805695312E+02  0.10077407007E+03  0.11423491611E+03  0.20253592859E+03  0.12500000000E+03 0.  0.
</event>
<event>
 4    0  0.2176682E-002  0.1899517E+03  0.7546771E-02  0.1158505E+00
         21   -1    0    0  502  501  0.00000000000E+00  0.00000000000E+00  0.19027931859E+03  0.19027931859E+03  0.00000000000E+00 0. -1.
         21   -1    0    0  501  502 -0.00000000000E+00 -0.00000000000E+00 -0.18962454642E+03  0.18962454642E+03  0.00000000000E+00 0. -1.
         25    1    1    2    0    0  0.81794593432E+02 -0.11619236981E+03  0.16624869094E+02  0.18998002155E+03  0.12500000000E+03 0.  0.
         25    1    1    2    0    0 -0.81794593432E+02  0.11619236981E+03 -0.15970096931E+02  0.18992384346E+03  0.12500000000E+03 0.  0.
</event>
<event>
 4    0  0.2176682E-002  0.2030122E+03  0.7546771E-02  0.1147222E+00
         21   -1    0    0  502  501  0.00000000000E+00  0.00000000000E+00  0.27240913356E+03  0.27240913356E+03  0.00000000000E+00 0.  1.
         21   -1    0    0  501  502 -0.00000000000E+00 -0.00000000000E+00 -0.15129436287E+03  0.15129436287E+03  0.00000000000E+00 0.  1.
         25    1    1    2    0    0  0.80339097791E+02 -0.74794716344E+02  0.18198703126E+03  0.24656216209E+03  0.12500000000E+03 0.  0.
         25    1    1    2    0    0 -0.80339097791E+02  0.74794716344E+02 -0.60872260568E+02  0.17714133435E+03  0.12500000000E+03 0.  0.
</event>
<event>
 4    0  0.2176682E-002  0.3745592E+03  0.7546771E-02  0.1052963E+00
         21   -1    0    0  502  501  0.00000000000E+00  0.00000000000E+00  0.10995821072E+03  0.10995821072E+03  0.00000000000E+00 0. -1.
         21   -1    0    0  501  502 -0.00000000000E+00 -0.00000000000E+00 -0.12758899473E+04  0.12758899473E+04  0.00000000000E+00 0. -1.
         25    1    1    2    0    0  0.16997909217E+03  0.47759198950E+02 -0.17298493155E+02  0.21702089928E+03  0.12500000000E+03 0.  0.
         25    1    1    2    0    0 -0.16997909217E+03 -0.47759198950E+02 -0.11486332434E+04  0.11688272587E+04  0.12500000000E+03 0.  0.
</event>
<event>
 4    0  0.2176682E-002  0.2134970E+03  0.7546771E-02  0.1138826E+00
         21   -1    0    0  502  501  0.00000000000E+00  0.00000000000E+00  0.53348290901E+03  0.53348290901E+03  0.00000000000E+00 0.  1.
         21   -1    0    0  501  502 -0.00000000000E+00 -0.00000000000E+00 -0.85440367834E+02  0.85440367834E+02  0.00000000000E+00 0.  1.
         25    1    1    2    0    0  0.15368473914E+03  0.26668839105E+02  0.33274021406E+03  0.38816398091E+03  0.12500000000E+03 0.  0.
         25    1    1    2    0    0 -0.15368473914E+03 -0.26668839105E+02  0.11530232712E+03  0.23075929594E+03  0.12500000000E+03 0.  0.
</event>
<event>
 4    0  0.2176682E-002  0.2019812E+03  0.7546771E-02  0.1148078E+00
         21   -1    0    0  502  501  0.00000000000E+00  0.00000000000E+00  0.18309486385E+03  0.18309486385E+03  0.00000000000E+00 0. -1.
         21   -1    0    0  501  502 -0.00000000000E+00 -0.00000000000E+00 -0.22281556417E+03  0.22281556417E+03  0.00000000000E+00 0. -1.
         25    1    1    2    0    0  0.88948693956E+01 -0.12096565697E+03 -0.12262563276E+03  0.21301139565E+03  0.12500000000E+03 0.  0.
         25    1    1    2    0    0 -0.88948693956E+01  0.12096565697E+03  0.82904932442E+02  0.19289903237E+03  0.12500000000E+03 0.  0.
</event>
<event>
 4    0  0.2176682E-002  0.2284976E+03  0.7546771E-02  0.1127702E+00
         21   -1    0    0  502  501  0.00000000000E+00  0.00000000000E+00  0.20157499384E+02  0.20157499384E+02  0.00000000000E+00 0. -1.
         21   -1    0    0  501  502 -0.00000000000E+00 -0.00000000000E+00 -0.25901594159E+04  0.25901594159E+04  0.00000000000E+00 0. -1.
         25    1    1    2    0    0 -0.21388446903E+02 -0.10075931863E+03 -0.22055983394E+04  0.22115376869E+04  0.12500000000E+03 0.  0.
         25    1    1    2    0    0  0.21388446903E+02  0.10075931863E+03 -0.36440357712E+03  0.39877922836E+03  0.12500000000E+03 0.  0.
</event>
<event>
 4    0  0.2176682E-002  0.2724861E+03  0.7546771E-02  0.1099865E+00
         21   -1    0    0  502  501  0.00000000000E+00  0.00000000000E+00  0.26553643799E+03  0.26553643799E+03  0.00000000000E+00 0.  1.
         21   -1    0    0  501  502 -0.00000000000E+00 -0.00000000000E+00 -0.27961767226E+03  0.27961767226E+03  0.00000000000E+00 0.  1.
         25    1    1    2    0    0  0.22076574631E+03  0.27250615573E+02 -0.10269454741E+03  0.27504777923E+03  0.12500000000E+03 0.  0.
         25    1    1    2    0    0 -0.22076574631E+03 -0.27250615573E+02  0.88613313138E+02  0.27010633102E+03  0.12500000000E+03 0.  0.
</event>
<event>
 4    0  0.2176682E-002  0.1749174E+03  0.7546771E-02  0.1172815E+00
         21   -1    0    0  502  501  0.00000000000E+00  0.00000000000E+00  0.60660778096E+02  0.60660778096E+02  0.00000000000E+00 0.  1.
         21   -1    0    0  501  502 -0.00000000000E+00 -0.00000000000E+00 -0.50438048557E+03  0.50438048557E+03  0.00000000000E+00 0.  1.
         25    1    1    2    0    0 -0.44132957641E+01 -0.48544231088E+02 -0.40593276263E+02  0.14017429732E+03  0.12500000000E+03 0.  0.
         25    1    1    2    0    0  0.44132957641E+01  0.48544231088E+02 -0.40312643121E+03  0.42486696635E+03  0.12500000000E+03 0.  0.
</event>
<event>
 4    0  0.2176682E-002  0.1813827E+03  0.7546771E-02  0.1166472E+00
         21   -1    0    0  502  501  0.00000000000E+00  0.00000000000E+00  0.68901403649E+02  0.68901403649E+02  0.00000000000E+00 0. -1.
         21   -1    0    0  501  502 -0.00000000000E+00 -0.00000000000E+00 -0.47748927256E+03  0.47748927256E+03  0.00000000000E+00 0. -1.
         25    1    1    2    0    0 -0.54942784017E+02 -0.40023425320E+02 -0.37372499131E+03  0.39989492772E+03  0.12500000000E+03 0.  0.
         25    1    1    2    0    0  0.54942784017E+02  0.40023425320E+02 -0.34862877602E+02  0.14649574849E+03  0.12500000000E+03 0.  0.
</event>
<event>
 4    0  0.2176682E-002  0.1836156E+03  0.7546771E-02  0.1164349E+00
         21   -1    0    0  502  501  0.00000000000E+00  0.00000000000E+00  0.81084221455E+03  0.81084221455E+03  0.00000000000E+00 0. -1.
         21   -1    0    0  501  502 -0.00000000000E+00 -0.00000000000E+00 -0.41579844990E+02  0.41579844990E+02  0.00000000000E+00 0. -1.
         25    1    1    2    0    0  0.36835971058E+02 -0.70146284145E+02  0.13235144335E+03  0.19854292861E+03  0.12500000000E+03 0.  0.
         25    1    1    2    0    0 -0.36835971058E+02  0.70146284145E+02  0.63691092621E+03  0.65387913093E+03  0.12500000000E+03 0.  0.
</event>
<event>
 4    0  0.2176682E-002  0.2268747E+03  0.7546771E-02  0.1128859E+00
         21   -1    0    0  502  501  0.00000000000E+00  0.00000000000E+00  0.18132578395E+03  0.18132578395E+03  0.00000000000E+00 0. -1.
         21   -1    0    0  501  502 -0.00000000000E+00 -0.00000000000E+00 -0.28386557877E+03  0.28386557877E+03  0.00000000000E+00 0. -1.
         25    1    1    2    0    0  0.34681667573E+02 -0.17796033694E+03  0.46438709250E+01  0.22027089033E+03  0.12500000000E+03 0.  0.
         25    1    1    2    0    0 -0.34681667573E+02  0.17796033694E+03 -0.10718366575E+03  0.24492047239E+03  0.12500000000E+03 0.  0.
</event>
<event>
 4    0  0.2176682E-002  0.1844721E+03  0.7546771E-02  0.1163544E+00
         21   -1    0    0  502  501  0.00000000000E+00  0.00000000000E+00  0.15315345005E+03  0.15315345005E+03  0.00000000000E+00 0.  1.
         21   -1    0    0  501  502 -0.00000000000E+00 -0.00000000000E+00 -0.22219518928E+03  0.22219518928E+03  0.00000000000E+00 0.  1.
         25    1    1    2    0    0  0.67018301299E+02  0.11734487126E+03 -0.46715954870E+02  0.18991748724E+03  0.12500000000E+03 0.  0.
         25    1    1    2    0    0 -0.67018301299E+02 -0.11734487126E+03 -0.22325784355E+02  0.18543115209E+03  0.12500000000E+03 0.  0.
</event>
<event>
 4    0  0.2176682E-002  0.1886911E+03  0.7546771E-02  0.1159647E+00
         21   -1    0    0  502  501  0.00000000000E+00  0.00000000000E+00  0.49137132978E+03  0.49137132978E+03  0.00000000000E+00 0.  1.
         21   -1    0    0  501  502 -0.00000000000E+00 -0.00000000000E+00 -0.72459086366E+02  0.72459086366E+02  0.00000000000E+00 0.  1.
         25    1    1    2    0    0  0.76216585588E+02 -0.11484160056E+03  0.25626940054E+03  0.31669633214E+03  0.12500000000E+03 0.  0.
         25    1    1    2    0    0 -0.76216585588E+02  0.11484160056E+03  0.16264284286E+03  0.24713408400E+03  0.12500000000E+03 0.  0.
</event>
<event>
 4    0  0.2176682E-002  0.3567742E+03  0.7546771E-02  0.1059868E+00
         21   -1    0    0  502  501  0.00000000000E+00  0.00000000000E+00  0.10185432644E+04  0.10185432644E+04  0.00000000000E+00 0.  1.
         21   -1    0    0  501  502 -0.00000000000E+00 -0.00000000000E+00 -0.12497047462E+03  0.12497047462E+03  0.00000000000E+00 0.  1.
         25    1    1    2    0    0 -0.15112844724E+03 -0.90437421785E+02  0.90188367691E+03  0.92738228445E+03  0.12500000000E+03 0.  0.
         25    1    1    2    0    0  0.15112844724E+03  0.90437421785E+02 -0.83108870980E+01  0.21613145460E+03  0.12500000000E+03 0.  0.
</event>
<event>
 4    0  0.2176682E-002  0.2116979E+03  0.7546771E-02  0.1140228E+00
         21   -1    0    0  502  501  0.00000000000E+00  0.00000000000E+00  0.48261898016E+03  0.48261898016E+03  0.00000000000E+00 0.  1.
         21   -1    0    0  501  502 -0.00000000000E+00 -0.00000000000E+00 -0.92859970712E+02  0.92859970712E+02  0.00000000000E+00 0.  1.
         25    1    1    2    0    0 -0.31261665573E+02  0.60968229322E+02  0.40761286301E+03  0.43181901627E+03  0.12500000000E+03 0.  0.
         25    1    1    2    0    0  0.31261665573E+02 -0.60968229322E+02 -0.17853853567E+02  0.14365993460E+03  0.12500000000E+03 0.  0.
</event>
<event>
 4    0  0.2176682E-002  0.4220379E+03  0.7546771E-02  0.1036405E+00
         21   -1    0    0  502  501  0.00000000000E+00  0.00000000000E+00  0.84984565087E+02  0.84984565087E+02  0.00000000000E+00 0.  1.
         21   -1    0    0  501  502 -0.00000000000E+00 -0.00000000000E+00 -0.20958630145E+04  0.20958630145E+04  0.00000000000E+00 0.  1.
         25    1    1    2    0    0  0.10107494118E+03  0.18651860597E+02  0.16345411022E+01  0.16183852249E+03  0.12500000000E+03 0.  0.
         25    1    1    2    0    0 -0.10107494118E+03 -0.18651860597E+02 -0.20125129906E+04  0.20190090571E+04  0.12500000000E+03 0.  0.
</event>
<event>
 4    0  0.2176682E-002  0.1781724E+03  0.7546771E-02  0.1169584E+00
         21   -1    0    0  502  501  0.00000000000E+00  0.00000000000E+00  0.30054510431E+02  0.30054510431E+02  0.00000000000E+00 0.  1.
         21   -1    0    0  501  502 -0.00000000000E+00 -0.00000000000E+00 -0.10562607451E+04  0.10562607451E+04  0.00000000000E+00 0.  1.
         25    1    1    2    0    0  0.60854610211E+02 -0.32465777504E+02 -0.18814028334E+03  0.23617594397E+03  0.12500000000E+03 0.  0.
         25    1    1    2    0    0 -0.60854610211E+02  0.32465777504E+02 -0.83806595134E+03  0.85013931157E+03  0.12500000000E+03 0.  0.
</event>
<event>
 4    0  0.2176682E-002  0.2103596E+03  0.7546771E-02  0.1141282E+00
         21   -1    0    0  502  501  0.00000000000E+00  0.00000000000E+00  0.58002051460E+03  0.58002051460E+03  0.00000000000E+00 0. -1.
         21   -1    0    0  501  502 -0.00000000000E+00 -0.00000000000E+00 -0.76292414752E+02  0.76292414752E+02  0.00000000000E+00 0. -1.
         25    1    1    2    0    0 -0.11663031588E+03 -0.13061182256E+02  0.44198274674E+03  0.47407486063E+03  0.12500000000E+03 0.  0.
         25    1    1    2    0    0  0.11663031588E+03  0.13061182256E+02  0.61745353111E+02  0.18223806873E+03  0.12500000000E+03 0.  0.
</event>
<event>
 4    0  0.2176682E-002  0.2744790E+03  0.7546771E-02  0.1098743E+00
         21   -1    0    0  502  501  0.00000000000E+00  0.00000000000E+00  0.28515969097E+03  0.28515969097E+03  0.00000000000E+00 0. -1.
         21   -1    0    0  501  502 -0.00000000000E+00 -0.00000000000E+00 -0.26419838840E+03  0.26419838840E+03  0.00000000000E+00 0. -1.
         25    1    1    2    0    0 -0.89839018403E+02 -0.17219092223E+03 -0.13792768294E+03  0.26901637245E+03  0.12500000000E+03 0.  0.
         25    1    1    2    0    0  0.89839018403E+02  0.17219092223E+03  0.15888898550E+03  0.28034170692E+03  0.12500000000E+03 0.  0.
</event>
<event>
 4    0  0.2176682E-002  0.2075668E+03  0.7546771E-02  0.1143507E+00
         21   -1    0    0  502  501  0.00000000000E+00  0.00000000000E+00  0.11135236774E+03  0.11135236774E+03  0.00000000000E+00 0.  1.
         21   -1    0    0  501  502 -0.00000000000E+00 -0.00000000000E+00 -0.38691548891E+03  0.38691548891E+03  0.00000000000E+00 0.  1.
         25    1    1    2    0    0 -0.60774994823E+01 -0.89938290818E+02  0.29106821515E+02  0.15683762053E+03  0.12500000000E+03 0.  0.
         25    1    1    2    0    0  0.60774994823E+01  0.89938290818E+02 -0.30466994269E+03  0.34143023611E+03  0.12500000000E+03 0.  0.
</event>
<event>
 4    0  0.2176682E-002  0.3196316E+03  0.7546771E-02  0.1075819E+00
         21   -1    0    0  502  501  0.00000000000E+00  0.00000000000E+00  0.55975953696E+03  0.55975953696E+03  0.00000000000E+00 0. -1.
         21   -1    0    0  501  502 -0.00000000000E+00 -0.00000000000E+00 -0.18251477167E+03  0.18251477167E+03  0.00000000000E+00 0. -1.
         25    1    1    2    0    0 -0.95998126930E+02 -0.14763388638E+03 -0.84993061689E+02  0.23207805867E+03  0.12500000000E+03 0.  0.
         25    1    1    2    0    0  0.95998126930E+02  0.14763388638E+03  0.46223782698E+03  0.51019624996E+03  0.12500000000E+03 0.  0.
</event>
<event>
 4    0  0.2176682E-002  0.1884619E+03  0.7546771E-02  0.1159856E+00
         21   -1    0    0  502  501  0.00000000000E+00  0.00000000000E+00  0.20398173772E+03  0.20398173772E+03  0.00000000000E+00 0.  1.
         21   -1    0    0  501  502 -0.00000000000E+00 -0.00000000000E+00 -0.17412294997E+03  0.17412294997E+03  0.00000000000E+00 0.  1.
         25    1    1    2    0    0 -0.11497861945E+03  0.20120766202E+02 -0.64489164383E+02  0.18278068959E+03  0.12500000000E+03 0.  0.
         25    1    1    2    0    0  0.11497861945E+03 -0.20120766202E+02  0.94347952127E+02  0.19532399810E+03  0.12500000000E+03 0.  0.
</event>
<event>
 4    0  0.2176682E-002  0.2305777E+03  0.7546771E-02  0.1126234E+00
         21   -1    0    0  502  501  0.00000000000E+00  0.00000000000E+00  0.15358487534E+03  0.15358487534E+03  0.00000000000E+00 0. -1.
         21   -1    0    0  501  502 -0.00000000000E+00 -0.00000000000E+00 -0.34616746765E+03  0.34616746765E+03  0.00000000000E+00 0. -1.
         25    1    1    2    0    0 -0.11929909052E+03  0.14974060810E+03 -0.64023990797E+02  0.23744176994E+03  0.12500000000E+03 0.  0.
         25    1    1    2    0    0  0.11929909052E+03 -0.14974060810E+03 -0.12855860152E+03  0.26231057306E+03  0.12500000000E+03 0.  0.
</event>
<event>
 4    0  0.2176682E-002  0.1388373E+03  0.7546771E-02  0.1214902E+00
         21   -1    0    0  502  501  0.00000000000E+00  0.00000000000E+00  0.96180154927E+02  0.96180154927E+02  0.00000000000E+00 0. -1.
         21   -1    0    0  501  502 -0.00000000000E+00 -0.00000000000E+00 -0.20041353309E+03  0.20041353309E+03  0.00000000000E+00 0. -1.
         25    1    1    2    0    0  0.11307479246E+00  0.60420077858E+02 -0.51631813111E+02  0.14812644166E+03  0.12500000000E+03 0.  0.
         25    1    1    2    0    0 -0.11307479246E+00 -0.60420077858E+02 -0.52601565052E+02  0.14846724635E+03  0.12500000000E+03 0.  0.
</event>
<event>
 4    0  0.2176682E-002  0.2137989E+03  0.7546771E-02  0.1138592E+00
         21   -1    0    0  502  501  0.00000000000E+00  0.00000000000E+00  0.54319496075E+03  0.54319496075E+03  0.00000000000E+00 0. -1.
         21   -1    0    0  501  502 -0.00000000000E+00 -0.00000000000E+00 -0.84150230720E+02  0.84150230720E+02  0.00000000000E+00 0. -1.
         25    1    1    2    0    0  0.70906186225E+02 -0.14064508714E+03  0.12295263085E+03  0.23569276021E+03  0.12500000000E+03 0.  0.
         25    1    1    2    0    0 -0.70906186225E+02  0.14064508714E+03  0.33609209917E+03  0.39165243126E+03  0.12500000000E+03 0.  0.
</event>
<event>
 4    0  0.2176682E-002  0.1995375E+03  0.7546771E-02  0.1150130E+00
         21   -1    0    0  502  501  0.00000000000E+00  0.00000000000E+00  0.15745154733E+03  0.15745154733E+03  0.00000000000E+00 0.  1.
         21   -1    0    0  501  502 -0.00000000000E+00 -0.00000000000E+00 -0.25287281133E+03  0.25287281133E+03  0.00000000000E+00 0.  1.
         25    1    1    2    0    0 -0.10935027544E+03 -0.39766995156E+02 -0.15382506556E+03  0.22983917733E+03  0.12500000000E+03 0.  0.
         25    1    1    2    0    0  0.10935027544E+03  0.39766995156E+02  0.58403801566E+02  0.18048518133E+03  0.12500000000E+03 0.  0.
</event>
<event>
 4    0  0.2176682E-002  0.2016790E+03  0.7546771E-02  0.1148330E+00
         21   -1    0    0  502  501  0.00000000000E+00  0.00000000000E+00  0.74465848420E+03  0.74465848420E+03  0.00000000000E+00 0.  1.
         21   -1    0    0  501  502 -0.00000000000E+00 -0.00000000000E+00 -0.54621588618E+02  0.54621588618E+02  0.00000000000E+00 0.  1.
         25    1    1    2    0    0  0.29050389839E+02  0.11870208142E+03  0.14572268251E+03  0.22758341214E+03  0.12500000000E+03 0.  0.
         25    1    1    2    0    0 -0.29050389839E+02 -0.11870208142E+03  0.54431421307E+03  0.57169666068E+03  0.12500000000E+03 0.  0.
</event>
<event>
 4    0  0.2176682E-002  0.1738649E+03  0.7546771E-02  0.1173876E+00
         21   -1    0    0  502  501  0.00000000000E+00  0.00000000000E+00  0.78514622097E+02  0.78514622097E+02  0.00000000000E+00 0. -1.
         21   -1    0    0  501  502 -0.00000000000E+00 -0.00000000000E+00 -0.38501124034E+03  0.38501124034E+03  0.00000000000E+00 0. -1.
         25    1    1    2    0    0 -0.57906981262E+02 -0.90994025857E+02 -0.22590483250E+03  0.27980551204E+03  0.12500000000E+03 0.  0.
         25    1    1    2    0    0  0.57906981262E+02  0.90994025857E+02 -0.80591785742E+02  0.18372035040E+03  0.12500000000E+03 0.  0.
</event>
<event>
 4    0  0.2176682E-002  0.2461406E+03  0.7546771E-02  0.1115768E+00
         21   -1    0    0  502  501  0.00000000000E+00  0.00000000000E+00  0.56405899309E+02  0.56405899309E+02  0.00000000000E+00 0. -1.
         21   -1    0    0  501  502 -0.00000000000E+00 -0.00000000000E+00 -0.10740933490E+04  0.10740933490E+04  0.00000000000E+00 0. -1.
         25    1    1    2    0    0  0.20437071150E+03 -0.55840852216E+02 -0.48900728810E+03  0.54739265277E+03  0.12500000000E+03 0.  0.
         25    1    1    2    0    0 -0.20437071150E+03  0.55840852216E+02 -0.52868016159E+03  0.58310659553E+03  0.12500000000E+03 0.  0.
</event>
<event>
 4    0  0.2176682E-002  0.1981453E+03  0.7546771E-02  0.1151313E+00
         21   -1    0    0  502  501  0.00000000000E+00  0.00000000000E+00  0.26851462948E+02  0.26851462948E+02  0.00000000000E+00 0. -1.
         21   -1    0    0  501  502 -0.00000000000E+00 -0.00000000000E+00 -0.14621756968E+04  0.14621756968E+04  0.00000000000E+00 0. -1.
         25    1    1    2    0    0 -0.12608268518E+03  0.77131536174E+02 -0.87665169331E+03  0.89776907318E+03  0.12500000000E+03 0.  0.
         25    1    1    2    0    0  0.12608268518E+03 -0.77131536174E+02 -0.55867254055E+03  0.59125808658E+03  0.12500000000E+03 0.  0.
</event>
<event>
 4    0  0.2176682E-002  0.1789464E+03  0.7546771E-02  0.1168827E+00
         21   -1    0    0  502  501  0.00000000000E+00  0.00000000000E+00  0.17802140185E+03  0.17802140185E+03  0.00000000000E+00 0.  1.
         21   -1    0    0  501  502 -0.00000000000E+00 -0.00000000000E+00 -0.17987611458E+03  0.17987611458E+03  0.00000000000E+00 0.  1.
         25    1    1    2    0    0 -0.81273357165E+02 -0.85196055602E+02  0.49402948920E+02  0.17868793422E+03  0.12500000000E+03 0.  0.
         25    1    1    2    0    0  0.81273357165E+02  0.85196055602E+02 -0.51257661651E+02  0.17920958220E+03  0.12500000000E+03 0.  0.
</event>
<event>
 4    0  0.2176682E-002  0.3013079E+03  0.7546771E-02  0.1084589E+00
         21   -1    0    0  502  501  0.00000000000E+00  0.00000000000E+00  0.22298853937E+03  0.22298853937E+03  0.00000000000E+00 0. -1.
         21   -1    0    0  501  502 -0.00000000000E+00 -0.00000000000E+00 -0.40713511036E+03  0.40713511036E+03  0.00000000000E+00 0. -1.
         25    1    1    2    0    0 -0.17290191431E+03  0.15818399899E+02  0.12978185952E+03  0.25022714642E+03  0.12500000000E+03 0.  0.
         25    1    1    2    0    0  0.17290191431E+03 -0.15818399899E+02 -0.31392843051E+03  0.37989650331E+03  0.12500000000E+03 0.  0.
</event>
<event>
 4    0  0.2176682E-002  0.2541846E+03  0.7546771E-02  0.1110688E+00
         21   -1    0    0  502  501  0.00000000000E+00  0.00000000000E+00  0.95116512304E+02  0.95116512304E+02  0.00000000000E+00 0.  1.
         21   -1    0    0  501  502 -0.00000000000E+00 -0.00000000000E+00 -0.67927033021E+03  0.67927033021E+03  0.00000000000E+00 0.  1.
         25    1    1    2    0    0 -0.27881962764E+02 -0.18375854135E+03 -0.10902865802E+03  0.24911213065E+03  0.12500000000E+03 0.  0.
         25    1    1    2    0    0  0.27881962764E+02  0.18375854135E+03 -0.47512515989E+03  0.52527471187E+03  0.12500000000E+03 0.  0.
</event>
<event>
 4    0  0.2176682E-002  0.2108569E+03  0.7546771E-02  0.1140889E+00
         21   -1    0    0  502  501  0.00000000000E+00  0.00000000000E+00  0.27786656973E+03  0.27786656973E+03  0.00000000000E+00 0. -1.
         21   -1    0    0  501  502 -0.00000000000E+00 -0.00000000000E+00 -0.16000711951E+03  0.16000711951E+03  0.00000000000E+00 0. -1.
         25    1    1    2    0    0  0.77967689861E+02  0.82212372469E+02 -0.72399417577E+02  0.18358788227E+03  0.12500000000E+03 0.  0.
         25    1    1    2    0    0 -0.77967689861E+02 -0.82212372469E+02  0.19025886780E+03  0.25428580697E+03  0.12500000000E+03 0.  0.
</event>
<event>
 4    0  0.2176682E-002  0.2906962E+03  0.7546771E-02  0.1089986E+00
         21   -1    0    0  502  501  0.00000000000E+00  0.00000000000E+00  0.22771921112E+03  0.22771921112E+03  0.00000000000E+00 0.  1.
         21   -1    0    0  501  502 -0.00000000000E+00 -0.00000000000E+00 -0.37108984498E+03  0.37108984498E+03  0.00000000000E+00 0. -1.
         25    1    1    2    0    0 -0.11574851334E+03 -0.20573230134E+03  0.46449370592E+02  0.27111997747E+03  0.12500000000E+03 0.  0.
         25    1    1    2    0    0  0.11574851334E+03  0.20573230134E+03 -0.18982000446E+03  0.32768907863E+03  0.12500000000E+03 0.  0.
</event>
<event>
 4    0  0.2176682E-002  0.1704734E+03  0.7546771E-02  0.1177355E+00
         21   -1    0    0  502  501  0.00000000000E+00  0.00000000000E+00  0.87452964895E+03  0.87452964895E+03  0.00000000000E+00 0. -1.
         21   -1    0    0  501  502 -0.00000000000E+00 -0.00000000000E+00 -0.33230644584E+02  0.33230644584E+02  0.00000000000E+00 0. -1.
         25    1    1    2    0    0 -0.98896881031E+02 -0.39378342198E+02  0.54280248860E+03  0.56708975352E+03  0.12500000000E+03 0.  0.
         25    1    1    2    0    0  0.98896881031E+02  0.39378342198E+02  0.29849651576E+03  0.34067054001E+03  0.12500000000E+03 0.  0.
</event>
<event>
 4    0  0.2176682E-002  0.3767658E+03  0.7546771E-02  0.1052136E+00
         21   -1    0    0  502  501  0.00000000000E+00  0.00000000000E+00  0.21345815314E+03  0.21345815314E+03  0.00000000000E+00 0.  1.
         21   -1    0    0  501  502 -0.00000000000E+00 -0.00000000000E+00 -0.66501299634E+03  0.66501299634E+03  0.00000000000E+00 0.  1.
         25    1    1    2    0    0  0.16479581546E+03  0.10422196064E+03 -0.57221502838E+03  0.61731265707E+03  0.12500000000E+03 0.  0.
         25    1    1    2    0    0 -0.16479581546E+03 -0.10422196064E+03  0.12066018518E+03  0.26115849241E+03  0.12500000000E+03 0.  0.
</event>
<event>
 4    0  0.2176682E-002  0.2736932E+03  0.7546771E-02  0.1099184E+00
         21   -1    0    0  502  501  0.00000000000E+00  0.00000000000E+00  0.61849214064E+02  0.61849214064E+02  0.00000000000E+00 0. -1.
         21   -1    0    0  501  502 -0.00000000000E+00 -0.00000000000E+00 -0.12111386819E+04  0.12111386819E+04  0.00000000000E+00 0. -1.
         25    1    1    2    0    0  0.15155205283E+02 -0.24998848122E+02 -0.11367816029E+04  0.11440070085E+04  0.12500000000E+03 0.  0.
         25    1    1    2    0    0 -0.15155205283E+02  0.24998848122E+02 -0.12507864900E+02  0.12898088749E+03  0.12500000000E+03 0.  0.
</event>
<event>
 4    0  0.2176682E-002  0.2889331E+03  0.7546771E-02  0.1090907E+00
         21   -1    0    0  502  501  0.00000000000E+00  0.00000000000E+00  0.14869650048E+03  0.14869650048E+03  0.00000000000E+00 0. -1.
         21   -1    0    0  501  502 -0.00000000000E+00 -0.00000000000E+00 -0.56142783775E+03  0.56142783775E+03  0.00000000000E+00 0. -1.
         25    1    1    2    0    0 -0.15157200312E+03 -0.16324987233E+03 -0.37229886758E+03  0.45150419681E+03  0.12500000000E+03 0.  0.
         25    1    1    2    0    0  0.15157200312E+03  0.16324987233E+03 -0.40432469692E+02  0.25862014142E+03  0.12500000000E+03 0.  0.
</event>
<event>
 4    0  0.2176682E-002  0.1619652E+03  0.7546771E-02  0.1186496E+00
         21   -1    0    0  502  501  0.00000000000E+00  0.00000000000E+00  0.54090508831E+03  0.54090508831E+03  0.00000000000E+00 0.  1.
         21   -1    0    0  501  502 -0.00000000000E+00 -0.00000000000E+00 -0.48497862256E+02  0.48497862256E+02  0.00000000000E+00 0.  1.
         25    1    1    2    0    0  0.18203107722E+02  0.98101929157E+02  0.19972886264E+03  0.25587489171E+03  0.12500000000E+03 0.  0.
         25    1    1    2    0    0 -0.18203107722E+02 -0.98101929157E+02  0.29267836341E+03  0.33352805886E+03  0.12500000000E+03 0.  0.
</event>
<event>
 4    0  0.2176682E-002  0.2375622E+03  0.7546771E-02  0.1121428E+00
         21   -1    0    0  502  501  0.00000000000E+00  0.00000000000E+00  0.23053602152E+03  0.23053602152E+03  0.00000000000E+00 0. -1.
         21   -1    0    0  501  502 -0.00000000000E+00 -0.00000000000E+00 -0.24480249129E+03  0.24480249129E+03  0.00000000000E+00 0. -1.
         25    1    1    2    0    0  0.13443246568E+03 -0.13404622686E+03  0.61965351172E+02  0.23559538092E+03  0.12500000000E+03 0.  0.
         25    1    1    2    0    0 -0.13443246568E+03  0.13404622686E+03 -0.76231820940E+02  0.23974313189E+03  0.12500000000E+03 0.  0.
</event>
<event>
 4    0  0.2176682E-002  0.2294911E+03  0.7546771E-02  0.1126998E+00
         21   -1    0    0  502  501  0.00000000000E+00  0.00000000000E+00  0.57421367284E+03  0.57421367284E+03  0.00000000000E+00 0. -1.
         21   -1    0    0  501  502 -0.00000000000E+00 -0.00000000000E+00 -0.91718742745E+02  0.91718742745E+02  0.00000000000E+00 0. -1.
         25    1    1    2    0    0  0.12474741375E+02  0.51717336212E+02  0.50960655295E+03  0.52740320519E+03  0.12500000000E+03 0.  0.
         25    1    1    2    0    0 -0.12474741375E+02 -0.51717336212E+02 -0.27111622857E+02  0.13852921039E+03  0.12500000000E+03 0.  0.
</event>
<event>
 4    0  0.2176682E-002  0.2205691E+03  0.7546771E-02  0.1133459E+00
         21   -1    0    0  502  501  0.00000000000E+00  0.00000000000E+00  0.22319590857E+03  0.22319590857E+03  0.00000000000E+00 0.  1.
         21   -1    0    0  501  502 -0.00000000000E+00 -0.00000000000E+00 -0.21797318167E+03  0.21797318167E+03  0.00000000000E+00 0.  1.
         25    1    1    2    0    0  0.99531360675E+02  0.12604616491E+03  0.87656107615E+02  0.22159133704E+03  0.12500000000E+03 0.  0.
         25    1    1    2    0    0 -0.99531360675E+02 -0.12604616491E+03 -0.82433380719E+02  0.21957775321E+03  0.12500000000E+03 0.  0.
</event>
<event>
 4    0  0.2176682E-002  0.2046842E+03  0.7546771E-02  0.1145846E+00
         21   -1    0    0  502  501  0.00000000000E+00  0.00000000000E+00  0.53139380869E+02  0.53139380869E+02  0.00000000000E+00 0.  1.
         21   -1    0    0  501  502 -0.00000000000E+00 -0.00000000000E+00 -0.78841019538E+03  0.78841019538E+03  0.00000000000E+00 0.  1.
         25    1    1    2    0    0  0.80601333781E+02  0.10833871655E+03 -0.55192733456E+03  0.58179260492E+03  0.12500000000E+03 0.  0.
         25    1    1    2    0    0 -0.80601333781E+02 -0.10833871655E+03 -0.18334347995E+03  0.25975697132E+03  0.12500000000E+03 0.  0.
</event>
<event>
 4    0  0.2176682E-002  0.2474057E+03  0.7546771E-02  0.1114955E+00
         21   -1    0    0  502  501  0.00000000000E+00  0.00000000000E+00  0.41795724166E+03  0.41795724166E+03  0.00000000000E+00 0.  1.
         21   -1    0    0  501  502 -0.00000000000E+00 -0.00000000000E+00 -0.14644941365E+03  0.14644941365E+03  0.00000000000E+00 0.  1.
         25    1    1    2    0    0 -0.13073771200E+03 -0.16871781179E+03  0.14163059926E+03  0.28503030716E+03  0.12500000000E+03 0.  0.
         25    1    1    2    0    0  0.13073771200E+03  0.16871781179E+03  0.12987722875E+03  0.27937634815E+03  0.12500000000E+03 0.  0.
</event>
<event>
 4    0  0.2176682E-002  0.1707598E+03  0.7546771E-02  0.1177058E+00
         21   -1    0    0  502  501  0.00000000000E+00  0.00000000000E+00  0.15630137983E+03  0.15630137983E+03  0.00000000000E+00 0. -1.
         21   -1    0    0  501  502 -0.00000000000E+00 -0.00000000000E+00 -0.18655578051E+03  0.18655578051E+03  0.00000000000E+00 0. -1.
         25    1    1    2    0    0 -0.93680467590E+02 -0.61027162704E+02 -0.47402463459E+02  0.17427661386E+03  0.12500000000E+03 0.  0.
         25    1    1    2    0    0  0.93680467590E+02  0.61027162704E+02  0.17148062777E+02  0.16858054648E+03  0.12500000000E+03 0.  0.
</event>
<event>
 4    0  0.2176682E-002  0.3113074E+03  0.7546771E-02  0.1079721E+00
         21   -1    0    0  502  501  0.00000000000E+00  0.00000000000E+00  0.68410145390E+03  0.68410145390E+03  0.00000000000E+00 0.  1.
         21   -1    0    0  501  502 -0.00000000000E+00 -0.00000000000E+00 -0.14166362667E+03  0.14166362667E+03  0.00000000000E+00 0.  1.
         25    1    1    2    0    0  0.16366164156E+02  0.10313460867E+03  0.62307901779E+03  0.64401635169E+03  0.12500000000E+03 0.  0.
         25    1    1    2    0    0 -0.16366164156E+02 -0.10313460867E+03 -0.80641190563E+02  0.18174872888E+03  0.12500000000E+03 0.  0.
</event>
<event>
 4    0  0.2176682E-002  0.1964435E+03  0.7546771E-02  0.1152775E+00
         21   -1    0    0  502  501  0.00000000000E+00  0.00000000000E+00  0.14171330288E+03  0.14171330288E+03  0.00000000000E+00 0. -1.
         21   -1    0    0  501  502 -0.00000000000E+00 -0.00000000000E+00 -0.27231076607E+03  0.27231076607E+03  0.00000000000E+00 0. -1.
         25    1    1    2    0    0 -0.93706699479E+02  0.50649209749E+02 -0.17888817111E+03  0.24284205925E+03  0.12500000000E+03 0.  0.
         25    1    1    2    0    0  0.93706699479E+02 -0.50649209749E+02  0.48290707922E+02  0.17118200971E+03  0.12500000000E+03 0.  0.
</event>
<event>
 4    0  0.2176682E-002  0.1711334E+03  0.7546771E-02  0.1176671E+00
         21   -1    0    0  502  501  0.00000000000E+00  0.00000000000E+00  0.12792894035E+03  0.12792894035E+03  0.00000000000E+00 0. -1.
         21   -1    0    0  501  502 -0.00000000000E+00 -0.00000000000E+00 -0.22892906630E+03  0.22892906630E+03  0.00000000000E+00 0. -1.
         25    1    1    2    0    0 -0.85339575504E+01  0.11621327344E+03 -0.40984120466E+02  0.17573574334E+03  0.12500000000E+03 0.  0.
         25    1    1    2    0    0  0.85339575504E+01 -0.11621327344E+03 -0.60016005485E+02  0.18112226332E+03  0.12500000000E+03 0.  0.
</event>
<event>
 4    0  0.2176682E-002  0.1924357E+03  0.7546771E-02  0.1156283E+00
         21   -1    0    0  502  501  0.00000000000E+00  0.00000000000E+00  0.55586975500E+02  0.55586975500E+02  0.00000000000E+00 0. -1.
         21   -1    0    0  501  502 -0.00000000000E+00 -0.00000000000E+00 -0.66619026022E+03  0.66619026022E+03  0.00000000000E+00 0. -1.
         25    1    1    2    0    0 -0.15974501392E+02  0.12099046119E+03 -0.15395751678E+03  0.23285573510E+03  0.12500000000E+03 0.  0.
         25    1    1    2    0    0  0.15974501392E+02 -0.12099046119E+03 -0.45664576795E+03  0.48892150063E+03  0.12500000000E+03 0.  0.
</event>
<event>
 4    0  0.2176682E-002  0.3262896E+03  0.7546771E-02  0.1072790E+00
         21   -1    0    0  502  501  0.00000000000E+00  0.00000000000E+00  0.19063431660E+03  0.19063431660E+03  0.00000000000E+00 0.  1.
         21   -1    0    0  501  502 -0.00000000000E+00 -0.00000000000E+00 -0.55847727695E+03  0.55847727695E+03  0.00000000000E+00 0.  1.
         25    1    1    2    0    0  0.27685907382E+03  0.57404409149E+02 -0.30373376601E+03  0.43338829421E+03  0.12500000000E+03 0.  0.
         25    1    1    2    0    0 -0.27685907382E+03 -0.57404409149E+02 -0.64109194349E+02  0.31572329934E+03  0.12500000000E+03 0.  0.
</event>
<event>
 4    0  0.2176682E-002  0.2356348E+03  0.7546771E-02  0.1122735E+00
         21   -1    0    0  502  501  0.00000000000E+00  0.00000000000E+00  0.12219356432E+04  0.12219356432E+04  0.00000000000E+00 0. -1.
         21   -1    0    0  501  502 -0.00000000000E+00 -0.00000000000E+00 -0.45439185833E+02  0.45439185833E+02  0.00000000000E+00 0. -1.
         25    1    1    2    0    0 -0.12114400853E+03 -0.14472836471E+03  0.76411527659E+03  0.79694374097E+03  0.12500000000E+03 0.  0.
         25    1    1    2    0    0  0.12114400853E+03  0.14472836471E+03  0.41238118080E+03  0.47043108808E+03  0.12500000000E+03 0.  0.
</event>
<event>
 4    0  0.2176682E-002  0.1842781E+03  0.7546771E-02  0.1163726E+00
         21   -1    0    0  502  501  0.00000000000E+00  0.00000000000E+00  0.13844023675E+03  0.13844023675E+03  0.00000000000E+00 0.  1.
         21   -1    0    0  501  502 -0.00000000000E+00 -0.00000000000E+00 -0.24529309689E+03  0.24529309689E+03  0.00000000000E+00 0.  1.
         25    1    1    2    0    0  0.11339025380E+02  0.19085515023E+02  0.85642616783E+02  0.15314205232E+03  0.12500000000E+03 0.  0.
         25    1    1    2    0    0 -0.11339025380E+02 -0.19085515023E+02 -0.19249547693E+03  0.23059128132E+03  0.12500000000E+03 0.  0.
</event>
<event>
 4    0  0.2176682E-002  0.2003753E+03  0.7546771E-02  0.1149423E+00
         21   -1    0    0  502  501  0.00000000000E+00  0.00000000000E+00  0.47938427601E+02  0.47938427601E+02  0.00000000000E+00 0.  1.
         21   -1    0    0  501  502 -0.00000000000E+00 -0.00000000000E+00 -0.83753806339E+03  0.83753806339E+03  0.00000000000E+00 0.  1.
         25    1    1    2    0    0 -0.12620834102E+03  0.92714894854E+02 -0.39659587159E+03  0.44433982765E+03  0.12500000000E+03 0.  0.
         25    1    1    2    0    0  0.12620834102E+03 -0.92714894854E+02 -0.39300376419E+03  0.44113666334E+03  0.12500000000E+03 0.  0.
</event>
