<event>
 4    0  0.2193754E-002  0.2699989E+03  0.7546771E-02  0.1101280E+00
         21   -1    0    0  502  501  0.00000000000E+00  0.00000000000E+00  0.20130942640E+03  0.20130942640E+03  0.00000000000E+00 0.  1.
         21   -1    0    0  501  502 -0.00000000000E+00 -0.00000000000E+00 -0.36212627095E+03  0.36212627095E+03  0.00000000000E+00 0.  1.
         25    1    1    2    0    0 -0.13645331621E+03  0.74334783304E+02  0.10950610536E+03  0.22751209775E+03  0.12500000000E+03 0.  0.
         25    1    1    2    0    0  0.13645331621E+03 -0.74334783304E+02 -0.27032294991E+03  0.33592359959E+03  0.12500000000E+03 0.  0.
</event>
<event>
 4    0  0.2193754E-002  0.2203605E+03  0.7546771E-02  0.1133615E+00
         21   -1    0    0  502  501  0.00000000000E+00  0.00000000000E+00  0.47213426073E+02  0.47213426073E+02  0.00000000000E+00 0. -1.
         21   -1    0    0  501  502 -0.00000000000E+00 -0.00000000000E+00 -0.10284940989E+04  0.10284940989E+04  0.00000000000E+00 0. -1.
         25    1    1    2    0    0  0.74721828962E+02 -0.14692770002E+03 -0.30535506668E+03  0.36883304828E+03  0.12500000000E+03 0.  0.
         25    1    1    2    0    0 -0.74721828962E+02  0.14692770002E+03 -0.67592560614E+03  0.70687447669E+03  0.12500000000E+03 0.  0.
</event>
<event>
 4    0  0.2193754E-002  0.2603944E+03  0.7546771E-02  0.1106907E+00
         21   -1    0    0  502  501  0.00000000000E+00  0.00000000000E+00  0.10318863231E+03  0.10318863231E+03  0.00000000000E+00 0.  1.
         21   -1    0    0  501  502 -0.00000000000E+00 -0.00000000000E+00 -0.65709968612E+03  0.65709968612E+03  0.00000000000E+00 0.  1.
         25    1    1    2    0    0  0.90614910817E+02  0.64605567657E+02 -0.56818312421E+03  0.59231917415E+03  0.12500000000E+03 0.  0.
         25    1    1    2    0    0 -0.90614910817E+02 -0.64605567657E+02  0.14272070395E+02  0.16796914427E+03  0.12500000000E+03 0.  0.
</event>
<event>
 4    0  0.2193754E-002  0.1573087E+03  0.7546771E-02  0.1191769E+00
         21   -1    0    0  502  501  0.00000000000E+00  0.00000000000E+00  0.84900190010E+02  0.84900190010E+02  0.00000000000E+00 0. -1.
         21   -1    0    0  501  502 -0.00000000000E+00 -0.00000000000E+00 -0.29147206920E+03  0.29147206920E+03  0.00000000000E+00 0. -1.
         25    1    1    2    0    0  0.42568258214E+02 -0.63311434123E+02 -0.34557913556E+02  0.15046475896E+03  0.12500000000E+03 0.  0.
         25    1    1    2    0    0 -0.42568258214E+02  0.63311434123E+02 -0.17201396563E+03  0.22590750025E+03  0.12500000000E+03 0.  0.
</event>
<event>
 4    0  0.2193754E-002  0.2661479E+03  0.7546771E-02  0.1103505E+00
         21   -1    0    0  502  501  0.00000000000E+00  0.00000000000E+00  0.24794900463E+03  0.24794900463E+03  0.00000000000E+00 0.  1.
         21   -1    0    0  501  502 -0.00000000000E+00 -0.00000000000E+00 -0.28568253243E+03  0.28568253243E+03  0.00000000000E+00 0.  1.
         25    1    1    2    0    0 -0.14788454244E+02 -0.12248247669E+03 -0.21934118848E+03  0.28099148107E+03  0.12500000000E+03 0.  0.
         25    1    1    2    0    0  0.14788454244E+02  0.12248247669E+03  0.18160766067E+03  0.25264005599E+03  0.12500000000E+03 0.  0.
</event>
<event>
 4    0  0.2193754E-002  0.1939227E+03  0.7546771E-02  0.1154970E+00
         21   -1    0    0  502  501  0.00000000000E+00  0.00000000000E+00  0.89809364720E+02  0.89809364720E+02  0.00000000000E+00 0. -1.
         21   -1    0    0  501  502 -0.00000000000E+00 -0.00000000000E+00 -0.41873137564E+03  0.41873137564E+03  0.00000000000E+00 0. -1.
         25    1    1    2    0    0 -0.91249771250E+02 -0.61548722389E+02 -0.34221460040E+02  0.17003198025E+03  0.12500000000E+03 0.  0.
         25    1    1    2    0    0  0.91249771250E+02  0.61548722389E+02 -0.29470055088E+03  0.33850876011E+03  0.12500000000E+03 0.  0.
</event>
<event>
 4    0  0.2193754E-002  0.1929140E+03  0.7546771E-02  0.1155859E+00
         21   -1    0    0  502  501  0.00000000000E+00  0.00000000000E+00  0.13422645440E+04  0.13422645440E+04  0.00000000000E+00 0.  1.
         21   -1    0    0  501  502 -0.00000000000E+00 -0.00000000000E+00 -0.27726130090E+02  0.27726130090E+02  0.00000000000E+00 0.  1.
         25    1    1    2    0    0  0.11663854519E+03  0.71827139536E+02  0.84606639615E+03  0.86615069987E+03  0.12500000000E+03 0.  0.
         25    1    1    2    0    0 -0.11663854519E+03 -0.71827139536E+02  0.46847201780E+03  0.50383997426E+03  0.12500000000E+03 0.  0.
</event>
<event>
 4    0  0.2193754E-002  0.2163674E+03  0.7546771E-02  0.1136621E+00
         21   -1    0    0  502  501  0.00000000000E+00  0.00000000000E+00  0.62074011602E+02  0.62074011602E+02  0.00000000000E+00 0. -1.
         21   -1    0    0  501  502 -0.00000000000E+00 -0.00000000000E+00 -0.75417811260E+03  0.75417811260E+03  0.00000000000E+00 0. -1.
         25    1    1    2    0    0  0.91994403015E+02  0.30517921007E+02 -0.67576963179E+02  0.17200569654E+03  0.12500000000E+03 0.  0.
         25    1    1    2    0    0 -0.91994403015E+02 -0.30517921007E+02 -0.62452713782E+03  0.64424642767E+03  0.12500000000E+03 0.  0.
</event>
<event>
 4    0  0.2193754E-002  0.2054361E+03  0.7546771E-02  0.1145232E+00
         21   -1    0    0  502  501  0.00000000000E+00  0.00000000000E+00  0.31466695320E+02  0.31466695320E+02  0.00000000000E+00 0. -1.
         21   -1    0    0  501  502 -0.00000000000E+00 -0.00000000000E+00 -0.13412268584E+04  0.13412268584E+04  0.00000000000E+00 0. -1.
         25    1    1    2    0    0  0.48110511607E+02 -0.11133099197E+03 -0.10188688521E+04  0.10336478844E+04  0.12500000000E+03 0.  0.
         25    1    1    2    0    0 -0.48110511607E+02  0.11133099197E+03 -0.29089131103E+03  0.33904566939E+03  0.12500000000E+03 0.  0.
</event>
<event>
 4    0  0.2193754E-002  0.1628545E+03  0.7546771E-02  0.1185511E+00
         21   -1    0    0  502  501  0.00000000000E+00  0.00000000000E+00  0.17896793777E+02  0.17896793777E+02  0.00000000000E+00 0.  1.
         21   -1    0    0  501  502 -0.00000000000E+00 -0.00000000000E+00 -0.14819176262E+04  0.14819176262E+04  0.00000000000E+00 0.  1.
         25    1    1    2    0    0  0.43694466963E+02  0.89609983247E+02 -0.58952880648E+03  0.61082597294E+03  0.12500000000E+03 0.  0.
         25    1    1    2    0    0 -0.43694466963E+02 -0.89609983247E+02 -0.87449202599E+03  0.88898844709E+03  0.12500000000E+03 0.  0.
</event>
<event>
 4    0  0.2193754E-002  0.2073841E+03  0.7546771E-02  0.1143654E+00
         21   -1    0    0  502  501  0.00000000000E+00  0.00000000000E+00  0.30045304753E+03  0.30045304753E+03  0.00000000000E+00 0.  1.
         21   -1    0    0  501  502 -0.00000000000E+00 -0.00000000000E+00 -0.14314434894E+03  0.14314434894E+03  0.00000000000E+00 0.  1.
         25    1    1    2    0    0  0.69068389430E+02  0.47020768595E+02  0.23141707818E+03  0.27597148253E+03  0.12500000000E+03 0.  0.
         25    1    1    2    0    0 -0.69068389430E+02 -0.47020768595E+02 -0.74108379587E+02  0.16762591394E+03  0.12500000000E+03 0.  0.
</event>
<event>
 4    0  0.2193754E-002  0.2162940E+03  0.7546771E-02  0.1136677E+00
         21   -1    0    0  502  501  0.00000000000E+00  0.00000000000E+00  0.11349539841E+04  0.11349539841E+04  0.00000000000E+00 0. -1.
         21   -1    0    0  501  502 -0.00000000000E+00 -0.00000000000E+00 -0.41220239176E+02  0.41220239176E+02  0.00000000000E+00 0. -1.
         25    1    1    2    0    0 -0.73900220522E+00 -0.51295146515E+02  0.87647414642E+02  0.16105529322E+03  0.12500000000E+03 0.  0.
         25    1    1    2    0    0  0.73900220522E+00  0.51295146515E+02  0.10060863303E+04  0.10151189300E+04  0.12500000000E+03 0.  0.
</event>
<event>
 4    0  0.2193754E-002  0.3481975E+03  0.7546771E-02  0.1063357E+00
         21   -1    0    0  502  501  0.00000000000E+00  0.00000000000E+00  0.28881593676E+03  0.28881593676E+03  0.00000000000E+00 0. -1.
         21   -1    0    0  501  502 -0.00000000000E+00 -0.00000000000E+00 -0.41978822431E+03  0.41978822431E+03  0.00000000000E+00 0. -1.
         25    1    1    2    0    0  0.22911944802E+03  0.21778596906E+03 -0.14224123029E+03  0.36848882937E+03  0.12500000000E+03 0.  0.
         25    1    1    2    0    0 -0.22911944802E+03 -0.21778596906E+03  0.11268942736E+02  0.34011533169E+03  0.12500000000E+03 0.  0.
</event>
<event>
 4    0  0.2193754E-002  0.1880454E+03  0.7546771E-02  0.1160236E+00
         21   -1    0    0  502  501  0.00000000000E+00  0.00000000000E+00  0.23618671747E+03  0.23618671747E+03  0.00000000000E+00 0.  1.
         21   -1    0    0  501  502 -0.00000000000E+00 -0.00000000000E+00 -0.14971657024E+03  0.14971657024E+03  0.00000000000E+00 0.  1.
         25    1    1    2    0    0 -0.60312119267E+02  0.75978210256E+02  0.14750238991E+03  0.21631503691E+03  0.12500000000E+03 0.  0.
         25    1    1    2    0    0  0.60312119267E+02 -0.75978210256E+02 -0.61032242681E+02  0.16958825080E+03  0.12500000000E+03 0.  0.
</event>
<event>
 4    0  0.2193754E-002  0.1927013E+03  0.7546771E-02  0.1156047E+00
         21   -1    0    0  502  501  0.00000000000E+00  0.00000000000E+00  0.18218999556E+03  0.18218999556E+03  0.00000000000E+00 0.  1.
         21   -1    0    0  501  502 -0.00000000000E+00 -0.00000000000E+00 -0.20381906827E+03  0.20381906827E+03  0.00000000000E+00 0.  1.
         25    1    1    2    0    0 -0.91431299228E+02  0.10636401273E+03 -0.53728303462E+02  0.19540909978E+03  0.12500000000E+03 0.  0.
         25    1    1    2    0    0  0.91431299228E+02 -0.10636401273E+03  0.32099230756E+02  0.19059996406E+03  0.12500000000E+03 0.  0.
</event>
<event>
 4    0  0.2193754E-002  0.2367230E+03  0.7546771E-02  0.1121995E+00
         21   -1    0    0  502  501  0.00000000000E+00  0.00000000000E+00  0.23889593782E+03  0.23889593782E+03  0.00000000000E+00 0. -1.
         21   -1    0    0  501  502 -0.00000000000E+00 -0.00000000000E+00 -0.23456986250E+03  0.23456986250E+03  0.00000000000E+00 0. -1.
         25    1    1    2    0    0 -0.11601035225E+03  0.45413763534E+02 -0.15561545844E+03  0.23529127194E+03  0.12500000000E+03 0.  0.
         25    1    1    2    0    0  0.11601035225E+03 -0.45413763534E+02  0.15994153376E+03  0.23817452838E+03  0.12500000000E+03 0.  0.
</event>
<event>
 4    0  0.2193754E-002  0.3151059E+03  0.7546771E-02  0.1077924E+00
         21   -1    0    0  502  501  0.00000000000E+00  0.00000000000E+00  0.63231647192E+02  0.63231647192E+02  0.00000000000E+00 0. -1.
         21   -1    0    0  501  502 -0.00000000000E+00 -0.00000000000E+00 -0.15702854174E+04  0.15702854174E+04  0.00000000000E+00 0. -1.
         25    1    1    2    0    0  0.16922519288E+03  0.21629849033E+03 -0.98888008256E+03  0.10338912034E+04  0.12500000000E+03 0.  0.
         25    1    1    2    0    0 -0.16922519288E+03 -0.21629849033E+03 -0.51817368767E+03  0.59962586119E+03  0.12500000000E+03 0.  0.
</event>
<event>
 4    0  0.2193754E-002  0.2195087E+03  0.7546771E-02  0.1134250E+00
         21   -1    0    0  502  501  0.00000000000E+00  0.00000000000E+00  0.28332876044E+03  0.28332876044E+03  0.00000000000E+00 0.  1.
         21   -1    0    0  501  502 -0.00000000000E+00 -0.00000000000E+00 -0.17006419220E+03  0.17006419220E+03  0.00000000000E+00 0.  1.
         25    1    1    2    0    0 -0.15500638103E+03  0.74363464986E+02  0.11321853306E+03  0.24083259603E+03  0.12500000000E+03 0.  0.
         25    1    1    2    0    0  0.15500638103E+03 -0.74363464986E+02  0.46035186426E-01  0.21256035661E+03  0.12500000000E+03 0.  0.
</event>
<event>
 4    0  0.2193754E-002  0.1915765E+03  0.7546771E-02  0.1157047E+00
         21   -1    0    0  502  501  0.00000000000E+00  0.00000000000E+00  0.75692805490E+02  0.75692805490E+02  0.00000000000E+00 0.  1.
         21   -1    0    0  501  502 -0.00000000000E+00 -0.00000000000E+00 -0.48487496953E+03  0.48487496953E+03  0.00000000000E+00 0.  1.
         25    1    1    2    0    0 -0.11647971781E+03  0.50276312511E+02 -0.10133207852E+03  0.20491076691E+03  0.12500000000E+03 0.  0.
         25    1    1    2    0    0  0.11647971781E+03 -0.50276312511E+02 -0.30785008552E+03  0.35565700811E+03  0.12500000000E+03 0.  0.
</event>
<event>
 4    0  0.2193754E-002  0.1721266E+03  0.7546771E-02  0.1175648E+00
         21   -1    0    0  502  501  0.00000000000E+00  0.00000000000E+00  0.12985320165E+03  0.12985320165E+03  0.00000000000E+00 0. -1.
         21   -1    0    0  501  502 -0.00000000000E+00 -0.00000000000E+00 -0.22816211575E+03  0.22816211575E+03  0.00000000000E+00 0. -1.
         25    1    1    2    0    0 -0.81878532291E+02 -0.62765593700E+02 -0.10942795684E+03  0.19555840953E+03  0.12500000000E+03 0.  0.
         25    1    1    2    0    0  0.81878532291E+02  0.62765593700E+02  0.11119042730E+02  0.16245690787E+03  0.12500000000E+03 0.  0.
</event>
<event>
 4    0  0.2193754E-002  0.2450753E+03  0.7546771E-02  0.1116457E+00
         21   -1    0    0  502  501  0.00000000000E+00  0.00000000000E+00  0.65032887180E+03  0.65032887180E+03  0.00000000000E+00 0.  1.
         21   -1    0    0  501  502 -0.00000000000E+00 -0.00000000000E+00 -0.92356210570E+02  0.92356210570E+02  0.00000000000E+00 0.  1.
         25    1    1    2    0    0  0.21000228121E+03  0.13981574957E+02  0.29694455225E+03  0.38483439252E+03  0.12500000000E+03 0.  0.
         25    1    1    2    0    0 -0.21000228121E+03 -0.13981574957E+02  0.26102810898E+03  0.35785068985E+03  0.12500000000E+03 0.  0.
</event>
<event>
 4    0  0.2193754E-002  0.2204359E+03  0.7546771E-02  0.1133559E+00
         21   -1    0    0  502  501  0.00000000000E+00  0.00000000000E+00  0.18391639503E+03  0.18391639503E+03  0.00000000000E+00 0. -1.
         21   -1    0    0  501  502 -0.00000000000E+00 -0.00000000000E+00 -0.26420687983E+03  0.26420687983E+03  0.00000000000E+00 0. -1.
         25    1    1    2    0    0 -0.17726007216E+03 -0.29337988393E+01 -0.29274259258E+00  0.21692124390E+03  0.12500000000E+03 0.  0.
         25    1    1    2    0    0  0.17726007216E+03  0.29337988393E+01 -0.79997742215E+02  0.23120203096E+03  0.12500000000E+03 0.  0.
</event>
<event>
 4    0  0.2193754E-002  0.1885035E+03  0.7546771E-02  0.1159818E+00
         21   -1    0    0  502  501  0.00000000000E+00  0.00000000000E+00  0.11128321951E+03  0.11128321951E+03  0.00000000000E+00 0.  1.
         21   -1    0    0  501  502 -0.00000000000E+00 -0.00000000000E+00 -0.31930758688E+03  0.31930758688E+03  0.00000000000E+00 0.  1.
         25    1    1    2    0    0  0.76278129866E+02  0.41943362600E+02  0.22815497010E+02  0.15402319847E+03  0.12500000000E+03 0.  0.
         25    1    1    2    0    0 -0.76278129866E+02 -0.41943362600E+02 -0.23083986438E+03  0.27656760792E+03  0.12500000000E+03 0.  0.
</event>
<event>
 4    0  0.2193754E-002  0.2871538E+03  0.7546771E-02  0.1091845E+00
         21   -1    0    0  502  501  0.00000000000E+00  0.00000000000E+00  0.11221217107E+03  0.11221217107E+03  0.00000000000E+00 0. -1.
         21   -1    0    0  501  502 -0.00000000000E+00 -0.00000000000E+00 -0.73483407299E+03  0.73483407299E+03  0.00000000000E+00 0. -1.
         25    1    1    2    0    0 -0.20311577981E+03 -0.14557450397E+03 -0.40897081674E+03  0.49530807096E+03  0.12500000000E+03 0.  0.
         25    1    1    2    0    0  0.20311577981E+03  0.14557450397E+03 -0.21365108519E+03  0.35173817310E+03  0.12500000000E+03 0.  0.
</event>
<event>
 4    0  0.2193754E-002  0.2354032E+03  0.7546771E-02  0.1122893E+00
         21   -1    0    0  502  501  0.00000000000E+00  0.00000000000E+00  0.37521903257E+03  0.37521903257E+03  0.00000000000E+00 0.  1.
         21   -1    0    0  501  502 -0.00000000000E+00 -0.00000000000E+00 -0.14768621478E+03  0.14768621478E+03  0.00000000000E+00 0.  1.
         25    1    1    2    0    0 -0.26419103463E+02  0.13983419784E+03  0.26901291451E+03  0.32900534963E+03  0.12500000000E+03 0.  0.
         25    1    1    2    0    0  0.26419103463E+02 -0.13983419784E+03 -0.41480096718E+02  0.19389989772E+03  0.12500000000E+03 0.  0.
</event>
<event>
 4    0  0.2193754E-002  0.2695041E+03  0.7546771E-02  0.1101564E+00
         21   -1    0    0  502  501  0.00000000000E+00  0.00000000000E+00  0.10380421268E+04  0.10380421268E+04  0.00000000000E+00 0.  1.
         21   -1    0    0  501  502 -0.00000000000E+00 -0.00000000000E+00 -0.69970633503E+02  0.69970633503E+02  0.00000000000E+00 0.  1.
         25    1    1    2    0    0 -0.72348683500E+02  0.29500021631E+02  0.20246623301E+02  0.14879351140E+03  0.12500000000E+03 0.  0.
         25    1    1    2    0    0  0.72348683500E+02 -0.29500021631E+02  0.94782487004E+03  0.95921924895E+03  0.12500000000E+03 0.  0.
</event>
<event>
 4    0  0.2193754E-002  0.2581592E+03  0.7546771E-02  0.1108254E+00
         21   -1    0    0  502  501  0.00000000000E+00  0.00000000000E+00  0.53906318862E+03  0.53906318862E+03  0.00000000000E+00 0. -1.
         21   -1    0    0  501  502 -0.00000000000E+00 -0.00000000000E+00 -0.12363327398E+03  0.12363327398E+03  0.00000000000E+00 0. -1.
         25    1    1    2    0    0  0.13744511336E+03 -0.77722852622E+02  0.40170525439E+00  0.20138808895E+03  0.12500000000E+03 0.  0.
         25    1    1    2    0    0 -0.13744511336E+03  0.77722852622E+02  0.41502820939E+03  0.46130837364E+03  0.12500000000E+03 0.  0.
</event>
<event>
 4    0  0.2193754E-002  0.2983934E+03  0.7546771E-02  0.1086046E+00
         21   -1    0    0  502  501  0.00000000000E+00  0.00000000000E+00  0.18253994727E+03  0.18253994727E+03  0.00000000000E+00 0. -1.
         21   -1    0    0  501  502 -0.00000000000E+00 -0.00000000000E+00 -0.48777610123E+03  0.48777610123E+03  0.00000000000E+00 0. -1.
         25    1    1    2    0    0  0.16794108525E+03 -0.94558913813E+02  0.61287629371E+02  0.23775359053E+03  0.12500000000E+03 0.  0.
         25    1    1    2    0    0 -0.16794108525E+03  0.94558913813E+02 -0.36652378333E+03  0.43256245797E+03  0.12500000000E+03 0.  0.
</event>
<event>
 4    0  0.2193754E-002  0.3320267E+03  0.7546771E-02  0.1070244E+00
         21   -1    0    0  502  501  0.00000000000E+00  0.00000000000E+00  0.30271251634E+02  0.30271251634E+02  0.00000000000E+00 0.  1.
         21   -1    0    0  501  502 -0.00000000000E+00 -0.00000000000E+00 -0.36417957165E+04  0.36417957165E+04  0.00000000000E+00 0.  1.
         25    1    1    2    0    0 -0.36353628712E+02  0.29875188831E+03 -0.21573463693E+04  0.21818209446E+04  0.12500000000E+03 0.  0.
         25    1    1    2    0    0  0.36353628712E+02 -0.29875188831E+03 -0.14541780956E+04  0.14902460235E+04  0.12500000000E+03 0.  0.
</event>
<event>
 4    0  0.2193754E-002  0.1957018E+03  0.7546771E-02  0.1153417E+00
         21   -1    0    0  502  501  0.00000000000E+00  0.00000000000E+00  0.62465572857E+03  0.62465572857E+03  0.00000000000E+00 0. -1.
         21   -1    0    0  501  502 -0.00000000000E+00 -0.00000000000E+00 -0.61312484976E+02  0.61312484976E+02  0.00000000000E+00 0. -1.
         25    1    1    2    0    0  0.87804253381E+02  0.11424965690E+03  0.20504487183E+03  0.28005529896E+03  0.12500000000E+03 0.  0.
         25    1    1    2    0    0 -0.87804253381E+02 -0.11424965690E+03  0.35829837176E+03  0.40591291458E+03  0.12500000000E+03 0.  0.
</event>
<event>
 4    0  0.2193754E-002  0.2465173E+03  0.7546771E-02  0.1115526E+00
         21   -1    0    0  502  501  0.00000000000E+00  0.00000000000E+00  0.19547107417E+03  0.19547107417E+03  0.00000000000E+00 0. -1.
         21   -1    0    0  501  502 -0.00000000000E+00 -0.00000000000E+00 -0.31089410065E+03  0.31089410065E+03  0.00000000000E+00 0. -1.
         25    1    1    2    0    0 -0.60227067763E+02  0.20227080791E+03 -0.32449219389E+02  0.24742419296E+03  0.12500000000E+03 0.  0.
         25    1    1    2    0    0  0.60227067763E+02 -0.20227080791E+03 -0.82973807096E+02  0.25894098186E+03  0.12500000000E+03 0.  0.
</event>
<event>
 4    0  0.2193754E-002  0.2854828E+03  0.7546771E-02  0.1092731E+00
         21   -1    0    0  502  501  0.00000000000E+00  0.00000000000E+00  0.80225484119E+02  0.80225484119E+02  0.00000000000E+00 0.  1.
         21   -1    0    0  501  502 -0.00000000000E+00 -0.00000000000E+00 -0.10158917470E+04  0.10158917470E+04  0.00000000000E+00 0.  1.
         25    1    1    2    0    0  0.20266919767E+02 -0.61607421082E+02 -0.94457272724E+03  0.95501249175E+03  0.12500000000E+03 0.  0.
         25    1    1    2    0    0 -0.20266919767E+02  0.61607421082E+02  0.89064643377E+01  0.14110473938E+03  0.12500000000E+03 0.  0.
</event>
<event>
 4    0  0.2193754E-002  0.3717310E+03  0.7546771E-02  0.1054033E+00
         21   -1    0    0  502  501  0.00000000000E+00  0.00000000000E+00  0.95618716926E+03  0.95618716926E+03  0.00000000000E+00 0.  1.
         21   -1    0    0  501  502 -0.00000000000E+00 -0.00000000000E+00 -0.14451553728E+03  0.14451553728E+03  0.00000000000E+00 0.  1.
         25    1    1    2    0    0 -0.54921632471E+02  0.12235542498E+03  0.88459633274E+03  0.90339521120E+03  0.12500000000E+03 0.  0.
         25    1    1    2    0    0  0.54921632471E+02 -0.12235542498E+03 -0.72924700756E+02  0.19730749534E+03  0.12500000000E+03 0.  0.
</event>
<event>
 4    0  0.2193754E-002  0.1462750E+03  0.7546771E-02  0.1205126E+00
         21   -1    0    0  502  501  0.00000000000E+00  0.00000000000E+00  0.11740363981E+02  0.11740363981E+02  0.00000000000E+00 0. -1.
         21   -1    0    0  501  502 -0.00000000000E+00 -0.00000000000E+00 -0.18224615471E+04  0.18224615471E+04  0.00000000000E+00 0. -1.
         25    1    1    2    0    0 -0.30786115101E+02 -0.45090819535E+02 -0.57416845097E+03  0.59014860585E+03  0.12500000000E+03 0.  0.
         25    1    1    2    0    0  0.30786115101E+02  0.45090819535E+02 -0.12365527321E+04  0.12440533052E+04  0.12500000000E+03 0.  0.
</event>
<event>
 4    0  0.2193754E-002  0.1508525E+03  0.7546771E-02  0.1199429E+00
         21   -1    0    0  502  501  0.00000000000E+00  0.00000000000E+00  0.38692195617E+03  0.38692195617E+03  0.00000000000E+00 0. -1.
         21   -1    0    0  501  502 -0.00000000000E+00 -0.00000000000E+00 -0.58814146162E+02  0.58814146162E+02  0.00000000000E+00 0. -1.
         25    1    1    2    0    0 -0.61270332709E+02  0.48590566666E+02  0.21115434001E+03  0.25753883619E+03  0.12500000000E+03 0.  0.
         25    1    1    2    0    0  0.61270332709E+02 -0.48590566666E+02  0.11695346999E+03  0.18819726614E+03  0.12500000000E+03 0.  0.
</event>
<event>
 4    0  0.2193754E-002  0.2045668E+03  0.7546771E-02  0.1145942E+00
         21   -1    0    0  502  501  0.00000000000E+00  0.00000000000E+00  0.68475717781E+02  0.68475717781E+02  0.00000000000E+00 0. -1.
         21   -1    0    0  501  502 -0.00000000000E+00 -0.00000000000E+00 -0.61113000249E+03  0.61113000249E+03  0.00000000000E+00 0. -1.
         25    1    1    2    0    0  0.15163914645E+03 -0.55251146521E+02 -0.24932508800E+03  0.32223457206E+03  0.12500000000E+03 0.  0.
         25    1    1    2    0    0 -0.15163914645E+03  0.55251146521E+02 -0.29332919672E+03  0.35737114821E+03  0.12500000000E+03 0.  0.
</event>
<event>
 4    0  0.2193754E-002  0.2421550E+03  0.7546771E-02  0.1118365E+00
         21   -1    0    0  502  501  0.00000000000E+00  0.00000000000E+00  0.64893792907E+02  0.64893792907E+02  0.00000000000E+00 0.  1.
         21   -1    0    0  501  502 -0.00000000000E+00 -0.00000000000E+00 -0.90361579302E+03  0.90361579302E+03  0.00000000000E+00 0.  1.
         25    1    1    2    0    0  0.56548919903E+01 -0.20618611584E+03 -0.46268567529E+03  0.52177363510E+03  0.12500000000E+03 0.  0.
         25    1    1    2    0    0 -0.56548919903E+01  0.20618611584E+03 -0.37603632482E+03  0.44673595082E+03  0.12500000000E+03 0.  0.
</event>
<event>
 4    0  0.2193754E-002  0.3125640E+03  0.7546771E-02  0.1079123E+00
         21   -1    0    0  502  501  0.00000000000E+00  0.00000000000E+00  0.14661192189E+04  0.14661192189E+04  0.00000000000E+00 0.  1.
         21   -1    0    0  501  502 -0.00000000000E+00 -0.00000000000E+00 -0.66635967234E+02  0.66635967234E+02  0.00000000000E+00 0.  1.
         25    1    1    2    0    0 -0.18517569299E+03  0.20737588565E+03  0.53028535378E+03  0.61165541905E+03  0.12500000000E+03 0.  0.
         25    1    1    2    0    0  0.18517569299E+03 -0.20737588565E+03  0.86919789785E+03  0.92109976705E+03  0.12500000000E+03 0.  0.
</event>
<event>
 4    0  0.2193754E-002  0.2501672E+03  0.7546771E-02  0.1113199E+00
         21   -1    0    0  502  501  0.00000000000E+00  0.00000000000E+00  0.60681708767E+03  0.60681708767E+03  0.00000000000E+00 0. -1.
         21   -1    0    0  501  502 -0.00000000000E+00 -0.00000000000E+00 -0.10313422556E+03  0.10313422556E+03  0.00000000000E+00 0. -1.
         25    1    1    2    0    0  0.53499209343E+02  0.73982295007E+02  0.53070490417E+03  0.55281845183E+03  0.12500000000E+03 0.  0.
         25    1    1    2    0    0 -0.53499209343E+02 -0.73982295007E+02 -0.27022042060E+02  0.15713286140E+03  0.12500000000E+03 0.  0.
</event>
<event>
 4    0  0.2193754E-002  0.2418192E+03  0.7546771E-02  0.1118587E+00
         21   -1    0    0  502  501  0.00000000000E+00  0.00000000000E+00  0.59140835916E+02  0.59140835916E+02  0.00000000000E+00 0. -1.
         21   -1    0    0  501  502 -0.00000000000E+00 -0.00000000000E+00 -0.98876715188E+03  0.98876715188E+03  0.00000000000E+00 0. -1.
         25    1    1    2    0    0  0.10451210493E+03 -0.11585935913E+03 -0.17006506732E+03  0.26247532893E+03  0.12500000000E+03 0.  0.
         25    1    1    2    0    0 -0.10451210493E+03  0.11585935913E+03 -0.75956124864E+03  0.78543265887E+03  0.12500000000E+03 0.  0.
</event>
<event>
 4    0  0.2193754E-002  0.1977762E+03  0.7546771E-02  0.1151629E+00
         21   -1    0    0  502  501  0.00000000000E+00  0.00000000000E+00  0.29972606699E+02  0.29972606699E+02  0.00000000000E+00 0.  1.
         21   -1    0    0  501  502 -0.00000000000E+00 -0.00000000000E+00 -0.13050394237E+04  0.13050394237E+04  0.00000000000E+00 0.  1.
         25    1    1    2    0    0  0.36108757275E+01  0.15257837513E+03 -0.59013405335E+03  0.62223500376E+03  0.12500000000E+03 0.  0.
         25    1    1    2    0    0 -0.36108757275E+01 -0.15257837513E+03 -0.68493276360E+03  0.71277702659E+03  0.12500000000E+03 0.  0.
</event>
<event>
 4    0  0.2193754E-002  0.2129319E+03  0.7546771E-02  0.1139265E+00
         21   -1    0    0  502  501  0.00000000000E+00  0.00000000000E+00  0.59670748708E+03  0.59670748708E+03  0.00000000000E+00 0.  1.
         21   -1    0    0  501  502 -0.00000000000E+00 -0.00000000000E+00 -0.75983651720E+02  0.75983651720E+02  0.00000000000E+00 0.  1.
         25    1    1    2    0    0  0.13481149258E+03  0.11365353582E+02  0.42910273081E+03  0.46696623366E+03  0.12500000000E+03 0.  0.
         25    1    1    2    0    0 -0.13481149258E+03 -0.11365353582E+02  0.91621104549E+02  0.20572490513E+03  0.12500000000E+03 0.  0.
</event>
<event>
 4    0  0.2193754E-002  0.1924283E+03  0.7546771E-02  0.1156289E+00
         21   -1    0    0  502  501  0.00000000000E+00  0.00000000000E+00  0.57227765630E+02  0.57227765630E+02  0.00000000000E+00 0.  1.
         21   -1    0    0  501  502 -0.00000000000E+00 -0.00000000000E+00 -0.64704023976E+03  0.64704023976E+03  0.00000000000E+00 0.  1.
         25    1    1    2    0    0  0.15460479904E+02  0.42921319128E+02 -0.40534140255E+02  0.13910169877E+03  0.12500000000E+03 0.  0.
         25    1    1    2    0    0 -0.15460479904E+02 -0.42921319128E+02 -0.54927833387E+03  0.56516630662E+03  0.12500000000E+03 0.  0.
</event>
<event>
 4    0  0.2193754E-002  0.2812448E+03  0.7546771E-02  0.1095011E+00
         21   -1    0    0  502  501  0.00000000000E+00  0.00000000000E+00  0.11383933966E+03  0.11383933966E+03  0.00000000000E+00 0.  1.
         21   -1    0    0  501  502 -0.00000000000E+00 -0.00000000000E+00 -0.69482712565E+03  0.69482712565E+03  0.00000000000E+00 0.  1.
         25    1    1    2    0    0  0.22125872448E+03  0.12048945019E+03 -0.29154091013E+03  0.40508546388E+03  0.12500000000E+03 0.  0.
         25    1    1    2    0    0 -0.22125872448E+03 -0.12048945019E+03 -0.28944687587E+03  0.40358100143E+03  0.12500000000E+03 0.  0.
</event>
<event>
 4    0  0.2193754E-002  0.1990113E+03  0.7546771E-02  0.1150576E+00
         21   -1    0    0  502  501  0.00000000000E+00  0.00000000000E+00  0.10461210795E+04  0.10461210795E+04  0.00000000000E+00 0. -1.
         21   -1    0    0  501  502 -0.00000000000E+00 -0.00000000000E+00 -0.37859398929E+02  0.37859398929E+02  0.00000000000E+00 0. -1.
         25    1    1    2    0    0 -0.28097603871E+02 -0.74129558991E+02  0.86641498370E+03  0.87896791229E+03  0.12500000000E+03 0.  0.
         25    1    1    2    0    0  0.28097603871E+02  0.74129558991E+02  0.14184669686E+03  0.20501256613E+03  0.12500000000E+03 0.  0.
</event>
<event>
 4    0  0.2193754E-002  0.1799150E+03  0.7546771E-02  0.1167885E+00
         21   -1    0    0  502  501  0.00000000000E+00  0.00000000000E+00  0.61841954278E+03  0.61841954278E+03  0.00000000000E+00 0.  1.
         21   -1    0    0  501  502 -0.00000000000E+00 -0.00000000000E+00 -0.52342135936E+02  0.52342135936E+02  0.00000000000E+00 0.  1.
         25    1    1    2    0    0 -0.10948460966E+03  0.63756439428E+02  0.33209825747E+03  0.37678377876E+03  0.12500000000E+03 0.  0.
         25    1    1    2    0    0  0.10948460966E+03 -0.63756439428E+02  0.23397914938E+03  0.29397789996E+03  0.12500000000E+03 0.  0.
</event>
<event>
 4    0  0.2193754E-002  0.2713387E+03  0.7546771E-02  0.1100516E+00
         21   -1    0    0  502  501  0.00000000000E+00  0.00000000000E+00  0.13080878618E+03  0.13080878618E+03  0.00000000000E+00 0.  1.
         21   -1    0    0  501  502 -0.00000000000E+00 -0.00000000000E+00 -0.56284201621E+03  0.56284201621E+03  0.00000000000E+00 0.  1.
         25    1    1    2    0    0  0.12568064337E+03  0.20540998615E+03 -0.22021612831E+03  0.34944102463E+03  0.12500000000E+03 0.  0.
         25    1    1    2    0    0 -0.12568064337E+03 -0.20540998615E+03 -0.21181710172E+03  0.34420977776E+03  0.12500000000E+03 0.  0.
</event>
<event>
 4    0  0.2193754E-002  0.2334629E+03  0.7546771E-02  0.1124226E+00
         21   -1    0    0  502  501  0.00000000000E+00  0.00000000000E+00  0.19802300880E+03  0.19802300880E+03  0.00000000000E+00 0. -1.
         21   -1    0    0  501  502 -0.00000000000E+00 -0.00000000000E+00 -0.27524552318E+03  0.27524552318E+03  0.00000000000E+00 0. -1.
         25    1    1    2    0    0  0.19069255697E+03 -0.33212634682E+02 -0.50783452780E+00  0.23041698783E+03  0.12500000000E+03 0.  0.
         25    1    1    2    0    0 -0.19069255697E+03  0.33212634682E+02 -0.76714679850E+02  0.24285154414E+03  0.12500000000E+03 0.  0.
</event>
<event>
 4    0  0.2193754E-002  0.2037676E+03  0.7546771E-02  0.1146599E+00
         21   -1    0    0  502  501  0.00000000000E+00  0.00000000000E+00  0.10216893609E+03  0.10216893609E+03  0.00000000000E+00 0.  1.
         21   -1    0    0  501  502 -0.00000000000E+00 -0.00000000000E+00 -0.40639770859E+03  0.40639770859E+03  0.00000000000E+00 0.  1.
         25    1    1    2    0    0 -0.25458943316E+02  0.62419523443E+02 -0.33446227619E+03  0.36336533805E+03  0.12500000000E+03 0.  0.
         25    1    1    2    0    0  0.25458943316E+02 -0.62419523443E+02  0.30233503695E+02  0.14520130663E+03  0.12500000000E+03 0.  0.
</event>
<event>
 4    0  0.2193754E-002  0.1857915E+03  0.7546771E-02  0.1162313E+00
         21   -1    0    0  502  501  0.00000000000E+00  0.00000000000E+00  0.85304274430E+02  0.85304274430E+02  0.00000000000E+00 0.  1.
         21   -1    0    0  501  502 -0.00000000000E+00 -0.00000000000E+00 -0.40465107874E+03  0.40465107874E+03  0.00000000000E+00 0.  1.
         25    1    1    2    0    0 -0.46900860637E+02  0.76047654047E+02 -0.21944941854E+02  0.15520797946E+03  0.12500000000E+03 0.  0.
         25    1    1    2    0    0  0.46900860637E+02 -0.76047654047E+02 -0.29740186246E+03  0.33474737371E+03  0.12500000000E+03 0.  0.
</event>
<event>
 4    0  0.2193754E-002  0.2061588E+03  0.7546771E-02  0.1144644E+00
         21   -1    0    0  502  501  0.00000000000E+00  0.00000000000E+00  0.29475505368E+03  0.29475505368E+03  0.00000000000E+00 0. -1.
         21   -1    0    0  501  502 -0.00000000000E+00 -0.00000000000E+00 -0.14419247295E+03  0.14419247295E+03  0.00000000000E+00 0. -1.
         25    1    1    2    0    0 -0.61408402256E+02 -0.14260043068E+03  0.19245376802E+02  0.20025298805E+03  0.12500000000E+03 0.  0.
         25    1    1    2    0    0  0.61408402256E+02  0.14260043068E+03  0.13131720393E+03  0.23869453857E+03  0.12500000000E+03 0.  0.
</event>
<event>
 4    0  0.2193754E-002  0.2585683E+03  0.7546771E-02  0.1108006E+00
         21   -1    0    0  502  501  0.00000000000E+00  0.00000000000E+00  0.12150418345E+03  0.12150418345E+03  0.00000000000E+00 0.  1.
         21   -1    0    0  501  502 -0.00000000000E+00 -0.00000000000E+00 -0.55024918511E+03  0.55024918511E+03  0.00000000000E+00 0.  1.
         25    1    1    2    0    0  0.97315195699E+01 -0.10677994295E+02 -0.50779348897E+03  0.52315193727E+03  0.12500000000E+03 0.  0.
         25    1    1    2    0    0 -0.97315195699E+01  0.10677994295E+02  0.79048487310E+02  0.14860143129E+03  0.12500000000E+03 0.  0.
</event>
<event>
 4    0  0.2193754E-002  0.1532672E+03  0.7546771E-02  0.1196515E+00
         21   -1    0    0  502  501  0.00000000000E+00  0.00000000000E+00  0.84644032374E+01  0.84644032374E+01  0.00000000000E+00 0. -1.
         21   -1    0    0  501  502 -0.00000000000E+00 -0.00000000000E+00 -0.27752493287E+04  0.27752493287E+04  0.00000000000E+00 0. -1.
         25    1    1    2    0    0 -0.42897696290E+02 -0.61875017027E+02 -0.18090597207E+04  0.18149354818E+04  0.12500000000E+03 0.  0.
         25    1    1    2    0    0  0.42897696290E+02  0.61875017027E+02 -0.95772520475E+03  0.96877825011E+03  0.12500000000E+03 0.  0.
</event>
<event>
 4    0  0.2193754E-002  0.2524866E+03  0.7546771E-02  0.1111743E+00
         21   -1    0    0  502  501  0.00000000000E+00  0.00000000000E+00  0.68774188754E+03  0.68774188754E+03  0.00000000000E+00 0.  1.
         21   -1    0    0  501  502 -0.00000000000E+00 -0.00000000000E+00 -0.92693912751E+02  0.92693912751E+02  0.00000000000E+00 0.  1.
         25    1    1    2    0    0  0.30222829191E+02 -0.90619192580E+02 -0.76846731791E+01  0.15750971929E+03  0.12500000000E+03 0.  0.
         25    1    1    2    0    0 -0.30222829191E+02  0.90619192580E+02  0.60273264797E+03  0.62292608100E+03  0.12500000000E+03 0.  0.
</event>
<event>
 4    0  0.2193754E-002  0.1960531E+03  0.7546771E-02  0.1153112E+00
         21   -1    0    0  502  501  0.00000000000E+00  0.00000000000E+00  0.11480748820E+04  0.11480748820E+04  0.00000000000E+00 0.  1.
         21   -1    0    0  501  502 -0.00000000000E+00 -0.00000000000E+00 -0.33479360378E+02  0.33479360378E+02  0.00000000000E+00 0.  1.
         25    1    1    2    0    0  0.14815066786E+03  0.45788909285E+01  0.64474866991E+03  0.67327218417E+03  0.12500000000E+03 0.  0.
         25    1    1    2    0    0 -0.14815066786E+03 -0.45788909285E+01  0.46984685173E+03  0.50828205822E+03  0.12500000000E+03 0.  0.
</event>
<event>
 4    0  0.2193754E-002  0.2633842E+03  0.7546771E-02  0.1105127E+00
         21   -1    0    0  502  501  0.00000000000E+00  0.00000000000E+00  0.55711621750E+03  0.55711621750E+03  0.00000000000E+00 0. -1.
         21   -1    0    0  501  502 -0.00000000000E+00 -0.00000000000E+00 -0.12451843369E+03  0.12451843369E+03  0.00000000000E+00 0. -1.
         25    1    1    2    0    0  0.20771861008E+03 -0.68186781627E+02  0.31611081330E+03  0.40416272026E+03  0.12500000000E+03 0.  0.
         25    1    1    2    0    0 -0.20771861008E+03  0.68186781627E+02  0.11648697051E+03  0.27747193094E+03  0.12500000000E+03 0.  0.
</event>
<event>
 4    0  0.2193754E-002  0.3443455E+03  0.7546771E-02  0.1064960E+00
         21   -1    0    0  502  501  0.00000000000E+00  0.00000000000E+00  0.12955455936E+03  0.12955455936E+03  0.00000000000E+00 0. -1.
         21   -1    0    0  501  502 -0.00000000000E+00 -0.00000000000E+00 -0.91524223483E+03  0.91524223483E+03  0.00000000000E+00 0. -1.
         25    1    1    2    0    0  0.28923000095E+03  0.13143983038E+03 -0.46100062940E+03  0.57365233615E+03  0.12500000000E+03 0.  0.
         25    1    1    2    0    0 -0.28923000095E+03 -0.13143983038E+03 -0.32468704607E+03  0.47114445804E+03  0.12500000000E+03 0.  0.
</event>
<event>
 4    0  0.2193754E-002  0.2147476E+03  0.7546771E-02  0.1137861E+00
         21   -1    0    0  502  501  0.00000000000E+00  0.00000000000E+00  0.22705651359E+03  0.22705651359E+03  0.00000000000E+00 0. -1.
         21   -1    0    0  501  502 -0.00000000000E+00 -0.00000000000E+00 -0.20310601891E+03  0.20310601891E+03  0.00000000000E+00 0. -1.
         25    1    1    2    0    0 -0.11622402602E+03  0.12820558129E+03  0.35396386457E+02  0.21638530327E+03  0.12500000000E+03 0.  0.
         25    1    1    2    0    0  0.11622402602E+03 -0.12820558129E+03 -0.11445891774E+02  0.21377722923E+03  0.12500000000E+03 0.  0.
</event>
<event>
 4    0  0.2193754E-002  0.1973076E+03  0.7546771E-02  0.1152031E+00
         21   -1    0    0  502  501  0.00000000000E+00  0.00000000000E+00  0.21055866608E+03  0.21055866608E+03  0.00000000000E+00 0.  1.
         21   -1    0    0  501  502 -0.00000000000E+00 -0.00000000000E+00 -0.18489044755E+03  0.18489044755E+03  0.00000000000E+00 0.  1.
         25    1    1    2    0    0 -0.12633599599E+03  0.65239115229E+02 -0.42856346329E+02  0.19410974334E+03  0.12500000000E+03 0.  0.
         25    1    1    2    0    0  0.12633599599E+03 -0.65239115229E+02  0.68524564859E+02  0.20133937028E+03  0.12500000000E+03 0.  0.
</event>
<event>
 4    0  0.2193754E-002  0.2246184E+03  0.7546771E-02  0.1130486E+00
         21   -1    0    0  502  501  0.00000000000E+00  0.00000000000E+00  0.29881869782E+03  0.29881869782E+03  0.00000000000E+00 0. -1.
         21   -1    0    0  501  502 -0.00000000000E+00 -0.00000000000E+00 -0.16884292726E+03  0.16884292726E+03  0.00000000000E+00 0. -1.
         25    1    1    2    0    0 -0.14258117625E+03 -0.10152151734E+03  0.13239231920E+03  0.25256432149E+03  0.12500000000E+03 0.  0.
         25    1    1    2    0    0  0.14258117625E+03  0.10152151734E+03 -0.24165486400E+01  0.21509730359E+03  0.12500000000E+03 0.  0.
</event>
<event>
 4    0  0.2193754E-002  0.4188994E+03  0.7546771E-02  0.1037425E+00
         21   -1    0    0  502  501  0.00000000000E+00  0.00000000000E+00  0.16516327325E+04  0.16516327325E+04  0.00000000000E+00 0. -1.
         21   -1    0    0  501  502 -0.00000000000E+00 -0.00000000000E+00 -0.10624439227E+03  0.10624439227E+03  0.00000000000E+00 0. -1.
         25    1    1    2    0    0 -0.45258494297E+02  0.34248694364E+03  0.11949822938E+04  0.12501813150E+04  0.12500000000E+03 0.  0.
         25    1    1    2    0    0  0.45258494297E+02 -0.34248694364E+03  0.35040604638E+03  0.50769580972E+03  0.12500000000E+03 0.  0.
</event>
<event>
 4    0  0.2193754E-002  0.1751014E+03  0.7546771E-02  0.1172630E+00
         21   -1    0    0  502  501  0.00000000000E+00  0.00000000000E+00  0.17256471069E+02  0.17256471069E+02  0.00000000000E+00 0.  1.
         21   -1    0    0  501  502 -0.00000000000E+00 -0.00000000000E+00 -0.17767540890E+04  0.17767540890E+04  0.00000000000E+00 0.  1.
         25    1    1    2    0    0  0.17786585172E+02  0.12014251712E+03 -0.79327876692E+03  0.81219873742E+03  0.12500000000E+03 0.  0.
         25    1    1    2    0    0 -0.17786585172E+02 -0.12014251712E+03 -0.96621885101E+03  0.98181182265E+03  0.12500000000E+03 0.  0.
</event>
<event>
 4    0  0.2193754E-002  0.3430284E+03  0.7546771E-02  0.1065513E+00
         21   -1    0    0  502  501  0.00000000000E+00  0.00000000000E+00  0.44489949027E+04  0.44489949027E+04  0.00000000000E+00 0.  1.
         21   -1    0    0  501  502 -0.00000000000E+00 -0.00000000000E+00 -0.26448335948E+02  0.26448335948E+02  0.00000000000E+00 0.  1.
         25    1    1    2    0    0  0.25892647309E+03  0.14929369316E+03  0.14757733473E+04  0.15109147884E+04  0.12500000000E+03 0.  0.
         25    1    1    2    0    0 -0.25892647309E+03 -0.14929369316E+03  0.29467732195E+04  0.29645284503E+04  0.12500000000E+03 0.  0.
</event>
<event>
 4    0  0.2193754E-002  0.2212750E+03  0.7546771E-02  0.1132936E+00
         21   -1    0    0  502  501  0.00000000000E+00  0.00000000000E+00  0.33032489354E+03  0.33032489354E+03  0.00000000000E+00 0. -1.
         21   -1    0    0  501  502 -0.00000000000E+00 -0.00000000000E+00 -0.14822567265E+03  0.14822567265E+03  0.00000000000E+00 0. -1.
         25    1    1    2    0    0  0.92067443871E+02  0.14585697415E+03  0.26286359292E+02  0.21463141385E+03  0.12500000000E+03 0.  0.
         25    1    1    2    0    0 -0.92067443871E+02 -0.14585697415E+03  0.15581286160E+03  0.26391915233E+03  0.12500000000E+03 0.  0.
</event>
<event>
 4    0  0.2193754E-002  0.1796863E+03  0.7546771E-02  0.1168107E+00
         21   -1    0    0  502  501  0.00000000000E+00  0.00000000000E+00  0.13395781253E+04  0.13395781253E+04  0.00000000000E+00 0.  1.
         21   -1    0    0  501  502 -0.00000000000E+00 -0.00000000000E+00 -0.24102494527E+02  0.24102494527E+02  0.00000000000E+00 0.  1.
         25    1    1    2    0    0 -0.63229768971E+02 -0.15174674993E+02  0.10808653989E+04  0.10900106811E+04  0.12500000000E+03 0.  0.
         25    1    1    2    0    0  0.63229768971E+02  0.15174674993E+02  0.23461023188E+03  0.27366993870E+03  0.12500000000E+03 0.  0.
</event>
<event>
 4    0  0.2193754E-002  0.1945850E+03  0.7546771E-02  0.1154390E+00
         21   -1    0    0  502  501  0.00000000000E+00  0.00000000000E+00  0.57582991669E+02  0.57582991669E+02  0.00000000000E+00 0. -1.
         21   -1    0    0  501  502 -0.00000000000E+00 -0.00000000000E+00 -0.65754331499E+03  0.65754331499E+03  0.00000000000E+00 0. -1.
         25    1    1    2    0    0  0.10686862370E+03  0.10400596237E+03 -0.29922633702E+03  0.35693072677E+03  0.12500000000E+03 0.  0.
         25    1    1    2    0    0 -0.10686862370E+03 -0.10400596237E+03 -0.30073398630E+03  0.35819557989E+03  0.12500000000E+03 0.  0.
</event>
<event>
 4    0  0.2193754E-002  0.1923328E+03  0.7546771E-02  0.1156374E+00
         21   -1    0    0  502  501  0.00000000000E+00  0.00000000000E+00  0.37090461084E+02  0.37090461084E+02  0.00000000000E+00 0. -1.
         21   -1    0    0  501  502 -0.00000000000E+00 -0.00000000000E+00 -0.99734334154E+03  0.99734334154E+03  0.00000000000E+00 0. -1.
         25    1    1    2    0    0  0.14417651032E+03 -0.59073554270E+01 -0.54291518527E+03  0.57550296383E+03  0.12500000000E+03 0.  0.
         25    1    1    2    0    0 -0.14417651032E+03  0.59073554270E+01 -0.41733769518E+03  0.45893083879E+03  0.12500000000E+03 0.  0.
</event>
<event>
 4    0  0.2193754E-002  0.2447681E+03  0.7546771E-02  0.1116657E+00
         21   -1    0    0  502  501  0.00000000000E+00  0.00000000000E+00  0.24510632657E+03  0.24510632657E+03  0.00000000000E+00 0.  1.
         21   -1    0    0  501  502 -0.00000000000E+00 -0.00000000000E+00 -0.24443033597E+03  0.24443033597E+03  0.00000000000E+00 0.  1.
         25    1    1    2    0    0 -0.16421926429E+03  0.13129210524E+03 -0.86530138828E+01  0.24475591578E+03  0.12500000000E+03 0.  0.
         25    1    1    2    0    0  0.16421926429E+03 -0.13129210524E+03  0.93290044786E+01  0.24478074676E+03  0.12500000000E+03 0.  0.
</event>
<event>
 4    0  0.2193754E-002  0.1718168E+03  0.7546771E-02  0.1175966E+00
         21   -1    0    0  502  501  0.00000000000E+00  0.00000000000E+00  0.71475525648E+03  0.71475525648E+03  0.00000000000E+00 0. -1.
         21   -1    0    0  501  502 -0.00000000000E+00 -0.00000000000E+00 -0.41302257852E+02  0.41302257852E+02  0.00000000000E+00 0. -1.
         25    1    1    2    0    0  0.53969307567E+01  0.62302822225E+02  0.11687042975E+03  0.18219348470E+03  0.12500000000E+03 0.  0.
         25    1    1    2    0    0 -0.53969307567E+01 -0.62302822225E+02  0.55658256889E+03  0.57386402963E+03  0.12500000000E+03 0.  0.
</event>
<event>
 4    0  0.2193754E-002  0.1642344E+03  0.7546771E-02  0.1183997E+00
         21   -1    0    0  502  501  0.00000000000E+00  0.00000000000E+00  0.11328702535E+03  0.11328702535E+03  0.00000000000E+00 0. -1.
         21   -1    0    0  501  502 -0.00000000000E+00 -0.00000000000E+00 -0.23809376056E+03  0.23809376056E+03  0.00000000000E+00 0. -1.
         25    1    1    2    0    0  0.34415083830E+02 -0.51790747444E+02 -0.15493093214E+03  0.20855520432E+03  0.12500000000E+03 0.  0.
         25    1    1    2    0    0 -0.34415083830E+02  0.51790747444E+02  0.30124196932E+02  0.14282558159E+03  0.12500000000E+03 0.  0.
</event>
<event>
 4    0  0.2193754E-002  0.1661897E+03  0.7546771E-02  0.1181881E+00
         21   -1    0    0  502  501  0.00000000000E+00  0.00000000000E+00  0.16160332588E+02  0.16160332588E+02  0.00000000000E+00 0. -1.
         21   -1    0    0  501  502 -0.00000000000E+00 -0.00000000000E+00 -0.17090622418E+04  0.17090622418E+04  0.00000000000E+00 0. -1.
         25    1    1    2    0    0 -0.36368576581E+02  0.77294688673E+02 -0.12021767926E+04  0.12116728861E+04  0.12500000000E+03 0.  0.
         25    1    1    2    0    0  0.36368576581E+02 -0.77294688673E+02 -0.49072511661E+03  0.51354968828E+03  0.12500000000E+03 0.  0.
</event>
<event>
 4    0  0.2193754E-002  0.2527791E+03  0.7546771E-02  0.1111561E+00
         21   -1    0    0  502  501  0.00000000000E+00  0.00000000000E+00  0.44381767451E+03  0.44381767451E+03  0.00000000000E+00 0. -1.
         21   -1    0    0  501  502 -0.00000000000E+00 -0.00000000000E+00 -0.14397192843E+03  0.14397192843E+03  0.00000000000E+00 0. -1.
         25    1    1    2    0    0  0.19151067162E+02 -0.13958178244E+03 -0.46088578696E+02  0.19390460142E+03  0.12500000000E+03 0.  0.
         25    1    1    2    0    0 -0.19151067162E+02  0.13958178244E+03  0.34593432478E+03  0.39388500152E+03  0.12500000000E+03 0.  0.
</event>
<event>
 4    0  0.2193754E-002  0.1867146E+03  0.7546771E-02  0.1161458E+00
         21   -1    0    0  502  501  0.00000000000E+00  0.00000000000E+00  0.16494806006E+03  0.16494806006E+03  0.00000000000E+00 0. -1.
         21   -1    0    0  501  502 -0.00000000000E+00 -0.00000000000E+00 -0.21135345333E+03  0.21135345333E+03  0.00000000000E+00 0. -1.
         25    1    1    2    0    0  0.38588318490E+02  0.13316005745E+03 -0.27318582562E+02  0.18865832655E+03  0.12500000000E+03 0.  0.
         25    1    1    2    0    0 -0.38588318490E+02 -0.13316005745E+03 -0.19086810708E+02  0.18764318684E+03  0.12500000000E+03 0.  0.
</event>
<event>
 4    0  0.2193754E-002  0.2149941E+03  0.7546771E-02  0.1137671E+00
         21   -1    0    0  502  501  0.00000000000E+00  0.00000000000E+00  0.88935490728E+03  0.88935490728E+03  0.00000000000E+00 0. -1.
         21   -1    0    0  501  502 -0.00000000000E+00 -0.00000000000E+00 -0.51973007379E+02  0.51973007379E+02  0.00000000000E+00 0. -1.
         25    1    1    2    0    0  0.12554463858E+03 -0.11492740719E+03  0.33036882541E+03  0.39209479211E+03  0.12500000000E+03 0.  0.
         25    1    1    2    0    0 -0.12554463858E+03  0.11492740719E+03  0.50701307450E+03  0.54923312255E+03  0.12500000000E+03 0.  0.
</event>
<event>
 4    0  0.2193754E-002  0.3932112E+03  0.7546771E-02  0.1046156E+00
         21   -1    0    0  502  501  0.00000000000E+00  0.00000000000E+00  0.17934505501E+03  0.17934505501E+03  0.00000000000E+00 0.  1.
         21   -1    0    0  501  502 -0.00000000000E+00 -0.00000000000E+00 -0.86210929847E+03  0.86210929847E+03  0.00000000000E+00 0. -1.
         25    1    1    2    0    0  0.33554319015E+03 -0.15956782163E+03 -0.30080342721E+03  0.49412430013E+03  0.12500000000E+03 0.  0.
         25    1    1    2    0    0 -0.33554319015E+03  0.15956782163E+03 -0.38196081625E+03  0.54733005336E+03  0.12500000000E+03 0.  0.
</event>
<event>
 4    0  0.2193754E-002  0.1912849E+03  0.7546771E-02  0.1157308E+00
         21   -1    0    0  502  501  0.00000000000E+00  0.00000000000E+00  0.15431723700E+03  0.15431723700E+03  0.00000000000E+00 0. -1.
         21   -1    0    0  501  502 -0.00000000000E+00 -0.00000000000E+00 -0.23710836771E+03  0.23710836771E+03  0.00000000000E+00 0. -1.
         25    1    1    2    0    0 -0.58429757046E+02 -0.68607913340E+00 -0.17694012694E+03  0.22438207534E+03  0.12500000000E+03 0.  0.
         25    1    1    2    0    0  0.58429757046E+02  0.68607913340E+00  0.94148996227E+02  0.16704352937E+03  0.12500000000E+03 0.  0.
</event>
<event>
 4    0  0.2193754E-002  0.4640410E+03  0.7546771E-02  0.1023616E+00
         21   -1    0    0  502  501  0.00000000000E+00  0.00000000000E+00  0.39218553486E+03  0.39218553486E+03  0.00000000000E+00 0.  1.
         21   -1    0    0  501  502 -0.00000000000E+00 -0.00000000000E+00 -0.54906173558E+03  0.54906173558E+03  0.00000000000E+00 0.  1.
         25    1    1    2    0    0  0.32778876313E+03 -0.16034859817E+03 -0.34007420089E+03  0.51423011219E+03  0.12500000000E+03 0.  0.
         25    1    1    2    0    0 -0.32778876313E+03  0.16034859817E+03  0.18319800018E+03  0.42701715825E+03  0.12500000000E+03 0.  0.
</event>
<event>
 4    0  0.2193754E-002  0.1945948E+03  0.7546771E-02  0.1154381E+00
         21   -1    0    0  502  501  0.00000000000E+00  0.00000000000E+00  0.48716400092E+03  0.48716400092E+03  0.00000000000E+00 0. -1.
         21   -1    0    0  501  502 -0.00000000000E+00 -0.00000000000E+00 -0.77729764654E+02  0.77729764654E+02  0.00000000000E+00 0. -1.
         25    1    1    2    0    0  0.26174416661E+02  0.12703511498E+03  0.97868230781E+02  0.20500295394E+03  0.12500000000E+03 0.  0.
         25    1    1    2    0    0 -0.26174416661E+02 -0.12703511498E+03  0.31156600549E+03  0.35989081164E+03  0.12500000000E+03 0.  0.
</event>
<event>
 4    0  0.2193754E-002  0.1754648E+03  0.7546771E-02  0.1172266E+00
         21   -1    0    0  502  501  0.00000000000E+00  0.00000000000E+00  0.65877393856E+02  0.65877393856E+02  0.00000000000E+00 0.  1.
         21   -1    0    0  501  502 -0.00000000000E+00 -0.00000000000E+00 -0.46735171877E+03  0.46735171877E+03  0.00000000000E+00 0.  1.
         25    1    1    2    0    0 -0.86295429751E+02 -0.87671450475E+02 -0.20902197300E+03  0.27285228535E+03  0.12500000000E+03 0.  0.
         25    1    1    2    0    0  0.86295429751E+02  0.87671450475E+02 -0.19245235191E+03  0.26037682727E+03  0.12500000000E+03 0.  0.
</event>
<event>
 4    0  0.2193754E-002  0.1958164E+03  0.7546771E-02  0.1153317E+00
         21   -1    0    0  502  501  0.00000000000E+00  0.00000000000E+00  0.10056510294E+03  0.10056510294E+03  0.00000000000E+00 0.  1.
         21   -1    0    0  501  502 -0.00000000000E+00 -0.00000000000E+00 -0.38128615516E+03  0.38128615516E+03  0.00000000000E+00 0.  1.
         25    1    1    2    0    0  0.22052676910E+01  0.11867654917E+03 -0.26061739912E+02  0.17433645866E+03  0.12500000000E+03 0.  0.
         25    1    1    2    0    0 -0.22052676910E+01 -0.11867654917E+03 -0.25465931231E+03  0.30751479944E+03  0.12500000000E+03 0.  0.
</event>
<event>
 4    0  0.2193754E-002  0.2799107E+03  0.7546771E-02  0.1095738E+00
         21   -1    0    0  502  501  0.00000000000E+00  0.00000000000E+00  0.89534377020E+03  0.89534377020E+03  0.00000000000E+00 0. -1.
         21   -1    0    0  501  502 -0.00000000000E+00 -0.00000000000E+00 -0.87508296617E+02  0.87508296617E+02  0.00000000000E+00 0. -1.
         25    1    1    2    0    0  0.15916534495E+02 -0.23880434334E+03  0.27437770871E+03  0.38495321469E+03  0.12500000000E+03 0.  0.
         25    1    1    2    0    0 -0.15916534495E+02  0.23880434334E+03  0.53345776487E+03  0.59789885212E+03  0.12500000000E+03 0.  0.
</event>
<event>
 4    0  0.2193754E-002  0.2328014E+03  0.7546771E-02  0.1124683E+00
         21   -1    0    0  502  501  0.00000000000E+00  0.00000000000E+00  0.28863265348E+04  0.28863265348E+04  0.00000000000E+00 0.  1.
         21   -1    0    0  501  502 -0.00000000000E+00 -0.00000000000E+00 -0.18776978471E+02  0.18776978471E+02  0.00000000000E+00 0.  1.
         25    1    1    2    0    0 -0.19435445342E+03 -0.26557240726E+02  0.13737492946E+04  0.13933022160E+04  0.12500000000E+03 0.  0.
         25    1    1    2    0    0  0.19435445342E+03  0.26557240726E+02  0.14938002618E+04  0.15118012973E+04  0.12500000000E+03 0.  0.
</event>
<event>
 4    0  0.2193754E-002  0.1875476E+03  0.7546771E-02  0.1160692E+00
         21   -1    0    0  502  501  0.00000000000E+00  0.00000000000E+00  0.61083259768E+03  0.61083259768E+03  0.00000000000E+00 0. -1.
         21   -1    0    0  501  502 -0.00000000000E+00 -0.00000000000E+00 -0.57583882271E+02  0.57583882271E+02  0.00000000000E+00 0. -1.
         25    1    1    2    0    0  0.10118360866E+02 -0.50397875030E+01  0.52496344621E+03  0.53975865027E+03  0.12500000000E+03 0.  0.
         25    1    1    2    0    0 -0.10118360866E+02  0.50397875030E+01  0.28285269199E+02  0.12865782968E+03  0.12500000000E+03 0.  0.
</event>
<event>
 4    0  0.2193754E-002  0.1996885E+03  0.7546771E-02  0.1150002E+00
         21   -1    0    0  502  501  0.00000000000E+00  0.00000000000E+00  0.15318496349E+03  0.15318496349E+03  0.00000000000E+00 0.  1.
         21   -1    0    0  501  502 -0.00000000000E+00 -0.00000000000E+00 -0.26030937085E+03  0.26030937085E+03  0.00000000000E+00 0.  1.
         25    1    1    2    0    0  0.14578449234E+03 -0.48781581066E+02 -0.79294742962E+02  0.21341372289E+03  0.12500000000E+03 0.  0.
         25    1    1    2    0    0 -0.14578449234E+03  0.48781581066E+02 -0.27829664389E+02  0.20008061145E+03  0.12500000000E+03 0.  0.
</event>
<event>
 4    0  0.2193754E-002  0.3058580E+03  0.7546771E-02  0.1082348E+00
         21   -1    0    0  502  501  0.00000000000E+00  0.00000000000E+00  0.55990801933E+03  0.55990801933E+03  0.00000000000E+00 0. -1.
         21   -1    0    0  501  502 -0.00000000000E+00 -0.00000000000E+00 -0.16707948042E+03  0.16707948042E+03  0.00000000000E+00 0.  1.
         25    1    1    2    0    0  0.20797447589E+03 -0.14171818020E+03  0.33994860579E+03  0.44105269504E+03  0.12500000000E+03 0.  0.
         25    1    1    2    0    0 -0.20797447589E+03  0.14171818020E+03  0.52879933124E+02  0.28593480472E+03  0.12500000000E+03 0.  0.
</event>
<event>
 4    0  0.2193754E-002  0.2163933E+03  0.7546771E-02  0.1136601E+00
         21   -1    0    0  502  501  0.00000000000E+00  0.00000000000E+00  0.15863057291E+04  0.15863057291E+04  0.00000000000E+00 0.  1.
         21   -1    0    0  501  502 -0.00000000000E+00 -0.00000000000E+00 -0.29518943438E+02  0.29518943438E+02  0.00000000000E+00 0.  1.
         25    1    1    2    0    0  0.16667510632E+03  0.15650615798E+02  0.56800153617E+03  0.60520763208E+03  0.12500000000E+03 0.  0.
         25    1    1    2    0    0 -0.16667510632E+03 -0.15650615798E+02  0.98878524947E+03  0.10106170404E+04  0.12500000000E+03 0.  0.
</event>
<event>
 4    0  0.2193754E-002  0.1975297E+03  0.7546771E-02  0.1151840E+00
         21   -1    0    0  502  501  0.00000000000E+00  0.00000000000E+00  0.76427162599E+03  0.76427162599E+03  0.00000000000E+00 0. -1.
         21   -1    0    0  501  502 -0.00000000000E+00 -0.00000000000E+00 -0.51052516198E+02  0.51052516198E+02  0.00000000000E+00 0. -1.
         25    1    1    2    0    0  0.76675201030E+02  0.94871279265E+02  0.16618719616E+03  0.24108676913E+03  0.12500000000E+03 0.  0.
         25    1    1    2    0    0 -0.76675201030E+02 -0.94871279265E+02  0.54703191364E+03  0.57423737306E+03  0.12500000000E+03 0.  0.
</event>
<event>
 4    0  0.2193754E-002  0.2202764E+03  0.7546771E-02  0.1133677E+00
         21   -1    0    0  502  501  0.00000000000E+00  0.00000000000E+00  0.49171702177E+03  0.49171702177E+03  0.00000000000E+00 0. -1.
         21   -1    0    0  501  502 -0.00000000000E+00 -0.00000000000E+00 -0.98678099897E+02  0.98678099897E+02  0.00000000000E+00 0. -1.
         25    1    1    2    0    0 -0.15689540247E+03 -0.83548798030E+02  0.24484075421E+03  0.32736610071E+03  0.12500000000E+03 0.  0.
         25    1    1    2    0    0  0.15689540247E+03  0.83548798030E+02  0.14819816766E+03  0.26302902096E+03  0.12500000000E+03 0.  0.
</event>
<event>
 4    0  0.2193754E-002  0.2757976E+03  0.7546771E-02  0.1098007E+00
         21   -1    0    0  502  501  0.00000000000E+00  0.00000000000E+00  0.12624854499E+04  0.12624854499E+04  0.00000000000E+00 0. -1.
         21   -1    0    0  501  502 -0.00000000000E+00 -0.00000000000E+00 -0.60249649947E+02  0.60249649947E+02  0.00000000000E+00 0. -1.
         25    1    1    2    0    0 -0.17648669028E+03 -0.12886133065E+03  0.33101854595E+03  0.41587386567E+03  0.12500000000E+03 0.  0.
         25    1    1    2    0    0  0.17648669028E+03  0.12886133065E+03  0.87121725401E+03  0.90686123419E+03  0.12500000000E+03 0.  0.
</event>
<event>
 4    0  0.2193754E-002  0.2172603E+03  0.7546771E-02  0.1135942E+00
         21   -1    0    0  502  501  0.00000000000E+00  0.00000000000E+00  0.11725687040E+03  0.11725687040E+03  0.00000000000E+00 0.  1.
         21   -1    0    0  501  502 -0.00000000000E+00 -0.00000000000E+00 -0.40255246113E+03  0.40255246113E+03  0.00000000000E+00 0.  1.
         25    1    1    2    0    0 -0.26653571397E+01  0.16279941215E+03 -0.22779662150E+03  0.30663831054E+03  0.12500000000E+03 0.  0.
         25    1    1    2    0    0  0.26653571397E+01 -0.16279941215E+03 -0.57498969227E+02  0.21317102098E+03  0.12500000000E+03 0.  0.
</event>
<event>
 4    0  0.2193754E-002  0.1935361E+03  0.7546771E-02  0.1155310E+00
         21   -1    0    0  502  501  0.00000000000E+00  0.00000000000E+00  0.68797424240E+03  0.68797424240E+03  0.00000000000E+00 0.  1.
         21   -1    0    0  501  502 -0.00000000000E+00 -0.00000000000E+00 -0.54444204690E+02  0.54444204690E+02  0.00000000000E+00 0.  1.
         25    1    1    2    0    0  0.11184928567E+03  0.76384895290E+02  0.43001520920E+03  0.46784932946E+03  0.12500000000E+03 0.  0.
         25    1    1    2    0    0 -0.11184928567E+03 -0.76384895290E+02  0.20351482851E+03  0.27456911763E+03  0.12500000000E+03 0.  0.
</event>
<event>
 4    0  0.2193754E-002  0.2975565E+03  0.7546771E-02  0.1086469E+00
         21   -1    0    0  502  501  0.00000000000E+00  0.00000000000E+00  0.16575183297E+03  0.16575183297E+03  0.00000000000E+00 0. -1.
         21   -1    0    0  501  502 -0.00000000000E+00 -0.00000000000E+00 -0.53417119235E+03  0.53417119235E+03  0.00000000000E+00 0.  1.
         25    1    1    2    0    0  0.14182487363E+03  0.45482160081E+02 -0.44911555283E+03  0.48940034886E+03  0.12500000000E+03 0.  0.
         25    1    1    2    0    0 -0.14182487363E+03 -0.45482160081E+02  0.80696193452E+02  0.21052267646E+03  0.12500000000E+03 0.  0.
</event>
<event>
 4    0  0.2193754E-002  0.2855447E+03  0.7546771E-02  0.1092699E+00
         21   -1    0    0  502  501  0.00000000000E+00  0.00000000000E+00  0.74830857110E+03  0.74830857110E+03  0.00000000000E+00 0.  1.
         21   -1    0    0  501  502 -0.00000000000E+00 -0.00000000000E+00 -0.10896008076E+03  0.10896008076E+03  0.00000000000E+00 0.  1.
         25    1    1    2    0    0 -0.12623635343E+03 -0.21681226163E+03  0.23790034202E+03  0.36764758459E+03  0.12500000000E+03 0.  0.
         25    1    1    2    0    0  0.12623635343E+03  0.21681226163E+03  0.40144814832E+03  0.48962106727E+03  0.12500000000E+03 0.  0.
</event>
<event>
 4    0  0.2193754E-002  0.2248970E+03  0.7546771E-02  0.1130284E+00
         21   -1    0    0  502  501  0.00000000000E+00  0.00000000000E+00  0.45478277412E+03  0.45478277412E+03  0.00000000000E+00 0. -1.
         21   -1    0    0  501  502 -0.00000000000E+00 -0.00000000000E+00 -0.11121493949E+03  0.11121493949E+03  0.00000000000E+00 0. -1.
         25    1    1    2    0    0  0.63441384618E+02  0.14977997378E+03  0.55805438617E+02  0.21259844027E+03  0.12500000000E+03 0.  0.
         25    1    1    2    0    0 -0.63441384618E+02 -0.14977997378E+03  0.28776239601E+03  0.35339927333E+03  0.12500000000E+03 0.  0.
</event>
<event>
 4    0  0.2193754E-002  0.2148091E+03  0.7546771E-02  0.1137813E+00
         21   -1    0    0  502  501  0.00000000000E+00  0.00000000000E+00  0.33899637736E+03  0.33899637736E+03  0.00000000000E+00 0. -1.
         21   -1    0    0  501  502 -0.00000000000E+00 -0.00000000000E+00 -0.13611634601E+03  0.13611634601E+03  0.00000000000E+00 0. -1.
         25    1    1    2    0    0  0.29984889367E+02  0.17176088748E+03  0.11340476684E+03  0.24266548416E+03  0.12500000000E+03 0.  0.
         25    1    1    2    0    0 -0.29984889367E+02 -0.17176088748E+03  0.89475264500E+02  0.23244723921E+03  0.12500000000E+03 0.  0.
</event>
<event>
 4    0  0.2193754E-002  0.3069866E+03  0.7546771E-02  0.1081799E+00
         21   -1    0    0  502  501  0.00000000000E+00  0.00000000000E+00  0.67684217442E+02  0.67684217442E+02  0.00000000000E+00 0.  1.
         21   -1    0    0  501  502 -0.00000000000E+00 -0.00000000000E+00 -0.13923592293E+04  0.13923592293E+04  0.00000000000E+00 0.  1.
         25    1    1    2    0    0  0.59769399157E+02 -0.26428389573E+03 -0.49089878262E+03  0.57447800079E+03  0.12500000000E+03 0.  0.
         25    1    1    2    0    0 -0.59769399157E+02  0.26428389573E+03 -0.83377622921E+03  0.88556544592E+03  0.12500000000E+03 0.  0.
</event>
<event>
 4    0  0.2193754E-002  0.2320112E+03  0.7546771E-02  0.1125232E+00
         21   -1    0    0  502  501  0.00000000000E+00  0.00000000000E+00  0.37120538152E+02  0.37120538152E+02  0.00000000000E+00 0.  1.
         21   -1    0    0  501  502 -0.00000000000E+00 -0.00000000000E+00 -0.14501186528E+04  0.14501186528E+04  0.00000000000E+00 0.  1.
         25    1    1    2    0    0  0.84523487383E+02 -0.55590968235E+02 -0.12425241525E+04  0.12528870042E+04  0.12500000000E+03 0.  0.
         25    1    1    2    0    0 -0.84523487383E+02  0.55590968235E+02 -0.17047396206E+03  0.23435218669E+03  0.12500000000E+03 0.  0.
</event>
<event>
 4    0  0.2193754E-002  0.1817534E+03  0.7546771E-02  0.1166117E+00
         21   -1    0    0  502  501  0.00000000000E+00  0.00000000000E+00  0.48120864493E+02  0.48120864493E+02  0.00000000000E+00 0.  1.
         21   -1    0    0  501  502 -0.00000000000E+00 -0.00000000000E+00 -0.68648596837E+03  0.68648596837E+03  0.00000000000E+00 0.  1.
         25    1    1    2    0    0  0.13108393804E+03 -0.14746552995E+02 -0.32519061793E+03  0.37252435844E+03  0.12500000000E+03 0.  0.
         25    1    1    2    0    0 -0.13108393804E+03  0.14746552995E+02 -0.31317448595E+03  0.36208247443E+03  0.12500000000E+03 0.  0.
</event>
<event>
 4    0  0.2193754E-002  0.1913056E+03  0.7546771E-02  0.1157289E+00
         21   -1    0    0  502  501  0.00000000000E+00  0.00000000000E+00  0.12224865661E+03  0.12224865661E+03  0.00000000000E+00 0. -1.
         21   -1    0    0  501  502 -0.00000000000E+00 -0.00000000000E+00 -0.29937200566E+03  0.29937200566E+03  0.00000000000E+00 0. -1.
         25    1    1    2    0    0  0.11235229197E+02  0.24274817194E+02  0.68277783744E+02  0.14492188543E+03  0.12500000000E+03 0.  0.
         25    1    1    2    0    0 -0.11235229197E+02 -0.24274817194E+02 -0.24540113280E+03  0.27669877684E+03  0.12500000000E+03 0.  0.
</event>
<event>
 4    0  0.2193754E-002  0.2578390E+03  0.7546771E-02  0.1108449E+00
         21   -1    0    0  502  501  0.00000000000E+00  0.00000000000E+00  0.69203893094E+03  0.69203893094E+03  0.00000000000E+00 0.  1.
         21   -1    0    0  501  502 -0.00000000000E+00 -0.00000000000E+00 -0.96065300150E+02  0.96065300150E+02  0.00000000000E+00 0.  1.
         25    1    1    2    0    0  0.16389136960E+03  0.11191858884E+03  0.13431172197E+03  0.27027909689E+03  0.12500000000E+03 0.  0.
         25    1    1    2    0    0 -0.16389136960E+03 -0.11191858884E+03  0.46166190882E+03  0.51782513420E+03  0.12500000000E+03 0.  0.
</event>
<event>
 4    0  0.2193754E-002  0.3670740E+03  0.7546771E-02  0.1055817E+00
         21   -1    0    0  502  501  0.00000000000E+00  0.00000000000E+00  0.17373206302E+03  0.17373206302E+03  0.00000000000E+00 0. -1.
         21   -1    0    0  501  502 -0.00000000000E+00 -0.00000000000E+00 -0.77558100183E+03  0.77558100183E+03  0.00000000000E+00 0. -1.
         25    1    1    2    0    0 -0.11747877178E+03 -0.29892173614E+02 -0.71877887104E+03  0.73956938100E+03  0.12500000000E+03 0.  0.
         25    1    1    2    0    0  0.11747877178E+03  0.29892173614E+02  0.11692993223E+03  0.20974368385E+03  0.12500000000E+03 0.  0.
</event>
<event>
 4    0  0.2193754E-002  0.1648305E+03  0.7546771E-02  0.1183349E+00
         21   -1    0    0  502  501  0.00000000000E+00  0.00000000000E+00  0.18682754819E+03  0.18682754819E+03  0.00000000000E+00 0. -1.
         21   -1    0    0  501  502 -0.00000000000E+00 -0.00000000000E+00 -0.14542333441E+03  0.14542333441E+03  0.00000000000E+00 0. -1.
         25    1    1    2    0    0 -0.10077587656E+03  0.11433795492E+02  0.56443030272E+02  0.17057937930E+03  0.12500000000E+03 0.  0.
         25    1    1    2    0    0  0.10077587656E+03 -0.11433795492E+02 -0.15038816493E+02  0.16167150330E+03  0.12500000000E+03 0.  0.
</event>
<event>
 4    0  0.2193754E-002  0.2499311E+03  0.7546771E-02  0.1113348E+00
         21   -1    0    0  502  501  0.00000000000E+00  0.00000000000E+00  0.13201853502E+03  0.13201853502E+03  0.00000000000E+00 0.  1.
         21   -1    0    0  501  502 -0.00000000000E+00 -0.00000000000E+00 -0.47315747601E+03  0.47315747601E+03  0.00000000000E+00 0.  1.
         25    1    1    2    0    0 -0.21026007903E+03  0.20453912116E+02 -0.11361711988E+03  0.27048385032E+03  0.12500000000E+03 0.  0.
         25    1    1    2    0    0  0.21026007903E+03 -0.20453912116E+02 -0.22752182112E+03  0.33469216071E+03  0.12500000000E+03 0.  0.
</event>
<event>
 4    0  0.2193754E-002  0.2848499E+03  0.7546771E-02  0.1093069E+00
         21   -1    0    0  502  501  0.00000000000E+00  0.00000000000E+00  0.16227020263E+03  0.16227020263E+03  0.00000000000E+00 0.  1.
         21   -1    0    0  501  502 -0.00000000000E+00 -0.00000000000E+00 -0.50002685477E+03  0.50002685477E+03  0.00000000000E+00 0.  1.
         25    1    1    2    0    0  0.14040584653E+03  0.15405930452E+03 -0.34157039830E+03  0.41921761419E+03  0.12500000000E+03 0.  0.
         25    1    1    2    0    0 -0.14040584653E+03 -0.15405930452E+03  0.38137461592E+01  0.24307944321E+03  0.12500000000E+03 0.  0.
</event>
<event>
 4    0  0.2193754E-002  0.1906888E+03  0.7546771E-02  0.1157842E+00
         21   -1    0    0  502  501  0.00000000000E+00  0.00000000000E+00  0.22436490016E+03  0.22436490016E+03  0.00000000000E+00 0.  1.
         21   -1    0    0  501  502 -0.00000000000E+00 -0.00000000000E+00 -0.16206736162E+03  0.16206736162E+03  0.00000000000E+00 0.  1.
         25    1    1    2    0    0  0.13603739492E+03 -0.32976295252E+02  0.65414400449E+02  0.19874016366E+03  0.12500000000E+03 0.  0.
         25    1    1    2    0    0 -0.13603739492E+03  0.32976295252E+02 -0.31168619068E+01  0.18769209811E+03  0.12500000000E+03 0.  0.
</event>
<event>
 4    0  0.2193754E-002  0.2067450E+03  0.7546771E-02  0.1144170E+00
         21   -1    0    0  502  501  0.00000000000E+00  0.00000000000E+00  0.12908943661E+03  0.12908943661E+03  0.00000000000E+00 0.  1.
         21   -1    0    0  501  502 -0.00000000000E+00 -0.00000000000E+00 -0.33111551326E+03  0.33111551326E+03  0.00000000000E+00 0.  1.
         25    1    1    2    0    0  0.11984601159E+03  0.90977585737E+00 -0.22670860199E+03  0.28528176318E+03  0.12500000000E+03 0.  0.
         25    1    1    2    0    0 -0.11984601159E+03 -0.90977585737E+00  0.24682525338E+02  0.17492318670E+03  0.12500000000E+03 0.  0.
</event>
<event>
 4    0  0.2193754E-002  0.2873524E+03  0.7546771E-02  0.1091740E+00
         21   -1    0    0  502  501  0.00000000000E+00  0.00000000000E+00  0.77871385610E+03  0.77871385610E+03  0.00000000000E+00 0. -1.
         21   -1    0    0  501  502 -0.00000000000E+00 -0.00000000000E+00 -0.10603559109E+03  0.10603559109E+03  0.00000000000E+00 0. -1.
         25    1    1    2    0    0 -0.25744264045E+03  0.10478982255E+02  0.37276550733E+03  0.47006983061E+03  0.12500000000E+03 0.  0.
         25    1    1    2    0    0  0.25744264045E+03 -0.10478982255E+02  0.29991275768E+03  0.41467961658E+03  0.12500000000E+03 0.  0.
</event>
<event>
 4    0  0.2193754E-002  0.2070468E+03  0.7546771E-02  0.1143926E+00
         21   -1    0    0  502  501  0.00000000000E+00  0.00000000000E+00  0.28404387910E+03  0.28404387910E+03  0.00000000000E+00 0. -1.
         21   -1    0    0  501  502 -0.00000000000E+00 -0.00000000000E+00 -0.15092170861E+03  0.15092170861E+03  0.00000000000E+00 0. -1.
         25    1    1    2    0    0 -0.99798171010E+01 -0.16188538387E+03  0.98712939875E+02  0.22732293936E+03  0.12500000000E+03 0.  0.
         25    1    1    2    0    0  0.99798171010E+01  0.16188538387E+03  0.34409230619E+02  0.20764264835E+03  0.12500000000E+03 0.  0.
</event>
<event>
 4    0  0.2193754E-002  0.1964147E+03  0.7546771E-02  0.1152800E+00
         21   -1    0    0  502  501  0.00000000000E+00  0.00000000000E+00  0.25976339485E+03  0.25976339485E+03  0.00000000000E+00 0.  1.
         21   -1    0    0  501  502 -0.00000000000E+00 -0.00000000000E+00 -0.14851489680E+03  0.14851489680E+03  0.00000000000E+00 0.  1.
         25    1    1    2    0    0  0.11627066387E+02 -0.14324781891E+03  0.10545354104E+03  0.21771673251E+03  0.12500000000E+03 0.  0.
         25    1    1    2    0    0 -0.11627066387E+02  0.14324781891E+03  0.57949570025E+01  0.19056155914E+03  0.12500000000E+03 0.  0.
</event>
<event>
 4    0  0.2193754E-002  0.2839916E+03  0.7546771E-02  0.1093529E+00
         21   -1    0    0  502  501  0.00000000000E+00  0.00000000000E+00  0.68725772184E+03  0.68725772184E+03  0.00000000000E+00 0.  1.
         21   -1    0    0  501  502 -0.00000000000E+00 -0.00000000000E+00 -0.11735223909E+03  0.11735223909E+03  0.00000000000E+00 0.  1.
         25    1    1    2    0    0 -0.13482251661E+03  0.11702373875E+02 -0.21218893960E+02  0.18544351701E+03  0.12500000000E+03 0.  0.
         25    1    1    2    0    0  0.13482251661E+03 -0.11702373875E+02  0.59112437671E+03  0.61916644392E+03  0.12500000000E+03 0.  0.
</event>
<event>
 4    0  0.2193754E-002  0.1782929E+03  0.7546771E-02  0.1169466E+00
         21   -1    0    0  502  501  0.00000000000E+00  0.00000000000E+00  0.71698862101E+03  0.71698862101E+03  0.00000000000E+00 0.  1.
         21   -1    0    0  501  502 -0.00000000000E+00 -0.00000000000E+00 -0.44335915983E+02  0.44335915983E+02  0.00000000000E+00 0.  1.
         25    1    1    2    0    0  0.61032805514E+02  0.75733602533E+02  0.16152979901E+03  0.22622435296E+03  0.12500000000E+03 0.  0.
         25    1    1    2    0    0 -0.61032805514E+02 -0.75733602533E+02  0.51112290601E+03  0.53510018403E+03  0.12500000000E+03 0.  0.
</event>
<event>
 4    0  0.2193754E-002  0.2507402E+03  0.7546771E-02  0.1112838E+00
         21   -1    0    0  502  501  0.00000000000E+00  0.00000000000E+00  0.16894455554E+03  0.16894455554E+03  0.00000000000E+00 0. -1.
         21   -1    0    0  501  502 -0.00000000000E+00 -0.00000000000E+00 -0.37213789195E+03  0.37213789195E+03  0.00000000000E+00 0. -1.
         25    1    1    2    0    0  0.15641475296E+03  0.73186078597E+02  0.40826948418E+02  0.21705671324E+03  0.12500000000E+03 0.  0.
         25    1    1    2    0    0 -0.15641475296E+03 -0.73186078597E+02 -0.24402028483E+03  0.32402573424E+03  0.12500000000E+03 0.  0.
</event>
<event>
 4    0  0.2193754E-002  0.2177655E+03  0.7546771E-02  0.1135560E+00
         21   -1    0    0  502  501  0.00000000000E+00  0.00000000000E+00  0.25019826358E+02  0.25019826358E+02  0.00000000000E+00 0.  1.
         21   -1    0    0  501  502 -0.00000000000E+00 -0.00000000000E+00 -0.18953687301E+04  0.18953687301E+04  0.00000000000E+00 0.  1.
         25    1    1    2    0    0  0.70921861313E+02 -0.50111968592E+02 -0.24845901507E+03  0.29137261707E+03  0.12500000000E+03 0.  0.
         25    1    1    2    0    0 -0.70921861313E+02  0.50111968592E+02 -0.16218898887E+04  0.16290159394E+04  0.12500000000E+03 0.  0.
</event>
<event>
 4    0  0.2193754E-002  0.2295042E+03  0.7546771E-02  0.1126989E+00
         21   -1    0    0  502  501  0.00000000000E+00  0.00000000000E+00  0.17863385514E+03  0.17863385514E+03  0.00000000000E+00 0.  1.
         21   -1    0    0  501  502 -0.00000000000E+00 -0.00000000000E+00 -0.29486114952E+03  0.29486114952E+03  0.00000000000E+00 0.  1.
         25    1    1    2    0    0  0.97170599028E+02 -0.95925933819E+02  0.81826487237E+02  0.20239684807E+03  0.12500000000E+03 0.  0.
         25    1    1    2    0    0 -0.97170599028E+02  0.95925933819E+02 -0.19805378162E+03  0.27109815659E+03  0.12500000000E+03 0.  0.
</event>
<event>
 4    0  0.2193754E-002  0.2680250E+03  0.7546771E-02  0.1102415E+00
         21   -1    0    0  502  501  0.00000000000E+00  0.00000000000E+00  0.50725549677E+03  0.50725549677E+03  0.00000000000E+00 0. -1.
         21   -1    0    0  501  502 -0.00000000000E+00 -0.00000000000E+00 -0.14161971553E+03  0.14161971553E+03  0.00000000000E+00 0. -1.
         25    1    1    2    0    0  0.16743612696E+03 -0.16692068475E+03  0.16133382712E+03  0.31233151519E+03  0.12500000000E+03 0.  0.
         25    1    1    2    0    0 -0.16743612696E+03  0.16692068475E+03  0.20430195412E+03  0.33654369711E+03  0.12500000000E+03 0.  0.
</event>
<event>
 4    0  0.2193754E-002  0.4286363E+03  0.7546771E-02  0.1034292E+00
         21   -1    0    0  502  501  0.00000000000E+00  0.00000000000E+00  0.71447105296E+02  0.71447105296E+02  0.00000000000E+00 0.  1.
         21   -1    0    0  501  502 -0.00000000000E+00 -0.00000000000E+00 -0.25715401237E+04  0.25715401237E+04  0.00000000000E+00 0.  1.
         25    1    1    2    0    0  0.31971029449E+03  0.11858141916E+02 -0.45951343222E+03  0.57370103915E+03  0.12500000000E+03 0.  0.
         25    1    1    2    0    0 -0.31971029449E+03 -0.11858141916E+02 -0.20405795862E+04  0.20692861899E+04  0.12500000000E+03 0.  0.
</event>
<event>
 4    0  0.2193754E-002  0.1946440E+03  0.7546771E-02  0.1154338E+00
         21   -1    0    0  502  501  0.00000000000E+00  0.00000000000E+00  0.27679082402E+02  0.27679082402E+02  0.00000000000E+00 0. -1.
         21   -1    0    0  501  502 -0.00000000000E+00 -0.00000000000E+00 -0.13687702858E+04  0.13687702858E+04  0.00000000000E+00 0. -1.
         25    1    1    2    0    0 -0.13444429372E+03 -0.38810501712E+02 -0.85624215070E+03  0.87655983469E+03  0.12500000000E+03 0.  0.
         25    1    1    2    0    0  0.13444429372E+03  0.38810501712E+02 -0.48484905273E+03  0.51988953355E+03  0.12500000000E+03 0.  0.
</event>
<event>
 4    0  0.2193754E-002  0.2283320E+03  0.7546771E-02  0.1127819E+00
         21   -1    0    0  502  501  0.00000000000E+00  0.00000000000E+00  0.26117644909E+03  0.26117644909E+03  0.00000000000E+00 0.  1.
         21   -1    0    0  501  502 -0.00000000000E+00 -0.00000000000E+00 -0.19961793053E+03  0.19961793053E+03  0.00000000000E+00 0.  1.
         25    1    1    2    0    0  0.33301698835E+02  0.17670184497E+03 -0.34442481381E+02  0.22168407630E+03  0.12500000000E+03 0.  0.
         25    1    1    2    0    0 -0.33301698835E+02 -0.17670184497E+03  0.96000999946E+02  0.23911030332E+03  0.12500000000E+03 0.  0.
</event>
<event>
 4    0  0.2193754E-002  0.2205709E+03  0.7546771E-02  0.1133458E+00
         21   -1    0    0  502  501  0.00000000000E+00  0.00000000000E+00  0.62067912395E+02  0.62067912395E+02  0.00000000000E+00 0. -1.
         21   -1    0    0  501  502 -0.00000000000E+00 -0.00000000000E+00 -0.78384366262E+03  0.78384366262E+03  0.00000000000E+00 0. -1.
         25    1    1    2    0    0  0.23800436044E+02  0.17653774604E+03 -0.29189595216E+03  0.36408829069E+03  0.12500000000E+03 0.  0.
         25    1    1    2    0    0 -0.23800436044E+02 -0.17653774604E+03 -0.42987979807E+03  0.48182328433E+03  0.12500000000E+03 0.  0.
</event>
<event>
 4    0  0.2193754E-002  0.2864404E+03  0.7546771E-02  0.1092222E+00
         21   -1    0    0  502  501  0.00000000000E+00  0.00000000000E+00  0.21098425961E+03  0.21098425961E+03  0.00000000000E+00 0.  1.
         21   -1    0    0  501  502 -0.00000000000E+00 -0.00000000000E+00 -0.38888268482E+03  0.38888268482E+03  0.00000000000E+00 0.  1.
         25    1    1    2    0    0 -0.16199236702E+03 -0.16114216154E+03 -0.21379129763E+03  0.33695703308E+03  0.12500000000E+03 0.  0.
         25    1    1    2    0    0  0.16199236702E+03  0.16114216154E+03  0.35892872422E+02  0.26290991136E+03  0.12500000000E+03 0.  0.
</event>
<event>
 4    0  0.2193754E-002  0.2528597E+03  0.7546771E-02  0.1111511E+00
         21   -1    0    0  502  501  0.00000000000E+00  0.00000000000E+00  0.52308433435E+02  0.52308433435E+02  0.00000000000E+00 0.  1.
         21   -1    0    0  501  502 -0.00000000000E+00 -0.00000000000E+00 -0.12223275391E+04  0.12223275391E+04  0.00000000000E+00 0.  1.
         25    1    1    2    0    0 -0.44480031213E+02 -0.14046458993E+03 -0.17390513042E+03  0.25995532036E+03  0.12500000000E+03 0.  0.
         25    1    1    2    0    0  0.44480031213E+02  0.14046458993E+03 -0.99611397528E+03  0.10146806522E+04  0.12500000000E+03 0.  0.
</event>
<event>
 4    0  0.2193754E-002  0.1781980E+03  0.7546771E-02  0.1169558E+00
         21   -1    0    0  502  501  0.00000000000E+00  0.00000000000E+00  0.39225650865E+03  0.39225650865E+03  0.00000000000E+00 0. -1.
         21   -1    0    0  501  502 -0.00000000000E+00 -0.00000000000E+00 -0.80953499763E+02  0.80953499763E+02  0.00000000000E+00 0. -1.
         25    1    1    2    0    0  0.56730439664E+02  0.96895035965E+02  0.23445570967E+03  0.28844665118E+03  0.12500000000E+03 0.  0.
         25    1    1    2    0    0 -0.56730439664E+02 -0.96895035965E+02  0.76847299215E+02  0.18476335723E+03  0.12500000000E+03 0.  0.
</event>
<event>
 4    0  0.2193754E-002  0.2533856E+03  0.7546771E-02  0.1111184E+00
         21   -1    0    0  502  501  0.00000000000E+00  0.00000000000E+00  0.95409736532E+03  0.95409736532E+03  0.00000000000E+00 0. -1.
         21   -1    0    0  501  502 -0.00000000000E+00 -0.00000000000E+00 -0.67293189044E+02  0.67293189044E+02  0.00000000000E+00 0. -1.
         25    1    1    2    0    0 -0.12001011348E+03  0.17458255507E+03  0.56596221739E+03  0.61710592881E+03  0.12500000000E+03 0.  0.
         25    1    1    2    0    0  0.12001011348E+03 -0.17458255507E+03  0.32084195889E+03  0.40428462555E+03  0.12500000000E+03 0.  0.
</event>
<event>
 4    0  0.2193754E-002  0.2036399E+03  0.7546771E-02  0.1146704E+00
         21   -1    0    0  502  501  0.00000000000E+00  0.00000000000E+00  0.65565351070E+02  0.65565351070E+02  0.00000000000E+00 0.  1.
         21   -1    0    0  501  502 -0.00000000000E+00 -0.00000000000E+00 -0.63248680053E+03  0.63248680053E+03  0.00000000000E+00 0.  1.
         25    1    1    2    0    0 -0.32741905631E+02 -0.15251257258E+03 -0.21681297640E+03  0.29489826028E+03  0.12500000000E+03 0.  0.
         25    1    1    2    0    0  0.32741905631E+02  0.15251257258E+03 -0.35010847306E+03  0.40315389132E+03  0.12500000000E+03 0.  0.
</event>
<event>
 4    0  0.2193754E-002  0.3224853E+03  0.7546771E-02  0.1074511E+00
         21   -1    0    0  502  501  0.00000000000E+00  0.00000000000E+00  0.62351509710E+03  0.62351509710E+03  0.00000000000E+00 0.  1.
         21   -1    0    0  501  502 -0.00000000000E+00 -0.00000000000E+00 -0.16679109035E+03  0.16679109035E+03  0.00000000000E+00 0.  1.
         25    1    1    2    0    0  0.42565280552E+02  0.29065794135E+03  0.28421802287E+03  0.42743271576E+03  0.12500000000E+03 0.  0.
         25    1    1    2    0    0 -0.42565280552E+02 -0.29065794135E+03  0.17250598389E+03  0.36287347169E+03  0.12500000000E+03 0.  0.
</event>
<event>
 4    0  0.2193754E-002  0.1624619E+03  0.7546771E-02  0.1185945E+00
         21   -1    0    0  502  501  0.00000000000E+00  0.00000000000E+00  0.36294299360E+03  0.36294299360E+03  0.00000000000E+00 0.  1.
         21   -1    0    0  501  502 -0.00000000000E+00 -0.00000000000E+00 -0.72721825832E+02  0.72721825832E+02  0.00000000000E+00 0.  1.
         25    1    1    2    0    0 -0.10011567627E+03 -0.26275025882E+02  0.15508610945E+03  0.22447767587E+03  0.12500000000E+03 0.  0.
         25    1    1    2    0    0  0.10011567627E+03  0.26275025882E+02  0.13513505832E+03  0.21118714356E+03  0.12500000000E+03 0.  0.
</event>
<event>
 4    0  0.2193754E-002  0.1966506E+03  0.7546771E-02  0.1152596E+00
         21   -1    0    0  502  501  0.00000000000E+00  0.00000000000E+00  0.69437944954E+03  0.69437944954E+03  0.00000000000E+00 0.  1.
         21   -1    0    0  501  502 -0.00000000000E+00 -0.00000000000E+00 -0.55692133999E+02  0.55692133999E+02  0.00000000000E+00 0.  1.
         25    1    1    2    0    0  0.90130369801E+02  0.94677154161E+02  0.17212179943E+03  0.24967611203E+03  0.12500000000E+03 0.  0.
         25    1    1    2    0    0 -0.90130369801E+02 -0.94677154161E+02  0.46656551611E+03  0.50039547150E+03  0.12500000000E+03 0.  0.
</event>
<event>
 4    0  0.2193754E-002  0.3265963E+03  0.7546771E-02  0.1072653E+00
         21   -1    0    0  502  501  0.00000000000E+00  0.00000000000E+00  0.11304019875E+03  0.11304019875E+03  0.00000000000E+00 0.  1.
         21   -1    0    0  501  502 -0.00000000000E+00 -0.00000000000E+00 -0.94360349287E+03  0.94360349287E+03  0.00000000000E+00 0. -1.
         25    1    1    2    0    0 -0.69442597678E+01  0.25728025225E+03 -0.67002476536E+03  0.72855990635E+03  0.12500000000E+03 0.  0.
         25    1    1    2    0    0  0.69442597678E+01 -0.25728025225E+03 -0.16053852876E+03  0.32808378527E+03  0.12500000000E+03 0.  0.
</event>
<event>
 4    0  0.2193754E-002  0.1959192E+03  0.7546771E-02  0.1153228E+00
         21   -1    0    0  502  501  0.00000000000E+00  0.00000000000E+00  0.37157722974E+03  0.37157722974E+03  0.00000000000E+00 0.  1.
         21   -1    0    0  501  502 -0.00000000000E+00 -0.00000000000E+00 -0.10330111778E+03  0.10330111778E+03  0.00000000000E+00 0.  1.
         25    1    1    2    0    0  0.64983487757E+02  0.13310350133E+03  0.99434952169E+02  0.21783412373E+03  0.12500000000E+03 0.  0.
         25    1    1    2    0    0 -0.64983487757E+02 -0.13310350133E+03  0.16884115979E+03  0.25704422380E+03  0.12500000000E+03 0.  0.
</event>
<event>
 4    0  0.2193754E-002  0.1903461E+03  0.7546771E-02  0.1158150E+00
         21   -1    0    0  502  501  0.00000000000E+00  0.00000000000E+00  0.19934939804E+03  0.19934939804E+03  0.00000000000E+00 0. -1.
         21   -1    0    0  501  502 -0.00000000000E+00 -0.00000000000E+00 -0.18174940024E+03  0.18174940024E+03  0.00000000000E+00 0. -1.
         25    1    1    2    0    0  0.11178273185E+03 -0.22376074294E+02 -0.78531737572E+02  0.18651622355E+03  0.12500000000E+03 0.  0.
         25    1    1    2    0    0 -0.11178273185E+03  0.22376074294E+02  0.96131735379E+02  0.19458257473E+03  0.12500000000E+03 0.  0.
</event>
<event>
 4    0  0.2193754E-002  0.1990002E+03  0.7546771E-02  0.1150585E+00
         21   -1    0    0  502  501  0.00000000000E+00  0.00000000000E+00  0.86665232035E+02  0.86665232035E+02  0.00000000000E+00 0. -1.
         21   -1    0    0  501  502 -0.00000000000E+00 -0.00000000000E+00 -0.45694300276E+03  0.45694300276E+03  0.00000000000E+00 0. -1.
         25    1    1    2    0    0  0.29437428354E+02  0.64914931099E+02  0.26122005693E+01  0.14391780314E+03  0.12500000000E+03 0.  0.
         25    1    1    2    0    0 -0.29437428354E+02 -0.64914931099E+02 -0.37288997129E+03  0.39969043165E+03  0.12500000000E+03 0.  0.
</event>
<event>
 4    0  0.2193754E-002  0.2634060E+03  0.7546771E-02  0.1105114E+00
         21   -1    0    0  502  501  0.00000000000E+00  0.00000000000E+00  0.55245676117E+03  0.55245676117E+03  0.00000000000E+00 0. -1.
         21   -1    0    0  501  502 -0.00000000000E+00 -0.00000000000E+00 -0.12558936647E+03  0.12558936647E+03  0.00000000000E+00 0. -1.
         25    1    1    2    0    0  0.14277448778E+03 -0.14778298001E+03  0.35165692914E+03  0.42604220372E+03  0.12500000000E+03 0.  0.
         25    1    1    2    0    0 -0.14277448778E+03  0.14778298001E+03  0.75210465571E+02  0.25200392392E+03  0.12500000000E+03 0.  0.
</event>
<event>
 4    0  0.2193754E-002  0.1582374E+03  0.7546771E-02  0.1190701E+00
         21   -1    0    0  502  501  0.00000000000E+00  0.00000000000E+00  0.45954776663E+02  0.45954776663E+02  0.00000000000E+00 0. -1.
         21   -1    0    0  501  502 -0.00000000000E+00 -0.00000000000E+00 -0.54486308856E+03  0.54486308856E+03  0.00000000000E+00 0. -1.
         25    1    1    2    0    0 -0.59905438157E+02  0.33787554550E+02 -0.12168858925E+03  0.18751899402E+03  0.12500000000E+03 0.  0.
         25    1    1    2    0    0  0.59905438157E+02 -0.33787554550E+02 -0.37721972264E+03  0.40329887120E+03  0.12500000000E+03 0.  0.
</event>
<event>
 4    0  0.2193754E-002  0.2635452E+03  0.7546771E-02  0.1105032E+00
         21   -1    0    0  502  501  0.00000000000E+00  0.00000000000E+00  0.16056172873E+03  0.16056172873E+03  0.00000000000E+00 0.  1.
         21   -1    0    0  501  502 -0.00000000000E+00 -0.00000000000E+00 -0.43258174907E+03  0.43258174907E+03  0.00000000000E+00 0.  1.
         25    1    1    2    0    0 -0.14830270939E+03  0.10609566458E+03 -0.29744914945E+03  0.37060893158E+03  0.12500000000E+03 0.  0.
         25    1    1    2    0    0  0.14830270939E+03 -0.10609566458E+03  0.25429129110E+02  0.22253454622E+03  0.12500000000E+03 0.  0.
</event>
<event>
 4    0  0.2193754E-002  0.2953357E+03  0.7546771E-02  0.1087596E+00
         21   -1    0    0  502  501  0.00000000000E+00  0.00000000000E+00  0.77177021829E+02  0.77177021829E+02  0.00000000000E+00 0. -1.
         21   -1    0    0  501  502 -0.00000000000E+00 -0.00000000000E+00 -0.11301704972E+04  0.11301704972E+04  0.00000000000E+00 0. -1.
         25    1    1    2    0    0 -0.10872896154E+02  0.16567029902E+02 -0.10719318578E+04  0.10793774104E+04  0.12500000000E+03 0.  0.
         25    1    1    2    0    0  0.10872896154E+02 -0.16567029902E+02  0.18938382493E+02  0.12797010855E+03  0.12500000000E+03 0.  0.
</event>
<event>
 4    0  0.2193754E-002  0.1749328E+03  0.7546771E-02  0.1172799E+00
         21   -1    0    0  502  501  0.00000000000E+00  0.00000000000E+00  0.40064983848E+02  0.40064983848E+02  0.00000000000E+00 0. -1.
         21   -1    0    0  501  502 -0.00000000000E+00 -0.00000000000E+00 -0.76379644551E+03  0.76379644551E+03  0.00000000000E+00 0. -1.
         25    1    1    2    0    0  0.88008020591E+02  0.24837613897E+02 -0.54872630729E+03  0.57016478238E+03  0.12500000000E+03 0.  0.
         25    1    1    2    0    0 -0.88008020591E+02 -0.24837613897E+02 -0.17500515437E+03  0.23369664698E+03  0.12500000000E+03 0.  0.
</event>
<event>
 4    0  0.2193754E-002  0.2721691E+03  0.7546771E-02  0.1100045E+00
         21   -1    0    0  502  501  0.00000000000E+00  0.00000000000E+00  0.22368992522E+03  0.22368992522E+03  0.00000000000E+00 0. -1.
         21   -1    0    0  501  502 -0.00000000000E+00 -0.00000000000E+00 -0.33115503913E+03  0.33115503913E+03  0.00000000000E+00 0. -1.
         25    1    1    2    0    0 -0.23505302053E+03 -0.54637536453E+02 -0.68708423123E+02  0.28032308192E+03  0.12500000000E+03 0.  0.
         25    1    1    2    0    0  0.23505302053E+03  0.54637536453E+02 -0.38756690786E+02  0.27452188243E+03  0.12500000000E+03 0.  0.
</event>
<event>
 4    0  0.2193754E-002  0.2325600E+03  0.7546771E-02  0.1124851E+00
         21   -1    0    0  502  501  0.00000000000E+00  0.00000000000E+00  0.26060381725E+03  0.26060381725E+03  0.00000000000E+00 0. -1.
         21   -1    0    0  501  502 -0.00000000000E+00 -0.00000000000E+00 -0.20753403701E+03  0.20753403701E+03  0.00000000000E+00 0. -1.
         25    1    1    2    0    0 -0.17986914675E+03 -0.77984291925E+02  0.21532480134E+02  0.23350183605E+03  0.12500000000E+03 0.  0.
         25    1    1    2    0    0  0.17986914675E+03  0.77984291925E+02  0.31537300107E+02  0.23463601820E+03  0.12500000000E+03 0.  0.
</event>
<event>
 4    0  0.2193754E-002  0.2583762E+03  0.7546771E-02  0.1108123E+00
         21   -1    0    0  502  501  0.00000000000E+00  0.00000000000E+00  0.25712343562E+03  0.25712343562E+03  0.00000000000E+00 0. -1.
         21   -1    0    0  501  502 -0.00000000000E+00 -0.00000000000E+00 -0.25963515632E+03  0.25963515632E+03  0.00000000000E+00 0. -1.
         25    1    1    2    0    0 -0.51864738188E+02 -0.97680083986E+02  0.19598220037E+03  0.25742061443E+03  0.12500000000E+03 0.  0.
         25    1    1    2    0    0  0.51864738188E+02  0.97680083986E+02 -0.19849392107E+03  0.25933797750E+03  0.12500000000E+03 0.  0.
</event>
<event>
 4    0  0.2193754E-002  0.2335132E+03  0.7546771E-02  0.1124191E+00
         21   -1    0    0  502  501  0.00000000000E+00  0.00000000000E+00  0.53032073822E+02  0.53032073822E+02  0.00000000000E+00 0.  1.
         21   -1    0    0  501  502 -0.00000000000E+00 -0.00000000000E+00 -0.10282157158E+04  0.10282157158E+04  0.00000000000E+00 0.  1.
         25    1    1    2    0    0 -0.14941917244E+02  0.18707862600E+03 -0.62807045814E+03  0.66732239104E+03  0.12500000000E+03 0.  0.
         25    1    1    2    0    0  0.14941917244E+02 -0.18707862600E+03 -0.34711318382E+03  0.41392539857E+03  0.12500000000E+03 0.  0.
</event>
<event>
 4    0  0.2193754E-002  0.2582438E+03  0.7546771E-02  0.1108203E+00
         21   -1    0    0  502  501  0.00000000000E+00  0.00000000000E+00  0.10478041963E+03  0.10478041963E+03  0.00000000000E+00 0.  1.
         21   -1    0    0  501  502 -0.00000000000E+00 -0.00000000000E+00 -0.63647257590E+03  0.63647257590E+03  0.00000000000E+00 0.  1.
         25    1    1    2    0    0  0.14290894267E+03  0.20364934155E+02 -0.16326127960E+02  0.19164873830E+03  0.12500000000E+03 0.  0.
         25    1    1    2    0    0 -0.14290894267E+03 -0.20364934155E+02 -0.51536602831E+03  0.54960425723E+03  0.12500000000E+03 0.  0.
</event>
<event>
 4    0  0.2193754E-002  0.2529155E+03  0.7546771E-02  0.1111476E+00
         21   -1    0    0  502  501  0.00000000000E+00  0.00000000000E+00  0.62286425719E+03  0.62286425719E+03  0.00000000000E+00 0. -1.
         21   -1    0    0  501  502 -0.00000000000E+00 -0.00000000000E+00 -0.10269691197E+03  0.10269691197E+03  0.00000000000E+00 0. -1.
         25    1    1    2    0    0 -0.20642729301E+03  0.68149911360E+02  0.30732292908E+03  0.39664722419E+03  0.12500000000E+03 0.  0.
         25    1    1    2    0    0  0.20642729301E+03 -0.68149911360E+02  0.21284441614E+03  0.32891394497E+03  0.12500000000E+03 0.  0.
</event>
<event>
 4    0  0.2193754E-002  0.3335222E+03  0.7546771E-02  0.1069589E+00
         21   -1    0    0  502  501  0.00000000000E+00  0.00000000000E+00  0.98896365679E+03  0.98896365679E+03  0.00000000000E+00 0.  1.
         21   -1    0    0  501  502 -0.00000000000E+00 -0.00000000000E+00 -0.11247842392E+03  0.11247842392E+03  0.00000000000E+00 0.  1.
         25    1    1    2    0    0  0.29928405069E+03 -0.25828779241E+02  0.55929013997E+03  0.64704600261E+03  0.12500000000E+03 0.  0.
         25    1    1    2    0    0 -0.29928405069E+03  0.25828779241E+02  0.31719509289E+03  0.45439607810E+03  0.12500000000E+03 0.  0.
</event>
<event>
 4    0  0.2193754E-002  0.2939662E+03  0.7546771E-02  0.1088296E+00
         21   -1    0    0  502  501  0.00000000000E+00  0.00000000000E+00  0.66850084903E+03  0.66850084903E+03  0.00000000000E+00 0. -1.
         21   -1    0    0  501  502 -0.00000000000E+00 -0.00000000000E+00 -0.12926850038E+03  0.12926850038E+03  0.00000000000E+00 0.  1.
         25    1    1    2    0    0  0.93411177341E+02  0.21264318252E+03  0.93488151988E+02  0.27983531887E+03  0.12500000000E+03 0.  0.
         25    1    1    2    0    0 -0.93411177341E+02 -0.21264318252E+03  0.44574419667E+03  0.51793403054E+03  0.12500000000E+03 0.  0.
</event>
<event>
 4    0  0.2193754E-002  0.1779123E+03  0.7546771E-02  0.1169839E+00
         21   -1    0    0  502  501  0.00000000000E+00  0.00000000000E+00  0.54245554285E+02  0.54245554285E+02  0.00000000000E+00 0.  1.
         21   -1    0    0  501  502 -0.00000000000E+00 -0.00000000000E+00 -0.58350948662E+03  0.58350948662E+03  0.00000000000E+00 0.  1.
         25    1    1    2    0    0 -0.10031607551E+03  0.47110500678E+02 -0.15494665027E+03  0.22785122056E+03  0.12500000000E+03 0.  0.
         25    1    1    2    0    0  0.10031607551E+03 -0.47110500678E+02 -0.37431728206E+03  0.40990382034E+03  0.12500000000E+03 0.  0.
</event>
<event>
 4    0  0.2193754E-002  0.1953522E+03  0.7546771E-02  0.1153721E+00
         21   -1    0    0  502  501  0.00000000000E+00  0.00000000000E+00  0.82016344376E+02  0.82016344376E+02  0.00000000000E+00 0.  1.
         21   -1    0    0  501  502 -0.00000000000E+00 -0.00000000000E+00 -0.46530322397E+03  0.46530322397E+03  0.00000000000E+00 0.  1.
         25    1    1    2    0    0  0.11859431037E+03 -0.40484078744E+01 -0.62822255912E+02  0.18344654779E+03  0.12500000000E+03 0.  0.
         25    1    1    2    0    0 -0.11859431037E+03  0.40484078744E+01 -0.32046462368E+03  0.36387302056E+03  0.12500000000E+03 0.  0.
</event>
<event>
 4    0  0.2193754E-002  0.1945803E+03  0.7546771E-02  0.1154394E+00
         21   -1    0    0  502  501  0.00000000000E+00  0.00000000000E+00  0.12693148610E+03  0.12693148610E+03  0.00000000000E+00 0.  1.
         21   -1    0    0  501  502 -0.00000000000E+00 -0.00000000000E+00 -0.29828292659E+03  0.29828292659E+03  0.00000000000E+00 0.  1.
         25    1    1    2    0    0 -0.14360844425E+03 -0.32785882956E+02 -0.60327396780E+02  0.20239242620E+03  0.12500000000E+03 0.  0.
         25    1    1    2    0    0  0.14360844425E+03  0.32785882956E+02 -0.11102404371E+03  0.22282198649E+03  0.12500000000E+03 0.  0.
</event>
<event>
 4    0  0.2193754E-002  0.2013088E+03  0.7546771E-02  0.1148639E+00
         21   -1    0    0  502  501  0.00000000000E+00  0.00000000000E+00  0.79027208932E+03  0.79027208932E+03  0.00000000000E+00 0. -1.
         21   -1    0    0  501  502 -0.00000000000E+00 -0.00000000000E+00 -0.51280107794E+02  0.51280107794E+02  0.00000000000E+00 0. -1.
         25    1    1    2    0    0  0.62953248835E+02 -0.35072261321E+02  0.76069562671E+02  0.16310963619E+03  0.12500000000E+03 0.  0.
         25    1    1    2    0    0 -0.62953248835E+02  0.35072261321E+02  0.66292241885E+03  0.67844256092E+03  0.12500000000E+03 0.  0.
</event>
<event>
 4    0  0.2193754E-002  0.1816062E+03  0.7546771E-02  0.1166258E+00
         21   -1    0    0  502  501  0.00000000000E+00  0.00000000000E+00  0.53910551898E+03  0.53910551898E+03  0.00000000000E+00 0. -1.
         21   -1    0    0  501  502 -0.00000000000E+00 -0.00000000000E+00 -0.61176913293E+02  0.61176913293E+02  0.00000000000E+00 0. -1.
         25    1    1    2    0    0  0.86441079152E+02 -0.86896851001E+02  0.31878644204E+03  0.36369344028E+03  0.12500000000E+03 0.  0.
         25    1    1    2    0    0 -0.86441079152E+02  0.86896851001E+02  0.15914216365E+03  0.23658899199E+03  0.12500000000E+03 0.  0.
</event>
<event>
 4    0  0.2193754E-002  0.2635954E+03  0.7546771E-02  0.1105002E+00
         21   -1    0    0  502  501  0.00000000000E+00  0.00000000000E+00  0.33120510856E+03  0.33120510856E+03  0.00000000000E+00 0. -1.
         21   -1    0    0  501  502 -0.00000000000E+00 -0.00000000000E+00 -0.20978707361E+03  0.20978707361E+03  0.00000000000E+00 0. -1.
         25    1    1    2    0    0 -0.10928910191E+03  0.10065466120E+03 -0.12223334735E+03  0.22943726773E+03  0.12500000000E+03 0.  0.
         25    1    1    2    0    0  0.10928910191E+03 -0.10065466120E+03  0.24365138230E+03  0.31155491445E+03  0.12500000000E+03 0.  0.
</event>
<event>
 4    0  0.2193754E-002  0.3099452E+03  0.7546771E-02  0.1080372E+00
         21   -1    0    0  502  501  0.00000000000E+00  0.00000000000E+00  0.60451837456E+03  0.60451837456E+03  0.00000000000E+00 0. -1.
         21   -1    0    0  501  502 -0.00000000000E+00 -0.00000000000E+00 -0.15891327750E+03  0.15891327750E+03  0.00000000000E+00 0. -1.
         25    1    1    2    0    0  0.23368424727E+03 -0.15160821988E+03  0.15708277356E+03  0.34335605063E+03  0.12500000000E+03 0.  0.
         25    1    1    2    0    0 -0.23368424727E+03  0.15160821988E+03  0.28852232349E+03  0.42007560142E+03  0.12500000000E+03 0.  0.
</event>
<event>
 4    0  0.2193754E-002  0.2040209E+03  0.7546771E-02  0.1146390E+00
         21   -1    0    0  502  501  0.00000000000E+00  0.00000000000E+00  0.13880525729E+04  0.13880525729E+04  0.00000000000E+00 0.  1.
         21   -1    0    0  501  502 -0.00000000000E+00 -0.00000000000E+00 -0.29987703321E+02  0.29987703321E+02  0.00000000000E+00 0.  1.
         25    1    1    2    0    0 -0.10557248454E+03  0.71843946065E+02  0.33689560736E+03  0.38135384138E+03  0.12500000000E+03 0.  0.
         25    1    1    2    0    0  0.10557248454E+03 -0.71843946065E+02  0.10211692622E+04  0.10366864348E+04  0.12500000000E+03 0.  0.
</event>
<event>
 4    0  0.2193754E-002  0.1809854E+03  0.7546771E-02  0.1166853E+00
         21   -1    0    0  502  501  0.00000000000E+00  0.00000000000E+00  0.60227369763E+03  0.60227369763E+03  0.00000000000E+00 0.  1.
         21   -1    0    0  501  502 -0.00000000000E+00 -0.00000000000E+00 -0.54386776382E+02  0.54386776382E+02  0.00000000000E+00 0.  1.
         25    1    1    2    0    0 -0.87905191908E+02  0.82205082978E+02  0.36725594336E+03  0.40618582738E+03  0.12500000000E+03 0.  0.
         25    1    1    2    0    0  0.87905191908E+02 -0.82205082978E+02  0.18063097788E+03  0.25047464663E+03  0.12500000000E+03 0.  0.
</event>
<event>
 4    0  0.2193754E-002  0.3989600E+03  0.7546771E-02  0.1044140E+00
         21   -1    0    0  502  501  0.00000000000E+00  0.00000000000E+00  0.24221187236E+03  0.24221187236E+03  0.00000000000E+00 0. -1.
         21   -1    0    0  501  502 -0.00000000000E+00 -0.00000000000E+00 -0.65714825609E+03  0.65714825609E+03  0.00000000000E+00 0. -1.
         25    1    1    2    0    0 -0.37165950885E+03  0.67404799048E+02 -0.17422429553E+03  0.43434237948E+03  0.12500000000E+03 0.  0.
         25    1    1    2    0    0  0.37165950885E+03 -0.67404799048E+02 -0.24071208820E+03  0.46501774898E+03  0.12500000000E+03 0.  0.
</event>
<event>
 4    0  0.2193754E-002  0.2441113E+03  0.7546771E-02  0.1117084E+00
         21   -1    0    0  502  501  0.00000000000E+00  0.00000000000E+00  0.64749177478E+03  0.64749177478E+03  0.00000000000E+00 0. -1.
         21   -1    0    0  501  502 -0.00000000000E+00 -0.00000000000E+00 -0.92032542358E+02  0.92032542358E+02  0.00000000000E+00 0.  1.
         25    1    1    2    0    0  0.19120430862E+03  0.63936027226E+02  0.36498650253E+03  0.43530110296E+03  0.12500000000E+03 0.  0.
         25    1    1    2    0    0 -0.19120430862E+03 -0.63936027226E+02  0.19047272989E+03  0.30422321418E+03  0.12500000000E+03 0.  0.
</event>
<event>
 4    0  0.2193754E-002  0.1803251E+03  0.7546771E-02  0.1167489E+00
         21   -1    0    0  502  501  0.00000000000E+00  0.00000000000E+00  0.59314726096E+03  0.59314726096E+03  0.00000000000E+00 0.  1.
         21   -1    0    0  501  502 -0.00000000000E+00 -0.00000000000E+00 -0.54821375392E+02  0.54821375392E+02  0.00000000000E+00 0.  1.
         25    1    1    2    0    0  0.98606330614E+02  0.10120861079E+02  0.11813051597E+03  0.19850808313E+03  0.12500000000E+03 0.  0.
         25    1    1    2    0    0 -0.98606330614E+02 -0.10120861079E+02  0.42019536960E+03  0.44946055322E+03  0.12500000000E+03 0.  0.
</event>
<event>
 4    0  0.2193754E-002  0.2682811E+03  0.7546771E-02  0.1102267E+00
         21   -1    0    0  502  501  0.00000000000E+00  0.00000000000E+00  0.71222148075E+03  0.71222148075E+03  0.00000000000E+00 0. -1.
         21   -1    0    0  501  502 -0.00000000000E+00 -0.00000000000E+00 -0.10105669201E+03  0.10105669201E+03  0.00000000000E+00 0. -1.
         25    1    1    2    0    0 -0.64408814047E+01  0.20595336796E+03  0.12693644089E+03  0.27238967446E+03  0.12500000000E+03 0.  0.
         25    1    1    2    0    0  0.64408814047E+01 -0.20595336796E+03  0.48422834785E+03  0.54088849830E+03  0.12500000000E+03 0.  0.
</event>
<event>
 4    0  0.2193754E-002  0.1397213E+03  0.7546771E-02  0.1213704E+00
         21   -1    0    0  502  501  0.00000000000E+00  0.00000000000E+00  0.73816412922E+03  0.73816412922E+03  0.00000000000E+00 0. -1.
         21   -1    0    0  501  502 -0.00000000000E+00 -0.00000000000E+00 -0.26446743106E+02  0.26446743106E+02  0.00000000000E+00 0. -1.
         25    1    1    2    0    0 -0.52627097418E+02  0.27096726484E+02  0.30160230665E+03  0.33180234379E+03  0.12500000000E+03 0.  0.
         25    1    1    2    0    0  0.52627097418E+02 -0.27096726484E+02  0.41011507947E+03  0.43280852854E+03  0.12500000000E+03 0.  0.
</event>
<event>
 4    0  0.2193754E-002  0.1995249E+03  0.7546771E-02  0.1150140E+00
         21   -1    0    0  502  501  0.00000000000E+00  0.00000000000E+00  0.62350002569E+03  0.62350002569E+03  0.00000000000E+00 0. -1.
         21   -1    0    0  501  502 -0.00000000000E+00 -0.00000000000E+00 -0.63849556683E+02  0.63849556683E+02  0.00000000000E+00 0. -1.
         25    1    1    2    0    0 -0.14346120250E+03 -0.31931013415E+02  0.19225868040E+03  0.27237677293E+03  0.12500000000E+03 0.  0.
         25    1    1    2    0    0  0.14346120250E+03  0.31931013415E+02  0.36739178861E+03  0.41497280945E+03  0.12500000000E+03 0.  0.
</event>
<event>
 4    0  0.2193754E-002  0.3991855E+03  0.7546771E-02  0.1044062E+00
         21   -1    0    0  502  501  0.00000000000E+00  0.00000000000E+00  0.79176982055E+03  0.79176982055E+03  0.00000000000E+00 0.  1.
         21   -1    0    0  501  502 -0.00000000000E+00 -0.00000000000E+00 -0.20125680524E+03  0.20125680524E+03  0.00000000000E+00 0. -1.
         25    1    1    2    0    0 -0.13080138989E+03 -0.31956779722E+03  0.48991066718E+03  0.61226631659E+03  0.12500000000E+03 0.  0.
         25    1    1    2    0    0  0.13080138989E+03  0.31956779722E+03  0.10060234814E+03  0.38076030920E+03  0.12500000000E+03 0.  0.
</event>
<event>
 4    0  0.2193754E-002  0.2360668E+03  0.7546771E-02  0.1122441E+00
         21   -1    0    0  502  501  0.00000000000E+00  0.00000000000E+00  0.56733343061E+03  0.56733343061E+03  0.00000000000E+00 0. -1.
         21   -1    0    0  501  502 -0.00000000000E+00 -0.00000000000E+00 -0.98227102729E+02  0.98227102729E+02  0.00000000000E+00 0. -1.
         25    1    1    2    0    0  0.10302325116E+03  0.10778168552E+03  0.46098317852E+02  0.19995183651E+03  0.12500000000E+03 0.  0.
         25    1    1    2    0    0 -0.10302325116E+03 -0.10778168552E+03  0.42300801003E+03  0.46560869683E+03  0.12500000000E+03 0.  0.
</event>
<event>
 4    0  0.2193754E-002  0.1922687E+03  0.7546771E-02  0.1156431E+00
         21   -1    0    0  502  501  0.00000000000E+00  0.00000000000E+00  0.95654674642E+03  0.95654674642E+03  0.00000000000E+00 0. -1.
         21   -1    0    0  501  502 -0.00000000000E+00 -0.00000000000E+00 -0.38646553230E+02  0.38646553230E+02  0.00000000000E+00 0. -1.
         25    1    1    2    0    0 -0.11184362037E+03 -0.10423850284E+01  0.21572843493E+03  0.27326514528E+03  0.12500000000E+03 0.  0.
         25    1    1    2    0    0  0.11184362037E+03  0.10423850284E+01  0.70217175825E+03  0.72192815437E+03  0.12500000000E+03 0.  0.
</event>
<event>
 4    0  0.2193754E-002  0.3004423E+03  0.7546771E-02  0.1085020E+00
         21   -1    0    0  502  501  0.00000000000E+00  0.00000000000E+00  0.48821424590E+02  0.48821424590E+02  0.00000000000E+00 0. -1.
         21   -1    0    0  501  502 -0.00000000000E+00 -0.00000000000E+00 -0.18488926325E+04  0.18488926325E+04  0.00000000000E+00 0. -1.
         25    1    1    2    0    0 -0.26706092149E+03 -0.57540804161E+02 -0.89105147990E+03  0.94033516352E+03  0.12500000000E+03 0.  0.
         25    1    1    2    0    0  0.26706092149E+03  0.57540804161E+02 -0.90901972804E+03  0.95737889360E+03  0.12500000000E+03 0.  0.
</event>
<event>
 4    0  0.2193754E-002  0.2922570E+03  0.7546771E-02  0.1089177E+00
         21   -1    0    0  502  501  0.00000000000E+00  0.00000000000E+00  0.69987915476E+03  0.69987915476E+03  0.00000000000E+00 0.  1.
         21   -1    0    0  501  502 -0.00000000000E+00 -0.00000000000E+00 -0.12204132253E+03  0.12204132253E+03  0.00000000000E+00 0. -1.
         25    1    1    2    0    0 -0.24309371275E+03 -0.69173278786E+02  0.18082111041E+03  0.33496383334E+03  0.12500000000E+03 0.  0.
         25    1    1    2    0    0  0.24309371275E+03  0.69173278786E+02  0.39701672182E+03  0.48695664395E+03  0.12500000000E+03 0.  0.
</event>
<event>
 4    0  0.2193754E-002  0.2560542E+03  0.7546771E-02  0.1109537E+00
         21   -1    0    0  502  501  0.00000000000E+00  0.00000000000E+00  0.29467869409E+02  0.29467869409E+02  0.00000000000E+00 0. -1.
         21   -1    0    0  501  502 -0.00000000000E+00 -0.00000000000E+00 -0.22249229014E+04  0.22249229014E+04  0.00000000000E+00 0. -1.
         25    1    1    2    0    0  0.19606553171E+03  0.10532063999E+03 -0.10091783750E+04  0.10409611532E+04  0.12500000000E+03 0.  0.
         25    1    1    2    0    0 -0.19606553171E+03 -0.10532063999E+03 -0.11862766570E+04  0.12134296176E+04  0.12500000000E+03 0.  0.
</event>
<event>
 4    0  0.2193754E-002  0.2390944E+03  0.7546771E-02  0.1120398E+00
         21   -1    0    0  502  501  0.00000000000E+00  0.00000000000E+00  0.39290463511E+03  0.39290463511E+03  0.00000000000E+00 0. -1.
         21   -1    0    0  501  502 -0.00000000000E+00 -0.00000000000E+00 -0.14549616755E+03  0.14549616755E+03  0.00000000000E+00 0. -1.
         25    1    1    2    0    0  0.17647635803E+03  0.92706367668E+01  0.23803481406E+03  0.32173812698E+03  0.12500000000E+03 0.  0.
         25    1    1    2    0    0 -0.17647635803E+03 -0.92706367668E+01  0.93736534959E+01  0.21666267567E+03  0.12500000000E+03 0.  0.
</event>
<event>
 4    0  0.2193754E-002  0.1812826E+03  0.7546771E-02  0.1166568E+00
         21   -1    0    0  502  501  0.00000000000E+00  0.00000000000E+00  0.90736614705E+02  0.90736614705E+02  0.00000000000E+00 0.  1.
         21   -1    0    0  501  502 -0.00000000000E+00 -0.00000000000E+00 -0.36218424423E+03  0.36218424423E+03  0.00000000000E+00 0.  1.
         25    1    1    2    0    0 -0.80997318916E+02 -0.10321860733E+03 -0.14180860102E+03  0.23010720522E+03  0.12500000000E+03 0.  0.
         25    1    1    2    0    0  0.80997318916E+02  0.10321860733E+03 -0.12963902850E+03  0.22281365371E+03  0.12500000000E+03 0.  0.
</event>
<event>
 4    0  0.2193754E-002  0.2233311E+03  0.7546771E-02  0.1131424E+00
         21   -1    0    0  502  501  0.00000000000E+00  0.00000000000E+00  0.51615055004E+02  0.51615055004E+02  0.00000000000E+00 0.  1.
         21   -1    0    0  501  502 -0.00000000000E+00 -0.00000000000E+00 -0.96632261092E+03  0.96632261092E+03  0.00000000000E+00 0.  1.
         25    1    1    2    0    0  0.83677506334E+02  0.60843349296E+02 -0.10763533740E+03  0.19471570064E+03  0.12500000000E+03 0.  0.
         25    1    1    2    0    0 -0.83677506334E+02 -0.60843349296E+02 -0.80707221852E+03  0.82322196528E+03  0.12500000000E+03 0.  0.
</event>
<event>
 4    0  0.2193754E-002  0.2086970E+03  0.7546771E-02  0.1142602E+00
         21   -1    0    0  502  501  0.00000000000E+00  0.00000000000E+00  0.24585622719E+03  0.24585622719E+03  0.00000000000E+00 0.  1.
         21   -1    0    0  501  502 -0.00000000000E+00 -0.00000000000E+00 -0.17715408278E+03  0.17715408278E+03  0.00000000000E+00 0.  1.
         25    1    1    2    0    0 -0.72388956814E+00  0.67113364157E+02 -0.12075966037E+03  0.18631323957E+03  0.12500000000E+03 0.  0.
         25    1    1    2    0    0  0.72388956814E+00 -0.67113364157E+02  0.18946180478E+03  0.23669707040E+03  0.12500000000E+03 0.  0.
</event>
<event>
 4    0  0.2193754E-002  0.2972564E+03  0.7546771E-02  0.1086620E+00
         21   -1    0    0  502  501  0.00000000000E+00  0.00000000000E+00  0.46662672241E+03  0.46662672241E+03  0.00000000000E+00 0.  1.
         21   -1    0    0  501  502 -0.00000000000E+00 -0.00000000000E+00 -0.18936200789E+03  0.18936200789E+03  0.00000000000E+00 0.  1.
         25    1    1    2    0    0  0.14100958393E+03  0.10028288561E+03 -0.89631320912E+02  0.23151486689E+03  0.12500000000E+03 0.  0.
         25    1    1    2    0    0 -0.14100958393E+03 -0.10028288561E+03  0.36689603543E+03  0.42447386341E+03  0.12500000000E+03 0.  0.
</event>
<event>
 4    0  0.2193754E-002  0.2352506E+03  0.7546771E-02  0.1122998E+00
         21   -1    0    0  502  501  0.00000000000E+00  0.00000000000E+00  0.74074960805E+03  0.74074960805E+03  0.00000000000E+00 0. -1.
         21   -1    0    0  501  502 -0.00000000000E+00 -0.00000000000E+00 -0.74711957492E+02  0.74711957492E+02  0.00000000000E+00 0. -1.
         25    1    1    2    0    0 -0.53882721737E+02  0.65999156053E+02  0.20765024490E+02  0.15269388509E+03  0.12500000000E+03 0.  0.
         25    1    1    2    0    0  0.53882721737E+02 -0.65999156053E+02  0.64527262606E+03  0.66276768045E+03  0.12500000000E+03 0.  0.
</event>
<event>
 4    0  0.2193754E-002  0.2500783E+03  0.7546771E-02  0.1113255E+00
         21   -1    0    0  502  501  0.00000000000E+00  0.00000000000E+00  0.45615508615E+03  0.45615508615E+03  0.00000000000E+00 0.  1.
         21   -1    0    0  501  502 -0.00000000000E+00 -0.00000000000E+00 -0.13710065949E+03  0.13710065949E+03  0.00000000000E+00 0.  1.
         25    1    1    2    0    0  0.19798158481E+03  0.39392297685E+02  0.66389152072E+02  0.24653799008E+03  0.12500000000E+03 0.  0.
         25    1    1    2    0    0 -0.19798158481E+03 -0.39392297685E+02  0.25266527459E+03  0.34671775556E+03  0.12500000000E+03 0.  0.
</event>
<event>
 4    0  0.2193754E-002  0.2284827E+03  0.7546771E-02  0.1127712E+00
         21   -1    0    0  502  501  0.00000000000E+00  0.00000000000E+00  0.13563287666E+04  0.13563287666E+04  0.00000000000E+00 0. -1.
         21   -1    0    0  501  502 -0.00000000000E+00 -0.00000000000E+00 -0.38489448414E+02  0.38489448414E+02  0.00000000000E+00 0. -1.
         25    1    1    2    0    0 -0.17843242059E+03 -0.68783384259E+02  0.66860259938E+03  0.70655765410E+03  0.12500000000E+03 0.  0.
         25    1    1    2    0    0  0.17843242059E+03  0.68783384259E+02  0.64923671880E+03  0.68826056091E+03  0.12500000000E+03 0.  0.
</event>
<event>
 4    0  0.2193754E-002  0.1711194E+03  0.7546771E-02  0.1176686E+00
         21   -1    0    0  502  501  0.00000000000E+00  0.00000000000E+00  0.62198210233E+03  0.62198210233E+03  0.00000000000E+00 0. -1.
         21   -1    0    0  501  502 -0.00000000000E+00 -0.00000000000E+00 -0.47078279994E+02  0.47078279994E+02  0.00000000000E+00 0. -1.
         25    1    1    2    0    0 -0.81878441249E+02 -0.73153684991E+02  0.20922190683E+03  0.26730945937E+03  0.12500000000E+03 0.  0.
         25    1    1    2    0    0  0.81878441249E+02  0.73153684991E+02  0.36568191550E+03  0.40175092295E+03  0.12500000000E+03 0.  0.
</event>
<event>
 4    0  0.2193754E-002  0.2370975E+03  0.7546771E-02  0.1121742E+00
         21   -1    0    0  502  501  0.00000000000E+00  0.00000000000E+00  0.51710411380E+02  0.51710411380E+02  0.00000000000E+00 0. -1.
         21   -1    0    0  501  502 -0.00000000000E+00 -0.00000000000E+00 -0.10871163070E+04  0.10871163070E+04  0.00000000000E+00 0. -1.
         25    1    1    2    0    0 -0.14390303294E+03 -0.85428554816E+02 -0.78711183222E+03  0.81435628400E+03  0.12500000000E+03 0.  0.
         25    1    1    2    0    0  0.14390303294E+03  0.85428554816E+02 -0.24829406340E+03  0.32447043438E+03  0.12500000000E+03 0.  0.
</event>
<event>
 4    0  0.2193754E-002  0.2136888E+03  0.7546771E-02  0.1138678E+00
         21   -1    0    0  502  501  0.00000000000E+00  0.00000000000E+00  0.22616082883E+03  0.22616082883E+03  0.00000000000E+00 0. -1.
         21   -1    0    0  501  502 -0.00000000000E+00 -0.00000000000E+00 -0.20190453890E+03  0.20190453890E+03  0.00000000000E+00 0. -1.
         25    1    1    2    0    0 -0.13540192078E+03 -0.10474422500E+03  0.39243192202E+02  0.21556915585E+03  0.12500000000E+03 0.  0.
         25    1    1    2    0    0  0.13540192078E+03  0.10474422500E+03 -0.14986902275E+02  0.21249621187E+03  0.12500000000E+03 0.  0.
</event>
<event>
 4    0  0.2193754E-002  0.1883463E+03  0.7546771E-02  0.1159961E+00
         21   -1    0    0  502  501  0.00000000000E+00  0.00000000000E+00  0.18847018639E+03  0.18847018639E+03  0.00000000000E+00 0. -1.
         21   -1    0    0  501  502 -0.00000000000E+00 -0.00000000000E+00 -0.18822258307E+03  0.18822258307E+03  0.00000000000E+00 0. -1.
         25    1    1    2    0    0  0.77258323249E+02  0.25074449858E+01  0.11791266156E+03  0.18842380834E+03  0.12500000000E+03 0.  0.
         25    1    1    2    0    0 -0.77258323249E+02 -0.25074449858E+01 -0.11766505824E+03  0.18826896113E+03  0.12500000000E+03 0.  0.
</event>
<event>
 4    0  0.2193754E-002  0.4419270E+03  0.7546771E-02  0.1030157E+00
         21   -1    0    0  502  501  0.00000000000E+00  0.00000000000E+00  0.96945652022E+02  0.96945652022E+02  0.00000000000E+00 0. -1.
         21   -1    0    0  501  502 -0.00000000000E+00 -0.00000000000E+00 -0.20145251871E+04  0.20145251871E+04  0.00000000000E+00 0. -1.
         25    1    1    2    0    0 -0.23683054297E+03  0.26140097344E+03 -0.15203437045E+04  0.15657232051E+04  0.12500000000E+03 0.  0.
         25    1    1    2    0    0  0.23683054297E+03 -0.26140097344E+03 -0.39723583056E+03  0.54574763406E+03  0.12500000000E+03 0.  0.
</event>
<event>
 4    0  0.2193754E-002  0.1679822E+03  0.7546771E-02  0.1179969E+00
         21   -1    0    0  502  501  0.00000000000E+00  0.00000000000E+00  0.54557065111E+03  0.54557065111E+03  0.00000000000E+00 0. -1.
         21   -1    0    0  501  502 -0.00000000000E+00 -0.00000000000E+00 -0.51722024983E+02  0.51722024983E+02  0.00000000000E+00 0. -1.
         25    1    1    2    0    0  0.16157499952E+02 -0.96388633963E+02  0.14888158785E+03  0.21758345701E+03  0.12500000000E+03 0.  0.
         25    1    1    2    0    0 -0.16157499952E+02  0.96388633963E+02  0.34496703828E+03  0.37970921909E+03  0.12500000000E+03 0.  0.
</event>
<event>
 4    0  0.2193754E-002  0.2741818E+03  0.7546771E-02  0.1098910E+00
         21   -1    0    0  502  501  0.00000000000E+00  0.00000000000E+00  0.45095827166E+03  0.45095827166E+03  0.00000000000E+00 0. -1.
         21   -1    0    0  501  502 -0.00000000000E+00 -0.00000000000E+00 -0.16670201046E+03  0.16670201046E+03  0.00000000000E+00 0. -1.
         25    1    1    2    0    0 -0.16128414936E+03  0.12295507430E+02  0.34793937223E+03  0.40354747315E+03  0.12500000000E+03 0.  0.
         25    1    1    2    0    0  0.16128414936E+03 -0.12295507430E+02 -0.63683111026E+02  0.21411280898E+03  0.12500000000E+03 0.  0.
</event>
<event>
 4    0  0.2193754E-002  0.2737459E+03  0.7546771E-02  0.1099155E+00
         21   -1    0    0  502  501  0.00000000000E+00  0.00000000000E+00  0.36535558364E+03  0.36535558364E+03  0.00000000000E+00 0.  1.
         21   -1    0    0  501  502 -0.00000000000E+00 -0.00000000000E+00 -0.20510660015E+03  0.20510660015E+03  0.00000000000E+00 0.  1.
         25    1    1    2    0    0  0.77182560577E+02  0.13538627084E+03  0.27512682329E+03  0.34000935117E+03  0.12500000000E+03 0.  0.
         25    1    1    2    0    0 -0.77182560577E+02 -0.13538627084E+03 -0.11487783979E+03  0.23045283263E+03  0.12500000000E+03 0.  0.
</event>
<event>
 4    0  0.2193754E-002  0.2071347E+03  0.7546771E-02  0.1143855E+00
         21   -1    0    0  502  501  0.00000000000E+00  0.00000000000E+00  0.42190349087E+03  0.42190349087E+03  0.00000000000E+00 0. -1.
         21   -1    0    0  501  502 -0.00000000000E+00 -0.00000000000E+00 -0.10169340243E+03  0.10169340243E+03  0.00000000000E+00 0. -1.
         25    1    1    2    0    0  0.16421694539E+02 -0.16180554402E+03  0.19649791858E+03  0.28405481537E+03  0.12500000000E+03 0.  0.
         25    1    1    2    0    0 -0.16421694539E+02  0.16180554402E+03  0.12371216986E+03  0.23954207793E+03  0.12500000000E+03 0.  0.
</event>
<event>
 4    0  0.2193754E-002  0.2067372E+03  0.7546771E-02  0.1144176E+00
         21   -1    0    0  502  501  0.00000000000E+00  0.00000000000E+00  0.12691777386E+04  0.12691777386E+04  0.00000000000E+00 0. -1.
         21   -1    0    0  501  502 -0.00000000000E+00 -0.00000000000E+00 -0.33675551049E+02  0.33675551049E+02  0.00000000000E+00 0. -1.
         25    1    1    2    0    0  0.40881684072E+02  0.73295988018E+02  0.17133645069E+03  0.22808944142E+03  0.12500000000E+03 0.  0.
         25    1    1    2    0    0 -0.40881684072E+02 -0.73295988018E+02  0.10641657369E+04  0.10747638482E+04  0.12500000000E+03 0.  0.
</event>
<event>
 4    0  0.2193754E-002  0.2636905E+03  0.7546771E-02  0.1104946E+00
         21   -1    0    0  502  501  0.00000000000E+00  0.00000000000E+00  0.12424348856E+03  0.12424348856E+03  0.00000000000E+00 0.  1.
         21   -1    0    0  501  502 -0.00000000000E+00 -0.00000000000E+00 -0.55964858581E+03  0.55964858581E+03  0.00000000000E+00 0.  1.
         25    1    1    2    0    0 -0.16774476627E+03 -0.62788572622E+02 -0.40928683620E+03  0.46391963286E+03  0.12500000000E+03 0.  0.
         25    1    1    2    0    0  0.16774476627E+03  0.62788572622E+02 -0.26118261049E+02  0.21997244151E+03  0.12500000000E+03 0.  0.
</event>
<event>
 4    0  0.2193754E-002  0.1937709E+03  0.7546771E-02  0.1155104E+00
         21   -1    0    0  502  501  0.00000000000E+00  0.00000000000E+00  0.95539114750E+03  0.95539114750E+03  0.00000000000E+00 0.  1.
         21   -1    0    0  501  502 -0.00000000000E+00 -0.00000000000E+00 -0.39300286411E+02  0.39300286411E+02  0.00000000000E+00 0.  1.
         25    1    1    2    0    0 -0.52499812292E+02  0.64190409228E+02  0.14321744624E+03  0.20739545760E+03  0.12500000000E+03 0.  0.
         25    1    1    2    0    0  0.52499812292E+02 -0.64190409228E+02  0.77287341485E+03  0.78729597631E+03  0.12500000000E+03 0.  0.
</event>
<event>
 4    0  0.2193754E-002  0.3169447E+03  0.7546771E-02  0.1077064E+00
         21   -1    0    0  502  501  0.00000000000E+00  0.00000000000E+00  0.16159994821E+03  0.16159994821E+03  0.00000000000E+00 0.  1.
         21   -1    0    0  501  502 -0.00000000000E+00 -0.00000000000E+00 -0.62162132069E+03  0.62162132069E+03  0.00000000000E+00 0.  1.
         25    1    1    2    0    0  0.24818686645E+03 -0.74096288704E+02 -0.65432559929E+02  0.29494643679E+03  0.12500000000E+03 0.  0.
         25    1    1    2    0    0 -0.24818686645E+03  0.74096288704E+02 -0.39458881256E+03  0.48827483211E+03  0.12500000000E+03 0.  0.
</event>
<event>
 4    0  0.2193754E-002  0.1783332E+03  0.7546771E-02  0.1169426E+00
         21   -1    0    0  502  501  0.00000000000E+00  0.00000000000E+00  0.48373677301E+03  0.48373677301E+03  0.00000000000E+00 0.  1.
         21   -1    0    0  501  502 -0.00000000000E+00 -0.00000000000E+00 -0.65743890812E+02  0.65743890812E+02  0.00000000000E+00 0.  1.
         25    1    1    2    0    0 -0.56726940962E+02 -0.11241537085E+03  0.23666625860E+03  0.29578891019E+03  0.12500000000E+03 0.  0.
         25    1    1    2    0    0  0.56726940962E+02  0.11241537085E+03  0.18132662360E+03  0.25369175363E+03  0.12500000000E+03 0.  0.
</event>
<event>
 4    0  0.2193754E-002  0.1989432E+03  0.7546771E-02  0.1150634E+00
         21   -1    0    0  502  501  0.00000000000E+00  0.00000000000E+00  0.41744209469E+02  0.41744209469E+02  0.00000000000E+00 0.  1.
         21   -1    0    0  501  502 -0.00000000000E+00 -0.00000000000E+00 -0.94811731001E+03  0.94811731001E+03  0.00000000000E+00 0.  1.
         25    1    1    2    0    0  0.16281237044E+01 -0.15475129704E+03 -0.44902897216E+03  0.49112384646E+03  0.12500000000E+03 0.  0.
         25    1    1    2    0    0 -0.16281237044E+01  0.15475129704E+03 -0.45734412839E+03  0.49873767303E+03  0.12500000000E+03 0.  0.
</event>
<event>
 4    0  0.2193754E-002  0.2319186E+03  0.7546771E-02  0.1125297E+00
         21   -1    0    0  502  501  0.00000000000E+00  0.00000000000E+00  0.60345856049E+03  0.60345856049E+03  0.00000000000E+00 0.  1.
         21   -1    0    0  501  502 -0.00000000000E+00 -0.00000000000E+00 -0.89129939311E+02  0.89129939311E+02  0.00000000000E+00 0.  1.
         25    1    1    2    0    0  0.13617964739E+03  0.13429975877E+03  0.31651489537E+03  0.39036905687E+03  0.12500000000E+03 0.  0.
         25    1    1    2    0    0 -0.13617964739E+03 -0.13429975877E+03  0.19781372581E+03  0.30221944293E+03  0.12500000000E+03 0.  0.
</event>
<event>
 4    0  0.2193754E-002  0.2455336E+03  0.7546771E-02  0.1116160E+00
         21   -1    0    0  502  501  0.00000000000E+00  0.00000000000E+00  0.40731567303E+02  0.40731567303E+02  0.00000000000E+00 0.  1.
         21   -1    0    0  501  502 -0.00000000000E+00 -0.00000000000E+00 -0.14800990209E+04  0.14800990209E+04  0.00000000000E+00 0.  1.
         25    1    1    2    0    0  0.19119788163E+03  0.86735277891E+02 -0.79440497369E+03  0.83113410506E+03  0.12500000000E+03 0.  0.
         25    1    1    2    0    0 -0.19119788163E+03 -0.86735277891E+02 -0.64496247987E+03  0.68969648311E+03  0.12500000000E+03 0.  0.
</event>
<event>
 4    0  0.2193754E-002  0.2213069E+03  0.7546771E-02  0.1132912E+00
         21   -1    0    0  502  501  0.00000000000E+00  0.00000000000E+00  0.15854885264E+04  0.15854885264E+04  0.00000000000E+00 0. -1.
         21   -1    0    0  501  502 -0.00000000000E+00 -0.00000000000E+00 -0.30890630798E+02  0.30890630798E+02  0.00000000000E+00 0. -1.
         25    1    1    2    0    0 -0.96938670512E+02 -0.26982671001E+02  0.22074041072E+03  0.27290382793E+03  0.12500000000E+03 0.  0.
         25    1    1    2    0    0  0.96938670512E+02  0.26982671001E+02  0.13338574849E+04  0.13434753293E+04  0.12500000000E+03 0.  0.
</event>
<event>
 4    0  0.2193754E-002  0.2097699E+03  0.7546771E-02  0.1141748E+00
         21   -1    0    0  502  501  0.00000000000E+00  0.00000000000E+00  0.42802267797E+03  0.42802267797E+03  0.00000000000E+00 0. -1.
         21   -1    0    0  501  502 -0.00000000000E+00 -0.00000000000E+00 -0.10280629661E+03  0.10280629661E+03  0.00000000000E+00 0. -1.
         25    1    1    2    0    0 -0.10466291460E+03  0.82058190651E+02  0.29343040138E+03  0.34556370296E+03  0.12500000000E+03 0.  0.
         25    1    1    2    0    0  0.10466291460E+03 -0.82058190651E+02  0.31785979986E+02  0.18526527162E+03  0.12500000000E+03 0.  0.
</event>
<event>
 4    0  0.2193754E-002  0.1923664E+03  0.7546771E-02  0.1156344E+00
         21   -1    0    0  502  501  0.00000000000E+00  0.00000000000E+00  0.29229386361E+03  0.29229386361E+03  0.00000000000E+00 0. -1.
         21   -1    0    0  501  502 -0.00000000000E+00 -0.00000000000E+00 -0.12660150919E+03  0.12660150919E+03  0.00000000000E+00 0. -1.
         25    1    1    2    0    0  0.10406658929E+03 -0.10255569877E+03  0.76656501965E+02  0.20699938563E+03  0.12500000000E+03 0.  0.
         25    1    1    2    0    0 -0.10406658929E+03  0.10255569877E+03  0.89035852451E+02  0.21189598717E+03  0.12500000000E+03 0.  0.
</event>
<event>
 4    0  0.2193754E-002  0.1679420E+03  0.7546771E-02  0.1180011E+00
         21   -1    0    0  502  501  0.00000000000E+00  0.00000000000E+00  0.24442164329E+03  0.24442164329E+03  0.00000000000E+00 0.  1.
         21   -1    0    0  501  502 -0.00000000000E+00 -0.00000000000E+00 -0.11539287061E+03  0.11539287061E+03  0.00000000000E+00 0.  1.
         25    1    1    2    0    0  0.41200348193E+02 -0.24679477902E+02 -0.44062496143E+02  0.14097180174E+03  0.12500000000E+03 0.  0.
         25    1    1    2    0    0 -0.41200348193E+02  0.24679477902E+02  0.17309126883E+03  0.21884271216E+03  0.12500000000E+03 0.  0.
</event>
<event>
 4    0  0.2193754E-002  0.2871992E+03  0.7546771E-02  0.1091821E+00
         21   -1    0    0  502  501  0.00000000000E+00  0.00000000000E+00  0.73533250950E+03  0.73533250950E+03  0.00000000000E+00 0.  1.
         21   -1    0    0  501  502 -0.00000000000E+00 -0.00000000000E+00 -0.11217152417E+03  0.11217152417E+03  0.00000000000E+00 0.  1.
         25    1    1    2    0    0  0.19984490674E+03  0.15783231837E+03  0.37771915330E+03  0.47238309267E+03  0.12500000000E+03 0.  0.
         25    1    1    2    0    0 -0.19984490674E+03 -0.15783231837E+03  0.24544183203E+03  0.37512094100E+03  0.12500000000E+03 0.  0.
</event>
<event>
 4    0  0.2193754E-002  0.2160389E+03  0.7546771E-02  0.1136871E+00
         21   -1    0    0  502  501  0.00000000000E+00  0.00000000000E+00  0.70267133343E+03  0.70267133343E+03  0.00000000000E+00 0.  1.
         21   -1    0    0  501  502 -0.00000000000E+00 -0.00000000000E+00 -0.66421949798E+02  0.66421949798E+02  0.00000000000E+00 0.  1.
         25    1    1    2    0    0  0.15983103688E+03  0.69958574038E+02  0.36200194334E+03  0.42084506580E+03  0.12500000000E+03 0.  0.
         25    1    1    2    0    0 -0.15983103688E+03 -0.69958574038E+02  0.27424744029E+03  0.34824821742E+03  0.12500000000E+03 0.  0.
</event>
<event>
 4    0  0.2193754E-002  0.1874126E+03  0.7546771E-02  0.1160816E+00
         21   -1    0    0  502  501  0.00000000000E+00  0.00000000000E+00  0.11709771735E+04  0.11709771735E+04  0.00000000000E+00 0.  1.
         21   -1    0    0  501  502 -0.00000000000E+00 -0.00000000000E+00 -0.29995017739E+02  0.29995017739E+02  0.00000000000E+00 0.  1.
         25    1    1    2    0    0 -0.13673457463E+03 -0.24413935486E+02  0.61648918463E+03  0.64418654046E+03  0.12500000000E+03 0.  0.
         25    1    1    2    0    0  0.13673457463E+03  0.24413935486E+02  0.52449297111E+03  0.55678565076E+03  0.12500000000E+03 0.  0.
</event>
<event>
 4    0  0.2193754E-002  0.1654374E+03  0.7546771E-02  0.1182691E+00
         21   -1    0    0  502  501  0.00000000000E+00  0.00000000000E+00  0.50818387200E+03  0.50818387200E+03  0.00000000000E+00 0.  1.
         21   -1    0    0  501  502 -0.00000000000E+00 -0.00000000000E+00 -0.53857546391E+02  0.53857546391E+02  0.00000000000E+00 0.  1.
         25    1    1    2    0    0  0.63311225742E+02  0.87931005252E+02  0.23071146574E+03  0.28388898079E+03  0.12500000000E+03 0.  0.
         25    1    1    2    0    0 -0.63311225742E+02 -0.87931005252E+02  0.22361485987E+03  0.27815243761E+03  0.12500000000E+03 0.  0.
</event>
<event>
 4    0  0.2193754E-002  0.2123798E+03  0.7546771E-02  0.1139695E+00
         21   -1    0    0  502  501  0.00000000000E+00  0.00000000000E+00  0.65245609009E+03  0.65245609009E+03  0.00000000000E+00 0. -1.
         21   -1    0    0  501  502 -0.00000000000E+00 -0.00000000000E+00 -0.69131364643E+02  0.69131364643E+02  0.00000000000E+00 0. -1.
         25    1    1    2    0    0 -0.27793511823E+01 -0.45359670753E+02  0.10381917790E+02  0.13340917787E+03  0.12500000000E+03 0.  0.
         25    1    1    2    0    0  0.27793511823E+01  0.45359670753E+02  0.57294280766E+03  0.58817827686E+03  0.12500000000E+03 0.  0.
</event>
<event>
 4    0  0.2193754E-002  0.2254395E+03  0.7546771E-02  0.1129891E+00
         21   -1    0    0  502  501  0.00000000000E+00  0.00000000000E+00  0.14695363302E+03  0.14695363302E+03  0.00000000000E+00 0.  1.
         21   -1    0    0  501  502 -0.00000000000E+00 -0.00000000000E+00 -0.34584370980E+03  0.34584370980E+03  0.00000000000E+00 0.  1.
         25    1    1    2    0    0  0.13122683094E+03  0.12377600449E+03 -0.15578347407E+03  0.26913652899E+03  0.12500000000E+03 0.  0.
         25    1    1    2    0    0 -0.13122683094E+03 -0.12377600449E+03 -0.43106602702E+02  0.22366081383E+03  0.12500000000E+03 0.  0.
</event>
<event>
 4    0  0.2193754E-002  0.2025843E+03  0.7546771E-02  0.1147577E+00
         21   -1    0    0  502  501  0.00000000000E+00  0.00000000000E+00  0.40627942305E+02  0.40627942305E+02  0.00000000000E+00 0.  1.
         21   -1    0    0  501  502 -0.00000000000E+00 -0.00000000000E+00 -0.10101519552E+04  0.10101519552E+04  0.00000000000E+00 0.  1.
         25    1    1    2    0    0 -0.11209980999E+02  0.67432085323E+02 -0.85827702186E+03  0.87002137678E+03  0.12500000000E+03 0.  0.
         25    1    1    2    0    0  0.11209980999E+02 -0.67432085323E+02 -0.11124699107E+03  0.18075852076E+03  0.12500000000E+03 0.  0.
</event>
<event>
 4    0  0.2193754E-002  0.1573117E+03  0.7546771E-02  0.1191766E+00
         21   -1    0    0  502  501  0.00000000000E+00  0.00000000000E+00  0.60701877380E+02  0.60701877380E+02  0.00000000000E+00 0. -1.
         21   -1    0    0  501  502 -0.00000000000E+00 -0.00000000000E+00 -0.40768071658E+03  0.40768071658E+03  0.00000000000E+00 0.  1.
         25    1    1    2    0    0  0.35021899436E+02 -0.36949088821E+01 -0.30565619225E+03  0.33210072817E+03  0.12500000000E+03 0.  0.
         25    1    1    2    0    0 -0.35021899436E+02  0.36949088821E+01 -0.41322646950E+02  0.13628186579E+03  0.12500000000E+03 0.  0.
</event>
<event>
 4    0  0.2193754E-002  0.2283062E+03  0.7546771E-02  0.1127838E+00
         21   -1    0    0  502  501  0.00000000000E+00  0.00000000000E+00  0.38332753892E+03  0.38332753892E+03  0.00000000000E+00 0.  1.
         21   -1    0    0  501  502 -0.00000000000E+00 -0.00000000000E+00 -0.13597702673E+03  0.13597702673E+03  0.00000000000E+00 0.  1.
         25    1    1    2    0    0  0.34918126651E+02 -0.17742539276E+03  0.53570312542E+02  0.22626052230E+03  0.12500000000E+03 0.  0.
         25    1    1    2    0    0 -0.34918126651E+02  0.17742539276E+03  0.19378019965E+03  0.29304404335E+03  0.12500000000E+03 0.  0.
</event>
<event>
 4    0  0.2193754E-002  0.3652711E+03  0.7546771E-02  0.1056516E+00
         21   -1    0    0  502  501  0.00000000000E+00  0.00000000000E+00  0.94608944675E+03  0.94608944675E+03  0.00000000000E+00 0. -1.
         21   -1    0    0  501  502 -0.00000000000E+00 -0.00000000000E+00 -0.14102571983E+03  0.14102571983E+03  0.00000000000E+00 0. -1.
         25    1    1    2    0    0  0.17095717603E+03 -0.73379580192E+02  0.83173026676E+03  0.86140069391E+03  0.12500000000E+03 0.  0.
         25    1    1    2    0    0 -0.17095717603E+03  0.73379580192E+02 -0.26666539841E+02  0.22571447267E+03  0.12500000000E+03 0.  0.
</event>
<event>
 4    0  0.2193754E-002  0.2148997E+03  0.7546771E-02  0.1137744E+00
         21   -1    0    0  502  501  0.00000000000E+00  0.00000000000E+00  0.33927330317E+03  0.33927330317E+03  0.00000000000E+00 0.  1.
         21   -1    0    0  501  502 -0.00000000000E+00 -0.00000000000E+00 -0.13612004953E+03  0.13612004953E+03  0.00000000000E+00 0.  1.
         25    1    1    2    0    0  0.78682504813E+02 -0.11712232475E+03  0.21571398888E+03  0.28647181452E+03  0.12500000000E+03 0.  0.
         25    1    1    2    0    0 -0.78682504813E+02  0.11712232475E+03 -0.12560735231E+02  0.18892153818E+03  0.12500000000E+03 0.  0.
</event>
<event>
 4    0  0.2193754E-002  0.2340887E+03  0.7546771E-02  0.1123795E+00
         21   -1    0    0  502  501  0.00000000000E+00  0.00000000000E+00  0.35566209471E+03  0.35566209471E+03  0.00000000000E+00 0.  1.
         21   -1    0    0  501  502 -0.00000000000E+00 -0.00000000000E+00 -0.15407191649E+03  0.15407191649E+03  0.00000000000E+00 0.  1.
         25    1    1    2    0    0  0.15140337031E+03  0.83206596322E+02  0.20593944518E+03  0.29644961342E+03  0.12500000000E+03 0.  0.
         25    1    1    2    0    0 -0.15140337031E+03 -0.83206596322E+02 -0.43492669685E+01  0.21328439778E+03  0.12500000000E+03 0.  0.
</event>
<event>
 4    0  0.2193754E-002  0.3918806E+03  0.7546771E-02  0.1046628E+00
         21   -1    0    0  502  501  0.00000000000E+00  0.00000000000E+00  0.36625139671E+03  0.36625139671E+03  0.00000000000E+00 0.  1.
         21   -1    0    0  501  502 -0.00000000000E+00 -0.00000000000E+00 -0.41930323520E+03  0.41930323520E+03  0.00000000000E+00 0.  1.
         25    1    1    2    0    0 -0.16036285771E+03  0.16674410230E+03 -0.31775155738E+03  0.41244501937E+03  0.12500000000E+03 0.  0.
         25    1    1    2    0    0  0.16036285771E+03 -0.16674410230E+03  0.26469971890E+03  0.37310961254E+03  0.12500000000E+03 0.  0.
</event>
<event>
 4    0  0.2193754E-002  0.2809860E+03  0.7546771E-02  0.1095152E+00
         21   -1    0    0  502  501  0.00000000000E+00  0.00000000000E+00  0.45376185863E+03  0.45376185863E+03  0.00000000000E+00 0.  1.
         21   -1    0    0  501  502 -0.00000000000E+00 -0.00000000000E+00 -0.17399684838E+03  0.17399684838E+03  0.00000000000E+00 0.  1.
         25    1    1    2    0    0 -0.56989801784E+02  0.21645803634E+03  0.11414245060E+02  0.25662658474E+03  0.12500000000E+03 0.  0.
         25    1    1    2    0    0  0.56989801784E+02 -0.21645803634E+03  0.26835076519E+03  0.37113212227E+03  0.12500000000E+03 0.  0.
</event>
<event>
 4    0  0.2193754E-002  0.1952544E+03  0.7546771E-02  0.1153806E+00
         21   -1    0    0  502  501  0.00000000000E+00  0.00000000000E+00  0.23522351252E+03  0.23522351252E+03  0.00000000000E+00 0. -1.
         21   -1    0    0  501  502 -0.00000000000E+00 -0.00000000000E+00 -0.16207676988E+03  0.16207676988E+03  0.00000000000E+00 0. -1.
         25    1    1    2    0    0 -0.10565471831E+03  0.92460749710E+02  0.90286995120E+02  0.20853932777E+03  0.12500000000E+03 0.  0.
         25    1    1    2    0    0  0.10565471831E+03 -0.92460749710E+02 -0.17140252482E+02  0.18876095463E+03  0.12500000000E+03 0.  0.
</event>
<event>
 4    0  0.2193754E-002  0.2750082E+03  0.7546771E-02  0.1098447E+00
         21   -1    0    0  502  501  0.00000000000E+00  0.00000000000E+00  0.24357237795E+03  0.24357237795E+03  0.00000000000E+00 0.  1.
         21   -1    0    0  501  502 -0.00000000000E+00 -0.00000000000E+00 -0.31050126684E+03  0.31050126684E+03  0.00000000000E+00 0.  1.
         25    1    1    2    0    0 -0.23101041487E+03 -0.41021036552E+01  0.48510827625E+02  0.26713468406E+03  0.12500000000E+03 0.  0.
         25    1    1    2    0    0  0.23101041487E+03  0.41021036552E+01 -0.11543971651E+03  0.28693896072E+03  0.12500000000E+03 0.  0.
</event>
<event>
 4    0  0.2193754E-002  0.2612750E+03  0.7546771E-02  0.1106380E+00
         21   -1    0    0  502  501  0.00000000000E+00  0.00000000000E+00  0.18691367172E+03  0.18691367172E+03  0.00000000000E+00 0.  1.
         21   -1    0    0  501  502 -0.00000000000E+00 -0.00000000000E+00 -0.36522020541E+03  0.36522020541E+03  0.00000000000E+00 0.  1.
         25    1    1    2    0    0 -0.42284078606E+02 -0.13438655048E+03 -0.28049079677E+03  0.33785762582E+03  0.12500000000E+03 0.  0.
         25    1    1    2    0    0  0.42284078606E+02  0.13438655048E+03  0.10218426307E+03  0.21427625131E+03  0.12500000000E+03 0.  0.
</event>
<event>
 4    0  0.2193754E-002  0.5241720E+03  0.7546771E-02  0.1007655E+00
         21   -1    0    0  502  501  0.00000000000E+00  0.00000000000E+00  0.20719868912E+04  0.20719868912E+04  0.00000000000E+00 0.  1.
         21   -1    0    0  501  502 -0.00000000000E+00 -0.00000000000E+00 -0.13260520803E+03  0.13260520803E+03  0.00000000000E+00 0.  1.
         25    1    1    2    0    0 -0.44937683957E+02  0.40694861310E+03  0.16058211977E+04  0.16619005048E+04  0.12500000000E+03 0.  0.
         25    1    1    2    0    0  0.44937683957E+02 -0.40694861310E+03  0.33356048552E+03  0.54269159441E+03  0.12500000000E+03 0.  0.
</event>
<event>
 4    0  0.2193754E-002  0.3406180E+03  0.7546771E-02  0.1066533E+00
         21   -1    0    0  502  501  0.00000000000E+00  0.00000000000E+00  0.13141319966E+03  0.13141319966E+03  0.00000000000E+00 0.  1.
         21   -1    0    0  501  502 -0.00000000000E+00 -0.00000000000E+00 -0.88286908258E+03  0.88286908258E+03  0.00000000000E+00 0.  1.
         25    1    1    2    0    0 -0.15223386043E+03  0.27048082050E+03 -0.28085162306E+03  0.43684969577E+03  0.12500000000E+03 0.  0.
         25    1    1    2    0    0  0.15223386043E+03 -0.27048082050E+03 -0.47060425986E+03  0.57743258647E+03  0.12500000000E+03 0.  0.
</event>
<event>
 4    0  0.2193754E-002  0.1762687E+03  0.7546771E-02  0.1171464E+00
         21   -1    0    0  502  501  0.00000000000E+00  0.00000000000E+00  0.18993398467E+03  0.18993398467E+03  0.00000000000E+00 0. -1.
         21   -1    0    0  501  502 -0.00000000000E+00 -0.00000000000E+00 -0.16358662432E+03  0.16358662432E+03  0.00000000000E+00 0. -1.
         25    1    1    2    0    0 -0.80582864619E+02  0.89088298751E+02  0.45126888699E+02  0.17914172916E+03  0.12500000000E+03 0.  0.
         25    1    1    2    0    0  0.80582864619E+02 -0.89088298751E+02 -0.18779528347E+02  0.17437887983E+03  0.12500000000E+03 0.  0.
</event>
<event>
 4    0  0.2193754E-002  0.2439211E+03  0.7546771E-02  0.1117208E+00
         21   -1    0    0  502  501  0.00000000000E+00  0.00000000000E+00  0.31635768078E+03  0.31635768078E+03  0.00000000000E+00 0. -1.
         21   -1    0    0  501  502 -0.00000000000E+00 -0.00000000000E+00 -0.18807038543E+03  0.18807038543E+03  0.00000000000E+00 0. -1.
         25    1    1    2    0    0 -0.12725425556E+02 -0.11768562026E+03  0.24282104463E+03  0.29765567589E+03  0.12500000000E+03 0.  0.
         25    1    1    2    0    0  0.12725425556E+02  0.11768562026E+03 -0.11453374928E+03  0.20677239032E+03  0.12500000000E+03 0.  0.
</event>
<event>
 4    0  0.2193754E-002  0.1474707E+03  0.7546771E-02  0.1203616E+00
         21   -1    0    0  502  501  0.00000000000E+00  0.00000000000E+00  0.25929119632E+03  0.25929119632E+03  0.00000000000E+00 0.  1.
         21   -1    0    0  501  502 -0.00000000000E+00 -0.00000000000E+00 -0.83873305507E+02  0.83873305507E+02  0.00000000000E+00 0.  1.
         25    1    1    2    0    0 -0.19727118568E+02 -0.38563821873E+02  0.16352671777E+03  0.21033857228E+03  0.12500000000E+03 0.  0.
         25    1    1    2    0    0  0.19727118568E+02  0.38563821873E+02  0.11891173047E+02  0.13282592955E+03  0.12500000000E+03 0.  0.
</event>
<event>
 4    0  0.2193754E-002  0.1656843E+03  0.7546771E-02  0.1182425E+00
         21   -1    0    0  502  501  0.00000000000E+00  0.00000000000E+00  0.34598533098E+03  0.34598533098E+03  0.00000000000E+00 0.  1.
         21   -1    0    0  501  502 -0.00000000000E+00 -0.00000000000E+00 -0.79342327514E+02  0.79342327514E+02  0.00000000000E+00 0.  1.
         25    1    1    2    0    0 -0.48795824216E+02 -0.95767405745E+02  0.15456231081E+03  0.22597994687E+03  0.12500000000E+03 0.  0.
         25    1    1    2    0    0  0.48795824216E+02  0.95767405745E+02  0.11208069265E+03  0.19934771162E+03  0.12500000000E+03 0.  0.
</event>
<event>
 4    0  0.2193754E-002  0.1773436E+03  0.7546771E-02  0.1170399E+00
         21   -1    0    0  502  501  0.00000000000E+00  0.00000000000E+00  0.77756998435E+02  0.77756998435E+02  0.00000000000E+00 0.  1.
         21   -1    0    0  501  502 -0.00000000000E+00 -0.00000000000E+00 -0.40447466469E+03  0.40447466469E+03  0.00000000000E+00 0.  1.
         25    1    1    2    0    0  0.49122966133E+02  0.38160556144E+02 -0.31202471191E+03  0.34183872614E+03  0.12500000000E+03 0.  0.
         25    1    1    2    0    0 -0.49122966133E+02 -0.38160556144E+02 -0.14692954341E+02  0.14039293698E+03  0.12500000000E+03 0.  0.
</event>
<event>
 4    0  0.2193754E-002  0.1898576E+03  0.7546771E-02  0.1158590E+00
         21   -1    0    0  502  501  0.00000000000E+00  0.00000000000E+00  0.58789712714E+03  0.58789712714E+03  0.00000000000E+00 0.  1.
         21   -1    0    0  501  502 -0.00000000000E+00 -0.00000000000E+00 -0.61313277589E+02  0.61313277589E+02  0.00000000000E+00 0.  1.
         25    1    1    2    0    0 -0.16424542032E+02  0.27660313585E+02  0.50134407385E+03  0.51769270703E+03  0.12500000000E+03 0.  0.
         25    1    1    2    0    0  0.16424542032E+02 -0.27660313585E+02  0.25239775694E+02  0.13151769769E+03  0.12500000000E+03 0.  0.
</event>
<event>
 4    0  0.2193754E-002  0.1933316E+03  0.7546771E-02  0.1155490E+00
         21   -1    0    0  502  501  0.00000000000E+00  0.00000000000E+00  0.42776204148E+02  0.42776204148E+02  0.00000000000E+00 0.  1.
         21   -1    0    0  501  502 -0.00000000000E+00 -0.00000000000E+00 -0.87378253895E+03  0.87378253895E+03  0.00000000000E+00 0.  1.
         25    1    1    2    0    0 -0.48145923004E+01 -0.14457430239E+03 -0.34732733938E+03  0.39646713595E+03  0.12500000000E+03 0.  0.
         25    1    1    2    0    0  0.48145923004E+01  0.14457430239E+03 -0.48367899542E+03  0.52009160715E+03  0.12500000000E+03 0.  0.
</event>
<event>
 4    0  0.2193754E-002  0.1767882E+03  0.7546771E-02  0.1170948E+00
         21   -1    0    0  502  501  0.00000000000E+00  0.00000000000E+00  0.24179148103E+03  0.24179148103E+03  0.00000000000E+00 0.  1.
         21   -1    0    0  501  502 -0.00000000000E+00 -0.00000000000E+00 -0.12926036364E+03  0.12926036364E+03  0.00000000000E+00 0.  1.
         25    1    1    2    0    0 -0.32947905932E+02  0.12043610853E+03  0.49742724103E+02  0.18354770319E+03  0.12500000000E+03 0.  0.
         25    1    1    2    0    0  0.32947905932E+02 -0.12043610853E+03  0.62788393280E+02  0.18750414149E+03  0.12500000000E+03 0.  0.
</event>
<event>
 4    0  0.2193754E-002  0.2607312E+03  0.7546771E-02  0.1106705E+00
         21   -1    0    0  502  501  0.00000000000E+00  0.00000000000E+00  0.82718369408E+03  0.82718369408E+03  0.00000000000E+00 0.  1.
         21   -1    0    0  501  502 -0.00000000000E+00 -0.00000000000E+00 -0.82183393215E+02  0.82183393215E+02  0.00000000000E+00 0. -1.
         25    1    1    2    0    0  0.81174169227E+02  0.16754395297E+03  0.60447886634E+03  0.64473244200E+03  0.12500000000E+03 0.  0.
         25    1    1    2    0    0 -0.81174169227E+02 -0.16754395297E+03  0.14052143453E+03  0.26463464529E+03  0.12500000000E+03 0.  0.
</event>
<event>
 4    0  0.2193754E-002  0.2261872E+03  0.7546771E-02  0.1129352E+00
         21   -1    0    0  502  501  0.00000000000E+00  0.00000000000E+00  0.29933838444E+03  0.29933838444E+03  0.00000000000E+00 0.  1.
         21   -1    0    0  501  502 -0.00000000000E+00 -0.00000000000E+00 -0.17091249619E+03  0.17091249619E+03  0.00000000000E+00 0.  1.
         25    1    1    2    0    0 -0.15718249468E+03  0.12259295595E+02 -0.43210157213E+02  0.20578810619E+03  0.12500000000E+03 0.  0.
         25    1    1    2    0    0  0.15718249468E+03 -0.12259295595E+02  0.17163604547E+03  0.26446277444E+03  0.12500000000E+03 0.  0.
</event>
<event>
 4    0  0.2193754E-002  0.1862924E+03  0.7546771E-02  0.1161848E+00
         21   -1    0    0  502  501  0.00000000000E+00  0.00000000000E+00  0.25013634173E+02  0.25013634173E+02  0.00000000000E+00 0.  1.
         21   -1    0    0  501  502 -0.00000000000E+00 -0.00000000000E+00 -0.13874382450E+04  0.13874382450E+04  0.00000000000E+00 0.  1.
         25    1    1    2    0    0  0.62090773807E+02  0.90963776846E+02 -0.36516864561E+03  0.40137614855E+03  0.12500000000E+03 0.  0.
         25    1    1    2    0    0 -0.62090773807E+02 -0.90963776846E+02 -0.99725596521E+03  0.10110757306E+04  0.12500000000E+03 0.  0.
</event>
<event>
 4    0  0.2193754E-002  0.2223967E+03  0.7546771E-02  0.1132109E+00
         21   -1    0    0  502  501  0.00000000000E+00  0.00000000000E+00  0.65044206318E+03  0.65044206318E+03  0.00000000000E+00 0. -1.
         21   -1    0    0  501  502 -0.00000000000E+00 -0.00000000000E+00 -0.76041011895E+02  0.76041011895E+02  0.00000000000E+00 0. -1.
         25    1    1    2    0    0  0.86769874986E+01 -0.34027265776E+02 -0.77099669346E+01  0.13006763056E+03  0.12500000000E+03 0.  0.
         25    1    1    2    0    0 -0.86769874986E+01  0.34027265776E+02  0.58211101822E+03  0.59641544452E+03  0.12500000000E+03 0.  0.
</event>
<event>
 4    0  0.2193754E-002  0.1659094E+03  0.7546771E-02  0.1182182E+00
         21   -1    0    0  502  501  0.00000000000E+00  0.00000000000E+00  0.60851997551E+02  0.60851997551E+02  0.00000000000E+00 0.  1.
         21   -1    0    0  501  502 -0.00000000000E+00 -0.00000000000E+00 -0.45234225195E+03  0.45234225195E+03  0.00000000000E+00 0.  1.
         25    1    1    2    0    0 -0.36075607233E+02  0.96780051236E+01 -0.37220882972E+02  0.13566689850E+03  0.12500000000E+03 0.  0.
         25    1    1    2    0    0  0.36075607233E+02 -0.96780051236E+01 -0.35426937143E+03  0.37752735100E+03  0.12500000000E+03 0.  0.
</event>
<event>
 4    0  0.2193754E-002  0.1761412E+03  0.7546771E-02  0.1171591E+00
         21   -1    0    0  502  501  0.00000000000E+00  0.00000000000E+00  0.22187564454E+02  0.22187564454E+02  0.00000000000E+00 0. -1.
         21   -1    0    0  501  502 -0.00000000000E+00 -0.00000000000E+00 -0.13983376812E+04  0.13983376812E+04  0.00000000000E+00 0. -1.
         25    1    1    2    0    0 -0.95014373164E+02 -0.64259210108E+02 -0.87907948605E+03  0.89530035183E+03  0.12500000000E+03 0.  0.
         25    1    1    2    0    0  0.95014373164E+02  0.64259210108E+02 -0.49707063068E+03  0.52522489381E+03  0.12500000000E+03 0.  0.
</event>
<event>
 4    0  0.2193754E-002  0.2072145E+03  0.7546771E-02  0.1143791E+00
         21   -1    0    0  502  501  0.00000000000E+00  0.00000000000E+00  0.41791014367E+03  0.41791014367E+03  0.00000000000E+00 0. -1.
         21   -1    0    0  501  502 -0.00000000000E+00 -0.00000000000E+00 -0.10274422973E+03  0.10274422973E+03  0.00000000000E+00 0. -1.
         25    1    1    2    0    0  0.15963814091E+03 -0.36806016816E+02  0.18493021489E+03  0.27688120790E+03  0.12500000000E+03 0.  0.
         25    1    1    2    0    0 -0.15963814091E+03  0.36806016816E+02  0.13023569905E+03  0.24377316549E+03  0.12500000000E+03 0.  0.
</event>
<event>
 4    0  0.2193754E-002  0.2603331E+03  0.7546771E-02  0.1106943E+00
         21   -1    0    0  502  501  0.00000000000E+00  0.00000000000E+00  0.14766204178E+04  0.14766204178E+04  0.00000000000E+00 0.  1.
         21   -1    0    0  501  502 -0.00000000000E+00 -0.00000000000E+00 -0.45897608224E+02  0.45897608224E+02  0.00000000000E+00 0.  1.
         25    1    1    2    0    0  0.10097267201E+03 -0.18899129843E+03  0.94626281202E+03  0.97823897939E+03  0.12500000000E+03 0.  0.
         25    1    1    2    0    0 -0.10097267201E+03  0.18899129843E+03  0.48445999751E+03  0.54427904660E+03  0.12500000000E+03 0.  0.
</event>
<event>
 4    0  0.2193754E-002  0.2540136E+03  0.7546771E-02  0.1110794E+00
         21   -1    0    0  502  501  0.00000000000E+00  0.00000000000E+00  0.47266182824E+03  0.47266182824E+03  0.00000000000E+00 0.  1.
         21   -1    0    0  501  502 -0.00000000000E+00 -0.00000000000E+00 -0.13650965018E+03  0.13650965018E+03  0.00000000000E+00 0.  1.
         25    1    1    2    0    0 -0.12755708764E+03  0.13280488694E+03  0.21267066207E+02  0.22357378359E+03  0.12500000000E+03 0.  0.
         25    1    1    2    0    0  0.12755708764E+03 -0.13280488694E+03  0.31488511185E+03  0.38559769484E+03  0.12500000000E+03 0.  0.
</event>
<event>
 4    0  0.2193754E-002  0.3327617E+03  0.7546771E-02  0.1069921E+00
         21   -1    0    0  502  501  0.00000000000E+00  0.00000000000E+00  0.23942591962E+03  0.23942591962E+03  0.00000000000E+00 0.  1.
         21   -1    0    0  501  502 -0.00000000000E+00 -0.00000000000E+00 -0.46248258268E+03  0.46248258268E+03  0.00000000000E+00 0.  1.
         25    1    1    2    0    0  0.40885107414E+02  0.22193613926E+02 -0.43305818325E+03  0.45313192183E+03  0.12500000000E+03 0.  0.
         25    1    1    2    0    0 -0.40885107414E+02 -0.22193613926E+02  0.21000152019E+03  0.24877658047E+03  0.12500000000E+03 0.  0.
</event>
<event>
 4    0  0.2193754E-002  0.2249162E+03  0.7546771E-02  0.1130270E+00
         21   -1    0    0  502  501  0.00000000000E+00  0.00000000000E+00  0.39949158160E+02  0.39949158160E+02  0.00000000000E+00 0. -1.
         21   -1    0    0  501  502 -0.00000000000E+00 -0.00000000000E+00 -0.12662921295E+04  0.12662921295E+04  0.00000000000E+00 0. -1.
         25    1    1    2    0    0  0.58370053520E+02 -0.16846874493E+03 -0.44958647999E+03  0.49954157400E+03  0.12500000000E+03 0.  0.
         25    1    1    2    0    0 -0.58370053520E+02  0.16846874493E+03 -0.77675649138E+03  0.80669971369E+03  0.12500000000E+03 0.  0.
</event>
<event>
 4    0  0.2193754E-002  0.6514959E+03  0.7546771E-02  0.9803976E-01
         21   -1    0    0  502  501  0.00000000000E+00  0.00000000000E+00  0.19042142778E+03  0.19042142778E+03  0.00000000000E+00 0. -1.
         21   -1    0    0  501  502 -0.00000000000E+00 -0.00000000000E+00 -0.22289870945E+04  0.22289870945E+04  0.00000000000E+00 0. -1.
         25    1    1    2    0    0 -0.10827613399E+03 -0.14798416911E+03  0.11807804407E+03  0.25137712702E+03  0.12500000000E+03 0.  0.
         25    1    1    2    0    0  0.10827613399E+03  0.14798416911E+03 -0.21566437108E+04  0.21680313952E+04  0.12500000000E+03 0.  0.
</event>
<event>
 4    0  0.2193754E-002  0.2889308E+03  0.7546771E-02  0.1090909E+00
         21   -1    0    0  502  501  0.00000000000E+00  0.00000000000E+00  0.78577247164E+03  0.78577247164E+03  0.00000000000E+00 0. -1.
         21   -1    0    0  501  502 -0.00000000000E+00 -0.00000000000E+00 -0.10624066228E+03  0.10624066228E+03  0.00000000000E+00 0. -1.
         25    1    1    2    0    0 -0.12891144948E+03  0.22145179333E+03  0.26741307928E+03  0.39088849247E+03  0.12500000000E+03 0.  0.
         25    1    1    2    0    0  0.12891144948E+03 -0.22145179333E+03  0.41211873008E+03  0.50112464144E+03  0.12500000000E+03 0.  0.
</event>
<event>
 4    0  0.2193754E-002  0.2176756E+03  0.7546771E-02  0.1135628E+00
         21   -1    0    0  502  501  0.00000000000E+00  0.00000000000E+00  0.44785702083E+03  0.44785702083E+03  0.00000000000E+00 0.  1.
         21   -1    0    0  501  502 -0.00000000000E+00 -0.00000000000E+00 -0.10579867531E+03  0.10579867531E+03  0.00000000000E+00 0.  1.
         25    1    1    2    0    0  0.14227609689E+03  0.15168093352E+01  0.30748502501E+03  0.36113270284E+03  0.12500000000E+03 0.  0.
         25    1    1    2    0    0 -0.14227609689E+03 -0.15168093352E+01  0.34573320514E+02  0.19252299330E+03  0.12500000000E+03 0.  0.
</event>
<event>
 4    0  0.2193754E-002  0.3291338E+03  0.7546771E-02  0.1071521E+00
         21   -1    0    0  502  501  0.00000000000E+00  0.00000000000E+00  0.32676075000E+03  0.32676075000E+03  0.00000000000E+00 0.  1.
         21   -1    0    0  501  502 -0.00000000000E+00 -0.00000000000E+00 -0.33152402386E+03  0.33152402386E+03  0.00000000000E+00 0.  1.
         25    1    1    2    0    0 -0.15126932854E+03  0.18554091185E+03 -0.19052533820E+03  0.33050377339E+03  0.12500000000E+03 0.  0.
         25    1    1    2    0    0  0.15126932854E+03 -0.18554091185E+03  0.18576206433E+03  0.32778100048E+03  0.12500000000E+03 0.  0.
</event>
<event>
 4    0  0.2193754E-002  0.2056151E+03  0.7546771E-02  0.1145086E+00
         21   -1    0    0  502  501  0.00000000000E+00  0.00000000000E+00  0.57810473752E+03  0.57810473752E+03  0.00000000000E+00 0.  1.
         21   -1    0    0  501  502 -0.00000000000E+00 -0.00000000000E+00 -0.73131336565E+02  0.73131336565E+02  0.00000000000E+00 0.  1.
         25    1    1    2    0    0  0.15203704340E+03 -0.50160339067E+01  0.34633791528E+03  0.39839098223E+03  0.12500000000E+03 0.  0.
         25    1    1    2    0    0 -0.15203704340E+03  0.50160339067E+01  0.15863548567E+03  0.25284509185E+03  0.12500000000E+03 0.  0.
</event>
<event>
 4    0  0.2193754E-002  0.1770214E+03  0.7546771E-02  0.1170717E+00
         21   -1    0    0  502  501  0.00000000000E+00  0.00000000000E+00  0.11229423906E+03  0.11229423906E+03  0.00000000000E+00 0. -1.
         21   -1    0    0  501  502 -0.00000000000E+00 -0.00000000000E+00 -0.27905763067E+03  0.27905763067E+03  0.00000000000E+00 0. -1.
         25    1    1    2    0    0  0.10774803289E+03  0.39375895220E+02 -0.13921669306E+03  0.21946841992E+03  0.12500000000E+03 0.  0.
         25    1    1    2    0    0 -0.10774803289E+03 -0.39375895220E+02 -0.27546698561E+02  0.17188344981E+03  0.12500000000E+03 0.  0.
</event>
<event>
 4    0  0.2193754E-002  0.1800279E+03  0.7546771E-02  0.1167776E+00
         21   -1    0    0  502  501  0.00000000000E+00  0.00000000000E+00  0.33779756130E+02  0.33779756130E+02  0.00000000000E+00 0. -1.
         21   -1    0    0  501  502 -0.00000000000E+00 -0.00000000000E+00 -0.95945150293E+03  0.95945150293E+03  0.00000000000E+00 0. -1.
         25    1    1    2    0    0  0.50114312940E+01  0.12759414555E+03 -0.40242067941E+03  0.44030987229E+03  0.12500000000E+03 0.  0.
         25    1    1    2    0    0 -0.50114312940E+01 -0.12759414555E+03 -0.52325106739E+03  0.55292138677E+03  0.12500000000E+03 0.  0.
</event>
<event>
 4    0  0.2193754E-002  0.2183153E+03  0.7546771E-02  0.1135145E+00
         21   -1    0    0  502  501  0.00000000000E+00  0.00000000000E+00  0.29733112777E+03  0.29733112777E+03  0.00000000000E+00 0. -1.
         21   -1    0    0  501  502 -0.00000000000E+00 -0.00000000000E+00 -0.16029787746E+03  0.16029787746E+03  0.00000000000E+00 0. -1.
         25    1    1    2    0    0  0.44330774736E+02  0.68096167008E+01  0.25012701580E+03  0.28319624379E+03  0.12500000000E+03 0.  0.
         25    1    1    2    0    0 -0.44330774736E+02 -0.68096167008E+01 -0.11309376549E+03  0.17443276143E+03  0.12500000000E+03 0.  0.
</event>
<event>
 4    0  0.2193754E-002  0.2000115E+03  0.7546771E-02  0.1149729E+00
         21   -1    0    0  502  501  0.00000000000E+00  0.00000000000E+00  0.61386218572E+03  0.61386218572E+03  0.00000000000E+00 0. -1.
         21   -1    0    0  501  502 -0.00000000000E+00 -0.00000000000E+00 -0.65168671947E+02  0.65168671947E+02  0.00000000000E+00 0. -1.
         25    1    1    2    0    0 -0.14688800364E+03 -0.40814404495E+02  0.21709153319E+03  0.29325012363E+03  0.12500000000E+03 0.  0.
         25    1    1    2    0    0  0.14688800364E+03  0.40814404495E+02  0.33160198058E+03  0.38578073403E+03  0.12500000000E+03 0.  0.
</event>
<event>
 4    0  0.2193754E-002  0.2196647E+03  0.7546771E-02  0.1134133E+00
         21   -1    0    0  502  501  0.00000000000E+00  0.00000000000E+00  0.72366991431E+02  0.72366991431E+02  0.00000000000E+00 0. -1.
         21   -1    0    0  501  502 -0.00000000000E+00 -0.00000000000E+00 -0.66677588970E+03  0.66677588970E+03  0.00000000000E+00 0. -1.
         25    1    1    2    0    0  0.11581651965E+03  0.84596442535E+01 -0.64428607438E+02  0.18237619708E+03  0.12500000000E+03 0.  0.
         25    1    1    2    0    0 -0.11581651965E+03 -0.84596442535E+01 -0.52998029083E+03  0.55676668405E+03  0.12500000000E+03 0.  0.
</event>
<event>
 4    0  0.2193754E-002  0.1569797E+03  0.7546771E-02  0.1192149E+00
         21   -1    0    0  502  501  0.00000000000E+00  0.00000000000E+00  0.85967030205E+02  0.85967030205E+02  0.00000000000E+00 0.  1.
         21   -1    0    0  501  502 -0.00000000000E+00 -0.00000000000E+00 -0.28665216611E+03  0.28665216611E+03  0.00000000000E+00 0.  1.
         25    1    1    2    0    0 -0.16270543310E+02  0.64702583840E+02 -0.18054406156E+03  0.22950449473E+03  0.12500000000E+03 0.  0.
         25    1    1    2    0    0  0.16270543310E+02 -0.64702583840E+02 -0.20141074346E+02  0.14311470159E+03  0.12500000000E+03 0.  0.
</event>
<event>
 4    0  0.2193754E-002  0.2169290E+03  0.7546771E-02  0.1136194E+00
         21   -1    0    0  502  501  0.00000000000E+00  0.00000000000E+00  0.29882616250E+04  0.29882616250E+04  0.00000000000E+00 0. -1.
         21   -1    0    0  501  502 -0.00000000000E+00 -0.00000000000E+00 -0.15747681684E+02  0.15747681684E+02  0.00000000000E+00 0. -1.
         25    1    1    2    0    0  0.83305292879E+02  0.14163357928E+03  0.10252370658E+04  0.10458182843E+04  0.12500000000E+03 0.  0.
         25    1    1    2    0    0 -0.83305292879E+02 -0.14163357928E+03  0.19472768775E+04  0.19581910224E+04  0.12500000000E+03 0.  0.
</event>
<event>
 4    0  0.2193754E-002  0.2196989E+03  0.7546771E-02  0.1134108E+00
         21   -1    0    0  502  501  0.00000000000E+00  0.00000000000E+00  0.46514852659E+02  0.46514852659E+02  0.00000000000E+00 0. -1.
         21   -1    0    0  501  502 -0.00000000000E+00 -0.00000000000E+00 -0.10376815050E+04  0.10376815050E+04  0.00000000000E+00 0. -1.
         25    1    1    2    0    0 -0.17804190344E+02 -0.11805810365E+03 -0.83017576295E+03  0.84798083847E+03  0.12500000000E+03 0.  0.
         25    1    1    2    0    0  0.17804190344E+02  0.11805810365E+03 -0.16099088935E+03  0.23621551914E+03  0.12500000000E+03 0.  0.
</event>
<event>
 4    0  0.2193754E-002  0.2569254E+03  0.7546771E-02  0.1109005E+00
         21   -1    0    0  502  501  0.00000000000E+00  0.00000000000E+00  0.69192523604E+03  0.69192523604E+03  0.00000000000E+00 0. -1.
         21   -1    0    0  501  502 -0.00000000000E+00 -0.00000000000E+00 -0.95401432910E+02  0.95401432910E+02  0.00000000000E+00 0. -1.
         25    1    1    2    0    0 -0.15110166986E+03  0.89125847303E+02  0.83695077648E+02  0.23109521266E+03  0.12500000000E+03 0.  0.
         25    1    1    2    0    0  0.15110166986E+03 -0.89125847303E+02  0.51282872548E+03  0.55623145630E+03  0.12500000000E+03 0.  0.
</event>
<event>
 4    0  0.2193754E-002  0.2263312E+03  0.7546771E-02  0.1129249E+00
         21   -1    0    0  502  501  0.00000000000E+00  0.00000000000E+00  0.27088634110E+02  0.27088634110E+02  0.00000000000E+00 0.  1.
         21   -1    0    0  501  502 -0.00000000000E+00 -0.00000000000E+00 -0.18910437965E+04  0.18910437965E+04  0.00000000000E+00 0.  1.
         25    1    1    2    0    0 -0.75621558619E+02 -0.14533032009E+03 -0.53534552371E+03  0.57363695124E+03  0.12500000000E+03 0.  0.
         25    1    1    2    0    0  0.75621558619E+02  0.14533032009E+03 -0.13286096387E+04  0.13444954794E+04  0.12500000000E+03 0.  0.
</event>
<event>
 4    0  0.2193754E-002  0.1959175E+03  0.7546771E-02  0.1153230E+00
         21   -1    0    0  502  501  0.00000000000E+00  0.00000000000E+00  0.16358376041E+02  0.16358376041E+02  0.00000000000E+00 0.  1.
         21   -1    0    0  501  502 -0.00000000000E+00 -0.00000000000E+00 -0.23464233339E+04  0.23464233339E+04  0.00000000000E+00 0.  1.
         25    1    1    2    0    0  0.80328727925E+02 -0.12571663992E+02 -0.19312969242E+04  0.19370450590E+04  0.12500000000E+03 0.  0.
         25    1    1    2    0    0 -0.80328727925E+02  0.12571663992E+02 -0.39876803365E+03  0.42573665091E+03  0.12500000000E+03 0.  0.
</event>
<event>
 4    0  0.2193754E-002  0.1857010E+03  0.7546771E-02  0.1162397E+00
         21   -1    0    0  502  501  0.00000000000E+00  0.00000000000E+00  0.23607350591E+02  0.23607350591E+02  0.00000000000E+00 0. -1.
         21   -1    0    0  501  502 -0.00000000000E+00 -0.00000000000E+00 -0.14607680964E+04  0.14607680964E+04  0.00000000000E+00 0. -1.
         25    1    1    2    0    0 -0.10571439551E+03 -0.50561772094E+02 -0.43238232460E+03  0.46509300236E+03  0.12500000000E+03 0.  0.
         25    1    1    2    0    0  0.10571439551E+03  0.50561772094E+02 -0.10047784212E+04  0.10192824446E+04  0.12500000000E+03 0.  0.
</event>
<event>
 4    0  0.2193754E-002  0.2399726E+03  0.7546771E-02  0.1119811E+00
         21   -1    0    0  502  501  0.00000000000E+00  0.00000000000E+00  0.22183855803E+02  0.22183855803E+02  0.00000000000E+00 0.  1.
         21   -1    0    0  501  502 -0.00000000000E+00 -0.00000000000E+00 -0.25958890355E+04  0.25958890355E+04  0.00000000000E+00 0.  1.
         25    1    1    2    0    0 -0.93485422539E+01 -0.12074794147E+03 -0.21880639886E+04  0.21949752798E+04  0.12500000000E+03 0.  0.
         25    1    1    2    0    0  0.93485422539E+01  0.12074794147E+03 -0.38564119110E+03  0.42309761153E+03  0.12500000000E+03 0.  0.
</event>
<event>
 4    0  0.2193754E-002  0.1553565E+03  0.7546771E-02  0.1194041E+00
         21   -1    0    0  502  501  0.00000000000E+00  0.00000000000E+00  0.60048037408E+02  0.60048037408E+02  0.00000000000E+00 0.  1.
         21   -1    0    0  501  502 -0.00000000000E+00 -0.00000000000E+00 -0.40193895456E+03  0.40193895456E+03  0.00000000000E+00 0.  1.
         25    1    1    2    0    0 -0.29385984589E+02 -0.64305210291E+02 -0.82831561927E+02  0.16578529432E+03  0.12500000000E+03 0.  0.
         25    1    1    2    0    0  0.29385984589E+02  0.64305210291E+02 -0.25905935523E+03  0.29620169765E+03  0.12500000000E+03 0.  0.
</event>
<event>
 4    0  0.2193754E-002  0.1968379E+03  0.7546771E-02  0.1152435E+00
         21   -1    0    0  502  501  0.00000000000E+00  0.00000000000E+00  0.10212241246E+03  0.10212241246E+03  0.00000000000E+00 0. -1.
         21   -1    0    0  501  502 -0.00000000000E+00 -0.00000000000E+00 -0.37939905329E+03  0.37939905329E+03  0.00000000000E+00 0. -1.
         25    1    1    2    0    0 -0.51340142584E+02  0.10942654795E+03 -0.25147389452E+03  0.30573534186E+03  0.12500000000E+03 0.  0.
         25    1    1    2    0    0  0.51340142584E+02 -0.10942654795E+03 -0.25802746307E+02  0.17578612389E+03  0.12500000000E+03 0.  0.
</event>
<event>
 4    0  0.2193754E-002  0.1873229E+03  0.7546771E-02  0.1160898E+00
         21   -1    0    0  502  501  0.00000000000E+00  0.00000000000E+00  0.68655916488E+02  0.68655916488E+02  0.00000000000E+00 0. -1.
         21   -1    0    0  501  502 -0.00000000000E+00 -0.00000000000E+00 -0.51109758431E+03  0.51109758431E+03  0.00000000000E+00 0. -1.
         25    1    1    2    0    0  0.79841150004E+01 -0.12642554243E+03 -0.13075386513E+03  0.22083644879E+03  0.12500000000E+03 0.  0.
         25    1    1    2    0    0 -0.79841150004E+01  0.12642554243E+03 -0.31168780270E+03  0.35891705201E+03  0.12500000000E+03 0.  0.
</event>
<event>
 4    0  0.2193754E-002  0.2426801E+03  0.7546771E-02  0.1118020E+00
         21   -1    0    0  502  501  0.00000000000E+00  0.00000000000E+00  0.28687605643E+04  0.28687605643E+04  0.00000000000E+00 0. -1.
         21   -1    0    0  501  502 -0.00000000000E+00 -0.00000000000E+00 -0.20529290710E+02  0.20529290710E+02  0.00000000000E+00 0. -1.
         25    1    1    2    0    0  0.47218400804E+01 -0.40230814236E+02  0.20955625933E+03  0.24734518393E+03  0.12500000000E+03 0.  0.
         25    1    1    2    0    0 -0.47218400804E+01  0.40230814236E+02  0.26386750142E+04  0.26419446710E+04  0.12500000000E+03 0.  0.
</event>
<event>
 4    0  0.2193754E-002  0.2231233E+03  0.7546771E-02  0.1131576E+00
         21   -1    0    0  502  501  0.00000000000E+00  0.00000000000E+00  0.12327245045E+04  0.12327245045E+04  0.00000000000E+00 0.  1.
         21   -1    0    0  501  502 -0.00000000000E+00 -0.00000000000E+00 -0.40385337773E+02  0.40385337773E+02  0.00000000000E+00 0.  1.
         25    1    1    2    0    0  0.62218924554E+02 -0.44360105889E+02  0.10762759792E+04  0.10862016373E+04  0.12500000000E+03 0.  0.
         25    1    1    2    0    0 -0.62218924554E+02  0.44360105889E+02  0.11606318751E+03  0.18690820491E+03  0.12500000000E+03 0.  0.
</event>
<event>
 4    0  0.2193754E-002  0.2333455E+03  0.7546771E-02  0.1124307E+00
         21   -1    0    0  502  501  0.00000000000E+00  0.00000000000E+00  0.16310971334E+04  0.16310971334E+04  0.00000000000E+00 0. -1.
         21   -1    0    0  501  502 -0.00000000000E+00 -0.00000000000E+00 -0.33382502165E+02  0.33382502165E+02  0.00000000000E+00 0. -1.
         25    1    1    2    0    0  0.12097406571E+02 -0.17015621280E+03  0.11505859893E+04  0.11698600783E+04  0.12500000000E+03 0.  0.
         25    1    1    2    0    0 -0.12097406571E+02  0.17015621280E+03  0.44712864194E+03  0.49461955728E+03  0.12500000000E+03 0.  0.
</event>
<event>
 4    0  0.2193754E-002  0.2746496E+03  0.7546771E-02  0.1098648E+00
         21   -1    0    0  502  501  0.00000000000E+00  0.00000000000E+00  0.28468001560E+03  0.28468001560E+03  0.00000000000E+00 0.  1.
         21   -1    0    0  501  502 -0.00000000000E+00 -0.00000000000E+00 -0.26497258854E+03  0.26497258854E+03  0.00000000000E+00 0.  1.
         25    1    1    2    0    0 -0.19183822852E+03 -0.10237160032E+03  0.12184332422E+03  0.27884161477E+03  0.12500000000E+03 0.  0.
         25    1    1    2    0    0  0.19183822852E+03  0.10237160032E+03 -0.10213589716E+03  0.27081098937E+03  0.12500000000E+03 0.  0.
</event>
<event>
 4    0  0.2193754E-002  0.1725896E+03  0.7546771E-02  0.1175174E+00
         21   -1    0    0  502  501  0.00000000000E+00  0.00000000000E+00  0.19983412186E+02  0.19983412186E+02  0.00000000000E+00 0. -1.
         21   -1    0    0  501  502 -0.00000000000E+00 -0.00000000000E+00 -0.14905943806E+04  0.14905943806E+04  0.00000000000E+00 0. -1.
         25    1    1    2    0    0 -0.45794196582E+02  0.78784159564E+02 -0.40035756356E+03  0.42920301832E+03  0.12500000000E+03 0.  0.
         25    1    1    2    0    0  0.45794196582E+02 -0.78784159564E+02 -0.10702534049E+04  0.10813747745E+04  0.12500000000E+03 0.  0.
</event>
<event>
 4    0  0.2193754E-002  0.2395639E+03  0.7546771E-02  0.1120084E+00
         21   -1    0    0  502  501  0.00000000000E+00  0.00000000000E+00  0.76753601627E+03  0.76753601627E+03  0.00000000000E+00 0.  1.
         21   -1    0    0  501  502 -0.00000000000E+00 -0.00000000000E+00 -0.74772884825E+02  0.74772884825E+02  0.00000000000E+00 0.  1.
         25    1    1    2    0    0 -0.13561611882E+03 -0.15262075246E+03  0.33055402126E+03  0.40813697056E+03  0.12500000000E+03 0.  0.
         25    1    1    2    0    0  0.13561611882E+03  0.15262075246E+03  0.36220911018E+03  0.43417193053E+03  0.12500000000E+03 0.  0.
</event>
<event>
 4    0  0.2193754E-002  0.2588970E+03  0.7546771E-02  0.1107808E+00
         21   -1    0    0  502  501  0.00000000000E+00  0.00000000000E+00  0.16101681755E+03  0.16101681755E+03  0.00000000000E+00 0. -1.
         21   -1    0    0  501  502 -0.00000000000E+00 -0.00000000000E+00 -0.41627729465E+03  0.41627729465E+03  0.00000000000E+00 0. -1.
         25    1    1    2    0    0  0.21313332418E+03 -0.97471744144E+01 -0.21313615398E+03  0.32645496078E+03  0.12500000000E+03 0.  0.
         25    1    1    2    0    0 -0.21313332418E+03  0.97471744144E+01 -0.42124323116E+02  0.25083915141E+03  0.12500000000E+03 0.  0.
</event>
<event>
 4    0  0.2193754E-002  0.5243492E+03  0.7546771E-02  0.1007612E+00
         21   -1    0    0  502  501  0.00000000000E+00  0.00000000000E+00  0.41074898034E+03  0.41074898034E+03  0.00000000000E+00 0.  1.
         21   -1    0    0  501  502 -0.00000000000E+00 -0.00000000000E+00 -0.66936765621E+03  0.66936765621E+03  0.00000000000E+00 0.  1.
         25    1    1    2    0    0  0.24011985458E+03 -0.44849621270E+03 -0.10603397002E+03  0.53448536011E+03  0.12500000000E+03 0.  0.
         25    1    1    2    0    0 -0.24011985458E+03  0.44849621270E+03 -0.15258470584E+03  0.54563127644E+03  0.12500000000E+03 0.  0.
</event>
<event>
 4    0  0.2193754E-002  0.3069939E+03  0.7546771E-02  0.1081796E+00
         21   -1    0    0  502  501  0.00000000000E+00  0.00000000000E+00  0.14018829290E+03  0.14018829290E+03  0.00000000000E+00 0. -1.
         21   -1    0    0  501  502 -0.00000000000E+00 -0.00000000000E+00 -0.67227617971E+03  0.67227617971E+03  0.00000000000E+00 0. -1.
         25    1    1    2    0    0  0.13540219057E+03  0.19005739913E+03 -0.60343518510E+02  0.27151778652E+03  0.12500000000E+03 0.  0.
         25    1    1    2    0    0 -0.13540219057E+03 -0.19005739913E+03 -0.47174436830E+03  0.54094668609E+03  0.12500000000E+03 0.  0.
</event>
<event>
 4    0  0.2193754E-002  0.3045723E+03  0.7546771E-02  0.1082977E+00
         21   -1    0    0  502  501  0.00000000000E+00  0.00000000000E+00  0.38980302592E+02  0.38980302592E+02  0.00000000000E+00 0. -1.
         21   -1    0    0  501  502 -0.00000000000E+00 -0.00000000000E+00 -0.23797737495E+04  0.23797737495E+04  0.00000000000E+00 0. -1.
         25    1    1    2    0    0 -0.68504567247E+02  0.96656434804E+02 -0.17292732939E+03  0.24405778695E+03  0.12500000000E+03 0.  0.
         25    1    1    2    0    0  0.68504567247E+02 -0.96656434804E+02 -0.21678661176E+04  0.21746962652E+04  0.12500000000E+03 0.  0.
</event>
<event>
 4    0  0.2193754E-002  0.2081057E+03  0.7546771E-02  0.1143075E+00
         21   -1    0    0  502  501  0.00000000000E+00  0.00000000000E+00  0.15999757618E+04  0.15999757618E+04  0.00000000000E+00 0.  1.
         21   -1    0    0  501  502 -0.00000000000E+00 -0.00000000000E+00 -0.27067904536E+02  0.27067904536E+02  0.00000000000E+00 0.  1.
         25    1    1    2    0    0 -0.10583840182E+03  0.12158281079E+03  0.94757856264E+03  0.96928544792E+03  0.12500000000E+03 0.  0.
         25    1    1    2    0    0  0.10583840182E+03 -0.12158281079E+03  0.62532929463E+03  0.65775821842E+03  0.12500000000E+03 0.  0.
</event>
<event>
 4    0  0.2193754E-002  0.1852681E+03  0.7546771E-02  0.1162800E+00
         21   -1    0    0  502  501  0.00000000000E+00  0.00000000000E+00  0.43479153972E+02  0.43479153972E+02  0.00000000000E+00 0.  1.
         21   -1    0    0  501  502 -0.00000000000E+00 -0.00000000000E+00 -0.78944168182E+03  0.78944168182E+03  0.00000000000E+00 0.  1.
         25    1    1    2    0    0  0.10169795559E+03 -0.56636306993E+02 -0.21167943620E+03  0.27199876681E+03  0.12500000000E+03 0.  0.
         25    1    1    2    0    0 -0.10169795559E+03  0.56636306993E+02 -0.53428309165E+03  0.56092206898E+03  0.12500000000E+03 0.  0.
</event>
<event>
 4    0  0.2193754E-002  0.2210561E+03  0.7546771E-02  0.1133098E+00
         21   -1    0    0  502  501  0.00000000000E+00  0.00000000000E+00  0.82754673366E+03  0.82754673366E+03  0.00000000000E+00 0.  1.
         21   -1    0    0  501  502 -0.00000000000E+00 -0.00000000000E+00 -0.59048966603E+02  0.59048966603E+02  0.00000000000E+00 0.  1.
         25    1    1    2    0    0  0.17788775987E+03 -0.39856108587E+02  0.37850116760E+03  0.43831575191E+03  0.12500000000E+03 0.  0.
         25    1    1    2    0    0 -0.17788775987E+03  0.39856108587E+02  0.38999659946E+03  0.44827994835E+03  0.12500000000E+03 0.  0.
</event>
<event>
 4    0  0.2193754E-002  0.2127869E+03  0.7546771E-02  0.1139378E+00
         21   -1    0    0  502  501  0.00000000000E+00  0.00000000000E+00  0.14051680501E+03  0.14051680501E+03  0.00000000000E+00 0. -1.
         21   -1    0    0  501  502 -0.00000000000E+00 -0.00000000000E+00 -0.32222678142E+03  0.32222678142E+03  0.00000000000E+00 0. -1.
         25    1    1    2    0    0 -0.48159688982E+02 -0.12053046632E+03 -0.21390390294E+03  0.27969059449E+03  0.12500000000E+03 0.  0.
         25    1    1    2    0    0  0.48159688982E+02  0.12053046632E+03  0.32193926532E+02  0.18305299194E+03  0.12500000000E+03 0.  0.
</event>
<event>
 4    0  0.2193754E-002  0.1503410E+03  0.7546771E-02  0.1200055E+00
         21   -1    0    0  502  501  0.00000000000E+00  0.00000000000E+00  0.28604881777E+03  0.28604881777E+03  0.00000000000E+00 0.  1.
         21   -1    0    0  501  502 -0.00000000000E+00 -0.00000000000E+00 -0.79015956933E+02  0.79015956933E+02  0.00000000000E+00 0.  1.
         25    1    1    2    0    0 -0.10573048239E+02  0.67636917630E+02  0.45404736165E+02  0.14957650899E+03  0.12500000000E+03 0.  0.
         25    1    1    2    0    0  0.10573048239E+02 -0.67636917630E+02  0.16162812468E+03  0.21548826572E+03  0.12500000000E+03 0.  0.
</event>
<event>
 4    0  0.2193754E-002  0.2072673E+03  0.7546771E-02  0.1143748E+00
         21   -1    0    0  502  501  0.00000000000E+00  0.00000000000E+00  0.12173084260E+03  0.12173084260E+03  0.00000000000E+00 0. -1.
         21   -1    0    0  501  502 -0.00000000000E+00 -0.00000000000E+00 -0.35290751036E+03  0.35290751036E+03  0.00000000000E+00 0. -1.
         25    1    1    2    0    0  0.11715387216E+03 -0.51439927791E+02 -0.23547732516E+03  0.29571213468E+03  0.12500000000E+03 0.  0.
         25    1    1    2    0    0 -0.11715387216E+03  0.51439927791E+02  0.43006574050E+01  0.17892621828E+03  0.12500000000E+03 0.  0.
</event>
<event>
 4    0  0.2193754E-002  0.1938639E+03  0.7546771E-02  0.1155022E+00
         21   -1    0    0  502  501  0.00000000000E+00  0.00000000000E+00  0.26741455925E+03  0.26741455925E+03  0.00000000000E+00 0.  1.
         21   -1    0    0  501  502 -0.00000000000E+00 -0.00000000000E+00 -0.14054284146E+03  0.14054284146E+03  0.00000000000E+00 0.  1.
         25    1    1    2    0    0 -0.31952385127E+02  0.14386207108E+03  0.47103352685E+02  0.19889941238E+03  0.12500000000E+03 0.  0.
         25    1    1    2    0    0  0.31952385127E+02 -0.14386207108E+03  0.79768365098E+02  0.20905798832E+03  0.12500000000E+03 0.  0.
</event>
<event>
 4    0  0.2193754E-002  0.1908328E+03  0.7546771E-02  0.1157712E+00
         21   -1    0    0  502  501  0.00000000000E+00  0.00000000000E+00  0.19808264936E+03  0.19808264936E+03  0.00000000000E+00 0.  1.
         21   -1    0    0  501  502 -0.00000000000E+00 -0.00000000000E+00 -0.18384830517E+03  0.18384830517E+03  0.00000000000E+00 0.  1.
         25    1    1    2    0    0 -0.13794573025E+03 -0.40668654768E+02  0.17574096966E+02  0.19135520076E+03  0.12500000000E+03 0.  0.
         25    1    1    2    0    0  0.13794573025E+03  0.40668654768E+02 -0.33397527785E+01  0.19057575377E+03  0.12500000000E+03 0.  0.
</event>
<event>
 4    0  0.2193754E-002  0.1948221E+03  0.7546771E-02  0.1154183E+00
         21   -1    0    0  502  501  0.00000000000E+00  0.00000000000E+00  0.14925689365E+03  0.14925689365E+03  0.00000000000E+00 0.  1.
         21   -1    0    0  501  502 -0.00000000000E+00 -0.00000000000E+00 -0.25429750910E+03  0.25429750910E+03  0.00000000000E+00 0.  1.
         25    1    1    2    0    0  0.35732116924E+02  0.40013979141E+01 -0.20274268531E+03  0.24087837556E+03  0.12500000000E+03 0.  0.
         25    1    1    2    0    0 -0.35732116924E+02 -0.40013979141E+01  0.97702069863E+02  0.16267602718E+03  0.12500000000E+03 0.  0.
</event>
<event>
 4    0  0.2193754E-002  0.2299708E+03  0.7546771E-02  0.1126660E+00
         21   -1    0    0  502  501  0.00000000000E+00  0.00000000000E+00  0.41504788527E+03  0.41504788527E+03  0.00000000000E+00 0.  1.
         21   -1    0    0  501  502 -0.00000000000E+00 -0.00000000000E+00 -0.12742283555E+03  0.12742283555E+03  0.00000000000E+00 0.  1.
         25    1    1    2    0    0  0.66781826181E+02 -0.90298287823E+02  0.32897982109E+03  0.36941347536E+03  0.12500000000E+03 0.  0.
         25    1    1    2    0    0 -0.66781826181E+02  0.90298287823E+02 -0.41354771370E+02  0.17305724546E+03  0.12500000000E+03 0.  0.
</event>
<event>
 4    0  0.2193754E-002  0.1854454E+03  0.7546771E-02  0.1162635E+00
         21   -1    0    0  502  501  0.00000000000E+00  0.00000000000E+00  0.64214762973E+03  0.64214762973E+03  0.00000000000E+00 0. -1.
         21   -1    0    0  501  502 -0.00000000000E+00 -0.00000000000E+00 -0.53554656585E+02  0.53554656585E+02  0.00000000000E+00 0. -1.
         25    1    1    2    0    0  0.13249124672E+02  0.10758742180E+03  0.45139523868E+03  0.48076319965E+03  0.12500000000E+03 0.  0.
         25    1    1    2    0    0 -0.13249124672E+02 -0.10758742180E+03  0.13719773447E+03  0.21493908667E+03  0.12500000000E+03 0.  0.
</event>
<event>
 4    0  0.2193754E-002  0.3863680E+03  0.7546771E-02  0.1048605E+00
         21   -1    0    0  502  501  0.00000000000E+00  0.00000000000E+00  0.23330856143E+03  0.23330856143E+03  0.00000000000E+00 0.  1.
         21   -1    0    0  501  502 -0.00000000000E+00 -0.00000000000E+00 -0.63984040104E+03  0.63984040104E+03  0.00000000000E+00 0.  1.
         25    1    1    2    0    0 -0.26723940606E+03  0.14511527284E+03 -0.43256368819E+03  0.54333386320E+03  0.12500000000E+03 0.  0.
         25    1    1    2    0    0  0.26723940606E+03 -0.14511527284E+03  0.26031848574E+02  0.32981509926E+03  0.12500000000E+03 0.  0.
</event>
<event>
 4    0  0.2193754E-002  0.2940099E+03  0.7546771E-02  0.1088274E+00
         21   -1    0    0  502  501  0.00000000000E+00  0.00000000000E+00  0.59274738461E+03  0.59274738461E+03  0.00000000000E+00 0. -1.
         21   -1    0    0  501  502 -0.00000000000E+00 -0.00000000000E+00 -0.14583243985E+03  0.14583243985E+03  0.00000000000E+00 0. -1.
         25    1    1    2    0    0 -0.26560011155E+03  0.16500878134E+02  0.22214067237E+03  0.36849311603E+03  0.12500000000E+03 0.  0.
         25    1    1    2    0    0  0.26560011155E+03 -0.16500878134E+02  0.22477427238E+03  0.37008670844E+03  0.12500000000E+03 0.  0.
</event>
<event>
 4    0  0.2193754E-002  0.2302843E+03  0.7546771E-02  0.1126440E+00
         21   -1    0    0  502  501  0.00000000000E+00  0.00000000000E+00  0.15740092007E+04  0.15740092007E+04  0.00000000000E+00 0. -1.
         21   -1    0    0  501  502 -0.00000000000E+00 -0.00000000000E+00 -0.33691577284E+02  0.33691577284E+02  0.00000000000E+00 0. -1.
         25    1    1    2    0    0 -0.11320852139E+03  0.14337596964E+03  0.54847916483E+03  0.59146194488E+03  0.12500000000E+03 0.  0.
         25    1    1    2    0    0  0.11320852139E+03 -0.14337596964E+03  0.99183845859E+03  0.10162388331E+04  0.12500000000E+03 0.  0.
</event>
<event>
 4    0  0.2193754E-002  0.1969580E+03  0.7546771E-02  0.1152331E+00
         21   -1    0    0  502  501  0.00000000000E+00  0.00000000000E+00  0.13784473524E+03  0.13784473524E+03  0.00000000000E+00 0.  1.
         21   -1    0    0  501  502 -0.00000000000E+00 -0.00000000000E+00 -0.28142126706E+03  0.28142126706E+03  0.00000000000E+00 0.  1.
         25    1    1    2    0    0  0.71781704088E+02  0.11492331274E+03 -0.14558614937E+03  0.23490489084E+03  0.12500000000E+03 0.  0.
         25    1    1    2    0    0 -0.71781704088E+02 -0.11492331274E+03  0.20096175463E+01  0.18436111145E+03  0.12500000000E+03 0.  0.
</event>
<event>
 4    0  0.2193754E-002  0.2023108E+03  0.7546771E-02  0.1147804E+00
         21   -1    0    0  502  501  0.00000000000E+00  0.00000000000E+00  0.27339069523E+02  0.27339069523E+02  0.00000000000E+00 0. -1.
         21   -1    0    0  501  502 -0.00000000000E+00 -0.00000000000E+00 -0.14971118450E+04  0.14971118450E+04  0.00000000000E+00 0. -1.
         25    1    1    2    0    0 -0.64542956427E+02 -0.64349325211E+02 -0.24368048435E+03  0.28863784806E+03  0.12500000000E+03 0.  0.
         25    1    1    2    0    0  0.64542956427E+02  0.64349325211E+02 -0.12260922911E+04  0.12358130664E+04  0.12500000000E+03 0.  0.
</event>
<event>
 4    0  0.2193754E-002  0.2466100E+03  0.7546771E-02  0.1115466E+00
         21   -1    0    0  502  501  0.00000000000E+00  0.00000000000E+00  0.13934763704E+04  0.13934763704E+04  0.00000000000E+00 0. -1.
         21   -1    0    0  501  502 -0.00000000000E+00 -0.00000000000E+00 -0.43643715124E+02  0.43643715124E+02  0.00000000000E+00 0. -1.
         25    1    1    2    0    0 -0.82242483693E+02 -0.10677153914E+03  0.11539381795E+04  0.11684871886E+04  0.12500000000E+03 0.  0.
         25    1    1    2    0    0  0.82242483693E+02  0.10677153914E+03  0.19589447575E+03  0.26863289695E+03  0.12500000000E+03 0.  0.
</event>
<event>
 4    0  0.2193754E-002  0.2496759E+03  0.7546771E-02  0.1113510E+00
         21   -1    0    0  502  501  0.00000000000E+00  0.00000000000E+00  0.19291263802E+03  0.19291263802E+03  0.00000000000E+00 0.  1.
         21   -1    0    0  501  502 -0.00000000000E+00 -0.00000000000E+00 -0.32314128694E+03  0.32314128694E+03  0.00000000000E+00 0.  1.
         25    1    1    2    0    0  0.16672575058E+03 -0.44543145558E+02 -0.19958756249E+03  0.29196192016E+03  0.12500000000E+03 0.  0.
         25    1    1    2    0    0 -0.16672575058E+03  0.44543145558E+02  0.69358913581E+02  0.22409200480E+03  0.12500000000E+03 0.  0.
</event>
<event>
 4    0  0.2193754E-002  0.2823111E+03  0.7546771E-02  0.1094433E+00
         21   -1    0    0  502  501  0.00000000000E+00  0.00000000000E+00  0.88827274611E+02  0.88827274611E+02  0.00000000000E+00 0. -1.
         21   -1    0    0  501  502 -0.00000000000E+00 -0.00000000000E+00 -0.89724212340E+03  0.89724212340E+03  0.00000000000E+00 0. -1.
         25    1    1    2    0    0 -0.79842090762E+01  0.78709822839E+02  0.15717802368E+02  0.14876502653E+03  0.12500000000E+03 0.  0.
         25    1    1    2    0    0  0.79842090762E+01 -0.78709822839E+02 -0.82413265116E+03  0.83730437149E+03  0.12500000000E+03 0.  0.
</event>
<event>
 4    0  0.2193754E-002  0.2858629E+03  0.7546771E-02  0.1092529E+00
         21   -1    0    0  502  501  0.00000000000E+00  0.00000000000E+00  0.13999817204E+03  0.13999817204E+03  0.00000000000E+00 0.  1.
         21   -1    0    0  501  502 -0.00000000000E+00 -0.00000000000E+00 -0.58370454613E+03  0.58370454613E+03  0.00000000000E+00 0.  1.
         25    1    1    2    0    0  0.10834301727E+03 -0.76022598025E+02  0.57130336805E+02  0.19080492705E+03  0.12500000000E+03 0.  0.
         25    1    1    2    0    0 -0.10834301727E+03  0.76022598025E+02 -0.50083671089E+03  0.53289779112E+03  0.12500000000E+03 0.  0.
</event>
<event>
 4    0  0.2193754E-002  0.1924128E+03  0.7546771E-02  0.1156303E+00
         21   -1    0    0  502  501  0.00000000000E+00  0.00000000000E+00  0.50256205399E+02  0.50256205399E+02  0.00000000000E+00 0. -1.
         21   -1    0    0  501  502 -0.00000000000E+00 -0.00000000000E+00 -0.73667878970E+03  0.73667878970E+03  0.00000000000E+00 0. -1.
         25    1    1    2    0    0 -0.12603962838E+03 -0.49747790097E+02 -0.23052097381E+03  0.29517071316E+03  0.12500000000E+03 0.  0.
         25    1    1    2    0    0  0.12603962838E+03  0.49747790097E+02 -0.45590161049E+03  0.49176428193E+03  0.12500000000E+03 0.  0.
</event>
<event>
 4    0  0.2193754E-002  0.1602651E+03  0.7546771E-02  0.1188398E+00
         21   -1    0    0  502  501  0.00000000000E+00  0.00000000000E+00  0.56502823457E+03  0.56502823457E+03  0.00000000000E+00 0. -1.
         21   -1    0    0  501  502 -0.00000000000E+00 -0.00000000000E+00 -0.45457723596E+02  0.45457723596E+02  0.00000000000E+00 0. -1.
         25    1    1    2    0    0 -0.16618442833E+02 -0.98908933086E+02  0.25813842619E+03  0.30384140067E+03  0.12500000000E+03 0.  0.
         25    1    1    2    0    0  0.16618442833E+02  0.98908933086E+02  0.26143208479E+03  0.30664455750E+03  0.12500000000E+03 0.  0.
</event>
<event>
 4    0  0.2193754E-002  0.2458814E+03  0.7546771E-02  0.1115936E+00
         21   -1    0    0  502  501  0.00000000000E+00  0.00000000000E+00  0.95017785619E+03  0.95017785619E+03  0.00000000000E+00 0.  1.
         21   -1    0    0  501  502 -0.00000000000E+00 -0.00000000000E+00 -0.63627737152E+02  0.63627737152E+02  0.00000000000E+00 0.  1.
         25    1    1    2    0    0 -0.15925304405E+03 -0.13674870328E+03  0.50051584987E+03  0.55695857643E+03  0.12500000000E+03 0.  0.
         25    1    1    2    0    0  0.15925304405E+03  0.13674870328E+03  0.38603426917E+03  0.45684701691E+03  0.12500000000E+03 0.  0.
</event>
<event>
 4    0  0.2193754E-002  0.2279431E+03  0.7546771E-02  0.1128096E+00
         21   -1    0    0  502  501  0.00000000000E+00  0.00000000000E+00  0.18795329275E+03  0.18795329275E+03  0.00000000000E+00 0.  1.
         21   -1    0    0  501  502 -0.00000000000E+00 -0.00000000000E+00 -0.27644122776E+03  0.27644122776E+03  0.00000000000E+00 0.  1.
         25    1    1    2    0    0 -0.90381666839E+02 -0.34704205562E+02  0.12301489555E+03  0.20032696302E+03  0.12500000000E+03 0.  0.
         25    1    1    2    0    0  0.90381666839E+02  0.34704205562E+02 -0.21150283057E+03  0.26406755750E+03  0.12500000000E+03 0.  0.
</event>
<event>
 4    0  0.2193754E-002  0.2798882E+03  0.7546771E-02  0.1095750E+00
         21   -1    0    0  502  501  0.00000000000E+00  0.00000000000E+00  0.11573052680E+04  0.11573052680E+04  0.00000000000E+00 0. -1.
         21   -1    0    0  501  502 -0.00000000000E+00 -0.00000000000E+00 -0.67689502179E+02  0.67689502179E+02  0.00000000000E+00 0. -1.
         25    1    1    2    0    0 -0.10213415952E+03  0.22614453885E+03  0.61868514375E+03  0.67821017840E+03  0.12500000000E+03 0.  0.
         25    1    1    2    0    0  0.10213415952E+03 -0.22614453885E+03  0.47093062203E+03  0.54678459174E+03  0.12500000000E+03 0.  0.
</event>
<event>
 4    0  0.2193754E-002  0.2089448E+03  0.7546771E-02  0.1142404E+00
         21   -1    0    0  502  501  0.00000000000E+00  0.00000000000E+00  0.46564151248E+02  0.46564151248E+02  0.00000000000E+00 0. -1.
         21   -1    0    0  501  502 -0.00000000000E+00 -0.00000000000E+00 -0.93758673554E+03  0.93758673554E+03  0.00000000000E+00 0. -1.
         25    1    1    2    0    0 -0.77194746394E+02 -0.76971884397E+02 -0.74479015083E+03  0.76303412022E+03  0.12500000000E+03 0.  0.
         25    1    1    2    0    0  0.77194746394E+02  0.76971884397E+02 -0.14623243347E+03  0.22111676657E+03  0.12500000000E+03 0.  0.
</event>
<event>
 4    0  0.2193754E-002  0.4802863E+03  0.7546771E-02  0.1019057E+00
         21   -1    0    0  502  501  0.00000000000E+00  0.00000000000E+00  0.75898579027E+03  0.75898579027E+03  0.00000000000E+00 0. -1.
         21   -1    0    0  501  502 -0.00000000000E+00 -0.00000000000E+00 -0.30392517532E+03  0.30392517532E+03  0.00000000000E+00 0. -1.
         25    1    1    2    0    0 -0.30434112948E+03  0.34988343767E+03  0.22441105983E+03  0.53012004944E+03  0.12500000000E+03 0.  0.
         25    1    1    2    0    0  0.30434112948E+03 -0.34988343767E+03  0.23064955513E+03  0.53279091614E+03  0.12500000000E+03 0.  0.
</event>
<event>
 4    0  0.2193754E-002  0.2013299E+03  0.7546771E-02  0.1148622E+00
         21   -1    0    0  502  501  0.00000000000E+00  0.00000000000E+00  0.10179982415E+03  0.10179982415E+03  0.00000000000E+00 0.  1.
         21   -1    0    0  501  502 -0.00000000000E+00 -0.00000000000E+00 -0.39817092292E+03  0.39817092292E+03  0.00000000000E+00 0.  1.
         25    1    1    2    0    0 -0.95835403241E+02 -0.52305758401E+02 -0.66764522107E+01  0.16610205264E+03  0.12500000000E+03 0.  0.
         25    1    1    2    0    0  0.95835403241E+02  0.52305758401E+02 -0.28969464656E+03  0.33386869443E+03  0.12500000000E+03 0.  0.
</event>
<event>
 4    0  0.2193754E-002  0.2192853E+03  0.7546771E-02  0.1134417E+00
         21   -1    0    0  502  501  0.00000000000E+00  0.00000000000E+00  0.59859745206E+03  0.59859745206E+03  0.00000000000E+00 0.  1.
         21   -1    0    0  501  502 -0.00000000000E+00 -0.00000000000E+00 -0.80331213200E+02  0.80331213200E+02  0.00000000000E+00 0.  1.
         25    1    1    2    0    0  0.17472220824E+02 -0.13175264342E+03  0.44744239586E+03  0.48321189468E+03  0.12500000000E+03 0.  0.
         25    1    1    2    0    0 -0.17472220824E+02  0.13175264342E+03  0.70823843000E+02  0.19571677058E+03  0.12500000000E+03 0.  0.
</event>
<event>
 4    0  0.2193754E-002  0.2246873E+03  0.7546771E-02  0.1130436E+00
         21   -1    0    0  502  501  0.00000000000E+00  0.00000000000E+00  0.13638270801E+03  0.13638270801E+03  0.00000000000E+00 0. -1.
         21   -1    0    0  501  502 -0.00000000000E+00 -0.00000000000E+00 -0.37016698439E+03  0.37016698439E+03  0.00000000000E+00 0. -1.
         25    1    1    2    0    0  0.14863431977E+01 -0.13756942580E+03  0.25388647700E+02  0.18760900715E+03  0.12500000000E+03 0.  0.
         25    1    1    2    0    0 -0.14863431977E+01  0.13756942580E+03 -0.25917292408E+03  0.31894068525E+03  0.12500000000E+03 0.  0.
</event>
<event>
 4    0  0.2193754E-002  0.2053499E+03  0.7546771E-02  0.1145302E+00
         21   -1    0    0  502  501  0.00000000000E+00  0.00000000000E+00  0.12073740897E+03  0.12073740897E+03  0.00000000000E+00 0. -1.
         21   -1    0    0  501  502 -0.00000000000E+00 -0.00000000000E+00 -0.34925847787E+03  0.34925847787E+03  0.00000000000E+00 0. -1.
         25    1    1    2    0    0 -0.78417277894E+02  0.53163766357E+02 -0.26594101063E+03  0.30874791766E+03  0.12500000000E+03 0.  0.
         25    1    1    2    0    0  0.78417277894E+02 -0.53163766357E+02  0.37419941732E+02  0.16124796918E+03  0.12500000000E+03 0.  0.
</event>
<event>
 4    0  0.2193754E-002  0.1754868E+03  0.7546771E-02  0.1172244E+00
         21   -1    0    0  502  501  0.00000000000E+00  0.00000000000E+00  0.45061308321E+03  0.45061308321E+03  0.00000000000E+00 0. -1.
         21   -1    0    0  501  502 -0.00000000000E+00 -0.00000000000E+00 -0.68341595450E+02  0.68341595450E+02  0.00000000000E+00 0. -1.
         25    1    1    2    0    0 -0.32975192449E+01  0.68646396278E+02  0.40002703830E+02  0.14814998370E+03  0.12500000000E+03 0.  0.
         25    1    1    2    0    0  0.32975192449E+01 -0.68646396278E+02  0.34226878393E+03  0.37080469497E+03  0.12500000000E+03 0.  0.
</event>
<event>
 4    0  0.2193754E-002  0.1507040E+03  0.7546771E-02  0.1199611E+00
         21   -1    0    0  502  501  0.00000000000E+00  0.00000000000E+00  0.92510090168E+02  0.92510090168E+02  0.00000000000E+00 0.  1.
         21   -1    0    0  501  502 -0.00000000000E+00 -0.00000000000E+00 -0.24550506454E+03  0.24550506454E+03  0.00000000000E+00 0.  1.
         25    1    1    2    0    0 -0.42205148276E+02  0.29132190073E+02 -0.16305819730E+01  0.13512075280E+03  0.12500000000E+03 0.  0.
         25    1    1    2    0    0  0.42205148276E+02 -0.29132190073E+02 -0.15136439239E+03  0.20289440191E+03  0.12500000000E+03 0.  0.
</event>
<event>
 4    0  0.2193754E-002  0.3919625E+03  0.7546771E-02  0.1046599E+00
         21   -1    0    0  502  501  0.00000000000E+00  0.00000000000E+00  0.74935431680E+02  0.74935431680E+02  0.00000000000E+00 0.  1.
         21   -1    0    0  501  502 -0.00000000000E+00 -0.00000000000E+00 -0.20502264464E+04  0.20502264464E+04  0.00000000000E+00 0.  1.
         25    1    1    2    0    0  0.63064166917E+02 -0.10568355610E+03 -0.19378759530E+04  0.19457991450E+04  0.12500000000E+03 0.  0.
         25    1    1    2    0    0 -0.63064166917E+02  0.10568355610E+03 -0.37415061642E+02  0.17936273308E+03  0.12500000000E+03 0.  0.
</event>
<event>
 4    0  0.2193754E-002  0.1413839E+03  0.7546771E-02  0.1211479E+00
         21   -1    0    0  502  501  0.00000000000E+00  0.00000000000E+00  0.53823524204E+03  0.53823524204E+03  0.00000000000E+00 0. -1.
         21   -1    0    0  501  502 -0.00000000000E+00 -0.00000000000E+00 -0.37138775028E+02  0.37138775028E+02  0.00000000000E+00 0. -1.
         25    1    1    2    0    0  0.23039197203E+01 -0.57807536354E+02  0.18564570387E+03  0.23116303050E+03  0.12500000000E+03 0.  0.
         25    1    1    2    0    0 -0.23039197203E+01  0.57807536354E+02  0.31545076315E+03  0.34421098657E+03  0.12500000000E+03 0.  0.
</event>
<event>
 4    0  0.2193754E-002  0.2480463E+03  0.7546771E-02  0.1114546E+00
         21   -1    0    0  502  501  0.00000000000E+00  0.00000000000E+00  0.47121441899E+03  0.47121441899E+03  0.00000000000E+00 0.  1.
         21   -1    0    0  501  502 -0.00000000000E+00 -0.00000000000E+00 -0.13057109191E+03  0.13057109191E+03  0.00000000000E+00 0.  1.
         25    1    1    2    0    0  0.38095590665E+02 -0.17373215748E+03  0.25425090615E+02  0.21887341502E+03  0.12500000000E+03 0.  0.
         25    1    1    2    0    0 -0.38095590665E+02  0.17373215748E+03  0.31521823647E+03  0.38291209588E+03  0.12500000000E+03 0.  0.
</event>
<event>
 4    0  0.2193754E-002  0.2193102E+03  0.7546771E-02  0.1134398E+00
         21   -1    0    0  502  501  0.00000000000E+00  0.00000000000E+00  0.48258159416E+03  0.48258159416E+03  0.00000000000E+00 0. -1.
         21   -1    0    0  501  502 -0.00000000000E+00 -0.00000000000E+00 -0.99665942440E+02  0.99665942440E+02  0.00000000000E+00 0. -1.
         25    1    1    2    0    0 -0.17122018548E+03  0.10133140828E+02  0.26480381872E+03  0.33935983096E+03  0.12500000000E+03 0.  0.
         25    1    1    2    0    0  0.17122018548E+03 -0.10133140828E+02  0.11811183300E+03  0.24288770564E+03  0.12500000000E+03 0.  0.
</event>
<event>
 4    0  0.2193754E-002  0.2532726E+03  0.7546771E-02  0.1111254E+00
         21   -1    0    0  502  501  0.00000000000E+00  0.00000000000E+00  0.12639771130E+03  0.12639771130E+03  0.00000000000E+00 0.  1.
         21   -1    0    0  501  502 -0.00000000000E+00 -0.00000000000E+00 -0.50750133642E+03  0.50750133642E+03  0.00000000000E+00 0.  1.
         25    1    1    2    0    0 -0.15773931369E+03 -0.10279222632E+03 -0.33364118589E+03  0.40297564914E+03  0.12500000000E+03 0.  0.
         25    1    1    2    0    0  0.15773931369E+03  0.10279222632E+03 -0.47462439239E+02  0.23092339858E+03  0.12500000000E+03 0.  0.
</event>
<event>
 4    0  0.2193754E-002  0.1982352E+03  0.7546771E-02  0.1151237E+00
         21   -1    0    0  502  501  0.00000000000E+00  0.00000000000E+00  0.11384928996E+03  0.11384928996E+03  0.00000000000E+00 0. -1.
         21   -1    0    0  501  502 -0.00000000000E+00 -0.00000000000E+00 -0.34516848439E+03  0.34516848439E+03  0.00000000000E+00 0. -1.
         25    1    1    2    0    0 -0.15125369590E+03  0.20372282374E+02 -0.13821295406E+03  0.24087451315E+03  0.12500000000E+03 0.  0.
         25    1    1    2    0    0  0.15125369590E+03 -0.20372282374E+02 -0.93106240368E+02  0.21814326120E+03  0.12500000000E+03 0.  0.
</event>
<event>
 4    0  0.2193754E-002  0.1993836E+03  0.7546771E-02  0.1150260E+00
         21   -1    0    0  502  501  0.00000000000E+00  0.00000000000E+00  0.43274753897E+02  0.43274753897E+02  0.00000000000E+00 0. -1.
         21   -1    0    0  501  502 -0.00000000000E+00 -0.00000000000E+00 -0.91863731965E+03  0.91863731965E+03  0.00000000000E+00 0. -1.
         25    1    1    2    0    0  0.68043516675E+02  0.65749692342E+02 -0.73484290125E+03  0.75138008472E+03  0.12500000000E+03 0.  0.
         25    1    1    2    0    0 -0.68043516675E+02 -0.65749692342E+02 -0.14051966450E+03  0.21053198882E+03  0.12500000000E+03 0.  0.
</event>
<event>
 4    0  0.2193754E-002  0.3430591E+03  0.7546771E-02  0.1065500E+00
         21   -1    0    0  502  501  0.00000000000E+00  0.00000000000E+00  0.31249379931E+04  0.31249379931E+04  0.00000000000E+00 0.  1.
         21   -1    0    0  501  502 -0.00000000000E+00 -0.00000000000E+00 -0.37661412953E+02  0.37661412953E+02  0.00000000000E+00 0.  1.
         25    1    1    2    0    0  0.62449320873E+02 -0.65218861688E+02  0.29561881651E+04  0.29602072369E+04  0.12500000000E+03 0.  0.
         25    1    1    2    0    0 -0.62449320873E+02  0.65218861688E+02  0.13108841505E+03  0.20239216921E+03  0.12500000000E+03 0.  0.
</event>
<event>
 4    0  0.2193754E-002  0.2448604E+03  0.7546771E-02  0.1116597E+00
         21   -1    0    0  502  501  0.00000000000E+00  0.00000000000E+00  0.96879813051E+03  0.96879813051E+03  0.00000000000E+00 0. -1.
         21   -1    0    0  501  502 -0.00000000000E+00 -0.00000000000E+00 -0.61887600464E+02  0.61887600464E+02  0.00000000000E+00 0. -1.
         25    1    1    2    0    0 -0.11717779859E+03  0.12641146422E+03  0.19896699067E+03  0.29141612540E+03  0.12500000000E+03 0.  0.
         25    1    1    2    0    0  0.11717779859E+03 -0.12641146422E+03  0.70794353938E+03  0.73926960557E+03  0.12500000000E+03 0.  0.
</event>
<event>
 4    0  0.2193754E-002  0.1701010E+03  0.7546771E-02  0.1177743E+00
         21   -1    0    0  502  501  0.00000000000E+00  0.00000000000E+00  0.27474364476E+02  0.27474364476E+02  0.00000000000E+00 0. -1.
         21   -1    0    0  501  502 -0.00000000000E+00 -0.00000000000E+00 -0.10531404591E+04  0.10531404591E+04  0.00000000000E+00 0. -1.
         25    1    1    2    0    0  0.63265337833E+02 -0.75428676041E+02 -0.32179018526E+03  0.35897898472E+03  0.12500000000E+03 0.  0.
         25    1    1    2    0    0 -0.63265337833E+02  0.75428676041E+02 -0.70387590940E+03  0.72163583890E+03  0.12500000000E+03 0.  0.
</event>
<event>
 4    0  0.2193754E-002  0.2255476E+03  0.7546771E-02  0.1129813E+00
         21   -1    0    0  502  501  0.00000000000E+00  0.00000000000E+00  0.51259835219E+03  0.51259835219E+03  0.00000000000E+00 0.  1.
         21   -1    0    0  501  502 -0.00000000000E+00 -0.00000000000E+00 -0.99242804333E+02  0.99242804333E+02  0.00000000000E+00 0.  1.
         25    1    1    2    0    0 -0.28307938932E+02 -0.16217646657E+03  0.32908118392E+03  0.38861545430E+03  0.12500000000E+03 0.  0.
         25    1    1    2    0    0  0.28307938932E+02  0.16217646657E+03  0.84274363940E+02  0.22322570222E+03  0.12500000000E+03 0.  0.
</event>
<event>
 4    0  0.2193754E-002  0.2052199E+03  0.7546771E-02  0.1145408E+00
         21   -1    0    0  502  501  0.00000000000E+00  0.00000000000E+00  0.47118131422E+02  0.47118131422E+02  0.00000000000E+00 0.  1.
         21   -1    0    0  501  502 -0.00000000000E+00 -0.00000000000E+00 -0.89382205915E+03  0.89382205915E+03  0.00000000000E+00 0.  1.
         25    1    1    2    0    0 -0.14204028335E+03  0.33899712860E+01 -0.60536233985E+03  0.63425191880E+03  0.12500000000E+03 0.  0.
         25    1    1    2    0    0  0.14204028335E+03 -0.33899712860E+01 -0.24134158787E+03  0.30668827176E+03  0.12500000000E+03 0.  0.
</event>
<event>
 4    0  0.2193754E-002  0.1751239E+03  0.7546771E-02  0.1172607E+00
         21   -1    0    0  502  501  0.00000000000E+00  0.00000000000E+00  0.78781897583E+03  0.78781897583E+03  0.00000000000E+00 0. -1.
         21   -1    0    0  501  502 -0.00000000000E+00 -0.00000000000E+00 -0.38928200593E+02  0.38928200593E+02  0.00000000000E+00 0. -1.
         25    1    1    2    0    0 -0.43115246292E+02 -0.11477212675E+03  0.36633363753E+03  0.40602573752E+03  0.12500000000E+03 0.  0.
         25    1    1    2    0    0  0.43115246292E+02  0.11477212675E+03  0.38255713771E+03  0.42072143890E+03  0.12500000000E+03 0.  0.
</event>
<event>
 4    0  0.2193754E-002  0.2238233E+03  0.7546771E-02  0.1131064E+00
         21   -1    0    0  502  501  0.00000000000E+00  0.00000000000E+00  0.68502420885E+03  0.68502420885E+03  0.00000000000E+00 0. -1.
         21   -1    0    0  501  502 -0.00000000000E+00 -0.00000000000E+00 -0.73131515311E+02  0.73131515311E+02  0.00000000000E+00 0. -1.
         25    1    1    2    0    0 -0.14201320565E+03 -0.11562488911E+03  0.25415856334E+03  0.33728095244E+03  0.12500000000E+03 0.  0.
         25    1    1    2    0    0  0.14201320565E+03  0.11562488911E+03  0.35773413020E+03  0.42087477172E+03  0.12500000000E+03 0.  0.
</event>
<event>
 4    0  0.2193754E-002  0.1677995E+03  0.7546771E-02  0.1180162E+00
         21   -1    0    0  502  501  0.00000000000E+00  0.00000000000E+00  0.11792027279E+03  0.11792027279E+03  0.00000000000E+00 0.  1.
         21   -1    0    0  501  502 -0.00000000000E+00 -0.00000000000E+00 -0.23877731527E+03  0.23877731527E+03  0.00000000000E+00 0.  1.
         25    1    1    2    0    0  0.10670966035E+03 -0.63421798945E+01 -0.95752082974E+02  0.19031719905E+03  0.12500000000E+03 0.  0.
         25    1    1    2    0    0 -0.10670966035E+03  0.63421798945E+01 -0.25104959504E+02  0.16638038902E+03  0.12500000000E+03 0.  0.
</event>
<event>
 4    0  0.2193754E-002  0.2123518E+03  0.7546771E-02  0.1139717E+00
         21   -1    0    0  502  501  0.00000000000E+00  0.00000000000E+00  0.80808702718E+02  0.80808702718E+02  0.00000000000E+00 0.  1.
         21   -1    0    0  501  502 -0.00000000000E+00 -0.00000000000E+00 -0.55802514453E+03  0.55802514453E+03  0.00000000000E+00 0.  1.
         25    1    1    2    0    0  0.77508243999E+02  0.10511505166E+03 -0.40618568422E+03  0.44459927129E+03  0.12500000000E+03 0.  0.
         25    1    1    2    0    0 -0.77508243999E+02 -0.10511505166E+03 -0.71030757600E+02  0.19423457596E+03  0.12500000000E+03 0.  0.
</event>
<event>
 4    0  0.2193754E-002  0.1473785E+03  0.7546771E-02  0.1203732E+00
         21   -1    0    0  502  501  0.00000000000E+00  0.00000000000E+00  0.82655815458E+03  0.82655815458E+03  0.00000000000E+00 0. -1.
         21   -1    0    0  501  502 -0.00000000000E+00 -0.00000000000E+00 -0.26278152098E+02  0.26278152098E+02  0.00000000000E+00 0. -1.
         25    1    1    2    0    0  0.65362997179E+02 -0.42115438821E+02  0.37980622339E+03  0.40733745090E+03  0.12500000000E+03 0.  0.
         25    1    1    2    0    0 -0.65362997179E+02  0.42115438821E+02  0.42047377910E+03  0.44549885578E+03  0.12500000000E+03 0.  0.
</event>
<event>
 4    0  0.2193754E-002  0.1824549E+03  0.7546771E-02  0.1165448E+00
         21   -1    0    0  502  501  0.00000000000E+00  0.00000000000E+00  0.31080037103E+03  0.31080037103E+03  0.00000000000E+00 0.  1.
         21   -1    0    0  501  502 -0.00000000000E+00 -0.00000000000E+00 -0.10710992841E+03  0.10710992841E+03  0.00000000000E+00 0.  1.
         25    1    1    2    0    0 -0.30158838571E+02  0.90747882859E+02  0.20755595203E+03  0.26047880338E+03  0.12500000000E+03 0.  0.
         25    1    1    2    0    0  0.30158838571E+02 -0.90747882859E+02 -0.38655094046E+01  0.15743149606E+03  0.12500000000E+03 0.  0.
</event>
<event>
 4    0  0.2193754E-002  0.2482367E+03  0.7546771E-02  0.1114424E+00
         21   -1    0    0  502  501  0.00000000000E+00  0.00000000000E+00  0.15676614623E+04  0.15676614623E+04  0.00000000000E+00 0.  1.
         21   -1    0    0  501  502 -0.00000000000E+00 -0.00000000000E+00 -0.39307878328E+02  0.39307878328E+02  0.00000000000E+00 0. -1.
         25    1    1    2    0    0 -0.59719484568E+02 -0.18778088117E+03  0.49013180956E+03  0.54284644874E+03  0.12500000000E+03 0.  0.
         25    1    1    2    0    0  0.59719484568E+02  0.18778088117E+03  0.10382217744E+04  0.10641228919E+04  0.12500000000E+03 0.  0.
</event>
<event>
 4    0  0.2193754E-002  0.1876826E+03  0.7546771E-02  0.1160568E+00
         21   -1    0    0  502  501  0.00000000000E+00  0.00000000000E+00  0.21539584053E+03  0.21539584053E+03  0.00000000000E+00 0.  1.
         21   -1    0    0  501  502 -0.00000000000E+00 -0.00000000000E+00 -0.16353500199E+03  0.16353500199E+03  0.00000000000E+00 0.  1.
         25    1    1    2    0    0  0.12233216962E+03  0.16705741224E+02  0.92553672347E+02  0.19858354358E+03  0.12500000000E+03 0.  0.
         25    1    1    2    0    0 -0.12233216962E+03 -0.16705741224E+02 -0.40692833809E+02  0.18034729895E+03  0.12500000000E+03 0.  0.
</event>
<event>
 4    0  0.2193754E-002  0.2059605E+03  0.7546771E-02  0.1144805E+00
         21   -1    0    0  502  501  0.00000000000E+00  0.00000000000E+00  0.15729399921E+02  0.15729399921E+02  0.00000000000E+00 0.  1.
         21   -1    0    0  501  502 -0.00000000000E+00 -0.00000000000E+00 -0.26968436628E+04  0.26968436628E+04  0.00000000000E+00 0.  1.
         25    1    1    2    0    0 -0.16155346920E+03  0.26230308364E+02 -0.13229117942E+04  0.13388458342E+04  0.12500000000E+03 0.  0.
         25    1    1    2    0    0  0.16155346920E+03 -0.26230308364E+02 -0.13582024687E+04  0.13737272285E+04  0.12500000000E+03 0.  0.
</event>
<event>
 4    0  0.2193754E-002  0.2270523E+03  0.7546771E-02  0.1128732E+00
         21   -1    0    0  502  501  0.00000000000E+00  0.00000000000E+00  0.10204690765E+04  0.10204690765E+04  0.00000000000E+00 0. -1.
         21   -1    0    0  501  502 -0.00000000000E+00 -0.00000000000E+00 -0.50518688033E+02  0.50518688033E+02  0.00000000000E+00 0. -1.
         25    1    1    2    0    0 -0.17280696060E+03  0.63782024911E+02  0.37957110794E+03  0.44003365589E+03  0.12500000000E+03 0.  0.
         25    1    1    2    0    0  0.17280696060E+03 -0.63782024911E+02  0.59037928050E+03  0.63095410861E+03  0.12500000000E+03 0.  0.
</event>
<event>
 4    0  0.2193754E-002  0.2114108E+03  0.7546771E-02  0.1140454E+00
         21   -1    0    0  502  501  0.00000000000E+00  0.00000000000E+00  0.37483827846E+02  0.37483827846E+02  0.00000000000E+00 0.  1.
         21   -1    0    0  501  502 -0.00000000000E+00 -0.00000000000E+00 -0.11923677429E+04  0.11923677429E+04  0.00000000000E+00 0.  1.
         25    1    1    2    0    0  0.16510449242E+03 -0.51193904354E+01 -0.70029032603E+03  0.73028572648E+03  0.12500000000E+03 0.  0.
         25    1    1    2    0    0 -0.16510449242E+03  0.51193904354E+01 -0.45459358906E+03  0.49956584429E+03  0.12500000000E+03 0.  0.
</event>
<event>
 4    0  0.2193754E-002  0.2291821E+03  0.7546771E-02  0.1127217E+00
         21   -1    0    0  502  501  0.00000000000E+00  0.00000000000E+00  0.82390011705E+02  0.82390011705E+02  0.00000000000E+00 0. -1.
         21   -1    0    0  501  502 -0.00000000000E+00 -0.00000000000E+00 -0.63750972373E+03  0.63750972373E+03  0.00000000000E+00 0. -1.
         25    1    1    2    0    0  0.18140188692E+03  0.38455674116E+02 -0.19881183285E+03  0.29922671727E+03  0.12500000000E+03 0.  0.
         25    1    1    2    0    0 -0.18140188692E+03 -0.38455674116E+02 -0.35630787918E+03  0.42067301817E+03  0.12500000000E+03 0.  0.
</event>
<event>
 4    0  0.2193754E-002  0.2600915E+03  0.7546771E-02  0.1107088E+00
         21   -1    0    0  502  501  0.00000000000E+00  0.00000000000E+00  0.21519443689E+03  0.21519443689E+03  0.00000000000E+00 0. -1.
         21   -1    0    0  501  502 -0.00000000000E+00 -0.00000000000E+00 -0.31435561053E+03  0.31435561053E+03  0.00000000000E+00 0. -1.
         25    1    1    2    0    0  0.16944061448E+03  0.11382312981E+03  0.54020109283E+02  0.24537522068E+03  0.12500000000E+03 0.  0.
         25    1    1    2    0    0 -0.16944061448E+03 -0.11382312981E+03 -0.15318128292E+03  0.28417482674E+03  0.12500000000E+03 0.  0.
</event>
<event>
 4    0  0.2193754E-002  0.2207054E+03  0.7546771E-02  0.1133358E+00
         21   -1    0    0  502  501  0.00000000000E+00  0.00000000000E+00  0.79023026647E+03  0.79023026647E+03  0.00000000000E+00 0.  1.
         21   -1    0    0  501  502 -0.00000000000E+00 -0.00000000000E+00 -0.61641357963E+02  0.61641357963E+02  0.00000000000E+00 0.  1.
         25    1    1    2    0    0 -0.46236995119E+02 -0.11680443409E+03  0.11042312516E+03  0.20880469849E+03  0.12500000000E+03 0.  0.
         25    1    1    2    0    0  0.46236995119E+02  0.11680443409E+03  0.61816578335E+03  0.64306692595E+03  0.12500000000E+03 0.  0.
</event>
<event>
 4    0  0.2193754E-002  0.1841333E+03  0.7546771E-02  0.1163862E+00
         21   -1    0    0  502  501  0.00000000000E+00  0.00000000000E+00  0.22760066914E+03  0.22760066914E+03  0.00000000000E+00 0. -1.
         21   -1    0    0  501  502 -0.00000000000E+00 -0.00000000000E+00 -0.14896737847E+03  0.14896737847E+03  0.00000000000E+00 0. -1.
         25    1    1    2    0    0  0.22129735781E+02  0.71383753956E+01 -0.96875010101E+02  0.15984507872E+03  0.12500000000E+03 0.  0.
         25    1    1    2    0    0 -0.22129735781E+02 -0.71383753956E+01  0.17550830077E+03  0.21672296890E+03  0.12500000000E+03 0.  0.
</event>
<event>
 4    0  0.2193754E-002  0.2390946E+03  0.7546771E-02  0.1120397E+00
         21   -1    0    0  502  501  0.00000000000E+00  0.00000000000E+00  0.10374118596E+03  0.10374118596E+03  0.00000000000E+00 0. -1.
         21   -1    0    0  501  502 -0.00000000000E+00 -0.00000000000E+00 -0.55104658001E+03  0.55104658001E+03  0.00000000000E+00 0. -1.
         25    1    1    2    0    0  0.17637148015E+03 -0.83115966593E+02 -0.14234234838E+03  0.27184831627E+03  0.12500000000E+03 0.  0.
         25    1    1    2    0    0 -0.17637148015E+03  0.83115966593E+02 -0.30496304567E+03  0.38293944970E+03  0.12500000000E+03 0.  0.
</event>
<event>
 4    0  0.2193754E-002  0.2138123E+03  0.7546771E-02  0.1138582E+00
         21   -1    0    0  502  501  0.00000000000E+00  0.00000000000E+00  0.10386717217E+04  0.10386717217E+04  0.00000000000E+00 0.  1.
         21   -1    0    0  501  502 -0.00000000000E+00 -0.00000000000E+00 -0.44013596875E+02  0.44013596875E+02  0.00000000000E+00 0.  1.
         25    1    1    2    0    0  0.53970277205E+02 -0.11830268054E+03  0.20663490222E+03  0.27428324386E+03  0.12500000000E+03 0.  0.
         25    1    1    2    0    0 -0.53970277205E+02  0.11830268054E+03  0.78802322255E+03  0.80840207467E+03  0.12500000000E+03 0.  0.
</event>
<event>
 4    0  0.2193754E-002  0.2228129E+03  0.7546771E-02  0.1131803E+00
         21   -1    0    0  502  501  0.00000000000E+00  0.00000000000E+00  0.41500715244E+02  0.41500715244E+02  0.00000000000E+00 0.  1.
         21   -1    0    0  501  502 -0.00000000000E+00 -0.00000000000E+00 -0.11962588135E+04  0.11962588135E+04  0.00000000000E+00 0.  1.
         25    1    1    2    0    0 -0.15027186002E+03 -0.10168923052E+03 -0.66942813087E+03  0.70475623723E+03  0.12500000000E+03 0.  0.
         25    1    1    2    0    0  0.15027186002E+03  0.10168923052E+03 -0.48532996740E+03  0.53300329152E+03  0.12500000000E+03 0.  0.
</event>
<event>
 4    0  0.2193754E-002  0.3435574E+03  0.7546771E-02  0.1065291E+00
         21   -1    0    0  502  501  0.00000000000E+00  0.00000000000E+00  0.42463592855E+03  0.42463592855E+03  0.00000000000E+00 0. -1.
         21   -1    0    0  501  502 -0.00000000000E+00 -0.00000000000E+00 -0.27795975688E+03  0.27795975688E+03  0.00000000000E+00 0. -1.
         25    1    1    2    0    0 -0.13719482724E+03 -0.22344663171E+03 -0.11425059891E+03  0.31213621577E+03  0.12500000000E+03 0.  0.
         25    1    1    2    0    0  0.13719482724E+03  0.22344663171E+03  0.26092677059E+03  0.39045946967E+03  0.12500000000E+03 0.  0.
</event>
<event>
 4    0  0.2193754E-002  0.2090440E+03  0.7546771E-02  0.1142325E+00
         21   -1    0    0  502  501  0.00000000000E+00  0.00000000000E+00  0.69087616667E+03  0.69087616667E+03  0.00000000000E+00 0.  1.
         21   -1    0    0  501  502 -0.00000000000E+00 -0.00000000000E+00 -0.63252156858E+02  0.63252156858E+02  0.00000000000E+00 0.  1.
         25    1    1    2    0    0 -0.11133916553E+03 -0.91708354415E+01  0.53905680078E+03  0.56452435596E+03  0.12500000000E+03 0.  0.
         25    1    1    2    0    0  0.11133916553E+03  0.91708354415E+01  0.88567209033E+02  0.18960396757E+03  0.12500000000E+03 0.  0.
</event>
<event>
 4    0  0.2193754E-002  0.2623526E+03  0.7546771E-02  0.1105738E+00
         21   -1    0    0  502  501  0.00000000000E+00  0.00000000000E+00  0.13305341364E+04  0.13305341364E+04  0.00000000000E+00 0.  1.
         21   -1    0    0  501  502 -0.00000000000E+00 -0.00000000000E+00 -0.51730263628E+02  0.51730263628E+02  0.00000000000E+00 0.  1.
         25    1    1    2    0    0  0.10351104773E+03  0.97051948594E+02  0.11184671110E+04  0.11343400267E+04  0.12500000000E+03 0.  0.
         25    1    1    2    0    0 -0.10351104773E+03 -0.97051948594E+02  0.16033676178E+03  0.24792437336E+03  0.12500000000E+03 0.  0.
</event>
<event>
 4    0  0.2193754E-002  0.2438102E+03  0.7546771E-02  0.1117280E+00
         21   -1    0    0  502  501  0.00000000000E+00  0.00000000000E+00  0.20375784931E+03  0.20375784931E+03  0.00000000000E+00 0. -1.
         21   -1    0    0  501  502 -0.00000000000E+00 -0.00000000000E+00 -0.29173566817E+03  0.29173566817E+03  0.00000000000E+00 0. -1.
         25    1    1    2    0    0 -0.78727085415E+02 -0.36336495687E+02  0.14961324099E+03  0.21337154632E+03  0.12500000000E+03 0.  0.
         25    1    1    2    0    0  0.78727085415E+02  0.36336495687E+02 -0.23759105985E+03  0.28212197117E+03  0.12500000000E+03 0.  0.
</event>
<event>
 4    0  0.2193754E-002  0.4338753E+03  0.7546771E-02  0.1032643E+00
         21   -1    0    0  502  501  0.00000000000E+00  0.00000000000E+00  0.41425539039E+03  0.41425539039E+03  0.00000000000E+00 0.  1.
         21   -1    0    0  501  502 -0.00000000000E+00 -0.00000000000E+00 -0.45442434939E+03  0.45442434939E+03  0.00000000000E+00 0.  1.
         25    1    1    2    0    0  0.12440317900E+03  0.28002225122E+03  0.26081201284E+03  0.42135082552E+03  0.12500000000E+03 0.  0.
         25    1    1    2    0    0 -0.12440317900E+03 -0.28002225122E+03 -0.30098097183E+03  0.44732891426E+03  0.12500000000E+03 0.  0.
</event>
<event>
 4    0  0.2193754E-002  0.2226572E+03  0.7546771E-02  0.1131917E+00
         21   -1    0    0  502  501  0.00000000000E+00  0.00000000000E+00  0.65627073766E+02  0.65627073766E+02  0.00000000000E+00 0. -1.
         21   -1    0    0  501  502 -0.00000000000E+00 -0.00000000000E+00 -0.75542336845E+03  0.75542336845E+03  0.00000000000E+00 0. -1.
         25    1    1    2    0    0 -0.13282469216E+03 -0.11059037522E+03 -0.46264746993E+03  0.50945099016E+03  0.12500000000E+03 0.  0.
         25    1    1    2    0    0  0.13282469216E+03  0.11059037522E+03 -0.22714882475E+03  0.31159945206E+03  0.12500000000E+03 0.  0.
</event>
<event>
 4    0  0.2193754E-002  0.2080407E+03  0.7546771E-02  0.1143127E+00
         21   -1    0    0  502  501  0.00000000000E+00  0.00000000000E+00  0.29665886570E+03  0.29665886570E+03  0.00000000000E+00 0. -1.
         21   -1    0    0  501  502 -0.00000000000E+00 -0.00000000000E+00 -0.14589466876E+03  0.14589466876E+03  0.00000000000E+00 0. -1.
         25    1    1    2    0    0  0.15599659791E+03 -0.56570261201E+02  0.63691252003E+02  0.21729406019E+03  0.12500000000E+03 0.  0.
         25    1    1    2    0    0 -0.15599659791E+03  0.56570261201E+02  0.87072944937E+02  0.22525947428E+03  0.12500000000E+03 0.  0.
</event>
<event>
 4    0  0.2193754E-002  0.2000328E+03  0.7546771E-02  0.1149711E+00
         21   -1    0    0  502  501  0.00000000000E+00  0.00000000000E+00  0.14327997045E+04  0.14327997045E+04  0.00000000000E+00 0. -1.
         21   -1    0    0  501  502 -0.00000000000E+00 -0.00000000000E+00 -0.27926516783E+02  0.27926516783E+02  0.00000000000E+00 0. -1.
         25    1    1    2    0    0  0.36009686452E+02 -0.15164392764E+03  0.73812277364E+03  0.76468477641E+03  0.12500000000E+03 0.  0.
         25    1    1    2    0    0 -0.36009686452E+02  0.15164392764E+03  0.66675041409E+03  0.69604144488E+03  0.12500000000E+03 0.  0.
</event>
<event>
 4    0  0.2193754E-002  0.3164285E+03  0.7546771E-02  0.1077305E+00
         21   -1    0    0  502  501  0.00000000000E+00  0.00000000000E+00  0.86450136983E+03  0.86450136983E+03  0.00000000000E+00 0. -1.
         21   -1    0    0  501  502 -0.00000000000E+00 -0.00000000000E+00 -0.11582051865E+03  0.11582051865E+03  0.00000000000E+00 0.  1.
         25    1    1    2    0    0 -0.23963025186E+03 -0.11786185594E+03  0.19645052239E+03  0.35430478749E+03  0.12500000000E+03 0.  0.
         25    1    1    2    0    0  0.23963025186E+03  0.11786185594E+03  0.55223032879E+03  0.62601710099E+03  0.12500000000E+03 0.  0.
</event>
<event>
 4    0  0.2193754E-002  0.1655151E+03  0.7546771E-02  0.1182607E+00
         21   -1    0    0  502  501  0.00000000000E+00  0.00000000000E+00  0.38550821435E+02  0.38550821435E+02  0.00000000000E+00 0.  1.
         21   -1    0    0  501  502 -0.00000000000E+00 -0.00000000000E+00 -0.71062691727E+03  0.71062691727E+03  0.00000000000E+00 0.  1.
         25    1    1    2    0    0 -0.69811154813E+02 -0.77881771277E+02 -0.40128190408E+03  0.43311815268E+03  0.12500000000E+03 0.  0.
         25    1    1    2    0    0  0.69811154813E+02  0.77881771277E+02 -0.27079419175E+03  0.31605958603E+03  0.12500000000E+03 0.  0.
</event>
<event>
 4    0  0.2193754E-002  0.1863786E+03  0.7546771E-02  0.1161769E+00
         21   -1    0    0  502  501  0.00000000000E+00  0.00000000000E+00  0.46207571066E+03  0.46207571066E+03  0.00000000000E+00 0. -1.
         21   -1    0    0  501  502 -0.00000000000E+00 -0.00000000000E+00 -0.75175990099E+02  0.75175990099E+02  0.00000000000E+00 0. -1.
         25    1    1    2    0    0 -0.85999338378E+02  0.38496145138E+02  0.33925665028E+03  0.37362804251E+03  0.12500000000E+03 0.  0.
         25    1    1    2    0    0  0.85999338378E+02 -0.38496145138E+02  0.47643070280E+02  0.16362365825E+03  0.12500000000E+03 0.  0.
</event>
<event>
 4    0  0.2193754E-002  0.3286394E+03  0.7546771E-02  0.1071740E+00
         21   -1    0    0  502  501  0.00000000000E+00  0.00000000000E+00  0.21036729372E+03  0.21036729372E+03  0.00000000000E+00 0. -1.
         21   -1    0    0  501  502 -0.00000000000E+00 -0.00000000000E+00 -0.51340614024E+03  0.51340614024E+03  0.00000000000E+00 0. -1.
         25    1    1    2    0    0  0.18543358575E+03  0.24076950036E+03 -0.15683399545E+03  0.36411189098E+03  0.12500000000E+03 0.  0.
         25    1    1    2    0    0 -0.18543358575E+03 -0.24076950036E+03 -0.14620485107E+03  0.35966154298E+03  0.12500000000E+03 0.  0.
</event>
<event>
 4    0  0.2193754E-002  0.1815491E+03  0.7546771E-02  0.1166312E+00
         21   -1    0    0  502  501  0.00000000000E+00  0.00000000000E+00  0.32331133407E+03  0.32331133407E+03  0.00000000000E+00 0. -1.
         21   -1    0    0  501  502 -0.00000000000E+00 -0.00000000000E+00 -0.10194534149E+03  0.10194534149E+03  0.00000000000E+00 0. -1.
         25    1    1    2    0    0 -0.11024499963E+03 -0.41110793189E+02  0.17988259831E+03  0.24864996770E+03  0.12500000000E+03 0.  0.
         25    1    1    2    0    0  0.11024499963E+03  0.41110793189E+02  0.41483394269E+02  0.17660670786E+03  0.12500000000E+03 0.  0.
</event>
<event>
 4    0  0.2193754E-002  0.2196275E+03  0.7546771E-02  0.1134161E+00
         21   -1    0    0  502  501  0.00000000000E+00  0.00000000000E+00  0.28409218817E+03  0.28409218817E+03  0.00000000000E+00 0. -1.
         21   -1    0    0  501  502 -0.00000000000E+00 -0.00000000000E+00 -0.16979083446E+03  0.16979083446E+03  0.00000000000E+00 0. -1.
         25    1    1    2    0    0  0.25733669706E+02 -0.15389581616E+03  0.15109085545E+03  0.25059846486E+03  0.12500000000E+03 0.  0.
         25    1    1    2    0    0 -0.25733669706E+02  0.15389581616E+03 -0.36789501754E+02  0.20328455777E+03  0.12500000000E+03 0.  0.
</event>
<event>
 4    0  0.2193754E-002  0.1943463E+03  0.7546771E-02  0.1154599E+00
         21   -1    0    0  502  501  0.00000000000E+00  0.00000000000E+00  0.11141612053E+04  0.11141612053E+04  0.00000000000E+00 0.  1.
         21   -1    0    0  501  502 -0.00000000000E+00 -0.00000000000E+00 -0.33900373886E+02  0.33900373886E+02  0.00000000000E+00 0.  1.
         25    1    1    2    0    0  0.82382692408E+02 -0.78771835388E+02  0.82271873946E+03  0.83993037468E+03  0.12500000000E+03 0.  0.
         25    1    1    2    0    0 -0.82382692408E+02  0.78771835388E+02  0.25754209194E+03  0.30813120449E+03  0.12500000000E+03 0.  0.
</event>
<event>
 4    0  0.2193754E-002  0.1938536E+03  0.7546771E-02  0.1155031E+00
         21   -1    0    0  502  501  0.00000000000E+00  0.00000000000E+00  0.63535785632E+02  0.63535785632E+02  0.00000000000E+00 0.  1.
         21   -1    0    0  501  502 -0.00000000000E+00 -0.00000000000E+00 -0.59146532053E+03  0.59146532053E+03  0.00000000000E+00 0.  1.
         25    1    1    2    0    0  0.10410545004E+03 -0.10533460950E+03 -0.27168620798E+03  0.33372401816E+03  0.12500000000E+03 0.  0.
         25    1    1    2    0    0 -0.10410545004E+03  0.10533460950E+03 -0.25624332691E+03  0.32127708800E+03  0.12500000000E+03 0.  0.
</event>
<event>
 4    0  0.2193754E-002  0.3215067E+03  0.7546771E-02  0.1074958E+00
         21   -1    0    0  502  501  0.00000000000E+00  0.00000000000E+00  0.14921152749E+04  0.14921152749E+04  0.00000000000E+00 0.  1.
         21   -1    0    0  501  502 -0.00000000000E+00 -0.00000000000E+00 -0.69275175042E+02  0.69275175042E+02  0.00000000000E+00 0.  1.
         25    1    1    2    0    0 -0.89422696992E+02  0.62339171438E+02  0.13802180246E+04  0.13901472535E+04  0.12500000000E+03 0.  0.
         25    1    1    2    0    0  0.89422696992E+02 -0.62339171438E+02  0.42622075298E+02  0.17124319646E+03  0.12500000000E+03 0.  0.
</event>
<event>
 4    0  0.2193754E-002  0.2805923E+03  0.7546771E-02  0.1095366E+00
         21   -1    0    0  502  501  0.00000000000E+00  0.00000000000E+00  0.63143177718E+02  0.63143177718E+02  0.00000000000E+00 0.  1.
         21   -1    0    0  501  502 -0.00000000000E+00 -0.00000000000E+00 -0.12468812728E+04  0.12468812728E+04  0.00000000000E+00 0.  1.
         25    1    1    2    0    0 -0.80634954030E+02  0.17697870222E+03 -0.96305625308E+03  0.99041698464E+03  0.12500000000E+03 0.  0.
         25    1    1    2    0    0  0.80634954030E+02 -0.17697870222E+03 -0.22068184195E+03  0.31960746584E+03  0.12500000000E+03 0.  0.
</event>
<event>
 4    0  0.2193754E-002  0.2160707E+03  0.7546771E-02  0.1136847E+00
         21   -1    0    0  502  501  0.00000000000E+00  0.00000000000E+00  0.78698914670E+02  0.78698914670E+02  0.00000000000E+00 0. -1.
         21   -1    0    0  501  502 -0.00000000000E+00 -0.00000000000E+00 -0.59322990214E+03  0.59322990214E+03  0.00000000000E+00 0. -1.
         25    1    1    2    0    0 -0.11771868601E+03 -0.11285369469E+03 -0.36119749733E+03  0.41555057156E+03  0.12500000000E+03 0.  0.
         25    1    1    2    0    0  0.11771868601E+03  0.11285369469E+03 -0.15333349014E+03  0.25637824525E+03  0.12500000000E+03 0.  0.
</event>
<event>
 4    0  0.2193754E-002  0.2298528E+03  0.7546771E-02  0.1126743E+00
         21   -1    0    0  502  501  0.00000000000E+00  0.00000000000E+00  0.50522468854E+03  0.50522468854E+03  0.00000000000E+00 0.  1.
         21   -1    0    0  501  502 -0.00000000000E+00 -0.00000000000E+00 -0.10457186978E+03  0.10457186978E+03  0.00000000000E+00 0.  1.
         25    1    1    2    0    0 -0.15572246774E+03 -0.11854711293E+02  0.35050326505E+03  0.40356853191E+03  0.12500000000E+03 0.  0.
         25    1    1    2    0    0  0.15572246774E+03  0.11854711293E+02  0.50149553704E+02  0.20622802641E+03  0.12500000000E+03 0.  0.
</event>
<event>
 4    0  0.2193754E-002  0.2573274E+03  0.7546771E-02  0.1108760E+00
         21   -1    0    0  502  501  0.00000000000E+00  0.00000000000E+00  0.37497378811E+03  0.37497378811E+03  0.00000000000E+00 0.  1.
         21   -1    0    0  501  502 -0.00000000000E+00 -0.00000000000E+00 -0.17659210920E+03  0.17659210920E+03  0.00000000000E+00 0.  1.
         25    1    1    2    0    0  0.71032391096E+02  0.21103455855E+03  0.65110370475E+02  0.26352522807E+03  0.12500000000E+03 0.  0.
         25    1    1    2    0    0 -0.71032391096E+02 -0.21103455855E+03  0.13327130844E+03  0.28804066924E+03  0.12500000000E+03 0.  0.
</event>
<event>
 4    0  0.2193754E-002  0.3005033E+03  0.7546771E-02  0.1084989E+00
         21   -1    0    0  502  501  0.00000000000E+00  0.00000000000E+00  0.14407951967E+03  0.14407951967E+03  0.00000000000E+00 0. -1.
         21   -1    0    0  501  502 -0.00000000000E+00 -0.00000000000E+00 -0.62675283260E+03  0.62675283260E+03  0.00000000000E+00 0. -1.
         25    1    1    2    0    0  0.70491888111E+02 -0.18723633284E+03 -0.25903598779E+01  0.23592003007E+03  0.12500000000E+03 0.  0.
         25    1    1    2    0    0 -0.70491888111E+02  0.18723633284E+03 -0.48008295305E+03  0.53491232220E+03  0.12500000000E+03 0.  0.
</event>
<event>
 4    0  0.2193754E-002  0.2065007E+03  0.7546771E-02  0.1144367E+00
         21   -1    0    0  502  501  0.00000000000E+00  0.00000000000E+00  0.55608455727E+03  0.55608455727E+03  0.00000000000E+00 0. -1.
         21   -1    0    0  501  502 -0.00000000000E+00 -0.00000000000E+00 -0.76683528472E+02  0.76683528472E+02  0.00000000000E+00 0. -1.
         25    1    1    2    0    0  0.59447686060E+02  0.72781813740E+02  0.44631718512E+03  0.47292203324E+03  0.12500000000E+03 0.  0.
         25    1    1    2    0    0 -0.59447686060E+02 -0.72781813740E+02  0.33083843682E+02  0.15984605251E+03  0.12500000000E+03 0.  0.
</event>
<event>
 4    0  0.2193754E-002  0.2086153E+03  0.7546771E-02  0.1142667E+00
         21   -1    0    0  502  501  0.00000000000E+00  0.00000000000E+00  0.13998246915E+03  0.13998246915E+03  0.00000000000E+00 0. -1.
         21   -1    0    0  501  502 -0.00000000000E+00 -0.00000000000E+00 -0.31089851407E+03  0.31089851407E+03  0.00000000000E+00 0. -1.
         25    1    1    2    0    0 -0.55165166071E+02 -0.44082126833E+02 -0.24902213012E+03  0.28744295216E+03  0.12500000000E+03 0.  0.
         25    1    1    2    0    0  0.55165166071E+02  0.44082126833E+02  0.78106085198E+02  0.16343803107E+03  0.12500000000E+03 0.  0.
</event>
<event>
 4    0  0.2193754E-002  0.2107724E+03  0.7546771E-02  0.1140956E+00
         21   -1    0    0  502  501  0.00000000000E+00  0.00000000000E+00  0.45964801798E+02  0.45964801798E+02  0.00000000000E+00 0.  1.
         21   -1    0    0  501  502 -0.00000000000E+00 -0.00000000000E+00 -0.96650039879E+03  0.96650039879E+03  0.00000000000E+00 0.  1.
         25    1    1    2    0    0 -0.88976250253E+02 -0.67014709670E+01 -0.11355672784E+03  0.19100212894E+03  0.12500000000E+03 0.  0.
         25    1    1    2    0    0  0.88976250253E+02  0.67014709670E+01 -0.80697886915E+03  0.82146307165E+03  0.12500000000E+03 0.  0.
</event>
<event>
 4    0  0.2193754E-002  0.2350033E+03  0.7546771E-02  0.1123167E+00
         21   -1    0    0  502  501  0.00000000000E+00  0.00000000000E+00  0.23866155211E+03  0.23866155211E+03  0.00000000000E+00 0.  1.
         21   -1    0    0  501  502 -0.00000000000E+00 -0.00000000000E+00 -0.23140103694E+03  0.23140103694E+03  0.00000000000E+00 0.  1.
         25    1    1    2    0    0  0.19286690471E+03  0.25229763738E+02 -0.38414581228E+02  0.23438187635E+03  0.12500000000E+03 0.  0.
         25    1    1    2    0    0 -0.19286690471E+03 -0.25229763738E+02  0.45675096401E+02  0.23568071270E+03  0.12500000000E+03 0.  0.
</event>
<event>
 4    0  0.2193754E-002  0.2322203E+03  0.7546771E-02  0.1125087E+00
         21   -1    0    0  502  501  0.00000000000E+00  0.00000000000E+00  0.24972087224E+03  0.24972087224E+03  0.00000000000E+00 0. -1.
         21   -1    0    0  501  502 -0.00000000000E+00 -0.00000000000E+00 -0.21594619562E+03  0.21594619562E+03  0.00000000000E+00 0. -1.
         25    1    1    2    0    0  0.12397379738E+03 -0.98345474274E+02  0.13234322195E+03  0.24120751054E+03  0.12500000000E+03 0.  0.
         25    1    1    2    0    0 -0.12397379738E+03  0.98345474274E+02 -0.98568545318E+02  0.22445955732E+03  0.12500000000E+03 0.  0.
</event>
<event>
 4    0  0.2193754E-002  0.3226061E+03  0.7546771E-02  0.1074456E+00
         21   -1    0    0  502  501  0.00000000000E+00  0.00000000000E+00  0.53635669588E+03  0.53635669588E+03  0.00000000000E+00 0. -1.
         21   -1    0    0  501  502 -0.00000000000E+00 -0.00000000000E+00 -0.19404007091E+03  0.19404007091E+03  0.00000000000E+00 0. -1.
         25    1    1    2    0    0  0.29378992502E+03 -0.46208177371E+02  0.16956718012E+03  0.36445266397E+03  0.12500000000E+03 0.  0.
         25    1    1    2    0    0 -0.29378992502E+03  0.46208177371E+02  0.17274944485E+03  0.36594410283E+03  0.12500000000E+03 0.  0.
</event>
<event>
 4    0  0.2193754E-002  0.2719280E+03  0.7546771E-02  0.1100181E+00
         21   -1    0    0  502  501  0.00000000000E+00  0.00000000000E+00  0.75920680268E+02  0.75920680268E+02  0.00000000000E+00 0. -1.
         21   -1    0    0  501  502 -0.00000000000E+00 -0.00000000000E+00 -0.97397475145E+03  0.97397475145E+03  0.00000000000E+00 0. -1.
         25    1    1    2    0    0 -0.12883846016E+03  0.20425347929E+03 -0.45095080504E+03  0.52659325972E+03  0.12500000000E+03 0.  0.
         25    1    1    2    0    0  0.12883846016E+03 -0.20425347929E+03 -0.44710326614E+03  0.52330217199E+03  0.12500000000E+03 0.  0.
</event>
<event>
 4    0  0.2193754E-002  0.1562098E+03  0.7546771E-02  0.1193043E+00
         21   -1    0    0  502  501  0.00000000000E+00  0.00000000000E+00  0.18446790453E+03  0.18446790453E+03  0.00000000000E+00 0. -1.
         21   -1    0    0  501  502 -0.00000000000E+00 -0.00000000000E+00 -0.13228054562E+03  0.13228054562E+03  0.00000000000E+00 0. -1.
         25    1    1    2    0    0 -0.21493433992E+01  0.52785897713E+02 -0.52344577587E+02  0.14545076651E+03  0.12500000000E+03 0.  0.
         25    1    1    2    0    0  0.21493433992E+01 -0.52785897713E+02  0.10453193649E+03  0.17129768364E+03  0.12500000000E+03 0.  0.
</event>
<event>
 4    0  0.2193754E-002  0.2143072E+03  0.7546771E-02  0.1138200E+00
         21   -1    0    0  502  501  0.00000000000E+00  0.00000000000E+00  0.38491765489E+02  0.38491765489E+02  0.00000000000E+00 0.  1.
         21   -1    0    0  501  502 -0.00000000000E+00 -0.00000000000E+00 -0.11931792533E+04  0.11931792533E+04  0.00000000000E+00 0.  1.
         25    1    1    2    0    0  0.11904690582E+03 -0.32446250550E+02 -0.93019755181E+03  0.94663478193E+03  0.12500000000E+03 0.  0.
         25    1    1    2    0    0 -0.11904690582E+03  0.32446250550E+02 -0.22448993601E+03  0.28503623687E+03  0.12500000000E+03 0.  0.
</event>
<event>
 4    0  0.2193754E-002  0.1989265E+03  0.7546771E-02  0.1150648E+00
         21   -1    0    0  502  501  0.00000000000E+00  0.00000000000E+00  0.93549801799E+02  0.93549801799E+02  0.00000000000E+00 0.  1.
         21   -1    0    0  501  502 -0.00000000000E+00 -0.00000000000E+00 -0.42300182085E+03  0.42300182085E+03  0.00000000000E+00 0.  1.
         25    1    1    2    0    0 -0.15221204580E+02  0.14102172930E+03 -0.84396929407E+02  0.20704264029E+03  0.12500000000E+03 0.  0.
         25    1    1    2    0    0  0.15221204580E+02 -0.14102172930E+03 -0.24505508964E+03  0.30950898236E+03  0.12500000000E+03 0.  0.
</event>
<event>
 4    0  0.2193754E-002  0.2172083E+03  0.7546771E-02  0.1135982E+00
         21   -1    0    0  502  501  0.00000000000E+00  0.00000000000E+00  0.23496740903E+03  0.23496740903E+03  0.00000000000E+00 0. -1.
         21   -1    0    0  501  502 -0.00000000000E+00 -0.00000000000E+00 -0.20079136326E+03  0.20079136326E+03  0.00000000000E+00 0. -1.
         25    1    1    2    0    0 -0.67666709689E+02  0.31475827300E+02 -0.14460841987E+03  0.20519772514E+03  0.12500000000E+03 0.  0.
         25    1    1    2    0    0  0.67666709689E+02 -0.31475827300E+02  0.17878446565E+03  0.23056104715E+03  0.12500000000E+03 0.  0.
</event>
<event>
 4    0  0.2193754E-002  0.3159918E+03  0.7546771E-02  0.1077509E+00
         21   -1    0    0  502  501  0.00000000000E+00  0.00000000000E+00  0.10696982332E+04  0.10696982332E+04  0.00000000000E+00 0. -1.
         21   -1    0    0  501  502 -0.00000000000E+00 -0.00000000000E+00 -0.93344868513E+02  0.93344868513E+02  0.00000000000E+00 0. -1.
         25    1    1    2    0    0 -0.13842616668E+03  0.92899806036E+02  0.50997903940E+02  0.21451798011E+03  0.12500000000E+03 0.  0.
         25    1    1    2    0    0  0.13842616668E+03 -0.92899806036E+02  0.92535546073E+03  0.94852512158E+03  0.12500000000E+03 0.  0.
</event>
<event>
 4    0  0.2193754E-002  0.1901814E+03  0.7546771E-02  0.1158298E+00
         21   -1    0    0  502  501  0.00000000000E+00  0.00000000000E+00  0.13824494936E+02  0.13824494936E+02  0.00000000000E+00 0. -1.
         21   -1    0    0  501  502 -0.00000000000E+00 -0.00000000000E+00 -0.26162968691E+04  0.26162968691E+04  0.00000000000E+00 0. -1.
         25    1    1    2    0    0  0.82380685643E+02  0.10220248477E+03 -0.16991844227E+04  0.17088255111E+04  0.12500000000E+03 0.  0.
         25    1    1    2    0    0 -0.82380685643E+02 -0.10220248477E+03 -0.90328795151E+03  0.92129585292E+03  0.12500000000E+03 0.  0.
</event>
<event>
 4    0  0.2193754E-002  0.3481645E+03  0.7546771E-02  0.1063371E+00
         21   -1    0    0  502  501  0.00000000000E+00  0.00000000000E+00  0.12804958882E+03  0.12804958882E+03  0.00000000000E+00 0.  1.
         21   -1    0    0  501  502 -0.00000000000E+00 -0.00000000000E+00 -0.94665285562E+03  0.94665285562E+03  0.00000000000E+00 0.  1.
         25    1    1    2    0    0  0.12391054893E+03 -0.19132886480E+03 -0.51872773346E+02  0.26509685637E+03  0.12500000000E+03 0.  0.
         25    1    1    2    0    0 -0.12391054893E+03  0.19132886480E+03 -0.76673049346E+03  0.80960558807E+03  0.12500000000E+03 0.  0.
</event>
<event>
 4    0  0.2193754E-002  0.2524656E+03  0.7546771E-02  0.1111756E+00
         21   -1    0    0  502  501  0.00000000000E+00  0.00000000000E+00  0.58470159046E+03  0.58470159046E+03  0.00000000000E+00 0.  1.
         21   -1    0    0  501  502 -0.00000000000E+00 -0.00000000000E+00 -0.10901099748E+03  0.10901099748E+03  0.00000000000E+00 0.  1.
         25    1    1    2    0    0  0.33890989318E+02  0.20906311123E+03  0.15942698423E+03  0.29308351529E+03  0.12500000000E+03 0.  0.
         25    1    1    2    0    0 -0.33890989318E+02 -0.20906311123E+03  0.31626360875E+03  0.40062907266E+03  0.12500000000E+03 0.  0.
</event>
<event>
 4    0  0.2193754E-002  0.2276798E+03  0.7546771E-02  0.1128284E+00
         21   -1    0    0  502  501  0.00000000000E+00  0.00000000000E+00  0.87869874331E+02  0.87869874331E+02  0.00000000000E+00 0.  1.
         21   -1    0    0  501  502 -0.00000000000E+00 -0.00000000000E+00 -0.58994133975E+03  0.58994133975E+03  0.00000000000E+00 0.  1.
         25    1    1    2    0    0 -0.87422355067E+02 -0.92334935454E+02 -0.40292462456E+02  0.18280287471E+03  0.12500000000E+03 0.  0.
         25    1    1    2    0    0  0.87422355067E+02  0.92334935454E+02 -0.46177900296E+03  0.49500833937E+03  0.12500000000E+03 0.  0.
</event>
<event>
 4    0  0.2193754E-002  0.2949410E+03  0.7546771E-02  0.1087797E+00
         21   -1    0    0  502  501  0.00000000000E+00  0.00000000000E+00  0.13709192249E+04  0.13709192249E+04  0.00000000000E+00 0.  1.
         21   -1    0    0  501  502 -0.00000000000E+00 -0.00000000000E+00 -0.63453900995E+02  0.63453900995E+02  0.00000000000E+00 0.  1.
         25    1    1    2    0    0 -0.50388934135E+02  0.26015831194E+03  0.73596988771E+03  0.79214775615E+03  0.12500000000E+03 0.  0.
         25    1    1    2    0    0  0.50388934135E+02 -0.26015831194E+03  0.57149543619E+03  0.64222536974E+03  0.12500000000E+03 0.  0.
</event>
<event>
 4    0  0.2193754E-002  0.3463450E+03  0.7546771E-02  0.1064125E+00
         21   -1    0    0  502  501  0.00000000000E+00  0.00000000000E+00  0.11297551900E+04  0.11297551900E+04  0.00000000000E+00 0. -1.
         21   -1    0    0  501  502 -0.00000000000E+00 -0.00000000000E+00 -0.10617775426E+03  0.10617775426E+03  0.00000000000E+00 0. -1.
         25    1    1    2    0    0 -0.44655685694E+02  0.29867253879E+03  0.30733461440E+03  0.44864126081E+03  0.12500000000E+03 0.  0.
         25    1    1    2    0    0  0.44655685694E+02 -0.29867253879E+03  0.71624282133E+03  0.78729168343E+03  0.12500000000E+03 0.  0.
</event>
<event>
 4    0  0.2193754E-002  0.3910718E+03  0.7546771E-02  0.1046916E+00
         21   -1    0    0  502  501  0.00000000000E+00  0.00000000000E+00  0.28915236991E+03  0.28915236991E+03  0.00000000000E+00 0.  1.
         21   -1    0    0  501  502 -0.00000000000E+00 -0.00000000000E+00 -0.52891548430E+03  0.52891548430E+03  0.00000000000E+00 0.  1.
         25    1    1    2    0    0  0.35654427536E+03  0.38432703954E+02 -0.21750263959E+03  0.43764516592E+03  0.12500000000E+03 0.  0.
         25    1    1    2    0    0 -0.35654427536E+03 -0.38432703954E+02 -0.22260474808E+02  0.38042268829E+03  0.12500000000E+03 0.  0.
</event>
<event>
 4    0  0.2193754E-002  0.2245720E+03  0.7546771E-02  0.1130520E+00
         21   -1    0    0  502  501  0.00000000000E+00  0.00000000000E+00  0.34977212833E+02  0.34977212833E+02  0.00000000000E+00 0.  1.
         21   -1    0    0  501  502 -0.00000000000E+00 -0.00000000000E+00 -0.14418694149E+04  0.14418694149E+04  0.00000000000E+00 0.  1.
         25    1    1    2    0    0 -0.13029796024E+02 -0.13797647962E+03 -0.29275418371E+03  0.34718481618E+03  0.12500000000E+03 0.  0.
         25    1    1    2    0    0  0.13029796024E+02  0.13797647962E+03 -0.11141380183E+04  0.11296618115E+04  0.12500000000E+03 0.  0.
</event>
<event>
 4    0  0.2193754E-002  0.1603369E+03  0.7546771E-02  0.1188317E+00
         21   -1    0    0  502  501  0.00000000000E+00  0.00000000000E+00  0.12617874965E+04  0.12617874965E+04  0.00000000000E+00 0.  1.
         21   -1    0    0  501  502 -0.00000000000E+00 -0.00000000000E+00 -0.20374211561E+02  0.20374211561E+02  0.00000000000E+00 0.  1.
         25    1    1    2    0    0  0.84008957840E+02  0.23064455191E+02  0.82036143394E+03  0.83439041005E+03  0.12500000000E+03 0.  0.
         25    1    1    2    0    0 -0.84008957840E+02 -0.23064455191E+02  0.42105185099E+03  0.44777129800E+03  0.12500000000E+03 0.  0.
</event>
<event>
 4    0  0.2193754E-002  0.2283159E+03  0.7546771E-02  0.1127831E+00
         21   -1    0    0  502  501  0.00000000000E+00  0.00000000000E+00  0.13001828646E+04  0.13001828646E+04  0.00000000000E+00 0.  1.
         21   -1    0    0  501  502 -0.00000000000E+00 -0.00000000000E+00 -0.40092929955E+02  0.40092929955E+02  0.00000000000E+00 0.  1.
         25    1    1    2    0    0  0.11990869610E+03  0.14030142379E+03  0.48504349394E+03  0.53381155470E+03  0.12500000000E+03 0.  0.
         25    1    1    2    0    0 -0.11990869610E+03 -0.14030142379E+03  0.77504644069E+03  0.80646423985E+03  0.12500000000E+03 0.  0.
</event>
<event>
 4    0  0.2193754E-002  0.2963733E+03  0.7546771E-02  0.1087068E+00
         21   -1    0    0  502  501  0.00000000000E+00  0.00000000000E+00  0.14726225703E+03  0.14726225703E+03  0.00000000000E+00 0. -1.
         21   -1    0    0  501  502 -0.00000000000E+00 -0.00000000000E+00 -0.59646727300E+03  0.59646727300E+03  0.00000000000E+00 0. -1.
         25    1    1    2    0    0  0.50732597255E+02  0.81310066054E+02  0.90396575156E+02  0.18160854624E+03  0.12500000000E+03 0.  0.
         25    1    1    2    0    0 -0.50732597255E+02 -0.81310066054E+02 -0.53960159113E+03  0.56212098379E+03  0.12500000000E+03 0.  0.
</event>
<event>
 4    0  0.2193754E-002  0.1781326E+03  0.7546771E-02  0.1169623E+00
         21   -1    0    0  502  501  0.00000000000E+00  0.00000000000E+00  0.10721948546E+03  0.10721948546E+03  0.00000000000E+00 0. -1.
         21   -1    0    0  501  502 -0.00000000000E+00 -0.00000000000E+00 -0.29594657704E+03  0.29594657704E+03  0.00000000000E+00 0. -1.
         25    1    1    2    0    0  0.12433325319E+03  0.21067766376E+02 -0.11051205706E+03  0.20914235196E+03  0.12500000000E+03 0.  0.
         25    1    1    2    0    0 -0.12433325319E+03 -0.21067766376E+02 -0.78215034513E+02  0.19402371054E+03  0.12500000000E+03 0.  0.
</event>
<event>
 4    0  0.2193754E-002  0.2821816E+03  0.7546771E-02  0.1094503E+00
         21   -1    0    0  502  501  0.00000000000E+00  0.00000000000E+00  0.22098959741E+03  0.22098959741E+03  0.00000000000E+00 0.  1.
         21   -1    0    0  501  502 -0.00000000000E+00 -0.00000000000E+00 -0.36031777794E+03  0.36031777794E+03  0.00000000000E+00 0.  1.
         25    1    1    2    0    0 -0.19868573152E+03 -0.15219840673E+03 -0.31663266332E+02  0.28154562216E+03  0.12500000000E+03 0.  0.
         25    1    1    2    0    0  0.19868573152E+03  0.15219840673E+03 -0.10766491419E+03  0.29976175318E+03  0.12500000000E+03 0.  0.
</event>
<event>
 4    0  0.2193754E-002  0.2549004E+03  0.7546771E-02  0.1110246E+00
         21   -1    0    0  502  501  0.00000000000E+00  0.00000000000E+00  0.88457702123E+03  0.88457702123E+03  0.00000000000E+00 0. -1.
         21   -1    0    0  501  502 -0.00000000000E+00 -0.00000000000E+00 -0.73452279278E+02  0.73452279278E+02  0.00000000000E+00 0. -1.
         25    1    1    2    0    0 -0.48308352636E+02  0.15065338212E+03  0.11250562536E+03  0.23089533174E+03  0.12500000000E+03 0.  0.
         25    1    1    2    0    0  0.48308352636E+02 -0.15065338212E+03  0.69861911659E+03  0.72713396877E+03  0.12500000000E+03 0.  0.
</event>
<event>
 4    0  0.2193754E-002  0.1455610E+03  0.7546771E-02  0.1206036E+00
         21   -1    0    0  502  501  0.00000000000E+00  0.00000000000E+00  0.10132375247E+03  0.10132375247E+03  0.00000000000E+00 0. -1.
         21   -1    0    0  501  502 -0.00000000000E+00 -0.00000000000E+00 -0.20911206553E+03  0.20911206553E+03  0.00000000000E+00 0. -1.
         25    1    1    2    0    0  0.72395403217E+02 -0.16588479478E+02 -0.61184937038E+02  0.15774938535E+03  0.12500000000E+03 0.  0.
         25    1    1    2    0    0 -0.72395403217E+02  0.16588479478E+02 -0.46603376022E+02  0.15268643265E+03  0.12500000000E+03 0.  0.
</event>
<event>
 4    0  0.2193754E-002  0.1980108E+03  0.7546771E-02  0.1151428E+00
         21   -1    0    0  502  501  0.00000000000E+00  0.00000000000E+00  0.28152011113E+02  0.28152011113E+02  0.00000000000E+00 0. -1.
         21   -1    0    0  501  502 -0.00000000000E+00 -0.00000000000E+00 -0.13927342151E+04  0.13927342151E+04  0.00000000000E+00 0. -1.
         25    1    1    2    0    0 -0.82501625468E+01 -0.14947420166E+03 -0.80515599800E+03  0.82843936608E+03  0.12500000000E+03 0.  0.
         25    1    1    2    0    0  0.82501625468E+01  0.14947420166E+03 -0.55942620600E+03  0.59244686015E+03  0.12500000000E+03 0.  0.
</event>
<event>
 4    0  0.2193754E-002  0.3643104E+03  0.7546771E-02  0.1056890E+00
         21   -1    0    0  502  501  0.00000000000E+00  0.00000000000E+00  0.44885608436E+03  0.44885608436E+03  0.00000000000E+00 0.  1.
         21   -1    0    0  501  502 -0.00000000000E+00 -0.00000000000E+00 -0.29568950668E+03  0.29568950668E+03  0.00000000000E+00 0.  1.
         25    1    1    2    0    0 -0.44614450059E+02 -0.28903282787E+03 -0.10496984686E+03  0.33492401151E+03  0.12500000000E+03 0.  0.
         25    1    1    2    0    0  0.44614450059E+02  0.28903282787E+03  0.25813642453E+03  0.40962157952E+03  0.12500000000E+03 0.  0.
</event>
<event>
 4    0  0.2193754E-002  0.2082829E+03  0.7546771E-02  0.1142933E+00
         21   -1    0    0  502  501  0.00000000000E+00  0.00000000000E+00  0.31697933617E+02  0.31697933617E+02  0.00000000000E+00 0. -1.
         21   -1    0    0  501  502 -0.00000000000E+00 -0.00000000000E+00 -0.13685993956E+04  0.13685993956E+04  0.00000000000E+00 0. -1.
         25    1    1    2    0    0 -0.93897454542E+02  0.10928816969E+03 -0.38728281422E+03  0.43171010435E+03  0.12500000000E+03 0.  0.
         25    1    1    2    0    0  0.93897454542E+02 -0.10928816969E+03 -0.94961864775E+03  0.96858722486E+03  0.12500000000E+03 0.  0.
</event>
<event>
 4    0  0.2193754E-002  0.3433051E+03  0.7546771E-02  0.1065397E+00
         21   -1    0    0  502  501  0.00000000000E+00  0.00000000000E+00  0.89460884518E+02  0.89460884518E+02  0.00000000000E+00 0. -1.
         21   -1    0    0  501  502 -0.00000000000E+00 -0.00000000000E+00 -0.13174289628E+04  0.13174289628E+04  0.00000000000E+00 0. -1.
         25    1    1    2    0    0 -0.15788794659E+03 -0.67919509969E+02 -0.11664331841E+04  0.11856361316E+04  0.12500000000E+03 0.  0.
         25    1    1    2    0    0  0.15788794659E+03  0.67919509969E+02 -0.61534894124E+02  0.22125371569E+03  0.12500000000E+03 0.  0.
</event>
<event>
 4    0  0.2193754E-002  0.3750297E+03  0.7546771E-02  0.1052786E+00
         21   -1    0    0  502  501  0.00000000000E+00  0.00000000000E+00  0.40015666400E+03  0.40015666400E+03  0.00000000000E+00 0.  1.
         21   -1    0    0  501  502 -0.00000000000E+00 -0.00000000000E+00 -0.35148053384E+03  0.35148053384E+03  0.00000000000E+00 0.  1.
         25    1    1    2    0    0  0.69169646125E+02 -0.89026531843E+02 -0.31149689640E+03  0.35406987980E+03  0.12500000000E+03 0.  0.
         25    1    1    2    0    0 -0.69169646125E+02  0.89026531843E+02  0.36017302656E+03  0.39756731805E+03  0.12500000000E+03 0.  0.
</event>
<event>
 4    0  0.2193754E-002  0.2749744E+03  0.7546771E-02  0.1098466E+00
         21   -1    0    0  502  501  0.00000000000E+00  0.00000000000E+00  0.52774850934E+02  0.52774850934E+02  0.00000000000E+00 0. -1.
         21   -1    0    0  501  502 -0.00000000000E+00 -0.00000000000E+00 -0.14327071900E+04  0.14327071900E+04  0.00000000000E+00 0. -1.
         25    1    1    2    0    0 -0.95713608887E+01  0.12958794773E+03 -0.12507431419E+04  0.12636724473E+04  0.12500000000E+03 0.  0.
         25    1    1    2    0    0  0.95713608887E+01 -0.12958794773E+03 -0.12918919715E+03  0.22180959358E+03  0.12500000000E+03 0.  0.
</event>
<event>
 4    0  0.2193754E-002  0.2294102E+03  0.7546771E-02  0.1127056E+00
         21   -1    0    0  502  501  0.00000000000E+00  0.00000000000E+00  0.12557062775E+03  0.12557062775E+03  0.00000000000E+00 0. -1.
         21   -1    0    0  501  502 -0.00000000000E+00 -0.00000000000E+00 -0.41911895456E+03  0.41911895456E+03  0.00000000000E+00 0. -1.
         25    1    1    2    0    0 -0.27917406533E+01 -0.18849452336E+03 -0.19222908781E+03  0.29684171094E+03  0.12500000000E+03 0.  0.
         25    1    1    2    0    0  0.27917406533E+01  0.18849452336E+03 -0.10131923900E+03  0.24784787138E+03  0.12500000000E+03 0.  0.
</event>
<event>
 4    0  0.2193754E-002  0.3233998E+03  0.7546771E-02  0.1074095E+00
         21   -1    0    0  502  501  0.00000000000E+00  0.00000000000E+00  0.65754790966E+03  0.65754790966E+03  0.00000000000E+00 0. -1.
         21   -1    0    0  501  502 -0.00000000000E+00 -0.00000000000E+00 -0.15905676879E+03  0.15905676879E+03  0.00000000000E+00 0. -1.
         25    1    1    2    0    0  0.92185809861E+02  0.18931951825E+03  0.51594265688E+03  0.57110588223E+03  0.12500000000E+03 0.  0.
         25    1    1    2    0    0 -0.92185809861E+02 -0.18931951825E+03 -0.17451516008E+02  0.24549879621E+03  0.12500000000E+03 0.  0.
</event>
<event>
 4    0  0.2193754E-002  0.3035759E+03  0.7546771E-02  0.1083467E+00
         21   -1    0    0  502  501  0.00000000000E+00  0.00000000000E+00  0.40835465910E+03  0.40835465910E+03  0.00000000000E+00 0. -1.
         21   -1    0    0  501  502 -0.00000000000E+00 -0.00000000000E+00 -0.22568203644E+03  0.22568203644E+03  0.00000000000E+00 0. -1.
         25    1    1    2    0    0  0.27438467317E+03 -0.31114061857E+02  0.73915993810E+02  0.31199937157E+03  0.12500000000E+03 0.  0.
         25    1    1    2    0    0 -0.27438467317E+03  0.31114061857E+02  0.10875662884E+03  0.32203732398E+03  0.12500000000E+03 0.  0.
</event>
<event>
 4    0  0.2193754E-002  0.2699472E+03  0.7546771E-02  0.1101310E+00
         21   -1    0    0  502  501  0.00000000000E+00  0.00000000000E+00  0.24692217762E+02  0.24692217762E+02  0.00000000000E+00 0. -1.
         21   -1    0    0  501  502 -0.00000000000E+00 -0.00000000000E+00 -0.29511934668E+04  0.29511934668E+04  0.00000000000E+00 0. -1.
         25    1    1    2    0    0  0.41020367298E+02  0.12767755471E+03 -0.37106832260E+03  0.41388516347E+03  0.12500000000E+03 0.  0.
         25    1    1    2    0    0 -0.41020367298E+02 -0.12767755471E+03 -0.25554329265E+04  0.25620005211E+04  0.12500000000E+03 0.  0.
</event>
<event>
 4    0  0.2193754E-002  0.3841338E+03  0.7546771E-02  0.1049416E+00
         21   -1    0    0  502  501  0.00000000000E+00  0.00000000000E+00  0.41005343221E+03  0.41005343221E+03  0.00000000000E+00 0.  1.
         21   -1    0    0  501  502 -0.00000000000E+00 -0.00000000000E+00 -0.35985247712E+03  0.35985247712E+03  0.00000000000E+00 0.  1.
         25    1    1    2    0    0  0.19217785519E+03  0.30471465134E+03 -0.21370784021E+02  0.38192284191E+03  0.12500000000E+03 0.  0.
         25    1    1    2    0    0 -0.19217785519E+03 -0.30471465134E+03  0.71571739114E+02  0.38798306742E+03  0.12500000000E+03 0.  0.
</event>
<event>
 4    0  0.2193754E-002  0.3151550E+03  0.7546771E-02  0.1077901E+00
         21   -1    0    0  502  501  0.00000000000E+00  0.00000000000E+00  0.37152491197E+03  0.37152491197E+03  0.00000000000E+00 0. -1.
         21   -1    0    0  501  502 -0.00000000000E+00 -0.00000000000E+00 -0.26733780442E+03  0.26733780442E+03  0.00000000000E+00 0.  1.
         25    1    1    2    0    0 -0.26067175738E+03 -0.12549038669E+03  0.52324690385E+02  0.31946905245E+03  0.12500000000E+03 0.  0.
         25    1    1    2    0    0  0.26067175738E+03  0.12549038669E+03  0.51862417166E+02  0.31939366394E+03  0.12500000000E+03 0.  0.
</event>
<event>
 4    0  0.2193754E-002  0.2034692E+03  0.7546771E-02  0.1146845E+00
         21   -1    0    0  502  501  0.00000000000E+00  0.00000000000E+00  0.21772761065E+03  0.21772761065E+03  0.00000000000E+00 0. -1.
         21   -1    0    0  501  502 -0.00000000000E+00 -0.00000000000E+00 -0.19014457575E+03  0.19014457575E+03  0.00000000000E+00 0. -1.
         25    1    1    2    0    0 -0.74746947874E+02  0.96563639629E+02  0.11825677740E+03  0.21100073013E+03  0.12500000000E+03 0.  0.
         25    1    1    2    0    0  0.74746947874E+02 -0.96563639629E+02 -0.90673742493E+02  0.19687145627E+03  0.12500000000E+03 0.  0.
</event>
<event>
 4    0  0.2193754E-002  0.2170240E+03  0.7546771E-02  0.1136121E+00
         21   -1    0    0  502  501  0.00000000000E+00  0.00000000000E+00  0.48048523746E+03  0.48048523746E+03  0.00000000000E+00 0.  1.
         21   -1    0    0  501  502 -0.00000000000E+00 -0.00000000000E+00 -0.98024725446E+02  0.98024725446E+02  0.00000000000E+00 0.  1.
         25    1    1    2    0    0  0.80790730232E+02  0.61303403402E+02  0.38524293949E+03  0.41751930708E+03  0.12500000000E+03 0.  0.
         25    1    1    2    0    0 -0.80790730232E+02 -0.61303403402E+02 -0.27824274742E+01  0.16099065582E+03  0.12500000000E+03 0.  0.
</event>
<event>
 4    0  0.2193754E-002  0.3146274E+03  0.7546771E-02  0.1078149E+00
         21   -1    0    0  502  501  0.00000000000E+00  0.00000000000E+00  0.25020867998E+03  0.25020867998E+03  0.00000000000E+00 0.  1.
         21   -1    0    0  501  502 -0.00000000000E+00 -0.00000000000E+00 -0.39563139324E+03  0.39563139324E+03  0.00000000000E+00 0.  1.
         25    1    1    2    0    0  0.63687801008E+02  0.27798479443E+03 -0.26425880829E+02  0.31249801457E+03  0.12500000000E+03 0.  0.
         25    1    1    2    0    0 -0.63687801008E+02 -0.27798479443E+03 -0.11899683242E+03  0.33334205864E+03  0.12500000000E+03 0.  0.
</event>
<event>
 4    0  0.2193754E-002  0.3230460E+03  0.7546771E-02  0.1074256E+00
         21   -1    0    0  502  501  0.00000000000E+00  0.00000000000E+00  0.56583961216E+02  0.56583961216E+02  0.00000000000E+00 0. -1.
         21   -1    0    0  501  502 -0.00000000000E+00 -0.00000000000E+00 -0.18443156945E+04  0.18443156945E+04  0.00000000000E+00 0.  1.
         25    1    1    2    0    0 -0.27981264244E+03  0.84645811385E+02 -0.72552806832E+03  0.79213383098E+03  0.12500000000E+03 0.  0.
         25    1    1    2    0    0  0.27981264244E+03 -0.84645811385E+02 -0.10622036650E+04  0.11087658248E+04  0.12500000000E+03 0.  0.
</event>
<event>
 4    0  0.2193754E-002  0.2267069E+03  0.7546771E-02  0.1128979E+00
         21   -1    0    0  502  501  0.00000000000E+00  0.00000000000E+00  0.20223341704E+04  0.20223341704E+04  0.00000000000E+00 0. -1.
         21   -1    0    0  501  502 -0.00000000000E+00 -0.00000000000E+00 -0.25414203418E+02  0.25414203418E+02  0.00000000000E+00 0. -1.
         25    1    1    2    0    0  0.13229889261E+02 -0.15867057833E+03  0.14594675179E+04  0.14734387732E+04  0.12500000000E+03 0.  0.
         25    1    1    2    0    0 -0.13229889261E+02  0.15867057833E+03  0.53745244900E+03  0.57430960060E+03  0.12500000000E+03 0.  0.
</event>
<event>
 4    0  0.2193754E-002  0.1905262E+03  0.7546771E-02  0.1157988E+00
         21   -1    0    0  502  501  0.00000000000E+00  0.00000000000E+00  0.14808528266E+03  0.14808528266E+03  0.00000000000E+00 0. -1.
         21   -1    0    0  501  502 -0.00000000000E+00 -0.00000000000E+00 -0.24513059569E+03  0.24513059569E+03  0.00000000000E+00 0. -1.
         25    1    1    2    0    0 -0.63653981825E+02 -0.79582478624E+02  0.56155178132E+02  0.17077354695E+03  0.12500000000E+03 0.  0.
         25    1    1    2    0    0  0.63653981825E+02  0.79582478624E+02 -0.15320049116E+03  0.22244233140E+03  0.12500000000E+03 0.  0.
</event>
<event>
 4    0  0.2193754E-002  0.2110093E+03  0.7546771E-02  0.1140769E+00
         21   -1    0    0  502  501  0.00000000000E+00  0.00000000000E+00  0.26026004232E+03  0.26026004232E+03  0.00000000000E+00 0. -1.
         21   -1    0    0  501  502 -0.00000000000E+00 -0.00000000000E+00 -0.17107867395E+03  0.17107867395E+03  0.00000000000E+00 0. -1.
         25    1    1    2    0    0 -0.98518589768E+02  0.62961417666E+02  0.17072554937E+03  0.24174835233E+03  0.12500000000E+03 0.  0.
         25    1    1    2    0    0  0.98518589768E+02 -0.62961417666E+02 -0.81544181007E+02  0.18959036394E+03  0.12500000000E+03 0.  0.
</event>
<event>
 4    0  0.2193754E-002  0.4696044E+03  0.7546771E-02  0.1022032E+00
         21   -1    0    0  502  501  0.00000000000E+00  0.00000000000E+00  0.15538501249E+03  0.15538501249E+03  0.00000000000E+00 0. -1.
         21   -1    0    0  501  502 -0.00000000000E+00 -0.00000000000E+00 -0.14192380151E+04  0.14192380151E+04  0.00000000000E+00 0. -1.
         25    1    1    2    0    0 -0.29508557933E+03  0.88968470520E+02 -0.11877511778E+04  0.12334377764E+04  0.12500000000E+03 0.  0.
         25    1    1    2    0    0  0.29508557933E+03 -0.88968470520E+02 -0.76101824783E+02  0.34118525117E+03  0.12500000000E+03 0.  0.
</event>
<event>
 4    0  0.2193754E-002  0.2191339E+03  0.7546771E-02  0.1134530E+00
         21   -1    0    0  502  501  0.00000000000E+00  0.00000000000E+00  0.80751795270E+03  0.80751795270E+03  0.00000000000E+00 0. -1.
         21   -1    0    0  501  502 -0.00000000000E+00 -0.00000000000E+00 -0.59465780614E+02  0.59465780614E+02  0.00000000000E+00 0. -1.
         25    1    1    2    0    0  0.17556159523E+03  0.41195541010E+01  0.45205470138E+03  0.50081663060E+03  0.12500000000E+03 0.  0.
         25    1    1    2    0    0 -0.17556159523E+03 -0.41195541010E+01  0.29599747071E+03  0.36616710271E+03  0.12500000000E+03 0.  0.
</event>
<event>
 4    0  0.2193754E-002  0.3112934E+03  0.7546771E-02  0.1079728E+00
         21   -1    0    0  502  501  0.00000000000E+00  0.00000000000E+00  0.27202016763E+03  0.27202016763E+03  0.00000000000E+00 0. -1.
         21   -1    0    0  501  502 -0.00000000000E+00 -0.00000000000E+00 -0.35623681632E+03  0.35623681632E+03  0.00000000000E+00 0. -1.
         25    1    1    2    0    0  0.11560710165E+03 -0.23127899731E+03 -0.16330048891E+03  0.33037407015E+03  0.12500000000E+03 0.  0.
         25    1    1    2    0    0 -0.11560710165E+03  0.23127899731E+03  0.79083840216E+02  0.29788291380E+03  0.12500000000E+03 0.  0.
</event>
<event>
 4    0  0.2193754E-002  0.1722981E+03  0.7546771E-02  0.1175472E+00
         21   -1    0    0  502  501  0.00000000000E+00  0.00000000000E+00  0.13538616260E+04  0.13538616260E+04  0.00000000000E+00 0. -1.
         21   -1    0    0  501  502 -0.00000000000E+00 -0.00000000000E+00 -0.21927380621E+02  0.21927380621E+02  0.00000000000E+00 0. -1.
         25    1    1    2    0    0  0.83266269104E+02  0.63223655627E+02  0.44256239681E+03  0.47161104447E+03  0.12500000000E+03 0.  0.
         25    1    1    2    0    0 -0.83266269104E+02 -0.63223655627E+02  0.88937184856E+03  0.90417796213E+03  0.12500000000E+03 0.  0.
</event>
<event>
 4    0  0.2193754E-002  0.2088146E+03  0.7546771E-02  0.1142508E+00
         21   -1    0    0  502  501  0.00000000000E+00  0.00000000000E+00  0.10748931602E+03  0.10748931602E+03  0.00000000000E+00 0. -1.
         21   -1    0    0  501  502 -0.00000000000E+00 -0.00000000000E+00 -0.40565451050E+03  0.40565451050E+03  0.00000000000E+00 0. -1.
         25    1    1    2    0    0  0.37379665265E+02  0.98113559845E+02 -0.30907428092E+03  0.34953600834E+03  0.12500000000E+03 0.  0.
         25    1    1    2    0    0 -0.37379665265E+02 -0.98113559845E+02  0.10909086446E+02  0.16360781817E+03  0.12500000000E+03 0.  0.
</event>
<event>
 4    0  0.2193754E-002  0.1884136E+03  0.7546771E-02  0.1159900E+00
         21   -1    0    0  502  501  0.00000000000E+00  0.00000000000E+00  0.35926320171E+02  0.35926320171E+02  0.00000000000E+00 0.  1.
         21   -1    0    0  501  502 -0.00000000000E+00 -0.00000000000E+00 -0.98812428261E+03  0.98812428261E+03  0.00000000000E+00 0.  1.
         25    1    1    2    0    0  0.37678913499E+02 -0.75123291697E+02 -0.78369349003E+03  0.79803740251E+03  0.12500000000E+03 0.  0.
         25    1    1    2    0    0 -0.37678913499E+02  0.75123291697E+02 -0.16850447241E+03  0.22601320028E+03  0.12500000000E+03 0.  0.
</event>
<event>
 4    0  0.2193754E-002  0.3031518E+03  0.7546771E-02  0.1083676E+00
         21   -1    0    0  502  501  0.00000000000E+00  0.00000000000E+00  0.66031213725E+03  0.66031213725E+03  0.00000000000E+00 0. -1.
         21   -1    0    0  501  502 -0.00000000000E+00 -0.00000000000E+00 -0.13917814046E+03  0.13917814046E+03  0.00000000000E+00 0. -1.
         25    1    1    2    0    0  0.23353001655E+03 -0.14590583537E+03  0.28857769597E+03  0.41800343065E+03  0.12500000000E+03 0.  0.
         25    1    1    2    0    0 -0.23353001655E+03  0.14590583537E+03  0.23255630082E+03  0.38148684706E+03  0.12500000000E+03 0.  0.
</event>
<event>
 4    0  0.2193754E-002  0.3104456E+03  0.7546771E-02  0.1080132E+00
         21   -1    0    0  502  501  0.00000000000E+00  0.00000000000E+00  0.45691699899E+02  0.45691699899E+02  0.00000000000E+00 0. -1.
         21   -1    0    0  501  502 -0.00000000000E+00 -0.00000000000E+00 -0.21092778072E+04  0.21092778072E+04  0.00000000000E+00 0. -1.
         25    1    1    2    0    0  0.15288867497E+03 -0.14940388709E+03 -0.38196165066E+03  0.45521002953E+03  0.12500000000E+03 0.  0.
         25    1    1    2    0    0 -0.15288867497E+03  0.14940388709E+03 -0.16816244567E+04  0.16997594776E+04  0.12500000000E+03 0.  0.
</event>
<event>
 4    0  0.2193754E-002  0.1986884E+03  0.7546771E-02  0.1150850E+00
         21   -1    0    0  502  501  0.00000000000E+00  0.00000000000E+00  0.29777415105E+03  0.29777415105E+03  0.00000000000E+00 0.  1.
         21   -1    0    0  501  502 -0.00000000000E+00 -0.00000000000E+00 -0.13257386516E+03  0.13257386516E+03  0.00000000000E+00 0.  1.
         25    1    1    2    0    0  0.85275144083E+01 -0.14467240734E+03  0.14040739727E+03  0.23736482712E+03  0.12500000000E+03 0.  0.
         25    1    1    2    0    0 -0.85275144083E+01  0.14467240734E+03  0.24792888618E+02  0.19298318909E+03  0.12500000000E+03 0.  0.
</event>
<event>
 4    0  0.2193754E-002  0.1884985E+03  0.7546771E-02  0.1159823E+00
         21   -1    0    0  502  501  0.00000000000E+00  0.00000000000E+00  0.90823199109E+03  0.90823199109E+03  0.00000000000E+00 0.  1.
         21   -1    0    0  501  502 -0.00000000000E+00 -0.00000000000E+00 -0.39121799740E+02  0.39121799740E+02  0.00000000000E+00 0.  1.
         25    1    1    2    0    0 -0.36063852631E+02 -0.13638726033E+03  0.42917501928E+03  0.46874116890E+03  0.12500000000E+03 0.  0.
         25    1    1    2    0    0  0.36063852631E+02  0.13638726033E+03  0.43993517207E+03  0.47861262193E+03  0.12500000000E+03 0.  0.
</event>
<event>
 4    0  0.2193754E-002  0.1773695E+03  0.7546771E-02  0.1170373E+00
         21   -1    0    0  502  501  0.00000000000E+00  0.00000000000E+00  0.82438725366E+02  0.82438725366E+02  0.00000000000E+00 0. -1.
         21   -1    0    0  501  502 -0.00000000000E+00 -0.00000000000E+00 -0.38161615685E+03  0.38161615685E+03  0.00000000000E+00 0. -1.
         25    1    1    2    0    0  0.30591174809E+01 -0.11053384332E+03 -0.22816386740E+03  0.28268505285E+03  0.12500000000E+03 0.  0.
         25    1    1    2    0    0 -0.30591174809E+01  0.11053384332E+03 -0.71013564082E+02  0.18136982936E+03  0.12500000000E+03 0.  0.
</event>
<event>
 4    0  0.2193754E-002  0.1781478E+03  0.7546771E-02  0.1169608E+00
         21   -1    0    0  502  501  0.00000000000E+00  0.00000000000E+00  0.56898058252E+03  0.56898058252E+03  0.00000000000E+00 0.  1.
         21   -1    0    0  501  502 -0.00000000000E+00 -0.00000000000E+00 -0.55778040234E+02  0.55778040234E+02  0.00000000000E+00 0.  1.
         25    1    1    2    0    0 -0.10047635782E+03  0.60499812569E+02  0.34171115038E+03  0.38229208218E+03  0.12500000000E+03 0.  0.
         25    1    1    2    0    0  0.10047635782E+03 -0.60499812569E+02  0.17149139191E+03  0.24246654058E+03  0.12500000000E+03 0.  0.
</event>
<event>
 4    0  0.2193754E-002  0.2279929E+03  0.7546771E-02  0.1128060E+00
         21   -1    0    0  502  501  0.00000000000E+00  0.00000000000E+00  0.28933058845E+03  0.28933058845E+03  0.00000000000E+00 0. -1.
         21   -1    0    0  501  502 -0.00000000000E+00 -0.00000000000E+00 -0.17965870336E+03  0.17965870336E+03  0.00000000000E+00 0. -1.
         25    1    1    2    0    0 -0.72261968335E+02  0.15939430578E+03  0.13267385881E+03  0.25269683337E+03  0.12500000000E+03 0.  0.
         25    1    1    2    0    0  0.72261968335E+02 -0.15939430578E+03 -0.23001973718E+02  0.21629245844E+03  0.12500000000E+03 0.  0.
</event>
<event>
 4    0  0.2193754E-002  0.1922001E+03  0.7546771E-02  0.1156492E+00
         21   -1    0    0  502  501  0.00000000000E+00  0.00000000000E+00  0.36915775188E+04  0.36915775188E+04  0.00000000000E+00 0. -1.
         21   -1    0    0  501  502 -0.00000000000E+00 -0.00000000000E+00 -0.10006798634E+02  0.10006798634E+02  0.00000000000E+00 0. -1.
         25    1    1    2    0    0 -0.32078536946E+02 -0.13945152192E+03  0.15616768850E+04  0.15731927576E+04  0.12500000000E+03 0.  0.
         25    1    1    2    0    0  0.32078536946E+02  0.13945152192E+03  0.21198938352E+04  0.21283915598E+04  0.12500000000E+03 0.  0.
</event>
<event>
 4    0  0.2193754E-002  0.2232953E+03  0.7546771E-02  0.1131450E+00
         21   -1    0    0  502  501  0.00000000000E+00  0.00000000000E+00  0.79899068158E+02  0.79899068158E+02  0.00000000000E+00 0.  1.
         21   -1    0    0  501  502 -0.00000000000E+00 -0.00000000000E+00 -0.62404735716E+03  0.62404735716E+03  0.00000000000E+00 0.  1.
         25    1    1    2    0    0 -0.17174732914E+03 -0.86612023150E+01 -0.37971881407E+03  0.43518219087E+03  0.12500000000E+03 0.  0.
         25    1    1    2    0    0  0.17174732914E+03  0.86612023150E+01 -0.16442947494E+03  0.26876423445E+03  0.12500000000E+03 0.  0.
</event>
<event>
 4    0  0.2193754E-002  0.2160605E+03  0.7546771E-02  0.1136855E+00
         21   -1    0    0  502  501  0.00000000000E+00  0.00000000000E+00  0.20307530206E+03  0.20307530206E+03  0.00000000000E+00 0.  1.
         21   -1    0    0  501  502 -0.00000000000E+00 -0.00000000000E+00 -0.22987607270E+03  0.22987607270E+03  0.00000000000E+00 0.  1.
         25    1    1    2    0    0  0.16795552334E+03 -0.39403434600E+02  0.22661334400E+02  0.21424337693E+03  0.12500000000E+03 0.  0.
         25    1    1    2    0    0 -0.16795552334E+03  0.39403434600E+02 -0.49462105044E+02  0.21870799783E+03  0.12500000000E+03 0.  0.
</event>
<event>
 4    0  0.2193754E-002  0.3299129E+03  0.7546771E-02  0.1071175E+00
         21   -1    0    0  502  501  0.00000000000E+00  0.00000000000E+00  0.16438589710E+04  0.16438589710E+04  0.00000000000E+00 0.  1.
         21   -1    0    0  501  502 -0.00000000000E+00 -0.00000000000E+00 -0.66211573578E+02  0.66211573578E+02  0.00000000000E+00 0. -1.
         25    1    1    2    0    0 -0.67155003951E+02 -0.25698895278E+03  0.11789961936E+04  0.12149938852E+04  0.12500000000E+03 0.  0.
         25    1    1    2    0    0  0.67155003951E+02  0.25698895278E+03  0.39865120379E+03  0.49507665941E+03  0.12500000000E+03 0.  0.
</event>
<event>
 4    0  0.2193754E-002  0.2404530E+03  0.7546771E-02  0.1119491E+00
         21   -1    0    0  502  501  0.00000000000E+00  0.00000000000E+00  0.90611135726E+03  0.90611135726E+03  0.00000000000E+00 0. -1.
         21   -1    0    0  501  502 -0.00000000000E+00 -0.00000000000E+00 -0.63808562980E+02  0.63808562980E+02  0.00000000000E+00 0. -1.
         25    1    1    2    0    0 -0.14907370255E+03  0.94606815009E+02  0.20943643990E+03  0.30110137927E+03  0.12500000000E+03 0.  0.
         25    1    1    2    0    0  0.14907370255E+03 -0.94606815009E+02  0.63286635438E+03  0.66881854097E+03  0.12500000000E+03 0.  0.
</event>
<event>
 4    0  0.2193754E-002  0.1913354E+03  0.7546771E-02  0.1157262E+00
         21   -1    0    0  502  501  0.00000000000E+00  0.00000000000E+00  0.13904445650E+03  0.13904445650E+03  0.00000000000E+00 0.  1.
         21   -1    0    0  501  502 -0.00000000000E+00 -0.00000000000E+00 -0.26329147657E+03  0.26329147657E+03  0.00000000000E+00 0.  1.
         25    1    1    2    0    0  0.47601963672E+02  0.35504343526E+02 -0.20104111429E+03  0.24406768527E+03  0.12500000000E+03 0.  0.
         25    1    1    2    0    0 -0.47601963672E+02 -0.35504343526E+02  0.76794094221E+02  0.15826824780E+03  0.12500000000E+03 0.  0.
</event>
<event>
 4    0  0.2193754E-002  0.2901096E+03  0.7546771E-02  0.1090292E+00
         21   -1    0    0  502  501  0.00000000000E+00  0.00000000000E+00  0.20912876168E+03  0.20912876168E+03  0.00000000000E+00 0.  1.
         21   -1    0    0  501  502 -0.00000000000E+00 -0.00000000000E+00 -0.40244855833E+03  0.40244855833E+03  0.00000000000E+00 0.  1.
         25    1    1    2    0    0  0.12479302622E+03  0.14219645578E+03 -0.28739679030E+03  0.36608065574E+03  0.12500000000E+03 0.  0.
         25    1    1    2    0    0 -0.12479302622E+03 -0.14219645578E+03  0.94076993656E+02  0.24549666427E+03  0.12500000000E+03 0.  0.
</event>
<event>
 4    0  0.2193754E-002  0.2798277E+03  0.7546771E-02  0.1095783E+00
         21   -1    0    0  502  501  0.00000000000E+00  0.00000000000E+00  0.32269203186E+03  0.32269203186E+03  0.00000000000E+00 0. -1.
         21   -1    0    0  501  502 -0.00000000000E+00 -0.00000000000E+00 -0.24265719406E+03  0.24265719406E+03  0.00000000000E+00 0. -1.
         25    1    1    2    0    0 -0.12822341826E+03  0.46700308820E+02  0.25204897483E+03  0.31269130072E+03  0.12500000000E+03 0.  0.
         25    1    1    2    0    0  0.12822341826E+03 -0.46700308820E+02 -0.17201413703E+03  0.25265792521E+03  0.12500000000E+03 0.  0.
</event>
<event>
 4    0  0.2193754E-002  0.3093402E+03  0.7546771E-02  0.1080663E+00
         21   -1    0    0  502  501  0.00000000000E+00  0.00000000000E+00  0.44109193327E+03  0.44109193327E+03  0.00000000000E+00 0.  1.
         21   -1    0    0  501  502 -0.00000000000E+00 -0.00000000000E+00 -0.21694198880E+03  0.21694198880E+03  0.00000000000E+00 0. -1.
         25    1    1    2    0    0  0.12778709169E+03  0.18567447065E+03 -0.69866843156E+02  0.26704105607E+03  0.12500000000E+03 0.  0.
         25    1    1    2    0    0 -0.12778709169E+03 -0.18567447065E+03  0.29401678763E+03  0.39099286600E+03  0.12500000000E+03 0.  0.
</event>
<event>
 4    0  0.2193754E-002  0.1714948E+03  0.7546771E-02  0.1176298E+00
         21   -1    0    0  502  501  0.00000000000E+00  0.00000000000E+00  0.23665541000E+03  0.23665541000E+03  0.00000000000E+00 0.  1.
         21   -1    0    0  501  502 -0.00000000000E+00 -0.00000000000E+00 -0.12427546778E+03  0.12427546778E+03  0.00000000000E+00 0.  1.
         25    1    1    2    0    0  0.17072579545E+02  0.31795166070E+02 -0.61381941610E+02  0.14385808394E+03  0.12500000000E+03 0.  0.
         25    1    1    2    0    0 -0.17072579545E+02 -0.31795166070E+02  0.17376188383E+03  0.21707279385E+03  0.12500000000E+03 0.  0.
</event>
<event>
 4    0  0.2193754E-002  0.2543471E+03  0.7546771E-02  0.1110588E+00
         21   -1    0    0  502  501  0.00000000000E+00  0.00000000000E+00  0.73064241034E+03  0.73064241034E+03  0.00000000000E+00 0. -1.
         21   -1    0    0  501  502 -0.00000000000E+00 -0.00000000000E+00 -0.88541845870E+02  0.88541845870E+02  0.00000000000E+00 0. -1.
         25    1    1    2    0    0 -0.63574633585E+02 -0.22833474504E+02  0.66077409645E+03  0.67587758369E+03  0.12500000000E+03 0.  0.
         25    1    1    2    0    0  0.63574633585E+02  0.22833474504E+02 -0.18673531978E+02  0.14330667252E+03  0.12500000000E+03 0.  0.
</event>
<event>
 4    0  0.2193754E-002  0.2229999E+03  0.7546771E-02  0.1131666E+00
         21   -1    0    0  502  501  0.00000000000E+00  0.00000000000E+00  0.11635041061E+03  0.11635041061E+03  0.00000000000E+00 0. -1.
         21   -1    0    0  501  502 -0.00000000000E+00 -0.00000000000E+00 -0.42740672136E+03  0.42740672136E+03  0.00000000000E+00 0. -1.
         25    1    1    2    0    0 -0.14077511074E+03  0.78439817232E+02 -0.45574578886E+02  0.20897961377E+03  0.12500000000E+03 0.  0.
         25    1    1    2    0    0  0.14077511074E+03 -0.78439817232E+02 -0.26548173186E+03  0.33477751819E+03  0.12500000000E+03 0.  0.
</event>
<event>
 4    0  0.2193754E-002  0.2792480E+03  0.7546771E-02  0.1096100E+00
         21   -1    0    0  502  501  0.00000000000E+00  0.00000000000E+00  0.14797532629E+04  0.14797532629E+04  0.00000000000E+00 0.  1.
         21   -1    0    0  501  502 -0.00000000000E+00 -0.00000000000E+00 -0.52697601950E+02  0.52697601950E+02  0.00000000000E+00 0.  1.
         25    1    1    2    0    0  0.17998080690E+02 -0.18347530172E+03  0.11756701320E+04  0.11965836271E+04  0.12500000000E+03 0.  0.
         25    1    1    2    0    0 -0.17998080690E+02  0.18347530172E+03  0.25138552887E+03  0.33586723772E+03  0.12500000000E+03 0.  0.
</event>
<event>
 4    0  0.2193754E-002  0.4729058E+03  0.7546771E-02  0.1021103E+00
         21   -1    0    0  502  501  0.00000000000E+00  0.00000000000E+00  0.25334315894E+03  0.25334315894E+03  0.00000000000E+00 0.  1.
         21   -1    0    0  501  502 -0.00000000000E+00 -0.00000000000E+00 -0.88275483578E+03  0.88275483578E+03  0.00000000000E+00 0.  1.
         25    1    1    2    0    0 -0.29317999577E+03  0.10636999580E+03 -0.71444326437E+03  0.78950824184E+03  0.12500000000E+03 0.  0.
         25    1    1    2    0    0  0.29317999577E+03 -0.10636999580E+03  0.85031587533E+02  0.34658975289E+03  0.12500000000E+03 0.  0.
</event>
<event>
 4    0  0.2193754E-002  0.2571126E+03  0.7546771E-02  0.1108891E+00
         21   -1    0    0  502  501  0.00000000000E+00  0.00000000000E+00  0.15675959475E+03  0.15675959475E+03  0.00000000000E+00 0.  1.
         21   -1    0    0  501  502 -0.00000000000E+00 -0.00000000000E+00 -0.42170873699E+03  0.42170873699E+03  0.00000000000E+00 0.  1.
         25    1    1    2    0    0 -0.10299387320E+03 -0.12329011313E+03  0.44228205709E+02  0.20830104199E+03  0.12500000000E+03 0.  0.
         25    1    1    2    0    0  0.10299387320E+03  0.12329011313E+03 -0.30917734795E+03  0.37016728975E+03  0.12500000000E+03 0.  0.
</event>
<event>
 4    0  0.2193754E-002  0.2304316E+03  0.7546771E-02  0.1126336E+00
         21   -1    0    0  502  501  0.00000000000E+00  0.00000000000E+00  0.37765574262E+03  0.37765574262E+03  0.00000000000E+00 0.  1.
         21   -1    0    0  501  502 -0.00000000000E+00 -0.00000000000E+00 -0.14060089484E+03  0.14060089484E+03  0.00000000000E+00 0.  1.
         25    1    1    2    0    0 -0.53546761871E+02 -0.44695099760E+02 -0.84540057083E+02  0.16624358304E+03  0.12500000000E+03 0.  0.
         25    1    1    2    0    0  0.53546761871E+02  0.44695099760E+02  0.32159490486E+03  0.35201305442E+03  0.12500000000E+03 0.  0.
</event>
<event>
 4    0  0.2193754E-002  0.1778239E+03  0.7546771E-02  0.1169926E+00
         21   -1    0    0  502  501  0.00000000000E+00  0.00000000000E+00  0.28236484497E+02  0.28236484497E+02  0.00000000000E+00 0. -1.
         21   -1    0    0  501  502 -0.00000000000E+00 -0.00000000000E+00 -0.11198755624E+04  0.11198755624E+04  0.00000000000E+00 0. -1.
         25    1    1    2    0    0 -0.87747987962E+02  0.16106292874E+02 -0.83523197991E+03  0.84923293761E+03  0.12500000000E+03 0.  0.
         25    1    1    2    0    0  0.87747987962E+02 -0.16106292874E+02 -0.25640709795E+03  0.29887910924E+03  0.12500000000E+03 0.  0.
</event>
<event>
 4    0  0.2193754E-002  0.2680186E+03  0.7546771E-02  0.1102419E+00
         21   -1    0    0  502  501  0.00000000000E+00  0.00000000000E+00  0.15160989657E+03  0.15160989657E+03  0.00000000000E+00 0. -1.
         21   -1    0    0  501  502 -0.00000000000E+00 -0.00000000000E+00 -0.47380795149E+03  0.47380795149E+03  0.00000000000E+00 0. -1.
         25    1    1    2    0    0 -0.86919475921E+02  0.18075949095E+03 -0.13608706840E+02  0.23672597188E+03  0.12500000000E+03 0.  0.
         25    1    1    2    0    0  0.86919475921E+02 -0.18075949095E+03 -0.30858934808E+03  0.38869187618E+03  0.12500000000E+03 0.  0.
</event>
<event>
 4    0  0.2193754E-002  0.1788069E+03  0.7546771E-02  0.1168963E+00
         21   -1    0    0  502  501  0.00000000000E+00  0.00000000000E+00  0.15110553392E+04  0.15110553392E+04  0.00000000000E+00 0. -1.
         21   -1    0    0  501  502 -0.00000000000E+00 -0.00000000000E+00 -0.21158669326E+02  0.21158669326E+02  0.00000000000E+00 0. -1.
         25    1    1    2    0    0  0.71918062026E+02  0.10036883682E+02  0.29407265126E+03  0.32768379712E+03  0.12500000000E+03 0.  0.
         25    1    1    2    0    0 -0.71918062026E+02 -0.10036883682E+02  0.11958240186E+04  0.12045302114E+04  0.12500000000E+03 0.  0.
</event>
<event>
 4    0  0.2193754E-002  0.1714103E+03  0.7546771E-02  0.1176385E+00
         21   -1    0    0  502  501  0.00000000000E+00  0.00000000000E+00  0.10821978157E+04  0.10821978157E+04  0.00000000000E+00 0.  1.
         21   -1    0    0  501  502 -0.00000000000E+00 -0.00000000000E+00 -0.27149826720E+02  0.27149826720E+02  0.00000000000E+00 0.  1.
         25    1    1    2    0    0 -0.11356978626E+03 -0.27322690244E+02  0.49329980188E+03  0.52212481294E+03  0.12500000000E+03 0.  0.
         25    1    1    2    0    0  0.11356978626E+03  0.27322690244E+02  0.56174818715E+03  0.58722282953E+03  0.12500000000E+03 0.  0.
</event>
<event>
 4    0  0.2193754E-002  0.2208229E+03  0.7546771E-02  0.1133271E+00
         21   -1    0    0  502  501  0.00000000000E+00  0.00000000000E+00  0.39548472218E+03  0.39548472218E+03  0.00000000000E+00 0. -1.
         21   -1    0    0  501  502 -0.00000000000E+00 -0.00000000000E+00 -0.12329870227E+03  0.12329870227E+03  0.00000000000E+00 0. -1.
         25    1    1    2    0    0 -0.99342771654E+02 -0.13393746117E+03  0.22184736150E+03  0.30438377353E+03  0.12500000000E+03 0.  0.
         25    1    1    2    0    0  0.99342771654E+02  0.13393746117E+03  0.50338658422E+02  0.21439965092E+03  0.12500000000E+03 0.  0.
</event>
<event>
 4    0  0.2193754E-002  0.2321635E+03  0.7546771E-02  0.1125126E+00
         21   -1    0    0  502  501  0.00000000000E+00  0.00000000000E+00  0.14820480917E+03  0.14820480917E+03  0.00000000000E+00 0. -1.
         21   -1    0    0  501  502 -0.00000000000E+00 -0.00000000000E+00 -0.36368531458E+03  0.36368531458E+03  0.00000000000E+00 0. -1.
         25    1    1    2    0    0 -0.13769082783E+03 -0.84731071179E+02 -0.22919226567E+03  0.30707037163E+03  0.12500000000E+03 0.  0.
         25    1    1    2    0    0  0.13769082783E+03  0.84731071179E+02  0.13711760257E+02  0.20481975212E+03  0.12500000000E+03 0.  0.
</event>
<event>
 4    0  0.2193754E-002  0.3815070E+03  0.7546771E-02  0.1050378E+00
         21   -1    0    0  502  501  0.00000000000E+00  0.00000000000E+00  0.16014710569E+03  0.16014710569E+03  0.00000000000E+00 0. -1.
         21   -1    0    0  501  502 -0.00000000000E+00 -0.00000000000E+00 -0.90883708233E+03  0.90883708233E+03  0.00000000000E+00 0. -1.
         25    1    1    2    0    0 -0.22420463387E+03  0.58856557669E+01  0.20976608369E+02  0.25761866565E+03  0.12500000000E+03 0.  0.
         25    1    1    2    0    0  0.22420463387E+03 -0.58856557669E+01 -0.76966658501E+03  0.81136552236E+03  0.12500000000E+03 0.  0.
</event>
<event>
 4    0  0.2193754E-002  0.2533235E+03  0.7546771E-02  0.1111222E+00
         21   -1    0    0  502  501  0.00000000000E+00  0.00000000000E+00  0.46970071908E+02  0.46970071908E+02  0.00000000000E+00 0.  1.
         21   -1    0    0  501  502 -0.00000000000E+00 -0.00000000000E+00 -0.13662485295E+04  0.13662485295E+04  0.00000000000E+00 0.  1.
         25    1    1    2    0    0  0.41006047442E+02  0.93819610205E+02 -0.12038436960E+04  0.12146391479E+04  0.12500000000E+03 0.  0.
         25    1    1    2    0    0 -0.41006047442E+02 -0.93819610205E+02 -0.11543476165E+03  0.19857945358E+03  0.12500000000E+03 0.  0.
</event>
<event>
 4    0  0.2193754E-002  0.2585686E+03  0.7546771E-02  0.1108006E+00
         21   -1    0    0  502  501  0.00000000000E+00  0.00000000000E+00  0.34049805009E+03  0.34049805009E+03  0.00000000000E+00 0. -1.
         21   -1    0    0  501  502 -0.00000000000E+00 -0.00000000000E+00 -0.19635272543E+03  0.19635272543E+03  0.00000000000E+00 0. -1.
         25    1    1    2    0    0  0.49575815991E+02  0.34916160468E+02 -0.15431337964E+03  0.20764035958E+03  0.12500000000E+03 0.  0.
         25    1    1    2    0    0 -0.49575815991E+02 -0.34916160468E+02  0.29845870429E+03  0.32921041594E+03  0.12500000000E+03 0.  0.
</event>
<event>
 4    0  0.2193754E-002  0.3608850E+03  0.7546771E-02  0.1058234E+00
         21   -1    0    0  502  501  0.00000000000E+00  0.00000000000E+00  0.23484183161E+03  0.23484183161E+03  0.00000000000E+00 0.  1.
         21   -1    0    0  501  502 -0.00000000000E+00 -0.00000000000E+00 -0.55457759588E+03  0.55457759588E+03  0.00000000000E+00 0.  1.
         25    1    1    2    0    0 -0.66912169169E+02 -0.24633877431E+03 -0.40309119214E+03  0.49322159248E+03  0.12500000000E+03 0.  0.
         25    1    1    2    0    0  0.66912169169E+02  0.24633877431E+03  0.83355427870E+02  0.29619783501E+03  0.12500000000E+03 0.  0.
</event>
<event>
 4    0  0.2193754E-002  0.2401112E+03  0.7546771E-02  0.1119719E+00
         21   -1    0    0  502  501  0.00000000000E+00  0.00000000000E+00  0.26438682099E+03  0.26438682099E+03  0.00000000000E+00 0.  1.
         21   -1    0    0  501  502 -0.00000000000E+00 -0.00000000000E+00 -0.21806461023E+03  0.21806461023E+03  0.00000000000E+00 0.  1.
         25    1    1    2    0    0 -0.17337148579E+02  0.91373601317E+01  0.22817774188E+03  0.26091023353E+03  0.12500000000E+03 0.  0.
         25    1    1    2    0    0  0.17337148579E+02 -0.91373601317E+01 -0.18185553112E+03  0.22154119768E+03  0.12500000000E+03 0.  0.
</event>
<event>
 4    0  0.2193754E-002  0.1948560E+03  0.7546771E-02  0.1154153E+00
         21   -1    0    0  502  501  0.00000000000E+00  0.00000000000E+00  0.62450474870E+02  0.62450474870E+02  0.00000000000E+00 0. -1.
         21   -1    0    0  501  502 -0.00000000000E+00 -0.00000000000E+00 -0.60798348975E+03  0.60798348975E+03  0.00000000000E+00 0. -1.
         25    1    1    2    0    0 -0.52952898989E+02 -0.77041289453E+02 -0.72109955385E+02  0.17194247718E+03  0.12500000000E+03 0.  0.
         25    1    1    2    0    0  0.52952898989E+02  0.77041289453E+02 -0.47342305949E+03  0.49849148744E+03  0.12500000000E+03 0.  0.
</event>
<event>
 4    0  0.2193754E-002  0.2398661E+03  0.7546771E-02  0.1119882E+00
         21   -1    0    0  502  501  0.00000000000E+00  0.00000000000E+00  0.76261853871E+03  0.76261853871E+03  0.00000000000E+00 0.  1.
         21   -1    0    0  501  502 -0.00000000000E+00 -0.00000000000E+00 -0.75445006021E+02  0.75445006021E+02  0.00000000000E+00 0.  1.
         25    1    1    2    0    0 -0.79500561975E+02  0.16208728043E+03  0.51221974501E+03  0.55730305312E+03  0.12500000000E+03 0.  0.
         25    1    1    2    0    0  0.79500561975E+02 -0.16208728043E+03  0.17495378768E+03  0.28076049162E+03  0.12500000000E+03 0.  0.
</event>
<event>
 4    0  0.2193754E-002  0.2077333E+03  0.7546771E-02  0.1143374E+00
         21   -1    0    0  502  501  0.00000000000E+00  0.00000000000E+00  0.95841930530E+03  0.95841930530E+03  0.00000000000E+00 0.  1.
         21   -1    0    0  501  502 -0.00000000000E+00 -0.00000000000E+00 -0.45025307933E+02  0.45025307933E+02  0.00000000000E+00 0.  1.
         25    1    1    2    0    0 -0.60629075493E+02  0.94981316594E+02  0.75082706219E+03  0.76945669964E+03  0.12500000000E+03 0.  0.
         25    1    1    2    0    0  0.60629075493E+02 -0.94981316594E+02  0.16256693518E+03  0.23398791360E+03  0.12500000000E+03 0.  0.
</event>
<event>
 4    0  0.2193754E-002  0.3263029E+03  0.7546771E-02  0.1072785E+00
         21   -1    0    0  502  501  0.00000000000E+00  0.00000000000E+00  0.67847141458E+03  0.67847141458E+03  0.00000000000E+00 0.  1.
         21   -1    0    0  501  502 -0.00000000000E+00 -0.00000000000E+00 -0.15693153251E+03  0.15693153251E+03  0.00000000000E+00 0.  1.
         25    1    1    2    0    0 -0.19491176911E+03 -0.10487065260E+03  0.52267584643E+03  0.58120864752E+03  0.12500000000E+03 0.  0.
         25    1    1    2    0    0  0.19491176911E+03  0.10487065260E+03 -0.11359643571E+01  0.25419429956E+03  0.12500000000E+03 0.  0.
</event>
<event>
 4    0  0.2193754E-002  0.1801758E+03  0.7546771E-02  0.1167633E+00
         21   -1    0    0  502  501  0.00000000000E+00  0.00000000000E+00  0.38873050975E+02  0.38873050975E+02  0.00000000000E+00 0.  1.
         21   -1    0    0  501  502 -0.00000000000E+00 -0.00000000000E+00 -0.83511148170E+03  0.83511148170E+03  0.00000000000E+00 0.  1.
         25    1    1    2    0    0 -0.74257706191E+02 -0.78420522081E+02 -0.57258286053E+03  0.59593633669E+03  0.12500000000E+03 0.  0.
         25    1    1    2    0    0  0.74257706191E+02  0.78420522081E+02 -0.22365557020E+03  0.27804819599E+03  0.12500000000E+03 0.  0.
</event>
<event>
 4    0  0.2193754E-002  0.2299363E+03  0.7546771E-02  0.1126685E+00
         21   -1    0    0  502  501  0.00000000000E+00  0.00000000000E+00  0.26340608159E+03  0.26340608159E+03  0.00000000000E+00 0. -1.
         21   -1    0    0  501  502 -0.00000000000E+00 -0.00000000000E+00 -0.20071938189E+03  0.20071938189E+03  0.00000000000E+00 0. -1.
         25    1    1    2    0    0 -0.83861375267E+02 -0.11366915591E+03  0.16405963266E+03  0.24998794038E+03  0.12500000000E+03 0.  0.
         25    1    1    2    0    0  0.83861375267E+02  0.11366915591E+03 -0.10137293296E+03  0.21413752311E+03  0.12500000000E+03 0.  0.
</event>
<event>
 4    0  0.2193754E-002  0.2308698E+03  0.7546771E-02  0.1126029E+00
         21   -1    0    0  502  501  0.00000000000E+00  0.00000000000E+00  0.68220961006E+03  0.68220961006E+03  0.00000000000E+00 0.  1.
         21   -1    0    0  501  502 -0.00000000000E+00 -0.00000000000E+00 -0.78129760936E+02  0.78129760936E+02  0.00000000000E+00 0.  1.
         25    1    1    2    0    0 -0.15942989194E+03 -0.31115896002E+01  0.11979801804E+03  0.23538083516E+03  0.12500000000E+03 0.  0.
         25    1    1    2    0    0  0.15942989194E+03  0.31115896002E+01  0.48428183108E+03  0.52495853584E+03  0.12500000000E+03 0.  0.
</event>
<event>
 4    0  0.2193754E-002  0.1808131E+03  0.7546771E-02  0.1167018E+00
         21   -1    0    0  502  501  0.00000000000E+00  0.00000000000E+00  0.14683909989E+03  0.14683909989E+03  0.00000000000E+00 0.  1.
         21   -1    0    0  501  502 -0.00000000000E+00 -0.00000000000E+00 -0.22264767707E+03  0.22264767707E+03  0.00000000000E+00 0.  1.
         25    1    1    2    0    0  0.10961196362E+03 -0.31277587725E+02  0.27321528030E+02  0.17136083554E+03  0.12500000000E+03 0.  0.
         25    1    1    2    0    0 -0.10961196362E+03  0.31277587725E+02 -0.10313010521E+03  0.19812594142E+03  0.12500000000E+03 0.  0.
</event>
<event>
 4    0  0.2193754E-002  0.1502969E+03  0.7546771E-02  0.1200109E+00
         21   -1    0    0  502  501  0.00000000000E+00  0.00000000000E+00  0.91469229642E+02  0.91469229642E+02  0.00000000000E+00 0.  1.
         21   -1    0    0  501  502 -0.00000000000E+00 -0.00000000000E+00 -0.24695894565E+03  0.24695894565E+03  0.00000000000E+00 0.  1.
         25    1    1    2    0    0  0.43585034816E+02  0.71092349380E+02 -0.81369920613E+02  0.17087961078E+03  0.12500000000E+03 0.  0.
         25    1    1    2    0    0 -0.43585034816E+02 -0.71092349380E+02 -0.74119795397E+02  0.16754856451E+03  0.12500000000E+03 0.  0.
</event>
<event>
 4    0  0.2193754E-002  0.3626291E+03  0.7546771E-02  0.1057548E+00
         21   -1    0    0  502  501  0.00000000000E+00  0.00000000000E+00  0.14737747968E+03  0.14737747968E+03  0.00000000000E+00 0.  1.
         21   -1    0    0  501  502 -0.00000000000E+00 -0.00000000000E+00 -0.89226553194E+03  0.89226553194E+03  0.00000000000E+00 0.  1.
         25    1    1    2    0    0  0.26609744905E+03 -0.20692247625E+03 -0.30444686698E+03  0.47110259857E+03  0.12500000000E+03 0.  0.
         25    1    1    2    0    0 -0.26609744905E+03  0.20692247625E+03 -0.44044118529E+03  0.56854041305E+03  0.12500000000E+03 0.  0.
</event>
<event>
 4    0  0.2193754E-002  0.1956186E+03  0.7546771E-02  0.1153489E+00
         21   -1    0    0  502  501  0.00000000000E+00  0.00000000000E+00  0.86835954709E+02  0.86835954709E+02  0.00000000000E+00 0. -1.
         21   -1    0    0  501  502 -0.00000000000E+00 -0.00000000000E+00 -0.44067745602E+03  0.44067745602E+03  0.00000000000E+00 0. -1.
         25    1    1    2    0    0 -0.99174873857E+02  0.97068142127E+02 -0.98488698767E+02  0.21114664005E+03  0.12500000000E+03 0.  0.
         25    1    1    2    0    0  0.99174873857E+02 -0.97068142127E+02 -0.25535280254E+03  0.31636677067E+03  0.12500000000E+03 0.  0.
</event>
<event>
 4    0  0.2193754E-002  0.1928997E+03  0.7546771E-02  0.1155872E+00
         21   -1    0    0  502  501  0.00000000000E+00  0.00000000000E+00  0.18433880612E+03  0.18433880612E+03  0.00000000000E+00 0. -1.
         21   -1    0    0  501  502 -0.00000000000E+00 -0.00000000000E+00 -0.20185821683E+03  0.20185821683E+03  0.00000000000E+00 0. -1.
         25    1    1    2    0    0  0.36788483359E+02  0.12855683257E+03 -0.69691563050E+02  0.19586261937E+03  0.12500000000E+03 0.  0.
         25    1    1    2    0    0 -0.36788483359E+02 -0.12855683257E+03  0.52172152334E+02  0.19033440358E+03  0.12500000000E+03 0.  0.
</event>
<event>
 4    0  0.2193754E-002  0.1787154E+03  0.7546771E-02  0.1169052E+00
         21   -1    0    0  502  501  0.00000000000E+00  0.00000000000E+00  0.39974150925E+02  0.39974150925E+02  0.00000000000E+00 0.  1.
         21   -1    0    0  501  502 -0.00000000000E+00 -0.00000000000E+00 -0.79899599039E+03  0.79899599039E+03  0.00000000000E+00 0.  1.
         25    1    1    2    0    0 -0.46216582879E+02 -0.74632286477E+02 -0.16173409703E+03  0.22246093783E+03  0.12500000000E+03 0.  0.
         25    1    1    2    0    0  0.46216582879E+02  0.74632286477E+02 -0.59728774244E+03  0.61650920349E+03  0.12500000000E+03 0.  0.
</event>
<event>
 4    0  0.2193754E-002  0.4295303E+03  0.7546771E-02  0.1034008E+00
         21   -1    0    0  502  501  0.00000000000E+00  0.00000000000E+00  0.41703341572E+03  0.41703341572E+03  0.00000000000E+00 0.  1.
         21   -1    0    0  501  502 -0.00000000000E+00 -0.00000000000E+00 -0.44240174471E+03  0.44240174471E+03  0.00000000000E+00 0.  1.
         25    1    1    2    0    0 -0.24909619733E+03 -0.26339770279E+03  0.18090482804E+03  0.42400332802E+03  0.12500000000E+03 0.  0.
         25    1    1    2    0    0  0.24909619733E+03  0.26339770279E+03 -0.20627315703E+03  0.43543183241E+03  0.12500000000E+03 0.  0.
</event>
<event>
 4    0  0.2193754E-002  0.2349447E+03  0.7546771E-02  0.1123207E+00
         21   -1    0    0  502  501  0.00000000000E+00  0.00000000000E+00  0.31147567527E+03  0.31147567527E+03  0.00000000000E+00 0. -1.
         21   -1    0    0  501  502 -0.00000000000E+00 -0.00000000000E+00 -0.17721775626E+03  0.17721775626E+03  0.00000000000E+00 0. -1.
         25    1    1    2    0    0 -0.65273005866E+02  0.11383605807E+03  0.22262748762E+03  0.28706656311E+03  0.12500000000E+03 0.  0.
         25    1    1    2    0    0  0.65273005866E+02 -0.11383605807E+03 -0.88369568603E+02  0.20162686842E+03  0.12500000000E+03 0.  0.
</event>
<event>
 4    0  0.2193754E-002  0.2090529E+03  0.7546771E-02  0.1142318E+00
         21   -1    0    0  502  501  0.00000000000E+00  0.00000000000E+00  0.67326004448E+02  0.67326004448E+02  0.00000000000E+00 0.  1.
         21   -1    0    0  501  502 -0.00000000000E+00 -0.00000000000E+00 -0.64912669457E+03  0.64912669457E+03  0.00000000000E+00 0.  1.
         25    1    1    2    0    0 -0.54680546882E+01 -0.90317544504E+02 -0.53257389188E+03  0.55447913287E+03  0.12500000000E+03 0.  0.
         25    1    1    2    0    0  0.54680546882E+01  0.90317544504E+02 -0.49226798238E+02  0.16197356615E+03  0.12500000000E+03 0.  0.
</event>
<event>
 4    0  0.2193754E-002  0.2204228E+03  0.7546771E-02  0.1133568E+00
         21   -1    0    0  502  501  0.00000000000E+00  0.00000000000E+00  0.14278783926E+04  0.14278783926E+04  0.00000000000E+00 0. -1.
         21   -1    0    0  501  502 -0.00000000000E+00 -0.00000000000E+00 -0.34026846385E+02  0.34026846385E+02  0.00000000000E+00 0. -1.
         25    1    1    2    0    0 -0.15516269888E+03  0.93834980579E+02  0.66712993094E+03  0.70254381462E+03  0.12500000000E+03 0.  0.
         25    1    1    2    0    0  0.15516269888E+03 -0.93834980579E+02  0.72672161523E+03  0.75936142432E+03  0.12500000000E+03 0.  0.
</event>
<event>
 4    0  0.2193754E-002  0.2545549E+03  0.7546771E-02  0.1110460E+00
         21   -1    0    0  502  501  0.00000000000E+00  0.00000000000E+00  0.63063262430E+03  0.63063262430E+03  0.00000000000E+00 0. -1.
         21   -1    0    0  501  502 -0.00000000000E+00 -0.00000000000E+00 -0.10275113943E+03  0.10275113943E+03  0.00000000000E+00 0. -1.
         25    1    1    2    0    0 -0.17307102292E+03 -0.13666314722E+03  0.29750291345E+03  0.39084955967E+03  0.12500000000E+03 0.  0.
         25    1    1    2    0    0  0.17307102292E+03  0.13666314722E+03  0.23037857142E+03  0.34253420406E+03  0.12500000000E+03 0.  0.
</event>
<event>
 4    0  0.2193754E-002  0.2131007E+03  0.7546771E-02  0.1139134E+00
         21   -1    0    0  502  501  0.00000000000E+00  0.00000000000E+00  0.35027585774E+02  0.35027585774E+02  0.00000000000E+00 0.  1.
         21   -1    0    0  501  502 -0.00000000000E+00 -0.00000000000E+00 -0.12964613884E+04  0.12964613884E+04  0.00000000000E+00 0.  1.
         25    1    1    2    0    0 -0.44836152859E+02  0.32487484845E+02 -0.11413989860E+04  0.11495574638E+04  0.12500000000E+03 0.  0.
         25    1    1    2    0    0  0.44836152859E+02 -0.32487484845E+02 -0.12003481663E+03  0.18193151040E+03  0.12500000000E+03 0.  0.
</event>
<event>
 4    0  0.2193754E-002  0.1830823E+03  0.7546771E-02  0.1164853E+00
         21   -1    0    0  502  501  0.00000000000E+00  0.00000000000E+00  0.11628358450E+03  0.11628358450E+03  0.00000000000E+00 0.  1.
         21   -1    0    0  501  502 -0.00000000000E+00 -0.00000000000E+00 -0.28825346390E+03  0.28825346390E+03  0.00000000000E+00 0.  1.
         25    1    1    2    0    0  0.55575879238E+02  0.12967493113E+01 -0.22040628388E+03  0.25941142975E+03  0.12500000000E+03 0.  0.
         25    1    1    2    0    0 -0.55575879238E+02 -0.12967493113E+01  0.48436404476E+02  0.14512561866E+03  0.12500000000E+03 0.  0.
</event>
<event>
 4    0  0.2193754E-002  0.1941133E+03  0.7546771E-02  0.1154803E+00
         21   -1    0    0  502  501  0.00000000000E+00  0.00000000000E+00  0.83155655728E+03  0.83155655728E+03  0.00000000000E+00 0.  1.
         21   -1    0    0  501  502 -0.00000000000E+00 -0.00000000000E+00 -0.45312567034E+02  0.45312567034E+02  0.00000000000E+00 0.  1.
         25    1    1    2    0    0  0.10188435562E+03  0.10798320768E+03  0.40162341220E+03  0.44605735090E+03  0.12500000000E+03 0.  0.
         25    1    1    2    0    0 -0.10188435562E+03 -0.10798320768E+03  0.38462057805E+03  0.43081177342E+03  0.12500000000E+03 0.  0.
</event>
<event>
 4    0  0.2193754E-002  0.2434749E+03  0.7546771E-02  0.1117499E+00
         21   -1    0    0  502  501  0.00000000000E+00  0.00000000000E+00  0.47216086258E+03  0.47216086258E+03  0.00000000000E+00 0. -1.
         21   -1    0    0  501  502 -0.00000000000E+00 -0.00000000000E+00 -0.12555044617E+03  0.12555044617E+03  0.00000000000E+00 0. -1.
         25    1    1    2    0    0  0.40993886624E+02 -0.10149521369E+03 -0.45145536793E+02  0.17217693410E+03  0.12500000000E+03 0.  0.
         25    1    1    2    0    0 -0.40993886624E+02  0.10149521369E+03  0.39175595321E+03  0.42553437466E+03  0.12500000000E+03 0.  0.
</event>
<event>
 4    0  0.2193754E-002  0.2891442E+03  0.7546771E-02  0.1090797E+00
         21   -1    0    0  502  501  0.00000000000E+00  0.00000000000E+00  0.16516678383E+03  0.16516678383E+03  0.00000000000E+00 0. -1.
         21   -1    0    0  501  502 -0.00000000000E+00 -0.00000000000E+00 -0.50618138352E+03  0.50618138352E+03  0.00000000000E+00 0. -1.
         25    1    1    2    0    0  0.19042505080E+03 -0.24047484300E+02 -0.37536782438E+03  0.43973399351E+03  0.12500000000E+03 0.  0.
         25    1    1    2    0    0 -0.19042505080E+03  0.24047484300E+02  0.34353224692E+02  0.23161417384E+03  0.12500000000E+03 0.  0.
</event>
<event>
 4    0  0.2193754E-002  0.1988193E+03  0.7546771E-02  0.1150739E+00
         21   -1    0    0  502  501  0.00000000000E+00  0.00000000000E+00  0.23863979663E+02  0.23863979663E+02  0.00000000000E+00 0. -1.
         21   -1    0    0  501  502 -0.00000000000E+00 -0.00000000000E+00 -0.16564338178E+04  0.16564338178E+04  0.00000000000E+00 0. -1.
         25    1    1    2    0    0  0.38677777214E+02 -0.14545505580E+03 -0.66682685177E+03  0.69493610781E+03  0.12500000000E+03 0.  0.
         25    1    1    2    0    0 -0.38677777214E+02  0.14545505580E+03 -0.96574298641E+03  0.98536168969E+03  0.12500000000E+03 0.  0.
</event>
<event>
 4    0  0.2193754E-002  0.1936205E+03  0.7546771E-02  0.1155236E+00
         21   -1    0    0  502  501  0.00000000000E+00  0.00000000000E+00  0.19085745127E+03  0.19085745127E+03  0.00000000000E+00 0. -1.
         21   -1    0    0  501  502 -0.00000000000E+00 -0.00000000000E+00 -0.19642353786E+03  0.19642353786E+03  0.00000000000E+00 0. -1.
         25    1    1    2    0    0  0.55777111974E+02  0.32737540004E+02  0.13020085057E+03  0.19172922113E+03  0.12500000000E+03 0.  0.
         25    1    1    2    0    0 -0.55777111974E+02 -0.32737540004E+02 -0.13576693716E+03  0.19555176801E+03  0.12500000000E+03 0.  0.
</event>
<event>
 4    0  0.2193754E-002  0.2060130E+03  0.7546771E-02  0.1144763E+00
         21   -1    0    0  502  501  0.00000000000E+00  0.00000000000E+00  0.31022306367E+02  0.31022306367E+02  0.00000000000E+00 0. -1.
         21   -1    0    0  501  502 -0.00000000000E+00 -0.00000000000E+00 -0.13680913253E+04  0.13680913253E+04  0.00000000000E+00 0. -1.
         25    1    1    2    0    0  0.97221798383E+02  0.48255719589E+02 -0.25215476693E+03  0.30164170640E+03  0.12500000000E+03 0.  0.
         25    1    1    2    0    0 -0.97221798383E+02 -0.48255719589E+02 -0.10849142520E+04  0.10974719253E+04  0.12500000000E+03 0.  0.
</event>
<event>
 4    0  0.2193754E-002  0.2204823E+03  0.7546771E-02  0.1133524E+00
         21   -1    0    0  502  501  0.00000000000E+00  0.00000000000E+00  0.34106960418E+02  0.34106960418E+02  0.00000000000E+00 0. -1.
         21   -1    0    0  501  502 -0.00000000000E+00 -0.00000000000E+00 -0.14252936741E+04  0.14252936741E+04  0.00000000000E+00 0. -1.
         25    1    1    2    0    0  0.87417748590E+02 -0.93907746931E+02 -0.27012561112E+03  0.32411938153E+03  0.12500000000E+03 0.  0.
         25    1    1    2    0    0 -0.87417748590E+02  0.93907746931E+02 -0.11210611025E+04  0.11352812529E+04  0.12500000000E+03 0.  0.
</event>
<event>
 4    0  0.2193754E-002  0.2802385E+03  0.7546771E-02  0.1095559E+00
         21   -1    0    0  502  501  0.00000000000E+00  0.00000000000E+00  0.19741030134E+03  0.19741030134E+03  0.00000000000E+00 0. -1.
         21   -1    0    0  501  502 -0.00000000000E+00 -0.00000000000E+00 -0.39781913024E+03  0.39781913024E+03  0.00000000000E+00 0. -1.
         25    1    1    2    0    0 -0.15467232739E+02 -0.23316377568E+03 -0.34277456591E+01  0.26503081145E+03  0.12500000000E+03 0.  0.
         25    1    1    2    0    0  0.15467232739E+02  0.23316377568E+03 -0.19698108325E+03  0.33019862013E+03  0.12500000000E+03 0.  0.
</event>
<event>
 4    0  0.2193754E-002  0.2246573E+03  0.7546771E-02  0.1130458E+00
         21   -1    0    0  502  501  0.00000000000E+00  0.00000000000E+00  0.51450177013E+02  0.51450177013E+02  0.00000000000E+00 0.  1.
         21   -1    0    0  501  502 -0.00000000000E+00 -0.00000000000E+00 -0.98096623201E+03  0.98096623201E+03  0.00000000000E+00 0.  1.
         25    1    1    2    0    0 -0.63480445310E+02 -0.17263896226E+01 -0.86809906241E+03  0.87934846876E+03  0.12500000000E+03 0.  0.
         25    1    1    2    0    0  0.63480445310E+02  0.17263896226E+01 -0.61416992593E+02  0.15306794027E+03  0.12500000000E+03 0.  0.
</event>
<event>
 4    0  0.2193754E-002  0.2495695E+03  0.7546771E-02  0.1113577E+00
         21   -1    0    0  502  501  0.00000000000E+00  0.00000000000E+00  0.68442681989E+02  0.68442681989E+02  0.00000000000E+00 0.  1.
         21   -1    0    0  501  502 -0.00000000000E+00 -0.00000000000E+00 -0.91003052213E+03  0.91003052213E+03  0.00000000000E+00 0.  1.
         25    1    1    2    0    0  0.95078311332E+02 -0.16154568511E+03 -0.63122549752E+03  0.67022945502E+03  0.12500000000E+03 0.  0.
         25    1    1    2    0    0 -0.95078311332E+02  0.16154568511E+03 -0.21036234262E+03  0.30824374909E+03  0.12500000000E+03 0.  0.
</event>
<event>
 4    0  0.2193754E-002  0.2581649E+03  0.7546771E-02  0.1108251E+00
         21   -1    0    0  502  501  0.00000000000E+00  0.00000000000E+00  0.63153242440E+03  0.63153242440E+03  0.00000000000E+00 0.  1.
         21   -1    0    0  501  502 -0.00000000000E+00 -0.00000000000E+00 -0.10553556340E+03  0.10553556340E+03  0.00000000000E+00 0.  1.
         25    1    1    2    0    0 -0.22475740134E+03  0.32298027844E+01  0.23114826154E+03  0.34580462677E+03  0.12500000000E+03 0.  0.
         25    1    1    2    0    0  0.22475740134E+03 -0.32298027844E+01  0.29484859946E+03  0.39126336103E+03  0.12500000000E+03 0.  0.
</event>
<event>
 4    0  0.2193754E-002  0.2660369E+03  0.7546771E-02  0.1103569E+00
         21   -1    0    0  502  501  0.00000000000E+00  0.00000000000E+00  0.51480465750E+03  0.51480465750E+03  0.00000000000E+00 0.  1.
         21   -1    0    0  501  502 -0.00000000000E+00 -0.00000000000E+00 -0.13748051613E+03  0.13748051613E+03  0.00000000000E+00 0.  1.
         25    1    1    2    0    0 -0.13501987715E+03 -0.11980863722E+03  0.45025080228E+01  0.21961272585E+03  0.12500000000E+03 0.  0.
         25    1    1    2    0    0  0.13501987715E+03  0.11980863722E+03  0.37282163335E+03  0.43267244778E+03  0.12500000000E+03 0.  0.
</event>
<event>
 4    0  0.2193754E-002  0.2236613E+03  0.7546771E-02  0.1131183E+00
         21   -1    0    0  502  501  0.00000000000E+00  0.00000000000E+00  0.58317340800E+02  0.58317340800E+02  0.00000000000E+00 0. -1.
         21   -1    0    0  501  502 -0.00000000000E+00 -0.00000000000E+00 -0.85779564897E+03  0.85779564897E+03  0.00000000000E+00 0. -1.
         25    1    1    2    0    0 -0.50719359068E+02  0.75081616070E+02 -0.68308106548E+02  0.16882150300E+03  0.12500000000E+03 0.  0.
         25    1    1    2    0    0  0.50719359068E+02 -0.75081616070E+02 -0.73117020162E+03  0.74729148676E+03  0.12500000000E+03 0.  0.
</event>
<event>
 4    0  0.2193754E-002  0.5042895E+03  0.7546771E-02  0.1012665E+00
         21   -1    0    0  502  501  0.00000000000E+00  0.00000000000E+00  0.43108329888E+03  0.43108329888E+03  0.00000000000E+00 0. -1.
         21   -1    0    0  501  502 -0.00000000000E+00 -0.00000000000E+00 -0.58992748981E+03  0.58992748981E+03  0.00000000000E+00 0. -1.
         25    1    1    2    0    0 -0.39694258726E+03  0.90883764390E+02  0.19383021781E+03  0.46799404862E+03  0.12500000000E+03 0.  0.
         25    1    1    2    0    0  0.39694258726E+03 -0.90883764390E+02 -0.35267440874E+03  0.55301674006E+03  0.12500000000E+03 0.  0.
</event>
<event>
 4    0  0.2193754E-002  0.2885639E+03  0.7546771E-02  0.1091101E+00
         21   -1    0    0  502  501  0.00000000000E+00  0.00000000000E+00  0.16063466506E+03  0.16063466506E+03  0.00000000000E+00 0. -1.
         21   -1    0    0  501  502 -0.00000000000E+00 -0.00000000000E+00 -0.51837589502E+03  0.51837589502E+03  0.00000000000E+00 0. -1.
         25    1    1    2    0    0 -0.12422287722E+03 -0.17201315911E+03 -0.35583748081E+03  0.43274145038E+03  0.12500000000E+03 0.  0.
         25    1    1    2    0    0  0.12422287722E+03  0.17201315911E+03 -0.19037491486E+01  0.24626910970E+03  0.12500000000E+03 0.  0.
</event>
<event>
 4    0  0.2193754E-002  0.1537123E+03  0.7546771E-02  0.1195984E+00
         21   -1    0    0  502  501  0.00000000000E+00  0.00000000000E+00  0.86464076344E+03  0.86464076344E+03  0.00000000000E+00 0.  1.
         21   -1    0    0  501  502 -0.00000000000E+00 -0.00000000000E+00 -0.27326333295E+02  0.27326333295E+02  0.00000000000E+00 0.  1.
         25    1    1    2    0    0 -0.76326264615E+02  0.29913775558E+02  0.31477473761E+03  0.34846616489E+03  0.12500000000E+03 0.  0.
         25    1    1    2    0    0  0.76326264615E+02 -0.29913775558E+02  0.52253969253E+03  0.54350093184E+03  0.12500000000E+03 0.  0.
</event>
<event>
 4    0  0.2193754E-002  0.4533614E+03  0.7546771E-02  0.1026724E+00
         21   -1    0    0  502  501  0.00000000000E+00  0.00000000000E+00  0.20241287532E+03  0.20241287532E+03  0.00000000000E+00 0. -1.
         21   -1    0    0  501  502 -0.00000000000E+00 -0.00000000000E+00 -0.10154324467E+04  0.10154324467E+04  0.00000000000E+00 0.  1.
         25    1    1    2    0    0 -0.39270007418E+03  0.18453478196E+03 -0.35203160771E+03  0.57255365412E+03  0.12500000000E+03 0.  0.
         25    1    1    2    0    0  0.39270007418E+03 -0.18453478196E+03 -0.46098796362E+03  0.64529166786E+03  0.12500000000E+03 0.  0.
</event>
<event>
 4    0  0.2193754E-002  0.1826308E+03  0.7546771E-02  0.1165281E+00
         21   -1    0    0  502  501  0.00000000000E+00  0.00000000000E+00  0.18111216756E+03  0.18111216756E+03  0.00000000000E+00 0. -1.
         21   -1    0    0  501  502 -0.00000000000E+00 -0.00000000000E+00 -0.18416208257E+03  0.18416208257E+03  0.00000000000E+00 0. -1.
         25    1    1    2    0    0  0.60150014587E+02  0.11202740172E+03 -0.41033688054E+02  0.18296700945E+03  0.12500000000E+03 0.  0.
         25    1    1    2    0    0 -0.60150014587E+02 -0.11202740172E+03  0.37983773039E+02  0.18230724068E+03  0.12500000000E+03 0.  0.
</event>
<event>
 4    0  0.2193754E-002  0.1809633E+03  0.7546771E-02  0.1166874E+00
         21   -1    0    0  502  501  0.00000000000E+00  0.00000000000E+00  0.11569930846E+03  0.11569930846E+03  0.00000000000E+00 0. -1.
         21   -1    0    0  501  502 -0.00000000000E+00 -0.00000000000E+00 -0.28304150935E+03  0.28304150935E+03  0.00000000000E+00 0. -1.
         25    1    1    2    0    0 -0.12390565723E+03 -0.14253084548E+02 -0.40059997419E+02  0.18106784835E+03  0.12500000000E+03 0.  0.
         25    1    1    2    0    0  0.12390565723E+03  0.14253084548E+02 -0.12728220347E+03  0.21767296946E+03  0.12500000000E+03 0.  0.
</event>
<event>
 4    0  0.2193754E-002  0.1894905E+03  0.7546771E-02  0.1158922E+00
         21   -1    0    0  502  501  0.00000000000E+00  0.00000000000E+00  0.10144380415E+04  0.10144380415E+04  0.00000000000E+00 0. -1.
         21   -1    0    0  501  502 -0.00000000000E+00 -0.00000000000E+00 -0.35395589062E+02  0.35395589062E+02  0.00000000000E+00 0. -1.
         25    1    1    2    0    0 -0.18050122662E+00  0.62614477229E+02  0.84385163595E+03  0.85535442294E+03  0.12500000000E+03 0.  0.
         25    1    1    2    0    0  0.18050122662E+00 -0.62614477229E+02  0.13519081651E+03  0.19447920765E+03  0.12500000000E+03 0.  0.
</event>
<event>
 4    0  0.2193754E-002  0.1823859E+03  0.7546771E-02  0.1165514E+00
         21   -1    0    0  502  501  0.00000000000E+00  0.00000000000E+00  0.22429358426E+03  0.22429358426E+03  0.00000000000E+00 0. -1.
         21   -1    0    0  501  502 -0.00000000000E+00 -0.00000000000E+00 -0.14830837432E+03  0.14830837432E+03  0.00000000000E+00 0. -1.
         25    1    1    2    0    0 -0.96320935958E+02 -0.74998223025E+02 -0.15448326870E+02  0.17540269942E+03  0.12500000000E+03 0.  0.
         25    1    1    2    0    0  0.96320935958E+02  0.74998223025E+02  0.91433536815E+02  0.19719925916E+03  0.12500000000E+03 0.  0.
</event>
<event>
 4    0  0.2193754E-002  0.2556279E+03  0.7546771E-02  0.1109799E+00
         21   -1    0    0  502  501  0.00000000000E+00  0.00000000000E+00  0.51276650077E+03  0.51276650077E+03  0.00000000000E+00 0. -1.
         21   -1    0    0  501  502 -0.00000000000E+00 -0.00000000000E+00 -0.12743741124E+03  0.12743741124E+03  0.00000000000E+00 0. -1.
         25    1    1    2    0    0  0.40200794939E+02 -0.18566331761E+03  0.46451430088E+02  0.23209848508E+03  0.12500000000E+03 0.  0.
         25    1    1    2    0    0 -0.40200794939E+02  0.18566331761E+03  0.33887765944E+03  0.40810542693E+03  0.12500000000E+03 0.  0.
</event>
<event>
 4    0  0.2193754E-002  0.1604297E+03  0.7546771E-02  0.1188212E+00
         21   -1    0    0  502  501  0.00000000000E+00  0.00000000000E+00  0.19415950458E+03  0.19415950458E+03  0.00000000000E+00 0. -1.
         21   -1    0    0  501  502 -0.00000000000E+00 -0.00000000000E+00 -0.13255949733E+03  0.13255949733E+03  0.00000000000E+00 0. -1.
         25    1    1    2    0    0 -0.48186864492E+02  0.81329103056E+02  0.65723421527E+02  0.16994400563E+03  0.12500000000E+03 0.  0.
         25    1    1    2    0    0  0.48186864492E+02 -0.81329103056E+02 -0.41234142798E+01  0.15677499628E+03  0.12500000000E+03 0.  0.
</event>
<event>
 4    0  0.2193754E-002  0.1798004E+03  0.7546771E-02  0.1167996E+00
         21   -1    0    0  502  501  0.00000000000E+00  0.00000000000E+00  0.15472997241E+03  0.15472997241E+03  0.00000000000E+00 0. -1.
         21   -1    0    0  501  502 -0.00000000000E+00 -0.00000000000E+00 -0.20893285319E+03  0.20893285319E+03  0.00000000000E+00 0. -1.
         25    1    1    2    0    0  0.61021804809E+02 -0.28336439196E+02 -0.13869538545E+03  0.19846416400E+03  0.12500000000E+03 0.  0.
         25    1    1    2    0    0 -0.61021804809E+02  0.28336439196E+02  0.84492504669E+02  0.16519866160E+03  0.12500000000E+03 0.  0.
</event>
<event>
 4    0  0.2193754E-002  0.1885598E+03  0.7546771E-02  0.1159767E+00
         21   -1    0    0  502  501  0.00000000000E+00  0.00000000000E+00  0.40842220529E+03  0.40842220529E+03  0.00000000000E+00 0.  1.
         21   -1    0    0  501  502 -0.00000000000E+00 -0.00000000000E+00 -0.87054047552E+02  0.87054047552E+02  0.00000000000E+00 0.  1.
         25    1    1    2    0    0 -0.77261393557E+02 -0.81372743676E+02  0.27323808154E+03  0.32074116598E+03  0.12500000000E+03 0.  0.
         25    1    1    2    0    0  0.77261393557E+02  0.81372743676E+02  0.48130076197E+02  0.17473508687E+03  0.12500000000E+03 0.  0.
</event>
<event>
 4    0  0.2193754E-002  0.1563569E+03  0.7546771E-02  0.1192872E+00
         21   -1    0    0  502  501  0.00000000000E+00  0.00000000000E+00  0.76638310145E+02  0.76638310145E+02  0.00000000000E+00 0.  1.
         21   -1    0    0  501  502 -0.00000000000E+00 -0.00000000000E+00 -0.31899796369E+03  0.31899796369E+03  0.00000000000E+00 0.  1.
         25    1    1    2    0    0  0.41110319766E+02  0.27681915937E+01 -0.14389033684E+02  0.13240002102E+03  0.12500000000E+03 0.  0.
         25    1    1    2    0    0 -0.41110319766E+02 -0.27681915937E+01 -0.22797061986E+03  0.26323625282E+03  0.12500000000E+03 0.  0.
</event>
<event>
 4    0  0.2193754E-002  0.1960876E+03  0.7546771E-02  0.1153083E+00
         21   -1    0    0  502  501  0.00000000000E+00  0.00000000000E+00  0.16786792079E+03  0.16786792079E+03  0.00000000000E+00 0. -1.
         21   -1    0    0  501  502 -0.00000000000E+00 -0.00000000000E+00 -0.22905112791E+03  0.22905112791E+03  0.00000000000E+00 0. -1.
         25    1    1    2    0    0 -0.89835679116E+02  0.12098091084E+03 -0.41609357827E+02  0.20015785942E+03  0.12500000000E+03 0.  0.
         25    1    1    2    0    0  0.89835679116E+02 -0.12098091084E+03 -0.19573849299E+02  0.19676118928E+03  0.12500000000E+03 0.  0.
</event>
<event>
 4    0  0.2193754E-002  0.2159311E+03  0.7546771E-02  0.1136953E+00
         21   -1    0    0  502  501  0.00000000000E+00  0.00000000000E+00  0.34025303249E+02  0.34025303249E+02  0.00000000000E+00 0.  1.
         21   -1    0    0  501  502 -0.00000000000E+00 -0.00000000000E+00 -0.13703405949E+04  0.13703405949E+04  0.00000000000E+00 0.  1.
         25    1    1    2    0    0 -0.62402764810E+02 -0.74905161371E+02 -0.19137818327E+03  0.24850653369E+03  0.12500000000E+03 0.  0.
         25    1    1    2    0    0  0.62402764810E+02  0.74905161371E+02 -0.11449371084E+04  0.11558593645E+04  0.12500000000E+03 0.  0.
</event>
<event>
 4    0  0.2193754E-002  0.2521295E+03  0.7546771E-02  0.1111966E+00
         21   -1    0    0  502  501  0.00000000000E+00  0.00000000000E+00  0.60709416764E+03  0.60709416764E+03  0.00000000000E+00 0.  1.
         21   -1    0    0  501  502 -0.00000000000E+00 -0.00000000000E+00 -0.10471078908E+03  0.10471078908E+03  0.00000000000E+00 0.  1.
         25    1    1    2    0    0  0.80387166924E+02 -0.19838963020E+03  0.31624370176E+03  0.40181540647E+03  0.12500000000E+03 0.  0.
         25    1    1    2    0    0 -0.80387166924E+02  0.19838963020E+03  0.18613967680E+03  0.30998955024E+03  0.12500000000E+03 0.  0.
</event>
<event>
 4    0  0.2193754E-002  0.2612575E+03  0.7546771E-02  0.1106390E+00
         21   -1    0    0  502  501  0.00000000000E+00  0.00000000000E+00  0.55840074542E+02  0.55840074542E+02  0.00000000000E+00 0.  1.
         21   -1    0    0  501  502 -0.00000000000E+00 -0.00000000000E+00 -0.12223389422E+04  0.12223389422E+04  0.00000000000E+00 0.  1.
         25    1    1    2    0    0  0.14230195615E+03 -0.17798160869E+03 -0.64811760424E+03  0.69828986007E+03  0.12500000000E+03 0.  0.
         25    1    1    2    0    0 -0.14230195615E+03  0.17798160869E+03 -0.51838126339E+03  0.57988915664E+03  0.12500000000E+03 0.  0.
</event>
<event>
 4    0  0.2193754E-002  0.1871231E+03  0.7546771E-02  0.1161082E+00
         21   -1    0    0  502  501  0.00000000000E+00  0.00000000000E+00  0.75332374420E+02  0.75332374420E+02  0.00000000000E+00 0.  1.
         21   -1    0    0  501  502 -0.00000000000E+00 -0.00000000000E+00 -0.46480737225E+03  0.46480737225E+03  0.00000000000E+00 0.  1.
         25    1    1    2    0    0  0.11077203558E+03  0.48871921181E+02 -0.29401056922E+03  0.34165205014E+03  0.12500000000E+03 0.  0.
         25    1    1    2    0    0 -0.11077203558E+03 -0.48871921181E+02 -0.95464428607E+02  0.19848769653E+03  0.12500000000E+03 0.  0.
</event>
<event>
 4    0  0.2193754E-002  0.2257670E+03  0.7546771E-02  0.1129655E+00
         21   -1    0    0  502  501  0.00000000000E+00  0.00000000000E+00  0.23442036999E+03  0.23442036999E+03  0.00000000000E+00 0. -1.
         21   -1    0    0  501  502 -0.00000000000E+00 -0.00000000000E+00 -0.21743312211E+03  0.21743312211E+03  0.00000000000E+00 0. -1.
         25    1    1    2    0    0 -0.12180212509E+03  0.11866827732E+03 -0.71736874479E+02  0.22291051316E+03  0.12500000000E+03 0.  0.
         25    1    1    2    0    0  0.12180212509E+03 -0.11866827732E+03  0.88724122363E+02  0.22894297894E+03  0.12500000000E+03 0.  0.
</event>
<event>
 4    0  0.2193754E-002  0.1867910E+03  0.7546771E-02  0.1161388E+00
         21   -1    0    0  502  501  0.00000000000E+00  0.00000000000E+00  0.63332557413E+02  0.63332557413E+02  0.00000000000E+00 0. -1.
         21   -1    0    0  501  502 -0.00000000000E+00 -0.00000000000E+00 -0.55091520550E+03  0.55091520550E+03  0.00000000000E+00 0. -1.
         25    1    1    2    0    0  0.65103565783E+02  0.77150952874E+02 -0.87158057522E+02  0.18279023715E+03  0.12500000000E+03 0.  0.
         25    1    1    2    0    0 -0.65103565783E+02 -0.77150952874E+02 -0.40042459057E+03  0.43145752576E+03  0.12500000000E+03 0.  0.
</event>
<event>
 4    0  0.2193754E-002  0.2285191E+03  0.7546771E-02  0.1127686E+00
         21   -1    0    0  502  501  0.00000000000E+00  0.00000000000E+00  0.60175929808E+03  0.60175929808E+03  0.00000000000E+00 0.  1.
         21   -1    0    0  501  502 -0.00000000000E+00 -0.00000000000E+00 -0.86780482827E+02  0.86780482827E+02  0.00000000000E+00 0.  1.
         25    1    1    2    0    0 -0.17556174742E+03 -0.29106553177E+02  0.36323469068E+03  0.42335984589E+03  0.12500000000E+03 0.  0.
         25    1    1    2    0    0  0.17556174742E+03  0.29106553177E+02  0.15174412458E+03  0.26517993503E+03  0.12500000000E+03 0.  0.
</event>
<event>
 4    0  0.2193754E-002  0.2228962E+03  0.7546771E-02  0.1131742E+00
         21   -1    0    0  502  501  0.00000000000E+00  0.00000000000E+00  0.93652761405E+02  0.93652761405E+02  0.00000000000E+00 0.  1.
         21   -1    0    0  501  502 -0.00000000000E+00 -0.00000000000E+00 -0.53049936172E+03  0.53049936172E+03  0.00000000000E+00 0.  1.
         25    1    1    2    0    0 -0.93796920054E+02  0.15818308289E+03 -0.19682457272E+03  0.29695902470E+03  0.12500000000E+03 0.  0.
         25    1    1    2    0    0  0.93796920054E+02 -0.15818308289E+03 -0.24002202759E+03  0.32719309842E+03  0.12500000000E+03 0.  0.
</event>
<event>
 4    0  0.2193754E-002  0.1701776E+03  0.7546771E-02  0.1177663E+00
         21   -1    0    0  502  501  0.00000000000E+00  0.00000000000E+00  0.33407320056E+02  0.33407320056E+02  0.00000000000E+00 0. -1.
         21   -1    0    0  501  502 -0.00000000000E+00 -0.00000000000E+00 -0.86688849158E+03  0.86688849158E+03  0.00000000000E+00 0. -1.
         25    1    1    2    0    0 -0.10393025471E+03  0.42298144190E+02 -0.34455178212E+03  0.38331652901E+03  0.12500000000E+03 0.  0.
         25    1    1    2    0    0  0.10393025471E+03 -0.42298144190E+02 -0.48892938940E+03  0.51697928263E+03  0.12500000000E+03 0.  0.
</event>
<event>
 4    0  0.2193754E-002  0.2713642E+03  0.7546771E-02  0.1100501E+00
         21   -1    0    0  502  501  0.00000000000E+00  0.00000000000E+00  0.18873418012E+03  0.18873418012E+03  0.00000000000E+00 0. -1.
         21   -1    0    0  501  502 -0.00000000000E+00 -0.00000000000E+00 -0.39017055476E+03  0.39017055476E+03  0.00000000000E+00 0. -1.
         25    1    1    2    0    0 -0.48033604878E+02 -0.11279262100E+03  0.12042755732E+03  0.21250223319E+03  0.12500000000E+03 0.  0.
         25    1    1    2    0    0  0.48033604878E+02  0.11279262100E+03 -0.32186393195E+03  0.36640250169E+03  0.12500000000E+03 0.  0.
</event>
<event>
 4    0  0.2193754E-002  0.2354363E+03  0.7546771E-02  0.1122871E+00
         21   -1    0    0  502  501  0.00000000000E+00  0.00000000000E+00  0.21447082343E+03  0.21447082343E+03  0.00000000000E+00 0. -1.
         21   -1    0    0  501  502 -0.00000000000E+00 -0.00000000000E+00 -0.25845128947E+03  0.25845128947E+03  0.00000000000E+00 0. -1.
         25    1    1    2    0    0  0.79160955117E+02 -0.15556108348E+03  0.75071763017E+02  0.22743455567E+03  0.12500000000E+03 0.  0.
         25    1    1    2    0    0 -0.79160955117E+02  0.15556108348E+03 -0.11905222906E+03  0.24548755722E+03  0.12500000000E+03 0.  0.
</event>
<event>
 4    0  0.2193754E-002  0.3595734E+03  0.7546771E-02  0.1058753E+00
         21   -1    0    0  502  501  0.00000000000E+00  0.00000000000E+00  0.17320049290E+03  0.17320049290E+03  0.00000000000E+00 0. -1.
         21   -1    0    0  501  502 -0.00000000000E+00 -0.00000000000E+00 -0.74649362113E+03  0.74649362113E+03  0.00000000000E+00 0.  1.
         25    1    1    2    0    0  0.20049820880E+03 -0.26704247801E+03 -0.34603958308E+03  0.49686981177E+03  0.12500000000E+03 0.  0.
         25    1    1    2    0    0 -0.20049820880E+03  0.26704247801E+03 -0.22725354515E+03  0.42282430225E+03  0.12500000000E+03 0.  0.
</event>
<event>
 4    0  0.2193754E-002  0.2372026E+03  0.7546771E-02  0.1121671E+00
         21   -1    0    0  502  501  0.00000000000E+00  0.00000000000E+00  0.13413038162E+03  0.13413038162E+03  0.00000000000E+00 0.  1.
         21   -1    0    0  501  502 -0.00000000000E+00 -0.00000000000E+00 -0.41948042565E+03  0.41948042565E+03  0.00000000000E+00 0.  1.
         25    1    1    2    0    0 -0.17391044070E+03  0.52789303218E+02 -0.40885011282E+02  0.22433933241E+03  0.12500000000E+03 0.  0.
         25    1    1    2    0    0  0.17391044070E+03 -0.52789303218E+02 -0.24446503274E+03  0.32927147486E+03  0.12500000000E+03 0.  0.
</event>
<event>
 4    0  0.2193754E-002  0.3082074E+03  0.7546771E-02  0.1081208E+00
         21   -1    0    0  502  501  0.00000000000E+00  0.00000000000E+00  0.22904681656E+04  0.22904681656E+04  0.00000000000E+00 0. -1.
         21   -1    0    0  501  502 -0.00000000000E+00 -0.00000000000E+00 -0.41472655458E+02  0.41472655458E+02  0.00000000000E+00 0.  1.
         25    1    1    2    0    0 -0.23061837646E+03  0.29331083782E+01  0.51246565148E+03  0.57570781012E+03  0.12500000000E+03 0.  0.
         25    1    1    2    0    0  0.23061837646E+03 -0.29331083782E+01  0.17365298587E+04  0.17562330110E+04  0.12500000000E+03 0.  0.
</event>
<event>
 4    0  0.2193754E-002  0.1793037E+03  0.7546771E-02  0.1168479E+00
         21   -1    0    0  502  501  0.00000000000E+00  0.00000000000E+00  0.52201759190E+03  0.52201759190E+03  0.00000000000E+00 0. -1.
         21   -1    0    0  501  502 -0.00000000000E+00 -0.00000000000E+00 -0.61587593849E+02  0.61587593849E+02  0.00000000000E+00 0. -1.
         25    1    1    2    0    0 -0.10658885252E+03  0.65932927429E+02  0.27671691856E+03  0.32848985893E+03  0.12500000000E+03 0.  0.
         25    1    1    2    0    0  0.10658885252E+03 -0.65932927429E+02  0.18371307949E+03  0.25511532682E+03  0.12500000000E+03 0.  0.
</event>
<event>
 4    0  0.2193754E-002  0.2486871E+03  0.7546771E-02  0.1114137E+00
         21   -1    0    0  502  501  0.00000000000E+00  0.00000000000E+00  0.41349162130E+03  0.41349162130E+03  0.00000000000E+00 0. -1.
         21   -1    0    0  501  502 -0.00000000000E+00 -0.00000000000E+00 -0.14956834405E+03  0.14956834405E+03  0.00000000000E+00 0. -1.
         25    1    1    2    0    0 -0.16484906291E+03  0.13610489240E+03  0.15778915059E+03  0.29363612060E+03  0.12500000000E+03 0.  0.
         25    1    1    2    0    0  0.16484906291E+03 -0.13610489240E+03  0.10613412666E+03  0.26942384475E+03  0.12500000000E+03 0.  0.
</event>
<event>
 4    0  0.2193754E-002  0.1978556E+03  0.7546771E-02  0.1151561E+00
         21   -1    0    0  502  501  0.00000000000E+00  0.00000000000E+00  0.85678667193E+03  0.85678667193E+03  0.00000000000E+00 0. -1.
         21   -1    0    0  501  502 -0.00000000000E+00 -0.00000000000E+00 -0.45690315921E+02  0.45690315921E+02  0.00000000000E+00 0. -1.
         25    1    1    2    0    0 -0.34649810016E+01  0.14419070736E+03  0.52446774834E+03  0.55811682041E+03  0.12500000000E+03 0.  0.
         25    1    1    2    0    0  0.34649810016E+01 -0.14419070736E+03  0.28662860767E+03  0.34436016744E+03  0.12500000000E+03 0.  0.
</event>
<event>
 4    0  0.2193754E-002  0.1819160E+03  0.7546771E-02  0.1165962E+00
         21   -1    0    0  502  501  0.00000000000E+00  0.00000000000E+00  0.31147372748E+03  0.31147372748E+03  0.00000000000E+00 0.  1.
         21   -1    0    0  501  502 -0.00000000000E+00 -0.00000000000E+00 -0.10624786134E+03  0.10624786134E+03  0.00000000000E+00 0.  1.
         25    1    1    2    0    0  0.18542866130E+02  0.69214825222E+02 -0.24894677761E+02  0.14621653428E+03  0.12500000000E+03 0.  0.
         25    1    1    2    0    0 -0.18542866130E+02 -0.69214825222E+02  0.23012054391E+03  0.27150505454E+03  0.12500000000E+03 0.  0.
</event>
<event>
 4    0  0.2193754E-002  0.1362512E+03  0.7546771E-02  0.1218464E+00
         21   -1    0    0  502  501  0.00000000000E+00  0.00000000000E+00  0.93873975755E+03  0.93873975755E+03  0.00000000000E+00 0.  1.
         21   -1    0    0  501  502 -0.00000000000E+00 -0.00000000000E+00 -0.19775875525E+02  0.19775875525E+02  0.00000000000E+00 0.  1.
         25    1    1    2    0    0  0.31526108211E+01  0.35263463494E+02  0.60390982768E+03  0.61772609689E+03  0.12500000000E+03 0.  0.
         25    1    1    2    0    0 -0.31526108211E+01 -0.35263463494E+02  0.31505405434E+03  0.34078953618E+03  0.12500000000E+03 0.  0.
</event>
<event>
 4    0  0.2193754E-002  0.1665356E+03  0.7546771E-02  0.1181510E+00
         21   -1    0    0  502  501  0.00000000000E+00  0.00000000000E+00  0.65404913023E+03  0.65404913023E+03  0.00000000000E+00 0. -1.
         21   -1    0    0  501  502 -0.00000000000E+00 -0.00000000000E+00 -0.42403707040E+02  0.42403707040E+02  0.00000000000E+00 0. -1.
         25    1    1    2    0    0 -0.34328131044E+02 -0.99403883481E+02  0.23808083333E+03  0.28873350313E+03  0.12500000000E+03 0.  0.
         25    1    1    2    0    0  0.34328131044E+02  0.99403883481E+02  0.37356458986E+03  0.40771933414E+03  0.12500000000E+03 0.  0.
</event>
<event>
 4    0  0.2193754E-002  0.1758406E+03  0.7546771E-02  0.1171890E+00
         21   -1    0    0  502  501  0.00000000000E+00  0.00000000000E+00  0.20214861715E+02  0.20214861715E+02  0.00000000000E+00 0. -1.
         21   -1    0    0  501  502 -0.00000000000E+00 -0.00000000000E+00 -0.15295633126E+04  0.15295633126E+04  0.00000000000E+00 0. -1.
         25    1    1    2    0    0 -0.61021567107E+02 -0.10737455009E+03 -0.72612012492E+03  0.74707988962E+03  0.12500000000E+03 0.  0.
         25    1    1    2    0    0  0.61021567107E+02  0.10737455009E+03 -0.78322832593E+03  0.80269828466E+03  0.12500000000E+03 0.  0.
</event>
<event>
 4    0  0.2193754E-002  0.2089301E+03  0.7546771E-02  0.1142416E+00
         21   -1    0    0  502  501  0.00000000000E+00  0.00000000000E+00  0.10892647754E+03  0.10892647754E+03  0.00000000000E+00 0.  1.
         21   -1    0    0  501  502 -0.00000000000E+00 -0.00000000000E+00 -0.40074523852E+03  0.40074523852E+03  0.00000000000E+00 0.  1.
         25    1    1    2    0    0 -0.75880115041E+02  0.14880359631E+03 -0.13219282845E+03  0.24698227877E+03  0.12500000000E+03 0.  0.
         25    1    1    2    0    0  0.75880115041E+02 -0.14880359631E+03 -0.15962593253E+03  0.26268943730E+03  0.12500000000E+03 0.  0.
</event>
<event>
 4    0  0.2193754E-002  0.2068947E+03  0.7546771E-02  0.1144049E+00
         21   -1    0    0  502  501  0.00000000000E+00  0.00000000000E+00  0.26816219682E+03  0.26816219682E+03  0.00000000000E+00 0.  1.
         21   -1    0    0  501  502 -0.00000000000E+00 -0.00000000000E+00 -0.15962510204E+03  0.15962510204E+03  0.00000000000E+00 0.  1.
         25    1    1    2    0    0 -0.51277933647E+02  0.14227159909E+03 -0.13601203235E+02  0.19667391061E+03  0.12500000000E+03 0.  0.
         25    1    1    2    0    0  0.51277933647E+02 -0.14227159909E+03  0.12213829802E+03  0.23111338825E+03  0.12500000000E+03 0.  0.
</event>
<event>
 4    0  0.2193754E-002  0.2858056E+03  0.7546771E-02  0.1092560E+00
         21   -1    0    0  502  501  0.00000000000E+00  0.00000000000E+00  0.47212671178E+02  0.47212671178E+02  0.00000000000E+00 0.  1.
         21   -1    0    0  501  502 -0.00000000000E+00 -0.00000000000E+00 -0.17301470722E+04  0.17301470722E+04  0.00000000000E+00 0.  1.
         25    1    1    2    0    0 -0.24148905324E+03 -0.81470232889E+02 -0.94485148667E+03  0.98657168698E+03  0.12500000000E+03 0.  0.
         25    1    1    2    0    0  0.24148905324E+03  0.81470232889E+02 -0.73808291431E+03  0.79078805636E+03  0.12500000000E+03 0.  0.
</event>
<event>
 4    0  0.2193754E-002  0.1904792E+03  0.7546771E-02  0.1158030E+00
         21   -1    0    0  502  501  0.00000000000E+00  0.00000000000E+00  0.69401212046E+03  0.69401212046E+03  0.00000000000E+00 0.  1.
         21   -1    0    0  501  502 -0.00000000000E+00 -0.00000000000E+00 -0.52279098141E+02  0.52279098141E+02  0.00000000000E+00 0.  1.
         25    1    1    2    0    0 -0.95183819653E+02 -0.75283877838E+02  0.17001580616E+03  0.24342965335E+03  0.12500000000E+03 0.  0.
         25    1    1    2    0    0  0.95183819653E+02  0.75283877838E+02  0.47171721616E+03  0.50286156525E+03  0.12500000000E+03 0.  0.
</event>
<event>
 4    0  0.2193754E-002  0.2206652E+03  0.7546771E-02  0.1133388E+00
         21   -1    0    0  502  501  0.00000000000E+00  0.00000000000E+00  0.10747443662E+03  0.10747443662E+03  0.00000000000E+00 0.  1.
         21   -1    0    0  501  502 -0.00000000000E+00 -0.00000000000E+00 -0.45306711176E+03  0.45306711176E+03  0.00000000000E+00 0.  1.
         25    1    1    2    0    0  0.73898752004E+02 -0.57092944666E+02  0.25388838615E+02  0.15808296241E+03  0.12500000000E+03 0.  0.
         25    1    1    2    0    0 -0.73898752004E+02  0.57092944666E+02 -0.37098151375E+03  0.40245858597E+03  0.12500000000E+03 0.  0.
</event>
<event>
 4    0  0.2193754E-002  0.3041238E+03  0.7546771E-02  0.1083197E+00
         21   -1    0    0  502  501  0.00000000000E+00  0.00000000000E+00  0.47782087010E+03  0.47782087010E+03  0.00000000000E+00 0. -1.
         21   -1    0    0  501  502 -0.00000000000E+00 -0.00000000000E+00 -0.19356891770E+03  0.19356891770E+03  0.00000000000E+00 0. -1.
         25    1    1    2    0    0 -0.71772038602E+02  0.88144029378E+02 -0.13699980349E+03  0.21751906031E+03  0.12500000000E+03 0.  0.
         25    1    1    2    0    0  0.71772038602E+02 -0.88144029378E+02  0.42125175589E+03  0.45387072750E+03  0.12500000000E+03 0.  0.
</event>
<event>
 4    0  0.2193754E-002  0.1727424E+03  0.7546771E-02  0.1175018E+00
         21   -1    0    0  502  501  0.00000000000E+00  0.00000000000E+00  0.62620018343E+02  0.62620018343E+02  0.00000000000E+00 0.  1.
         21   -1    0    0  501  502 -0.00000000000E+00 -0.00000000000E+00 -0.47652380637E+03  0.47652380637E+03  0.00000000000E+00 0.  1.
         25    1    1    2    0    0  0.72284211846E+02  0.83656153215E+02 -0.13730952155E+03  0.21610706597E+03  0.12500000000E+03 0.  0.
         25    1    1    2    0    0 -0.72284211846E+02 -0.83656153215E+02 -0.27659426647E+03  0.32303675874E+03  0.12500000000E+03 0.  0.
</event>
<event>
 4    0  0.2193754E-002  0.2107076E+03  0.7546771E-02  0.1141007E+00
         21   -1    0    0  502  501  0.00000000000E+00  0.00000000000E+00  0.27182188237E+02  0.27182188237E+02  0.00000000000E+00 0. -1.
         21   -1    0    0  501  502 -0.00000000000E+00 -0.00000000000E+00 -0.16333381394E+04  0.16333381394E+04  0.00000000000E+00 0. -1.
         25    1    1    2    0    0 -0.16310920476E+03 -0.83800593604E+01 -0.98355540003E+03  0.10048288725E+04  0.12500000000E+03 0.  0.
         25    1    1    2    0    0  0.16310920476E+03  0.83800593604E+01 -0.62260055109E+03  0.65569145510E+03  0.12500000000E+03 0.  0.
</event>
<event>
 4    0  0.2193754E-002  0.1771388E+03  0.7546771E-02  0.1170601E+00
         21   -1    0    0  502  501  0.00000000000E+00  0.00000000000E+00  0.10851673707E+04  0.10851673707E+04  0.00000000000E+00 0.  1.
         21   -1    0    0  501  502 -0.00000000000E+00 -0.00000000000E+00 -0.28915507732E+02  0.28915507732E+02  0.00000000000E+00 0.  1.
         25    1    1    2    0    0 -0.41228993002E+01 -0.12163765594E+03  0.62456235378E+03  0.64847193571E+03  0.12500000000E+03 0.  0.
         25    1    1    2    0    0  0.41228993002E+01  0.12163765594E+03  0.43168950917E+03  0.46561094271E+03  0.12500000000E+03 0.  0.
</event>
<event>
 4    0  0.2193754E-002  0.1791326E+03  0.7546771E-02  0.1168645E+00
         21   -1    0    0  502  501  0.00000000000E+00  0.00000000000E+00  0.38409689399E+02  0.38409689399E+02  0.00000000000E+00 0.  1.
         21   -1    0    0  501  502 -0.00000000000E+00 -0.00000000000E+00 -0.83542708759E+03  0.83542708759E+03  0.00000000000E+00 0.  1.
         25    1    1    2    0    0 -0.52999901364E+02  0.15576188089E+02 -0.11603982130E+03  0.17928147508E+03  0.12500000000E+03 0.  0.
         25    1    1    2    0    0  0.52999901364E+02 -0.15576188089E+02 -0.68097757689E+03  0.69455530191E+03  0.12500000000E+03 0.  0.
</event>
<event>
 4    0  0.2193754E-002  0.2719963E+03  0.7546771E-02  0.1100142E+00
         21   -1    0    0  502  501  0.00000000000E+00  0.00000000000E+00  0.91831696973E+03  0.91831696973E+03  0.00000000000E+00 0.  1.
         21   -1    0    0  501  502 -0.00000000000E+00 -0.00000000000E+00 -0.80562609572E+02  0.80562609572E+02  0.00000000000E+00 0.  1.
         25    1    1    2    0    0 -0.23273177080E+03 -0.57876378568E+01  0.30045382025E+03  0.40011882234E+03  0.12500000000E+03 0.  0.
         25    1    1    2    0    0  0.23273177080E+03  0.57876378568E+01  0.53730053992E+03  0.59876075697E+03  0.12500000000E+03 0.  0.
</event>
<event>
 4    0  0.2193754E-002  0.2667263E+03  0.7546771E-02  0.1103168E+00
         21   -1    0    0  502  501  0.00000000000E+00  0.00000000000E+00  0.32983041272E+03  0.32983041272E+03  0.00000000000E+00 0. -1.
         21   -1    0    0  501  502 -0.00000000000E+00 -0.00000000000E+00 -0.21569547276E+03  0.21569547276E+03  0.00000000000E+00 0. -1.
         25    1    1    2    0    0  0.32236023548E+02  0.21537636284E+03  0.14905770938E+03  0.29200914302E+03  0.12500000000E+03 0.  0.
         25    1    1    2    0    0 -0.32236023548E+02 -0.21537636284E+03 -0.34922769422E+02  0.25351674246E+03  0.12500000000E+03 0.  0.
</event>
<event>
 4    0  0.2193754E-002  0.2232672E+03  0.7546771E-02  0.1131470E+00
         21   -1    0    0  502  501  0.00000000000E+00  0.00000000000E+00  0.32708745002E+03  0.32708745002E+03  0.00000000000E+00 0. -1.
         21   -1    0    0  501  502 -0.00000000000E+00 -0.00000000000E+00 -0.15240032298E+03  0.15240032298E+03  0.00000000000E+00 0. -1.
         25    1    1    2    0    0 -0.64991332316E+02  0.13599274066E+02  0.27275470860E+03  0.30729292963E+03  0.12500000000E+03 0.  0.
         25    1    1    2    0    0  0.64991332316E+02 -0.13599274066E+02 -0.98067581565E+02  0.17219484338E+03  0.12500000000E+03 0.  0.
</event>
<event>
 4    0  0.2193754E-002  0.2820596E+03  0.7546771E-02  0.1094569E+00
         21   -1    0    0  502  501  0.00000000000E+00  0.00000000000E+00  0.48375169608E+03  0.48375169608E+03  0.00000000000E+00 0.  1.
         21   -1    0    0  501  502 -0.00000000000E+00 -0.00000000000E+00 -0.16445960878E+03  0.16445960878E+03  0.00000000000E+00 0.  1.
         25    1    1    2    0    0 -0.12133193868E+03  0.12428909685E+03 -0.51493115687E+02  0.22010397521E+03  0.12500000000E+03 0.  0.
         25    1    1    2    0    0  0.12133193868E+03 -0.12428909685E+03  0.37078520299E+03  0.42810732964E+03  0.12500000000E+03 0.  0.
</event>
<event>
 4    0  0.2193754E-002  0.2156847E+03  0.7546771E-02  0.1137142E+00
         21   -1    0    0  502  501  0.00000000000E+00  0.00000000000E+00  0.14945571891E+03  0.14945571891E+03  0.00000000000E+00 0.  1.
         21   -1    0    0  501  502 -0.00000000000E+00 -0.00000000000E+00 -0.31126208699E+03  0.31126208699E+03  0.00000000000E+00 0.  1.
         25    1    1    2    0    0  0.32058548989E+02 -0.35817112341E+02  0.99668342971E+02  0.16694129115E+03  0.12500000000E+03 0.  0.
         25    1    1    2    0    0 -0.32058548989E+02  0.35817112341E+02 -0.26147471105E+03  0.29377651475E+03  0.12500000000E+03 0.  0.
</event>
<event>
 4    0  0.2193754E-002  0.4168744E+03  0.7546771E-02  0.1038088E+00
         21   -1    0    0  502  501  0.00000000000E+00  0.00000000000E+00  0.96651159969E+02  0.96651159969E+02  0.00000000000E+00 0.  1.
         21   -1    0    0  501  502 -0.00000000000E+00 -0.00000000000E+00 -0.17980569456E+04  0.17980569456E+04  0.00000000000E+00 0.  1.
         25    1    1    2    0    0  0.38862101656E+03  0.46826622389E+02 -0.10104312665E+04  0.10907865838E+04  0.12500000000E+03 0.  0.
         25    1    1    2    0    0 -0.38862101656E+03 -0.46826622389E+02 -0.69097451908E+03  0.80392152172E+03  0.12500000000E+03 0.  0.
</event>
<event>
 4    0  0.2193754E-002  0.2132921E+03  0.7546771E-02  0.1138985E+00
         21   -1    0    0  502  501  0.00000000000E+00  0.00000000000E+00  0.71407679614E+03  0.71407679614E+03  0.00000000000E+00 0.  1.
         21   -1    0    0  501  502 -0.00000000000E+00 -0.00000000000E+00 -0.63709585991E+02  0.63709585991E+02  0.00000000000E+00 0.  1.
         25    1    1    2    0    0 -0.13105759858E+02 -0.16312982451E+03  0.22390591416E+03  0.30420709884E+03  0.12500000000E+03 0.  0.
         25    1    1    2    0    0  0.13105759858E+02  0.16312982451E+03  0.42646129598E+03  0.47357928329E+03  0.12500000000E+03 0.  0.
</event>
<event>
 4    0  0.2193754E-002  0.1780476E+03  0.7546771E-02  0.1169706E+00
         21   -1    0    0  502  501  0.00000000000E+00  0.00000000000E+00  0.54665551755E+03  0.54665551755E+03  0.00000000000E+00 0.  1.
         21   -1    0    0  501  502 -0.00000000000E+00 -0.00000000000E+00 -0.57990749388E+02  0.57990749388E+02  0.00000000000E+00 0.  1.
         25    1    1    2    0    0 -0.66273315212E+02 -0.19327437988E+01  0.42784163960E+03  0.45063217415E+03  0.12500000000E+03 0.  0.
         25    1    1    2    0    0  0.66273315212E+02  0.19327437988E+01  0.60823128563E+02  0.15401409278E+03  0.12500000000E+03 0.  0.
</event>
<event>
 4    0  0.2193754E-002  0.2657733E+03  0.7546771E-02  0.1103723E+00
         21   -1    0    0  502  501  0.00000000000E+00  0.00000000000E+00  0.24604447138E+04  0.24604447138E+04  0.00000000000E+00 0. -1.
         21   -1    0    0  501  502 -0.00000000000E+00 -0.00000000000E+00 -0.28708396403E+02  0.28708396403E+02  0.00000000000E+00 0. -1.
         25    1    1    2    0    0 -0.23261513469E+03 -0.82590773231E+01  0.10807608924E+04  0.11125857809E+04  0.12500000000E+03 0.  0.
         25    1    1    2    0    0  0.23261513469E+03  0.82590773231E+01  0.13509754250E+04  0.13765673294E+04  0.12500000000E+03 0.  0.
</event>
<event>
 4    0  0.2193754E-002  0.2760963E+03  0.7546771E-02  0.1097840E+00
         21   -1    0    0  502  501  0.00000000000E+00  0.00000000000E+00  0.69702905995E+03  0.69702905995E+03  0.00000000000E+00 0. -1.
         21   -1    0    0  501  502 -0.00000000000E+00 -0.00000000000E+00 -0.10936298692E+03  0.10936298692E+03  0.00000000000E+00 0. -1.
         25    1    1    2    0    0 -0.16279143452E+03  0.62067606951E+02  0.39838938753E+02  0.21809534618E+03  0.12500000000E+03 0.  0.
         25    1    1    2    0    0  0.16279143452E+03 -0.62067606951E+02  0.54782713428E+03  0.58829670068E+03  0.12500000000E+03 0.  0.
</event>
<event>
 4    0  0.2193754E-002  0.2517755E+03  0.7546771E-02  0.1112188E+00
         21   -1    0    0  502  501  0.00000000000E+00  0.00000000000E+00  0.39444905228E+03  0.39444905228E+03  0.00000000000E+00 0. -1.
         21   -1    0    0  501  502 -0.00000000000E+00 -0.00000000000E+00 -0.16070739806E+03  0.16070739806E+03  0.00000000000E+00 0. -1.
         25    1    1    2    0    0  0.92058035770E+02  0.87467570152E+02  0.31297846780E+03  0.36014688543E+03  0.12500000000E+03 0.  0.
         25    1    1    2    0    0 -0.92058035770E+02 -0.87467570152E+02 -0.79236813585E+02  0.19500956491E+03  0.12500000000E+03 0.  0.
</event>
<event>
 4    0  0.2193754E-002  0.1895201E+03  0.7546771E-02  0.1158895E+00
         21   -1    0    0  502  501  0.00000000000E+00  0.00000000000E+00  0.36357781823E+03  0.36357781823E+03  0.00000000000E+00 0. -1.
         21   -1    0    0  501  502 -0.00000000000E+00 -0.00000000000E+00 -0.98790033036E+02  0.98790033036E+02  0.00000000000E+00 0. -1.
         25    1    1    2    0    0 -0.38968411984E+02  0.10356362255E+03  0.22955238638E+02  0.16851084247E+03  0.12500000000E+03 0.  0.
         25    1    1    2    0    0  0.38968411984E+02 -0.10356362255E+03  0.24183254656E+03  0.29385700880E+03  0.12500000000E+03 0.  0.
</event>
<event>
 4    0  0.2193754E-002  0.1674819E+03  0.7546771E-02  0.1180500E+00
         21   -1    0    0  502  501  0.00000000000E+00  0.00000000000E+00  0.29911289667E+02  0.29911289667E+02  0.00000000000E+00 0.  1.
         21   -1    0    0  501  502 -0.00000000000E+00 -0.00000000000E+00 -0.93777950956E+03  0.93777950956E+03  0.00000000000E+00 0.  1.
         25    1    1    2    0    0 -0.61455196861E+02  0.74657663461E+02 -0.61412547648E+03  0.63413374677E+03  0.12500000000E+03 0.  0.
         25    1    1    2    0    0  0.61455196861E+02 -0.74657663461E+02 -0.29374274342E+03  0.33355705246E+03  0.12500000000E+03 0.  0.
</event>
<event>
 4    0  0.2193754E-002  0.1795134E+03  0.7546771E-02  0.1168275E+00
         21   -1    0    0  502  501  0.00000000000E+00  0.00000000000E+00  0.35012508911E+03  0.35012508911E+03  0.00000000000E+00 0. -1.
         21   -1    0    0  501  502 -0.00000000000E+00 -0.00000000000E+00 -0.92038706786E+02  0.92038706786E+02  0.00000000000E+00 0. -1.
         25    1    1    2    0    0  0.93672630371E+02 -0.12877870329E+02  0.21257518247E+02  0.15816852818E+03  0.12500000000E+03 0.  0.
         25    1    1    2    0    0 -0.93672630371E+02  0.12877870329E+02  0.23682886408E+03  0.28399526772E+03  0.12500000000E+03 0.  0.
</event>
<event>
 4    0  0.2193754E-002  0.2941301E+03  0.7546771E-02  0.1088212E+00
         21   -1    0    0  502  501  0.00000000000E+00  0.00000000000E+00  0.16913757998E+03  0.16913757998E+03  0.00000000000E+00 0.  1.
         21   -1    0    0  501  502 -0.00000000000E+00 -0.00000000000E+00 -0.51149199200E+03  0.51149199200E+03  0.00000000000E+00 0.  1.
         25    1    1    2    0    0  0.24321335228E+03 -0.89567379669E+02 -0.24167453650E+03  0.37577470886E+03  0.12500000000E+03 0.  0.
         25    1    1    2    0    0 -0.24321335228E+03  0.89567379669E+02 -0.10067987552E+03  0.30485486311E+03  0.12500000000E+03 0.  0.
</event>
<event>
 4    0  0.2193754E-002  0.2839454E+03  0.7546771E-02  0.1093553E+00
         21   -1    0    0  502  501  0.00000000000E+00  0.00000000000E+00  0.17395858300E+04  0.17395858300E+04  0.00000000000E+00 0. -1.
         21   -1    0    0  501  502 -0.00000000000E+00 -0.00000000000E+00 -0.46347238399E+02  0.46347238399E+02  0.00000000000E+00 0. -1.
         25    1    1    2    0    0  0.74443042150E+02  0.13024204253E+03  0.14949110236E+04  0.15076102695E+04  0.12500000000E+03 0.  0.
         25    1    1    2    0    0 -0.74443042150E+02 -0.13024204253E+03  0.19832756799E+03  0.27832279891E+03  0.12500000000E+03 0.  0.
</event>
<event>
 4    0  0.2193754E-002  0.1947618E+03  0.7546771E-02  0.1154235E+00
         21   -1    0    0  502  501  0.00000000000E+00  0.00000000000E+00  0.29423991710E+02  0.29423991710E+02  0.00000000000E+00 0.  1.
         21   -1    0    0  501  502 -0.00000000000E+00 -0.00000000000E+00 -0.12891571852E+04  0.12891571852E+04  0.00000000000E+00 0.  1.
         25    1    1    2    0    0  0.10333489161E+03 -0.10556097671E+03 -0.55524572561E+03  0.58800003013E+03  0.12500000000E+03 0.  0.
         25    1    1    2    0    0 -0.10333489161E+03  0.10556097671E+03 -0.70448746785E+03  0.73058114675E+03  0.12500000000E+03 0.  0.
</event>
<event>
 4    0  0.2193754E-002  0.2138073E+03  0.7546771E-02  0.1138586E+00
         21   -1    0    0  502  501  0.00000000000E+00  0.00000000000E+00  0.49294925894E+03  0.49294925894E+03  0.00000000000E+00 0.  1.
         21   -1    0    0  501  502 -0.00000000000E+00 -0.00000000000E+00 -0.92734809167E+02  0.92734809167E+02  0.00000000000E+00 0.  1.
         25    1    1    2    0    0  0.47154913940E+02  0.34578959843E+01 -0.28477392666E+02  0.13664371499E+03  0.12500000000E+03 0.  0.
         25    1    1    2    0    0 -0.47154913940E+02 -0.34578959843E+01  0.42869184244E+03  0.44904035311E+03  0.12500000000E+03 0.  0.
</event>
<event>
 4    0  0.2193754E-002  0.5532623E+03  0.7546771E-02  0.1000742E+00
         21   -1    0    0  502  501  0.00000000000E+00  0.00000000000E+00  0.34130120439E+04  0.34130120439E+04  0.00000000000E+00 0.  1.
         21   -1    0    0  501  502 -0.00000000000E+00 -0.00000000000E+00 -0.89685921725E+02  0.89685921725E+02  0.00000000000E+00 0.  1.
         25    1    1    2    0    0  0.21828038664E+03  0.21216875763E+02  0.32200953207E+04  0.32299745134E+04  0.12500000000E+03 0.  0.
         25    1    1    2    0    0 -0.21828038664E+03 -0.21216875763E+02  0.10323080149E+03  0.27272345221E+03  0.12500000000E+03 0.  0.
</event>
<event>
 4    0  0.2193754E-002  0.3458077E+03  0.7546771E-02  0.1064349E+00
         21   -1    0    0  502  501  0.00000000000E+00  0.00000000000E+00  0.13074768195E+03  0.13074768195E+03  0.00000000000E+00 0.  1.
         21   -1    0    0  501  502 -0.00000000000E+00 -0.00000000000E+00 -0.91460852972E+03  0.91460852972E+03  0.00000000000E+00 0.  1.
         25    1    1    2    0    0 -0.28844441579E+02  0.28454146784E+03 -0.61694212654E+03  0.69140323707E+03  0.12500000000E+03 0.  0.
         25    1    1    2    0    0  0.28844441579E+02 -0.28454146784E+03 -0.16691872123E+03  0.35395297460E+03  0.12500000000E+03 0.  0.
</event>
<event>
 4    0  0.2193754E-002  0.3509855E+03  0.7546771E-02  0.1062211E+00
         21   -1    0    0  502  501  0.00000000000E+00  0.00000000000E+00  0.55178715437E+03  0.55178715437E+03  0.00000000000E+00 0. -1.
         21   -1    0    0  501  502 -0.00000000000E+00 -0.00000000000E+00 -0.22325786628E+03  0.22325786628E+03  0.00000000000E+00 0. -1.
         25    1    1    2    0    0  0.27968392221E+03  0.13204880517E+03  0.43792187085E+02  0.33645614712E+03  0.12500000000E+03 0.  0.
         25    1    1    2    0    0 -0.27968392221E+03 -0.13204880517E+03  0.28473710101E+03  0.43858887352E+03  0.12500000000E+03 0.  0.
</event>
<event>
 4    0  0.2193754E-002  0.1937920E+03  0.7546771E-02  0.1155085E+00
         21   -1    0    0  502  501  0.00000000000E+00  0.00000000000E+00  0.16103079455E+03  0.16103079455E+03  0.00000000000E+00 0.  1.
         21   -1    0    0  501  502 -0.00000000000E+00 -0.00000000000E+00 -0.23321839082E+03  0.23321839082E+03  0.00000000000E+00 0.  1.
         25    1    1    2    0    0 -0.13950318650E+03 -0.20577113900E+02  0.99143822723E+01  0.18870042828E+03  0.12500000000E+03 0.  0.
         25    1    1    2    0    0  0.13950318650E+03  0.20577113900E+02 -0.82101978543E+02  0.20554875709E+03  0.12500000000E+03 0.  0.
</event>
<event>
 4    0  0.2193754E-002  0.2211381E+03  0.7546771E-02  0.1133037E+00
         21   -1    0    0  502  501  0.00000000000E+00  0.00000000000E+00  0.62418858535E+03  0.62418858535E+03  0.00000000000E+00 0. -1.
         21   -1    0    0  501  502 -0.00000000000E+00 -0.00000000000E+00 -0.78345035087E+02  0.78345035087E+02  0.00000000000E+00 0. -1.
         25    1    1    2    0    0  0.14161622672E+03 -0.70062260924E+02  0.12809208723E+03  0.23873931157E+03  0.12500000000E+03 0.  0.
         25    1    1    2    0    0 -0.14161622672E+03  0.70062260924E+02  0.41775146303E+03  0.46379430887E+03  0.12500000000E+03 0.  0.
</event>
<event>
 4    0  0.2193754E-002  0.2470907E+03  0.7546771E-02  0.1115157E+00
         21   -1    0    0  502  501  0.00000000000E+00  0.00000000000E+00  0.18236683159E+03  0.18236683159E+03  0.00000000000E+00 0.  1.
         21   -1    0    0  501  502 -0.00000000000E+00 -0.00000000000E+00 -0.33478572529E+03  0.33478572529E+03  0.00000000000E+00 0.  1.
         25    1    1    2    0    0  0.15560499741E+03 -0.75582035828E+02 -0.20650923214E+03  0.29697916142E+03  0.12500000000E+03 0.  0.
         25    1    1    2    0    0 -0.15560499741E+03  0.75582035828E+02  0.54090338433E+02  0.22017339546E+03  0.12500000000E+03 0.  0.
</event>
<event>
 4    0  0.2193754E-002  0.3138637E+03  0.7546771E-02  0.1078509E+00
         21   -1    0    0  502  501  0.00000000000E+00  0.00000000000E+00  0.18011920735E+04  0.18011920735E+04  0.00000000000E+00 0. -1.
         21   -1    0    0  501  502 -0.00000000000E+00 -0.00000000000E+00 -0.54691806888E+02  0.54691806888E+02  0.00000000000E+00 0. -1.
         25    1    1    2    0    0  0.23246230624E+03  0.16943307419E+03  0.83837348987E+03  0.89512088512E+03  0.12500000000E+03 0.  0.
         25    1    1    2    0    0 -0.23246230624E+03 -0.16943307419E+03  0.90812677677E+03  0.96076299530E+03  0.12500000000E+03 0.  0.
</event>
<event>
 4    0  0.2193754E-002  0.2859581E+03  0.7546771E-02  0.1092479E+00
         21   -1    0    0  502  501  0.00000000000E+00  0.00000000000E+00  0.58364196167E+02  0.58364196167E+02  0.00000000000E+00 0. -1.
         21   -1    0    0  501  502 -0.00000000000E+00 -0.00000000000E+00 -0.14010647356E+04  0.14010647356E+04  0.00000000000E+00 0. -1.
         25    1    1    2    0    0  0.57985377306E+02 -0.16060090939E+03 -0.18054991862E+03  0.27816942533E+03  0.12500000000E+03 0.  0.
         25    1    1    2    0    0 -0.57985377306E+02  0.16060090939E+03 -0.11621506208E+04  0.11812595064E+04  0.12500000000E+03 0.  0.
</event>
<event>
 4    0  0.2193754E-002  0.2771182E+03  0.7546771E-02  0.1097273E+00
         21   -1    0    0  502  501  0.00000000000E+00  0.00000000000E+00  0.16227861383E+04  0.16227861383E+04  0.00000000000E+00 0. -1.
         21   -1    0    0  501  502 -0.00000000000E+00 -0.00000000000E+00 -0.47322615368E+02  0.47322615368E+02  0.00000000000E+00 0. -1.
         25    1    1    2    0    0  0.13901565166E+02  0.11954562290E+03  0.13664513925E+03  0.22086489887E+03  0.12500000000E+03 0.  0.
         25    1    1    2    0    0 -0.13901565166E+02 -0.11954562290E+03  0.14388183836E+04  0.14492438548E+04  0.12500000000E+03 0.  0.
</event>
<event>
 4    0  0.2193754E-002  0.3047880E+03  0.7546771E-02  0.1082871E+00
         21   -1    0    0  502  501  0.00000000000E+00  0.00000000000E+00  0.17570610823E+04  0.17570610823E+04  0.00000000000E+00 0. -1.
         21   -1    0    0  501  502 -0.00000000000E+00 -0.00000000000E+00 -0.52869941415E+02  0.52869941415E+02  0.00000000000E+00 0. -1.
         25    1    1    2    0    0  0.19557113540E+03  0.10541708346E+03  0.13481315919E+04  0.13720220915E+04  0.12500000000E+03 0.  0.
         25    1    1    2    0    0 -0.19557113540E+03 -0.10541708346E+03  0.35605954896E+03  0.43790893219E+03  0.12500000000E+03 0.  0.
</event>
<event>
 4    0  0.2193754E-002  0.3281169E+03  0.7546771E-02  0.1071973E+00
         21   -1    0    0  502  501  0.00000000000E+00  0.00000000000E+00  0.13004414355E+03  0.13004414355E+03  0.00000000000E+00 0. -1.
         21   -1    0    0  501  502 -0.00000000000E+00 -0.00000000000E+00 -0.82787799519E+03  0.82787799519E+03  0.00000000000E+00 0.  1.
         25    1    1    2    0    0  0.21514607829E+02  0.26620399382E+03 -0.13885698330E+03  0.32593512620E+03  0.12500000000E+03 0.  0.
         25    1    1    2    0    0 -0.21514607829E+02 -0.26620399382E+03 -0.55897686835E+03  0.63198701254E+03  0.12500000000E+03 0.  0.
</event>
<event>
 4    0  0.2193754E-002  0.2191557E+03  0.7546771E-02  0.1134514E+00
         21   -1    0    0  502  501  0.00000000000E+00  0.00000000000E+00  0.54727599682E+03  0.54727599682E+03  0.00000000000E+00 0.  1.
         21   -1    0    0  501  502 -0.00000000000E+00 -0.00000000000E+00 -0.87760535027E+02  0.87760535027E+02  0.00000000000E+00 0.  1.
         25    1    1    2    0    0 -0.16996911464E+03 -0.23588782027E+02  0.15095572683E+03  0.26049676012E+03  0.12500000000E+03 0.  0.
         25    1    1    2    0    0  0.16996911464E+03  0.23588782027E+02  0.30855973497E+03  0.37453977173E+03  0.12500000000E+03 0.  0.
</event>
<event>
 4    0  0.2193754E-002  0.1673356E+03  0.7546771E-02  0.1180655E+00
         21   -1    0    0  502  501  0.00000000000E+00  0.00000000000E+00  0.74401944437E+03  0.74401944437E+03  0.00000000000E+00 0.  1.
         21   -1    0    0  501  502 -0.00000000000E+00 -0.00000000000E+00 -0.37635050087E+02  0.37635050087E+02  0.00000000000E+00 0.  1.
         25    1    1    2    0    0 -0.11024455240E+03  0.69486432285E+01  0.38400640578E+03  0.41867417482E+03  0.12500000000E+03 0.  0.
         25    1    1    2    0    0  0.11024455240E+03 -0.69486432285E+01  0.32237798849E+03  0.36298031963E+03  0.12500000000E+03 0.  0.
</event>
<event>
 4    0  0.2193754E-002  0.2615503E+03  0.7546771E-02  0.1106215E+00
         21   -1    0    0  502  501  0.00000000000E+00  0.00000000000E+00  0.33477602641E+02  0.33477602641E+02  0.00000000000E+00 0.  1.
         21   -1    0    0  501  502 -0.00000000000E+00 -0.00000000000E+00 -0.20434120167E+04  0.20434120167E+04  0.00000000000E+00 0.  1.
         25    1    1    2    0    0 -0.16182408553E+03 -0.60355667178E+01 -0.35790966460E+03  0.41224724467E+03  0.12500000000E+03 0.  0.
         25    1    1    2    0    0  0.16182408553E+03  0.60355667178E+01 -0.16520247495E+04  0.16646423747E+04  0.12500000000E+03 0.  0.
</event>
<event>
 4    0  0.2193754E-002  0.1978566E+03  0.7546771E-02  0.1151560E+00
         21   -1    0    0  502  501  0.00000000000E+00  0.00000000000E+00  0.36002247161E+03  0.36002247161E+03  0.00000000000E+00 0.  1.
         21   -1    0    0  501  502 -0.00000000000E+00 -0.00000000000E+00 -0.10873548252E+03  0.10873548252E+03  0.00000000000E+00 0.  1.
         25    1    1    2    0    0 -0.65002150290E+00 -0.94784611561E+02 -0.17185257206E+02  0.15781279473E+03  0.12500000000E+03 0.  0.
         25    1    1    2    0    0  0.65002150290E+00  0.94784611561E+02  0.26847224630E+03  0.31094515940E+03  0.12500000000E+03 0.  0.
</event>
<event>
 4    0  0.2193754E-002  0.1836000E+03  0.7546771E-02  0.1164364E+00
         21   -1    0    0  502  501  0.00000000000E+00  0.00000000000E+00  0.16311966540E+02  0.16311966540E+02  0.00000000000E+00 0. -1.
         21   -1    0    0  501  502 -0.00000000000E+00 -0.00000000000E+00 -0.20665162286E+04  0.20665162286E+04  0.00000000000E+00 0. -1.
         25    1    1    2    0    0  0.20901925288E+02  0.88611346531E+02 -0.15864795344E+04  0.15939984863E+04  0.12500000000E+03 0.  0.
         25    1    1    2    0    0 -0.20901925288E+02 -0.88611346531E+02 -0.46372472767E+03  0.48882970887E+03  0.12500000000E+03 0.  0.
</event>
<event>
 4    0  0.2193754E-002  0.1791322E+03  0.7546771E-02  0.1168646E+00
         21   -1    0    0  502  501  0.00000000000E+00  0.00000000000E+00  0.41755996816E+03  0.41755996816E+03  0.00000000000E+00 0.  1.
         21   -1    0    0  501  502 -0.00000000000E+00 -0.00000000000E+00 -0.76847249636E+02  0.76847249636E+02  0.00000000000E+00 0.  1.
         25    1    1    2    0    0 -0.76249244735E+02 -0.10242674376E+03  0.15300171382E+03  0.23524393636E+03  0.12500000000E+03 0.  0.
         25    1    1    2    0    0  0.76249244735E+02  0.10242674376E+03  0.18771100470E+03  0.25916328144E+03  0.12500000000E+03 0.  0.
</event>
<event>
 4    0  0.2193754E-002  0.2438696E+03  0.7546771E-02  0.1117242E+00
         21   -1    0    0  502  501  0.00000000000E+00  0.00000000000E+00  0.71324156805E+02  0.71324156805E+02  0.00000000000E+00 0.  1.
         21   -1    0    0  501  502 -0.00000000000E+00 -0.00000000000E+00 -0.83383227841E+03  0.83383227841E+03  0.00000000000E+00 0.  1.
         25    1    1    2    0    0 -0.11755789836E+03  0.15635497061E+03 -0.24261733810E+03  0.33578997758E+03  0.12500000000E+03 0.  0.
         25    1    1    2    0    0  0.11755789836E+03 -0.15635497061E+03 -0.51989078351E+03  0.56936645763E+03  0.12500000000E+03 0.  0.
</event>
<event>
 4    0  0.2193754E-002  0.2023455E+03  0.7546771E-02  0.1147775E+00
         21   -1    0    0  502  501  0.00000000000E+00  0.00000000000E+00  0.60361140012E+03  0.60361140012E+03  0.00000000000E+00 0. -1.
         21   -1    0    0  501  502 -0.00000000000E+00 -0.00000000000E+00 -0.67831196432E+02  0.67831196432E+02  0.00000000000E+00 0. -1.
         25    1    1    2    0    0  0.13483069776E+03 -0.83935039494E+02  0.28399970891E+03  0.34857602123E+03  0.12500000000E+03 0.  0.
         25    1    1    2    0    0 -0.13483069776E+03  0.83935039494E+02  0.25178049477E+03  0.32286657532E+03  0.12500000000E+03 0.  0.
</event>
<event>
 4    0  0.2193754E-002  0.1994688E+03  0.7546771E-02  0.1150188E+00
         21   -1    0    0  502  501  0.00000000000E+00  0.00000000000E+00  0.28346678717E+03  0.28346678717E+03  0.00000000000E+00 0. -1.
         21   -1    0    0  501  502 -0.00000000000E+00 -0.00000000000E+00 -0.14036143544E+03  0.14036143544E+03  0.00000000000E+00 0. -1.
         25    1    1    2    0    0 -0.70857206208E+02 -0.73307053340E+02  0.19621134380E+03  0.25400503770E+03  0.12500000000E+03 0.  0.
         25    1    1    2    0    0  0.70857206208E+02  0.73307053340E+02 -0.53105992070E+02  0.16982318492E+03  0.12500000000E+03 0.  0.
</event>
<event>
 4    0  0.2193754E-002  0.2061309E+03  0.7546771E-02  0.1144667E+00
         21   -1    0    0  502  501  0.00000000000E+00  0.00000000000E+00  0.10174386882E+03  0.10174386882E+03  0.00000000000E+00 0.  1.
         21   -1    0    0  501  502 -0.00000000000E+00 -0.00000000000E+00 -0.41761681822E+03  0.41761681822E+03  0.00000000000E+00 0.  1.
         25    1    1    2    0    0  0.59204592260E+02  0.24838844057E+02  0.32047915040E+02  0.14413264993E+03  0.12500000000E+03 0.  0.
         25    1    1    2    0    0 -0.59204592260E+02 -0.24838844057E+02 -0.34792086444E+03  0.37522803710E+03  0.12500000000E+03 0.  0.
</event>
<event>
 4    0  0.2193754E-002  0.1513786E+03  0.7546771E-02  0.1198789E+00
         21   -1    0    0  502  501  0.00000000000E+00  0.00000000000E+00  0.18414215080E+02  0.18414215080E+02  0.00000000000E+00 0.  1.
         21   -1    0    0  501  502 -0.00000000000E+00 -0.00000000000E+00 -0.12444452379E+04  0.12444452379E+04  0.00000000000E+00 0.  1.
         25    1    1    2    0    0 -0.69150433176E+02  0.45800948576E+02 -0.69757593529E+03  0.71352413750E+03  0.12500000000E+03 0.  0.
         25    1    1    2    0    0  0.69150433176E+02 -0.45800948576E+02 -0.52845508754E+03  0.54933531549E+03  0.12500000000E+03 0.  0.
</event>
<event>
 4    0  0.2193754E-002  0.2412593E+03  0.7546771E-02  0.1118957E+00
         21   -1    0    0  502  501  0.00000000000E+00  0.00000000000E+00  0.74327627070E+02  0.74327627070E+02  0.00000000000E+00 0.  1.
         21   -1    0    0  501  502 -0.00000000000E+00 -0.00000000000E+00 -0.78310141985E+03  0.78310141985E+03  0.00000000000E+00 0.  1.
         25    1    1    2    0    0  0.13395127996E+03  0.12105076118E+03 -0.53195075351E+03  0.57549355891E+03  0.12500000000E+03 0.  0.
         25    1    1    2    0    0 -0.13395127996E+03 -0.12105076118E+03 -0.17682303927E+03  0.28193548801E+03  0.12500000000E+03 0.  0.
</event>
<event>
 4    0  0.2193754E-002  0.2529033E+03  0.7546771E-02  0.1111484E+00
         21   -1    0    0  502  501  0.00000000000E+00  0.00000000000E+00  0.42879306182E+03  0.42879306182E+03  0.00000000000E+00 0.  1.
         21   -1    0    0  501  502 -0.00000000000E+00 -0.00000000000E+00 -0.14916306390E+03  0.14916306390E+03  0.00000000000E+00 0.  1.
         25    1    1    2    0    0  0.18326843836E+03  0.11563761374E+03  0.97433765693E+02  0.26847293515E+03  0.12500000000E+03 0.  0.
         25    1    1    2    0    0 -0.18326843836E+03 -0.11563761374E+03  0.18219623223E+03  0.30948319057E+03  0.12500000000E+03 0.  0.
</event>
<event>
 4    0  0.2193754E-002  0.2040962E+03  0.7546771E-02  0.1146328E+00
         21   -1    0    0  502  501  0.00000000000E+00  0.00000000000E+00  0.22294526833E+03  0.22294526833E+03  0.00000000000E+00 0. -1.
         21   -1    0    0  501  502 -0.00000000000E+00 -0.00000000000E+00 -0.18684070611E+03  0.18684070611E+03  0.00000000000E+00 0. -1.
         25    1    1    2    0    0 -0.76406332124E+01 -0.13041853763E+03 -0.76989799649E+02  0.19651921912E+03  0.12500000000E+03 0.  0.
         25    1    1    2    0    0  0.76406332124E+01  0.13041853763E+03  0.11309436187E+03  0.21326675531E+03  0.12500000000E+03 0.  0.
</event>
<event>
 4    0  0.2193754E-002  0.2574759E+03  0.7546771E-02  0.1108669E+00
         21   -1    0    0  502  501  0.00000000000E+00  0.00000000000E+00  0.68534389521E+03  0.68534389521E+03  0.00000000000E+00 0. -1.
         21   -1    0    0  501  502 -0.00000000000E+00 -0.00000000000E+00 -0.96730748869E+02  0.96730748869E+02  0.00000000000E+00 0. -1.
         25    1    1    2    0    0 -0.13259764300E+01 -0.16283164710E+03  0.58276943767E+02  0.21339424942E+03  0.12500000000E+03 0.  0.
         25    1    1    2    0    0  0.13259764300E+01  0.16283164710E+03  0.53033620257E+03  0.56868039466E+03  0.12500000000E+03 0.  0.
</event>
<event>
 4    0  0.2193754E-002  0.2618668E+03  0.7546771E-02  0.1106027E+00
         21   -1    0    0  502  501  0.00000000000E+00  0.00000000000E+00  0.31960061034E+02  0.31960061034E+02  0.00000000000E+00 0. -1.
         21   -1    0    0  501  502 -0.00000000000E+00 -0.00000000000E+00 -0.21456230018E+04  0.21456230018E+04  0.00000000000E+00 0. -1.
         25    1    1    2    0    0  0.22115416180E+03  0.32590057911E+02 -0.12837260714E+04  0.13090259362E+04  0.12500000000E+03 0.  0.
         25    1    1    2    0    0 -0.22115416180E+03 -0.32590057911E+02 -0.82993686934E+03  0.86855712665E+03  0.12500000000E+03 0.  0.
</event>
<event>
 4    0  0.2193754E-002  0.2033832E+03  0.7546771E-02  0.1146916E+00
         21   -1    0    0  502  501  0.00000000000E+00  0.00000000000E+00  0.79201033326E+02  0.79201033326E+02  0.00000000000E+00 0. -1.
         21   -1    0    0  501  502 -0.00000000000E+00 -0.00000000000E+00 -0.52227493121E+03  0.52227493121E+03  0.00000000000E+00 0. -1.
         25    1    1    2    0    0 -0.10401362285E+03 -0.12185058563E+03 -0.20887587632E+03  0.29141127409E+03  0.12500000000E+03 0.  0.
         25    1    1    2    0    0  0.10401362285E+03  0.12185058563E+03 -0.23419802157E+03  0.31006469045E+03  0.12500000000E+03 0.  0.
</event>
<event>
 4    0  0.2193754E-002  0.1766923E+03  0.7546771E-02  0.1171043E+00
         21   -1    0    0  502  501  0.00000000000E+00  0.00000000000E+00  0.18570358744E+03  0.18570358744E+03  0.00000000000E+00 0. -1.
         21   -1    0    0  501  502 -0.00000000000E+00 -0.00000000000E+00 -0.16811822548E+03  0.16811822548E+03  0.00000000000E+00 0. -1.
         25    1    1    2    0    0 -0.37732400957E+02  0.60774067164E+02  0.11128113416E+03  0.18200470362E+03  0.12500000000E+03 0.  0.
         25    1    1    2    0    0  0.37732400957E+02 -0.60774067164E+02 -0.93695772193E+02  0.17181710930E+03  0.12500000000E+03 0.  0.
</event>
<event>
 4    0  0.2193754E-002  0.2188661E+03  0.7546771E-02  0.1134731E+00
         21   -1    0    0  502  501  0.00000000000E+00  0.00000000000E+00  0.16430312781E+03  0.16430312781E+03  0.00000000000E+00 0. -1.
         21   -1    0    0  501  502 -0.00000000000E+00 -0.00000000000E+00 -0.29154872900E+03  0.29154872900E+03  0.00000000000E+00 0. -1.
         25    1    1    2    0    0 -0.35929316999E+02 -0.17010496186E+03 -0.16462990564E+02  0.21476183071E+03  0.12500000000E+03 0.  0.
         25    1    1    2    0    0  0.35929316999E+02  0.17010496186E+03 -0.11078261062E+03  0.24109002610E+03  0.12500000000E+03 0.  0.
</event>
<event>
 4    0  0.2193754E-002  0.1897173E+03  0.7546771E-02  0.1158717E+00
         21   -1    0    0  502  501  0.00000000000E+00  0.00000000000E+00  0.72497603527E+03  0.72497603527E+03  0.00000000000E+00 0. -1.
         21   -1    0    0  501  502 -0.00000000000E+00 -0.00000000000E+00 -0.49646675131E+02  0.49646675131E+02  0.00000000000E+00 0. -1.
         25    1    1    2    0    0  0.53122179807E+02 -0.13171042053E+03  0.30893442583E+03  0.36226382696E+03  0.12500000000E+03 0.  0.
         25    1    1    2    0    0 -0.53122179807E+02  0.13171042053E+03  0.36639493431E+03  0.41235888344E+03  0.12500000000E+03 0.  0.
</event>
<event>
 4    0  0.2193754E-002  0.2384156E+03  0.7546771E-02  0.1120853E+00
         21   -1    0    0  502  501  0.00000000000E+00  0.00000000000E+00  0.13723712230E+04  0.13723712230E+04  0.00000000000E+00 0. -1.
         21   -1    0    0  501  502 -0.00000000000E+00 -0.00000000000E+00 -0.41418821425E+02  0.41418821425E+02  0.00000000000E+00 0. -1.
         25    1    1    2    0    0  0.12438270705E+02 -0.13082556276E+03  0.11242994853E+04  0.11388346549E+04  0.12500000000E+03 0.  0.
         25    1    1    2    0    0 -0.12438270705E+02  0.13082556276E+03  0.20665291629E+03  0.27495538958E+03  0.12500000000E+03 0.  0.
</event>
<event>
 4    0  0.2193754E-002  0.2445771E+03  0.7546771E-02  0.1116781E+00
         21   -1    0    0  502  501  0.00000000000E+00  0.00000000000E+00  0.91523118232E+03  0.91523118232E+03  0.00000000000E+00 0. -1.
         21   -1    0    0  501  502 -0.00000000000E+00 -0.00000000000E+00 -0.65358278365E+02  0.65358278365E+02  0.00000000000E+00 0. -1.
         25    1    1    2    0    0  0.16653120348E+03 -0.80008454032E+02  0.22388017938E+03  0.31604007526E+03  0.12500000000E+03 0.  0.
         25    1    1    2    0    0 -0.16653120348E+03  0.80008454032E+02  0.62599272457E+03  0.66454938542E+03  0.12500000000E+03 0.  0.
</event>
<event>
 4    0  0.2193754E-002  0.3099647E+03  0.7546771E-02  0.1080363E+00
         21   -1    0    0  502  501  0.00000000000E+00  0.00000000000E+00  0.14942064440E+03  0.14942064440E+03  0.00000000000E+00 0.  1.
         21   -1    0    0  501  502 -0.00000000000E+00 -0.00000000000E+00 -0.64300438832E+03  0.64300438832E+03  0.00000000000E+00 0.  1.
         25    1    1    2    0    0 -0.24879021337E+03  0.29356653828E+02 -0.41682678140E+03  0.50212344009E+03  0.12500000000E+03 0.  0.
         25    1    1    2    0    0  0.24879021337E+03 -0.29356653828E+02 -0.76756962514E+02  0.29030159263E+03  0.12500000000E+03 0.  0.
</event>
<event>
 4    0  0.2193754E-002  0.1832010E+03  0.7546771E-02  0.1164741E+00
         21   -1    0    0  502  501  0.00000000000E+00  0.00000000000E+00  0.86279617816E+03  0.86279617816E+03  0.00000000000E+00 0.  1.
         21   -1    0    0  501  502 -0.00000000000E+00 -0.00000000000E+00 -0.38899807788E+02  0.38899807788E+02  0.00000000000E+00 0.  1.
         25    1    1    2    0    0 -0.63258012549E+02 -0.23729448344E+02  0.12736070047E+03  0.19081512229E+03  0.12500000000E+03 0.  0.
         25    1    1    2    0    0  0.63258012549E+02  0.23729448344E+02  0.69653566990E+03  0.71088086366E+03  0.12500000000E+03 0.  0.
</event>
<event>
 4    0  0.2193754E-002  0.2021259E+03  0.7546771E-02  0.1147958E+00
         21   -1    0    0  502  501  0.00000000000E+00  0.00000000000E+00  0.11550987992E+03  0.11550987992E+03  0.00000000000E+00 0. -1.
         21   -1    0    0  501  502 -0.00000000000E+00 -0.00000000000E+00 -0.35369181765E+03  0.35369181765E+03  0.00000000000E+00 0. -1.
         25    1    1    2    0    0 -0.19354982715E+02 -0.60636469626E+02 -0.28800087925E+03  0.32034497539E+03  0.12500000000E+03 0.  0.
         25    1    1    2    0    0  0.19354982715E+02  0.60636469626E+02  0.49818941525E+02  0.14885672218E+03  0.12500000000E+03 0.  0.
</event>
<event>
 4    0  0.2193754E-002  0.3508402E+03  0.7546771E-02  0.1062271E+00
         21   -1    0    0  502  501  0.00000000000E+00  0.00000000000E+00  0.57224643691E+03  0.57224643691E+03  0.00000000000E+00 0.  1.
         21   -1    0    0  501  502 -0.00000000000E+00 -0.00000000000E+00 -0.21509765518E+03  0.21509765518E+03  0.00000000000E+00 0.  1.
         25    1    1    2    0    0  0.57396780015E+02  0.18909814075E+03 -0.11491292288E+03  0.26054265877E+03  0.12500000000E+03 0.  0.
         25    1    1    2    0    0 -0.57396780015E+02 -0.18909814075E+03  0.47206170462E+03  0.52680143333E+03  0.12500000000E+03 0.  0.
</event>
<event>
 4    0  0.2193754E-002  0.2386224E+03  0.7546771E-02  0.1120714E+00
         21   -1    0    0  502  501  0.00000000000E+00  0.00000000000E+00  0.14916826776E+03  0.14916826776E+03  0.00000000000E+00 0.  1.
         21   -1    0    0  501  502 -0.00000000000E+00 -0.00000000000E+00 -0.38172106572E+03  0.38172106572E+03  0.00000000000E+00 0.  1.
         25    1    1    2    0    0  0.31218305536E+02 -0.19971832617E+03 -0.13997029344E+03  0.27582363106E+03  0.12500000000E+03 0.  0.
         25    1    1    2    0    0 -0.31218305536E+02  0.19971832617E+03 -0.92582504523E+02  0.25506570242E+03  0.12500000000E+03 0.  0.
</event>
<event>
 4    0  0.2193754E-002  0.2507241E+03  0.7546771E-02  0.1112848E+00
         21   -1    0    0  502  501  0.00000000000E+00  0.00000000000E+00  0.58533757924E+02  0.58533757924E+02  0.00000000000E+00 0.  1.
         21   -1    0    0  501  502 -0.00000000000E+00 -0.00000000000E+00 -0.10739542668E+04  0.10739542668E+04  0.00000000000E+00 0.  1.
         25    1    1    2    0    0 -0.94452756804E+02 -0.47734841337E+02 -0.93644205796E+03  0.95065696561E+03  0.12500000000E+03 0.  0.
         25    1    1    2    0    0  0.94452756804E+02  0.47734841337E+02 -0.78978450895E+02  0.18183105909E+03  0.12500000000E+03 0.  0.
</event>
<event>
 4    0  0.2193754E-002  0.2136185E+03  0.7546771E-02  0.1138732E+00
         21   -1    0    0  502  501  0.00000000000E+00  0.00000000000E+00  0.40730906488E+03  0.40730906488E+03  0.00000000000E+00 0. -1.
         21   -1    0    0  501  502 -0.00000000000E+00 -0.00000000000E+00 -0.11203493780E+03  0.11203493780E+03  0.00000000000E+00 0. -1.
         25    1    1    2    0    0 -0.12224980723E+03  0.10579740065E+03  0.22325542527E+03  0.30266498024E+03  0.12500000000E+03 0.  0.
         25    1    1    2    0    0  0.12224980723E+03 -0.10579740065E+03  0.72018701814E+02  0.21667902244E+03  0.12500000000E+03 0.  0.
</event>
<event>
 4    0  0.2193754E-002  0.2222910E+03  0.7546771E-02  0.1132186E+00
         21   -1    0    0  502  501  0.00000000000E+00  0.00000000000E+00  0.10164228229E+03  0.10164228229E+03  0.00000000000E+00 0. -1.
         21   -1    0    0  501  502 -0.00000000000E+00 -0.00000000000E+00 -0.48614889250E+03  0.48614889250E+03  0.00000000000E+00 0. -1.
         25    1    1    2    0    0  0.11253775832E+03 -0.95738009583E+02 -0.33682933636E+03  0.38847073939E+03  0.12500000000E+03 0.  0.
         25    1    1    2    0    0 -0.11253775832E+03  0.95738009583E+02 -0.47677273849E+02  0.19932043540E+03  0.12500000000E+03 0.  0.
</event>
<event>
 4    0  0.2193754E-002  0.2176103E+03  0.7546771E-02  0.1135677E+00
         21   -1    0    0  502  501  0.00000000000E+00  0.00000000000E+00  0.33389552532E+02  0.33389552532E+02  0.00000000000E+00 0.  1.
         21   -1    0    0  501  502 -0.00000000000E+00 -0.00000000000E+00 -0.14182354476E+04  0.14182354476E+04  0.00000000000E+00 0.  1.
         25    1    1    2    0    0 -0.16048216002E+03  0.10584102906E+02 -0.43703887165E+03  0.48217685786E+03  0.12500000000E+03 0.  0.
         25    1    1    2    0    0  0.16048216002E+03 -0.10584102906E+02 -0.94780702343E+03  0.96944814229E+03  0.12500000000E+03 0.  0.
</event>
<event>
 4    0  0.2193754E-002  0.2111186E+03  0.7546771E-02  0.1140683E+00
         21   -1    0    0  502  501  0.00000000000E+00  0.00000000000E+00  0.15604465745E+03  0.15604465745E+03  0.00000000000E+00 0.  1.
         21   -1    0    0  501  502 -0.00000000000E+00 -0.00000000000E+00 -0.28563013844E+03  0.28563013844E+03  0.00000000000E+00 0.  1.
         25    1    1    2    0    0 -0.11476343036E+03  0.12372922290E+03 -0.42200044882E+02  0.21420879845E+03  0.12500000000E+03 0.  0.
         25    1    1    2    0    0  0.11476343036E+03 -0.12372922290E+03 -0.87385436105E+02  0.22746599744E+03  0.12500000000E+03 0.  0.
</event>
<event>
 4    0  0.2193754E-002  0.3233549E+03  0.7546771E-02  0.1074116E+00
         21   -1    0    0  502  501  0.00000000000E+00  0.00000000000E+00  0.19853784306E+04  0.19853784306E+04  0.00000000000E+00 0.  1.
         21   -1    0    0  501  502 -0.00000000000E+00 -0.00000000000E+00 -0.52664199908E+02  0.52664199908E+02  0.00000000000E+00 0. -1.
         25    1    1    2    0    0  0.28324077106E+03 -0.64287344260E+02  0.75319625245E+03  0.81687685224E+03  0.12500000000E+03 0.  0.
         25    1    1    2    0    0 -0.28324077106E+03  0.64287344260E+02  0.11795179783E+04  0.12211657783E+04  0.12500000000E+03 0.  0.
</event>
<event>
 4    0  0.2193754E-002  0.1952709E+03  0.7546771E-02  0.1153791E+00
         21   -1    0    0  502  501  0.00000000000E+00  0.00000000000E+00  0.14722078971E+03  0.14722078971E+03  0.00000000000E+00 0.  1.
         21   -1    0    0  501  502 -0.00000000000E+00 -0.00000000000E+00 -0.25900378768E+03  0.25900378768E+03  0.00000000000E+00 0.  1.
         25    1    1    2    0    0  0.13525553012E+03  0.42009602668E+02 -0.44392169527E+01  0.18895388800E+03  0.12500000000E+03 0.  0.
         25    1    1    2    0    0 -0.13525553012E+03 -0.42009602668E+02 -0.10734378101E+03  0.21727068939E+03  0.12500000000E+03 0.  0.
</event>
<event>
 4    0  0.2193754E-002  0.2033470E+03  0.7546771E-02  0.1146945E+00
         21   -1    0    0  502  501  0.00000000000E+00  0.00000000000E+00  0.22097914861E+02  0.22097914861E+02  0.00000000000E+00 0.  1.
         21   -1    0    0  501  502 -0.00000000000E+00 -0.00000000000E+00 -0.18712178586E+04  0.18712178586E+04  0.00000000000E+00 0.  1.
         25    1    1    2    0    0  0.15729139427E+03 -0.21124756423E+02 -0.10325582779E+04  0.10521351792E+04  0.12500000000E+03 0.  0.
         25    1    1    2    0    0 -0.15729139427E+03  0.21124756423E+02 -0.81656166580E+03  0.84118059422E+03  0.12500000000E+03 0.  0.
</event>
<event>
 4    0  0.2193754E-002  0.2500023E+03  0.7546771E-02  0.1113303E+00
         21   -1    0    0  502  501  0.00000000000E+00  0.00000000000E+00  0.16146090027E+03  0.16146090027E+03  0.00000000000E+00 0.  1.
         21   -1    0    0  501  502 -0.00000000000E+00 -0.00000000000E+00 -0.38709772240E+03  0.38709772240E+03  0.00000000000E+00 0.  1.
         25    1    1    2    0    0  0.55943933670E+02  0.87494695011E+02 -0.32124308236E+03  0.36000994894E+03  0.12500000000E+03 0.  0.
         25    1    1    2    0    0 -0.55943933670E+02 -0.87494695011E+02  0.95606260232E+02  0.18854867373E+03  0.12500000000E+03 0.  0.
</event>
<event>
 4    0  0.2193754E-002  0.2001354E+03  0.7546771E-02  0.1149625E+00
         21   -1    0    0  502  501  0.00000000000E+00  0.00000000000E+00  0.17655627868E+03  0.17655627868E+03  0.00000000000E+00 0.  1.
         21   -1    0    0  501  502 -0.00000000000E+00 -0.00000000000E+00 -0.22686344980E+03  0.22686344980E+03  0.00000000000E+00 0.  1.
         25    1    1    2    0    0 -0.60583438715E+02 -0.12731776645E+03 -0.93130468319E+02  0.21018670469E+03  0.12500000000E+03 0.  0.
         25    1    1    2    0    0  0.60583438715E+02  0.12731776645E+03  0.42823297195E+02  0.19323302379E+03  0.12500000000E+03 0.  0.
</event>
<event>
 4    0  0.2193754E-002  0.2274531E+03  0.7546771E-02  0.1128445E+00
         21   -1    0    0  502  501  0.00000000000E+00  0.00000000000E+00  0.24704202436E+03  0.24704202436E+03  0.00000000000E+00 0.  1.
         21   -1    0    0  501  502 -0.00000000000E+00 -0.00000000000E+00 -0.20941750192E+03  0.20941750192E+03  0.00000000000E+00 0.  1.
         25    1    1    2    0    0 -0.18085203206E+03 -0.16447256037E+02  0.74967212219E+02  0.23285843905E+03  0.12500000000E+03 0.  0.
         25    1    1    2    0    0  0.18085203206E+03  0.16447256037E+02 -0.37342689783E+02  0.22360108723E+03  0.12500000000E+03 0.  0.
</event>
<event>
 4    0  0.2193754E-002  0.2420718E+03  0.7546771E-02  0.1118420E+00
         21   -1    0    0  502  501  0.00000000000E+00  0.00000000000E+00  0.62524564586E+02  0.62524564586E+02  0.00000000000E+00 0. -1.
         21   -1    0    0  501  502 -0.00000000000E+00 -0.00000000000E+00 -0.93721209676E+03  0.93721209676E+03  0.00000000000E+00 0. -1.
         25    1    1    2    0    0 -0.16095598280E+03 -0.98443201972E+01 -0.70634406663E+03  0.73522151730E+03  0.12500000000E+03 0.  0.
         25    1    1    2    0    0  0.16095598280E+03  0.98443201972E+01 -0.16834346555E+03  0.26451514405E+03  0.12500000000E+03 0.  0.
</event>
<event>
 4    0  0.2193754E-002  0.1636752E+03  0.7546771E-02  0.1184609E+00
         21   -1    0    0  502  501  0.00000000000E+00  0.00000000000E+00  0.83090153625E+03  0.83090153625E+03  0.00000000000E+00 0.  1.
         21   -1    0    0  501  502 -0.00000000000E+00 -0.00000000000E+00 -0.32241572046E+02  0.32241572046E+02  0.00000000000E+00 0.  1.
         25    1    1    2    0    0  0.95632100293E+02 -0.34706443455E+02  0.32407676920E+03  0.36194031022E+03  0.12500000000E+03 0.  0.
         25    1    1    2    0    0 -0.95632100293E+02  0.34706443455E+02  0.47458319501E+03  0.50120279808E+03  0.12500000000E+03 0.  0.
</event>
<event>
 4    0  0.2193754E-002  0.4804989E+03  0.7546771E-02  0.1018998E+00
         21   -1    0    0  502  501  0.00000000000E+00  0.00000000000E+00  0.33114692881E+03  0.33114692881E+03  0.00000000000E+00 0. -1.
         21   -1    0    0  501  502 -0.00000000000E+00 -0.00000000000E+00 -0.69721065980E+03  0.69721065980E+03  0.00000000000E+00 0. -1.
         25    1    1    2    0    0 -0.12036541824E+03 -0.27516490624E+03  0.19537995356E+03  0.37947580395E+03  0.12500000000E+03 0.  0.
         25    1    1    2    0    0  0.12036541824E+03  0.27516490624E+03 -0.56144368456E+03  0.64888178466E+03  0.12500000000E+03 0.  0.
</event>
<event>
 4    0  0.2193754E-002  0.2561627E+03  0.7546771E-02  0.1109471E+00
         21   -1    0    0  502  501  0.00000000000E+00  0.00000000000E+00  0.45259538774E+03  0.45259538774E+03  0.00000000000E+00 0.  1.
         21   -1    0    0  501  502 -0.00000000000E+00 -0.00000000000E+00 -0.14498456554E+03  0.14498456554E+03  0.00000000000E+00 0.  1.
         25    1    1    2    0    0 -0.15150576482E+03  0.14273491011E+03  0.24904518951E+03  0.34781569509E+03  0.12500000000E+03 0.  0.
         25    1    1    2    0    0  0.15150576482E+03 -0.14273491011E+03  0.58565632695E+02  0.24976425819E+03  0.12500000000E+03 0.  0.
</event>
<event>
 4    0  0.2193754E-002  0.2267752E+03  0.7546771E-02  0.1128930E+00
         21   -1    0    0  502  501  0.00000000000E+00  0.00000000000E+00  0.50452868848E+02  0.50452868848E+02  0.00000000000E+00 0. -1.
         21   -1    0    0  501  502 -0.00000000000E+00 -0.00000000000E+00 -0.10193075209E+04  0.10193075209E+04  0.00000000000E+00 0. -1.
         25    1    1    2    0    0 -0.13968965313E+03 -0.79674513876E+02 -0.71959130142E+03  0.74786219882E+03  0.12500000000E+03 0.  0.
         25    1    1    2    0    0  0.13968965313E+03  0.79674513876E+02 -0.24926335066E+03  0.32189819095E+03  0.12500000000E+03 0.  0.
</event>
<event>
 4    0  0.2193754E-002  0.3386040E+03  0.7546771E-02  0.1067392E+00
         21   -1    0    0  502  501  0.00000000000E+00  0.00000000000E+00  0.11019748061E+04  0.11019748061E+04  0.00000000000E+00 0.  1.
         21   -1    0    0  501  502 -0.00000000000E+00 -0.00000000000E+00 -0.10404293337E+03  0.10404293337E+03  0.00000000000E+00 0.  1.
         25    1    1    2    0    0 -0.12672436757E+03 -0.23031147971E+03  0.19089519426E+03  0.34809254260E+03  0.12500000000E+03 0.  0.
         25    1    1    2    0    0  0.12672436757E+03  0.23031147971E+03  0.80703667852E+03  0.85792519691E+03  0.12500000000E+03 0.  0.
</event>
<event>
 4    0  0.2193754E-002  0.2897626E+03  0.7546771E-02  0.1090473E+00
         21   -1    0    0  502  501  0.00000000000E+00  0.00000000000E+00  0.33219217590E+03  0.33219217590E+03  0.00000000000E+00 0. -1.
         21   -1    0    0  501  502 -0.00000000000E+00 -0.00000000000E+00 -0.25275243855E+03  0.25275243855E+03  0.00000000000E+00 0. -1.
         25    1    1    2    0    0 -0.20704182189E+03  0.10450596107E+03  0.16146944614E+03  0.30900678625E+03  0.12500000000E+03 0.  0.
         25    1    1    2    0    0  0.20704182189E+03 -0.10450596107E+03 -0.82029708787E+02  0.27593782821E+03  0.12500000000E+03 0.  0.
</event>
<event>
 4    0  0.2193754E-002  0.2098389E+03  0.7546771E-02  0.1141694E+00
         21   -1    0    0  502  501  0.00000000000E+00  0.00000000000E+00  0.90116244848E+03  0.90116244848E+03  0.00000000000E+00 0. -1.
         21   -1    0    0  501  502 -0.00000000000E+00 -0.00000000000E+00 -0.48861745843E+02  0.48861745843E+02  0.00000000000E+00 0. -1.
         25    1    1    2    0    0  0.94157215804E+02 -0.13822603461E+03  0.47338266306E+03  0.51738589430E+03  0.12500000000E+03 0.  0.
         25    1    1    2    0    0 -0.94157215804E+02  0.13822603461E+03  0.37891803958E+03  0.43263830003E+03  0.12500000000E+03 0.  0.
</event>
<event>
 4    0  0.2193754E-002  0.2778695E+03  0.7546771E-02  0.1096858E+00
         21   -1    0    0  502  501  0.00000000000E+00  0.00000000000E+00  0.14723140072E+03  0.14723140072E+03  0.00000000000E+00 0. -1.
         21   -1    0    0  501  502 -0.00000000000E+00 -0.00000000000E+00 -0.52442254097E+03  0.52442254097E+03  0.00000000000E+00 0. -1.
         25    1    1    2    0    0 -0.12863533184E+03  0.17486593306E+03 -0.33393340133E+03  0.41744659499E+03  0.12500000000E+03 0.  0.
         25    1    1    2    0    0  0.12863533184E+03 -0.17486593306E+03 -0.43257738913E+02  0.25420734670E+03  0.12500000000E+03 0.  0.
</event>
<event>
 4    0  0.2193754E-002  0.1809139E+03  0.7546771E-02  0.1166921E+00
         21   -1    0    0  502  501  0.00000000000E+00  0.00000000000E+00  0.38281108813E+03  0.38281108813E+03  0.00000000000E+00 0. -1.
         21   -1    0    0  501  502 -0.00000000000E+00 -0.00000000000E+00 -0.85498682948E+02  0.85498682948E+02  0.00000000000E+00 0. -1.
         25    1    1    2    0    0  0.67781685765E+02 -0.10075321506E+03  0.85789499476E+02  0.19424316073E+03  0.12500000000E+03 0.  0.
         25    1    1    2    0    0 -0.67781685765E+02  0.10075321506E+03  0.21152290571E+03  0.27406661035E+03  0.12500000000E+03 0.  0.
</event>
<event>
 4    0  0.2193754E-002  0.3439705E+03  0.7546771E-02  0.1065117E+00
         21   -1    0    0  502  501  0.00000000000E+00  0.00000000000E+00  0.17168395258E+03  0.17168395258E+03  0.00000000000E+00 0. -1.
         21   -1    0    0  501  502 -0.00000000000E+00 -0.00000000000E+00 -0.68914833823E+03  0.68914833823E+03  0.00000000000E+00 0. -1.
         25    1    1    2    0    0 -0.19874120469E+03 -0.12448859114E+03 -0.53201030030E+03  0.59468936041E+03  0.12500000000E+03 0.  0.
         25    1    1    2    0    0  0.19874120469E+03  0.12448859114E+03  0.14545914646E+02  0.26614293039E+03  0.12500000000E+03 0.  0.
</event>
<event>
 4    0  0.2193754E-002  0.2412562E+03  0.7546771E-02  0.1118959E+00
         21   -1    0    0  502  501  0.00000000000E+00  0.00000000000E+00  0.20291418766E+04  0.20291418766E+04  0.00000000000E+00 0.  1.
         21   -1    0    0  501  502 -0.00000000000E+00 -0.00000000000E+00 -0.28684312245E+02  0.28684312245E+02  0.00000000000E+00 0.  1.
         25    1    1    2    0    0  0.10951204769E+03 -0.72281539824E+02  0.16794203244E+04  0.16891699546E+04  0.12500000000E+03 0.  0.
         25    1    1    2    0    0 -0.10951204769E+03  0.72281539824E+02  0.32103723991E+03  0.36865623417E+03  0.12500000000E+03 0.  0.
</event>
<event>
 4    0  0.2193754E-002  0.1902866E+03  0.7546771E-02  0.1158203E+00
         21   -1    0    0  502  501  0.00000000000E+00  0.00000000000E+00  0.51901721985E+02  0.51901721985E+02  0.00000000000E+00 0.  1.
         21   -1    0    0  501  502 -0.00000000000E+00 -0.00000000000E+00 -0.69764515633E+03  0.69764515633E+03  0.00000000000E+00 0.  1.
         25    1    1    2    0    0  0.47497498649E+02  0.11332495345E+03 -0.46874167871E+03  0.50044212334E+03  0.12500000000E+03 0.  0.
         25    1    1    2    0    0 -0.47497498649E+02 -0.11332495345E+03 -0.17700175563E+03  0.24910475497E+03  0.12500000000E+03 0.  0.
</event>
<event>
 4    0  0.2193754E-002  0.3408978E+03  0.7546771E-02  0.1066414E+00
         21   -1    0    0  502  501  0.00000000000E+00  0.00000000000E+00  0.77355292067E+03  0.77355292067E+03  0.00000000000E+00 0. -1.
         21   -1    0    0  501  502 -0.00000000000E+00 -0.00000000000E+00 -0.15023058464E+03  0.15023058464E+03  0.00000000000E+00 0. -1.
         25    1    1    2    0    0 -0.25688496669E+03 -0.13404457894E+03  0.13694134175E+03  0.34399966037E+03  0.12500000000E+03 0.  0.
         25    1    1    2    0    0  0.25688496669E+03  0.13404457894E+03  0.48638099428E+03  0.57978384494E+03  0.12500000000E+03 0.  0.
</event>
<event>
 4    0  0.2193754E-002  0.1865832E+03  0.7546771E-02  0.1161580E+00
         21   -1    0    0  502  501  0.00000000000E+00  0.00000000000E+00  0.48228797578E+03  0.48228797578E+03  0.00000000000E+00 0. -1.
         21   -1    0    0  501  502 -0.00000000000E+00 -0.00000000000E+00 -0.72183643751E+02  0.72183643751E+02  0.00000000000E+00 0. -1.
         25    1    1    2    0    0  0.65839785409E+02 -0.11491687398E+03  0.26536287721E+03  0.32184347418E+03  0.12500000000E+03 0.  0.
         25    1    1    2    0    0 -0.65839785409E+02  0.11491687398E+03  0.14474145481E+03  0.23262814535E+03  0.12500000000E+03 0.  0.
</event>
<event>
 4    0  0.2193754E-002  0.2777922E+03  0.7546771E-02  0.1096901E+00
         21   -1    0    0  502  501  0.00000000000E+00  0.00000000000E+00  0.43560073694E+03  0.43560073694E+03  0.00000000000E+00 0.  1.
         21   -1    0    0  501  502 -0.00000000000E+00 -0.00000000000E+00 -0.17715419210E+03  0.17715419210E+03  0.00000000000E+00 0.  1.
         25    1    1    2    0    0 -0.99247512778E+02  0.19662145047E+03  0.33115367247E+01  0.25327066521E+03  0.12500000000E+03 0.  0.
         25    1    1    2    0    0  0.99247512778E+02 -0.19662145047E+03  0.25513500812E+03  0.35948426383E+03  0.12500000000E+03 0.  0.
</event>
<event>
 4    0  0.2193754E-002  0.2031133E+03  0.7546771E-02  0.1147139E+00
         21   -1    0    0  502  501  0.00000000000E+00  0.00000000000E+00  0.22093337934E+03  0.22093337934E+03  0.00000000000E+00 0.  1.
         21   -1    0    0  501  502 -0.00000000000E+00 -0.00000000000E+00 -0.18673047242E+03  0.18673047242E+03  0.00000000000E+00 0.  1.
         25    1    1    2    0    0  0.73590045624E+02 -0.10766864090E+03  0.11028452588E+03  0.21164996503E+03  0.12500000000E+03 0.  0.
         25    1    1    2    0    0 -0.73590045624E+02  0.10766864090E+03 -0.76081618958E+02  0.19601388673E+03  0.12500000000E+03 0.  0.
</event>
<event>
 4    0  0.2193754E-002  0.2200245E+03  0.7546771E-02  0.1133865E+00
         21   -1    0    0  502  501  0.00000000000E+00  0.00000000000E+00  0.28462113129E+03  0.28462113129E+03  0.00000000000E+00 0. -1.
         21   -1    0    0  501  502 -0.00000000000E+00 -0.00000000000E+00 -0.17008851947E+03  0.17008851947E+03  0.00000000000E+00 0. -1.
         25    1    1    2    0    0 -0.15317000131E+03  0.31573819926E+02  0.15156356471E+03  0.25110649047E+03  0.12500000000E+03 0.  0.
         25    1    1    2    0    0  0.15317000131E+03 -0.31573819926E+02 -0.37030952895E+02  0.20360316029E+03  0.12500000000E+03 0.  0.
</event>
<event>
 4    0  0.2193754E-002  0.3434579E+03  0.7546771E-02  0.1065333E+00
         21   -1    0    0  502  501  0.00000000000E+00  0.00000000000E+00  0.72549702250E+03  0.72549702250E+03  0.00000000000E+00 0.  1.
         21   -1    0    0  501  502 -0.00000000000E+00 -0.00000000000E+00 -0.16259658146E+03  0.16259658146E+03  0.00000000000E+00 0.  1.
         25    1    1    2    0    0 -0.19162237967E+03  0.18783786455E+02  0.61174366128E+03  0.65339672033E+03  0.12500000000E+03 0.  0.
         25    1    1    2    0    0  0.19162237967E+03 -0.18783786455E+02 -0.48843220238E+02  0.23469688363E+03  0.12500000000E+03 0.  0.
</event>
<event>
 4    0  0.2193754E-002  0.2278531E+03  0.7546771E-02  0.1128160E+00
         21   -1    0    0  502  501  0.00000000000E+00  0.00000000000E+00  0.27692298531E+03  0.27692298531E+03  0.00000000000E+00 0.  1.
         21   -1    0    0  501  502 -0.00000000000E+00 -0.00000000000E+00 -0.18747816235E+03  0.18747816235E+03  0.00000000000E+00 0.  1.
         25    1    1    2    0    0 -0.10842102806E+03  0.12434559804E+03 -0.52358383078E+02  0.21350256991E+03  0.12500000000E+03 0.  0.
         25    1    1    2    0    0  0.10842102806E+03 -0.12434559804E+03  0.14180320604E+03  0.25089857776E+03  0.12500000000E+03 0.  0.
</event>
<event>
 4    0  0.2193754E-002  0.2701265E+03  0.7546771E-02  0.1101207E+00
         21   -1    0    0  502  501  0.00000000000E+00  0.00000000000E+00  0.28947794774E+03  0.28947794774E+03  0.00000000000E+00 0. -1.
         21   -1    0    0  501  502 -0.00000000000E+00 -0.00000000000E+00 -0.25206860974E+03  0.25206860974E+03  0.00000000000E+00 0. -1.
         25    1    1    2    0    0  0.74261278926E+02 -0.18729778119E+03 -0.11101969421E+03  0.26181208698E+03  0.12500000000E+03 0.  0.
         25    1    1    2    0    0 -0.74261278926E+02  0.18729778119E+03  0.14842903221E+03  0.27973447050E+03  0.12500000000E+03 0.  0.
</event>
<event>
 4    0  0.2193754E-002  0.1909426E+03  0.7546771E-02  0.1157614E+00
         21   -1    0    0  502  501  0.00000000000E+00  0.00000000000E+00  0.10442182139E+03  0.10442182139E+03  0.00000000000E+00 0. -1.
         21   -1    0    0  501  502 -0.00000000000E+00 -0.00000000000E+00 -0.34915184883E+03  0.34915184883E+03  0.00000000000E+00 0. -1.
         25    1    1    2    0    0 -0.10312502148E+03 -0.41422962743E+02 -0.12969116634E+02  0.16776122879E+03  0.12500000000E+03 0.  0.
         25    1    1    2    0    0  0.10312502148E+03  0.41422962743E+02 -0.23176091080E+03  0.28581244143E+03  0.12500000000E+03 0.  0.
</event>
<event>
 4    0  0.2193754E-002  0.2385300E+03  0.7546771E-02  0.1120776E+00
         21   -1    0    0  502  501  0.00000000000E+00  0.00000000000E+00  0.58668628186E+02  0.58668628186E+02  0.00000000000E+00 0.  1.
         21   -1    0    0  501  502 -0.00000000000E+00 -0.00000000000E+00 -0.96979567965E+03  0.96979567965E+03  0.00000000000E+00 0.  1.
         25    1    1    2    0    0  0.38434292602E+02  0.19161385180E+03 -0.33594813442E+03  0.40826365509E+03  0.12500000000E+03 0.  0.
         25    1    1    2    0    0 -0.38434292602E+02 -0.19161385180E+03 -0.57517891704E+03  0.62020065274E+03  0.12500000000E+03 0.  0.
</event>
<event>
 4    0  0.2193754E-002  0.1457306E+03  0.7546771E-02  0.1205820E+00
         21   -1    0    0  502  501  0.00000000000E+00  0.00000000000E+00  0.17066117229E+03  0.17066117229E+03  0.00000000000E+00 0. -1.
         21   -1    0    0  501  502 -0.00000000000E+00 -0.00000000000E+00 -0.12444191080E+03  0.12444191080E+03  0.00000000000E+00 0. -1.
         25    1    1    2    0    0 -0.22023438979E+02 -0.70634226989E+02  0.35011361890E+02  0.14941559941E+03  0.12500000000E+03 0.  0.
         25    1    1    2    0    0  0.22023438979E+02  0.70634226989E+02  0.11207899606E+02  0.14568748368E+03  0.12500000000E+03 0.  0.
</event>
<event>
 4    0  0.2193754E-002  0.3246909E+03  0.7546771E-02  0.1073510E+00
         21   -1    0    0  502  501  0.00000000000E+00  0.00000000000E+00  0.13002478278E+03  0.13002478278E+03  0.00000000000E+00 0. -1.
         21   -1    0    0  501  502 -0.00000000000E+00 -0.00000000000E+00 -0.81080063159E+03  0.81080063159E+03  0.00000000000E+00 0. -1.
         25    1    1    2    0    0 -0.67979458285E+02  0.28083742628E+03 -0.22531704685E+03  0.38714808323E+03  0.12500000000E+03 0.  0.
         25    1    1    2    0    0  0.67979458285E+02 -0.28083742628E+03 -0.45545880195E+03  0.55367733114E+03  0.12500000000E+03 0.  0.
</event>
<event>
 4    0  0.2193754E-002  0.2145184E+03  0.7546771E-02  0.1138037E+00
         21   -1    0    0  502  501  0.00000000000E+00  0.00000000000E+00  0.10676527069E+03  0.10676527069E+03  0.00000000000E+00 0. -1.
         21   -1    0    0  501  502 -0.00000000000E+00 -0.00000000000E+00 -0.43102160504E+03  0.43102160504E+03  0.00000000000E+00 0. -1.
         25    1    1    2    0    0  0.10992775840E+03  0.17424552292E+02  0.60684293973E+01  0.16748000754E+03  0.12500000000E+03 0.  0.
         25    1    1    2    0    0 -0.10992775840E+03 -0.17424552292E+02 -0.33032476375E+03  0.37030686820E+03  0.12500000000E+03 0.  0.
</event>
<event>
 4    0  0.2193754E-002  0.2608877E+03  0.7546771E-02  0.1106611E+00
         21   -1    0    0  502  501  0.00000000000E+00  0.00000000000E+00  0.49667049738E+02  0.49667049738E+02  0.00000000000E+00 0.  1.
         21   -1    0    0  501  502 -0.00000000000E+00 -0.00000000000E+00 -0.13703736076E+04  0.13703736076E+04  0.00000000000E+00 0.  1.
         25    1    1    2    0    0  0.18165321793E+03  0.61443725914E+02 -0.10009740243E+04  0.10268141119E+04  0.12500000000E+03 0.  0.
         25    1    1    2    0    0 -0.18165321793E+03 -0.61443725914E+02 -0.31973253359E+03  0.39322654548E+03  0.12500000000E+03 0.  0.
</event>
<event>
 4    0  0.2193754E-002  0.1692394E+03  0.7546771E-02  0.1178643E+00
         21   -1    0    0  502  501  0.00000000000E+00  0.00000000000E+00  0.22644098921E+03  0.22644098921E+03  0.00000000000E+00 0. -1.
         21   -1    0    0  501  502 -0.00000000000E+00 -0.00000000000E+00 -0.12648754057E+03  0.12648754057E+03  0.00000000000E+00 0. -1.
         25    1    1    2    0    0 -0.43045293012E+02  0.52565292471E+02  0.14554631934E+03  0.20353068147E+03  0.12500000000E+03 0.  0.
         25    1    1    2    0    0  0.43045293012E+02 -0.52565292471E+02 -0.45592870701E+02  0.14939784832E+03  0.12500000000E+03 0.  0.
</event>
<event>
 4    0  0.2193754E-002  0.2623684E+03  0.7546771E-02  0.1105729E+00
         21   -1    0    0  502  501  0.00000000000E+00  0.00000000000E+00  0.65156545984E+02  0.65156545984E+02  0.00000000000E+00 0. -1.
         21   -1    0    0  501  502 -0.00000000000E+00 -0.00000000000E+00 -0.10564892023E+04  0.10564892023E+04  0.00000000000E+00 0. -1.
         25    1    1    2    0    0 -0.18381232868E+03 -0.13603569372E+03 -0.56048367402E+03  0.61810972407E+03  0.12500000000E+03 0.  0.
         25    1    1    2    0    0  0.18381232868E+03  0.13603569372E+03 -0.43084898231E+03  0.50353602424E+03  0.12500000000E+03 0.  0.
</event>
<event>
 4    0  0.2193754E-002  0.2132666E+03  0.7546771E-02  0.1139005E+00
         21   -1    0    0  502  501  0.00000000000E+00  0.00000000000E+00  0.59405277713E+02  0.59405277713E+02  0.00000000000E+00 0. -1.
         21   -1    0    0  501  502 -0.00000000000E+00 -0.00000000000E+00 -0.76563270337E+03  0.76563270337E+03  0.00000000000E+00 0. -1.
         25    1    1    2    0    0 -0.13043990488E+03  0.90242408644E+02 -0.22051458852E+03  0.29901495757E+03  0.12500000000E+03 0.  0.
         25    1    1    2    0    0  0.13043990488E+03 -0.90242408644E+02 -0.48571283713E+03  0.52602302350E+03  0.12500000000E+03 0.  0.
</event>
<event>
 4    0  0.2193754E-002  0.2896544E+03  0.7546771E-02  0.1090530E+00
         21   -1    0    0  502  501  0.00000000000E+00  0.00000000000E+00  0.92660379795E+03  0.92660379795E+03  0.00000000000E+00 0.  1.
         21   -1    0    0  501  502 -0.00000000000E+00 -0.00000000000E+00 -0.90545356890E+02  0.90545356890E+02  0.00000000000E+00 0. -1.
         25    1    1    2    0    0 -0.19244337798E+02  0.25124363164E+03  0.53943302055E+03  0.60836394587E+03  0.12500000000E+03 0.  0.
         25    1    1    2    0    0  0.19244337798E+02 -0.25124363164E+03  0.29662542051E+03  0.40878520897E+03  0.12500000000E+03 0.  0.
</event>
<event>
 4    0  0.2193754E-002  0.3126597E+03  0.7546771E-02  0.1079078E+00
         21   -1    0    0  502  501  0.00000000000E+00  0.00000000000E+00  0.47431686413E+03  0.47431686413E+03  0.00000000000E+00 0. -1.
         21   -1    0    0  501  502 -0.00000000000E+00 -0.00000000000E+00 -0.20609875410E+03  0.20609875410E+03  0.00000000000E+00 0. -1.
         25    1    1    2    0    0 -0.20779997471E+03  0.19642290748E+03  0.11322624693E+03  0.33197585916E+03  0.12500000000E+03 0.  0.
         25    1    1    2    0    0  0.20779997471E+03 -0.19642290748E+03  0.15499186309E+03  0.34843975907E+03  0.12500000000E+03 0.  0.
</event>
<event>
 4    0  0.2193754E-002  0.2582351E+03  0.7546771E-02  0.1108208E+00
         21   -1    0    0  502  501  0.00000000000E+00  0.00000000000E+00  0.24771853723E+03  0.24771853723E+03  0.00000000000E+00 0.  1.
         21   -1    0    0  501  502 -0.00000000000E+00 -0.00000000000E+00 -0.26919816384E+03  0.26919816384E+03  0.00000000000E+00 0.  1.
         25    1    1    2    0    0  0.43737482461E+02  0.19119096005E+02  0.21031729385E+03  0.24927268462E+03  0.12500000000E+03 0.  0.
         25    1    1    2    0    0 -0.43737482461E+02 -0.19119096005E+02 -0.23179692046E+03  0.26764401645E+03  0.12500000000E+03 0.  0.
</event>
<event>
 4    0  0.2193754E-002  0.2166525E+03  0.7546771E-02  0.1136404E+00
         21   -1    0    0  502  501  0.00000000000E+00  0.00000000000E+00  0.19428811882E+03  0.19428811882E+03  0.00000000000E+00 0. -1.
         21   -1    0    0  501  502 -0.00000000000E+00 -0.00000000000E+00 -0.24159126338E+03  0.24159126338E+03  0.00000000000E+00 0. -1.
         25    1    1    2    0    0 -0.94898873064E+02  0.63462164879E+02  0.11235550860E+03  0.20317973027E+03  0.12500000000E+03 0.  0.
         25    1    1    2    0    0  0.94898873064E+02 -0.63462164879E+02 -0.15965865316E+03  0.23269965193E+03  0.12500000000E+03 0.  0.
</event>
<event>
 4    0  0.2193754E-002  0.2166725E+03  0.7546771E-02  0.1136388E+00
         21   -1    0    0  502  501  0.00000000000E+00  0.00000000000E+00  0.16556443663E+03  0.16556443663E+03  0.00000000000E+00 0. -1.
         21   -1    0    0  501  502 -0.00000000000E+00 -0.00000000000E+00 -0.28355705021E+03  0.28355705021E+03  0.00000000000E+00 0. -1.
         25    1    1    2    0    0  0.15554620696E+03 -0.26194766957E+01  0.28458703070E+02  0.20158467684E+03  0.12500000000E+03 0.  0.
         25    1    1    2    0    0 -0.15554620696E+03  0.26194766957E+01 -0.14645131665E+03  0.24753681000E+03  0.12500000000E+03 0.  0.
</event>
<event>
 4    0  0.2193754E-002  0.1832877E+03  0.7546771E-02  0.1164659E+00
         21   -1    0    0  502  501  0.00000000000E+00  0.00000000000E+00  0.22471330383E+02  0.22471330383E+02  0.00000000000E+00 0. -1.
         21   -1    0    0  501  502 -0.00000000000E+00 -0.00000000000E+00 -0.14949888184E+04  0.14949888184E+04  0.00000000000E+00 0. -1.
         25    1    1    2    0    0 -0.70689388475E+02 -0.51015520339E+02 -0.11577993661E+04  0.11677859158E+04  0.12500000000E+03 0.  0.
         25    1    1    2    0    0  0.70689388475E+02  0.51015520339E+02 -0.31471812188E+03  0.34967423296E+03  0.12500000000E+03 0.  0.
</event>
<event>
 4    0  0.2193754E-002  0.1880828E+03  0.7546771E-02  0.1160202E+00
         21   -1    0    0  502  501  0.00000000000E+00  0.00000000000E+00  0.32558039917E+03  0.32558039917E+03  0.00000000000E+00 0.  1.
         21   -1    0    0  501  502 -0.00000000000E+00 -0.00000000000E+00 -0.10865250395E+03  0.10865250395E+03  0.00000000000E+00 0.  1.
         25    1    1    2    0    0  0.51882842874E+02  0.79708971475E+02 -0.10971304592E+02  0.15745068765E+03  0.12500000000E+03 0.  0.
         25    1    1    2    0    0 -0.51882842874E+02 -0.79708971475E+02  0.22789919982E+03  0.27678221546E+03  0.12500000000E+03 0.  0.
</event>
<event>
 4    0  0.2193754E-002  0.2276752E+03  0.7546771E-02  0.1128287E+00
         21   -1    0    0  502  501  0.00000000000E+00  0.00000000000E+00  0.79696826443E+02  0.79696826443E+02  0.00000000000E+00 0.  1.
         21   -1    0    0  501  502 -0.00000000000E+00 -0.00000000000E+00 -0.65041509979E+03  0.65041509979E+03  0.00000000000E+00 0.  1.
         25    1    1    2    0    0  0.19002428607E+03  0.10080972096E+02 -0.28600852358E+03  0.36556357977E+03  0.12500000000E+03 0.  0.
         25    1    1    2    0    0 -0.19002428607E+03 -0.10080972096E+02 -0.28470974977E+03  0.36454834646E+03  0.12500000000E+03 0.  0.
</event>
<event>
 4    0  0.2193754E-002  0.1967023E+03  0.7546771E-02  0.1152551E+00
         21   -1    0    0  502  501  0.00000000000E+00  0.00000000000E+00  0.57091136392E+03  0.57091136392E+03  0.00000000000E+00 0.  1.
         21   -1    0    0  501  502 -0.00000000000E+00 -0.00000000000E+00 -0.67771980680E+02  0.67771980680E+02  0.00000000000E+00 0.  1.
         25    1    1    2    0    0 -0.17140326411E+02  0.10330868742E+03  0.43015451904E+03  0.46002650569E+03  0.12500000000E+03 0.  0.
         25    1    1    2    0    0  0.17140326411E+02 -0.10330868742E+03  0.72984864198E+02  0.17865683891E+03  0.12500000000E+03 0.  0.
</event>
<event>
 4    0  0.2193754E-002  0.2245942E+03  0.7546771E-02  0.1130503E+00
         21   -1    0    0  502  501  0.00000000000E+00  0.00000000000E+00  0.21722472409E+04  0.21722472409E+04  0.00000000000E+00 0. -1.
         21   -1    0    0  501  502 -0.00000000000E+00 -0.00000000000E+00 -0.23221373408E+02  0.23221373408E+02  0.00000000000E+00 0. -1.
         25    1    1    2    0    0  0.12609884198E+03  0.37346481941E+02  0.42753556041E+03  0.46444303534E+03  0.12500000000E+03 0.  0.
         25    1    1    2    0    0 -0.12609884198E+03 -0.37346481941E+02  0.17214903071E+04  0.17310255790E+04  0.12500000000E+03 0.  0.
</event>
<event>
 4    0  0.2193754E-002  0.1738612E+03  0.7546771E-02  0.1173880E+00
         21   -1    0    0  502  501  0.00000000000E+00  0.00000000000E+00  0.19184645759E+03  0.19184645759E+03  0.00000000000E+00 0.  1.
         21   -1    0    0  501  502 -0.00000000000E+00 -0.00000000000E+00 -0.15756202803E+03  0.15756202803E+03  0.00000000000E+00 0.  1.
         25    1    1    2    0    0  0.84804443207E+02  0.77214580577E+02 -0.21105877342E+02  0.17095128868E+03  0.12500000000E+03 0.  0.
         25    1    1    2    0    0 -0.84804443207E+02 -0.77214580577E+02  0.55390306900E+02  0.17845719694E+03  0.12500000000E+03 0.  0.
</event>
<event>
 4    0  0.2193754E-002  0.2393793E+03  0.7546771E-02  0.1120207E+00
         21   -1    0    0  502  501  0.00000000000E+00  0.00000000000E+00  0.37717264220E+03  0.37717264220E+03  0.00000000000E+00 0.  1.
         21   -1    0    0  501  502 -0.00000000000E+00 -0.00000000000E+00 -0.15192635352E+03  0.15192635352E+03  0.00000000000E+00 0.  1.
         25    1    1    2    0    0  0.16510951394E+03 -0.35876990813E+01 -0.20010414039E+02  0.20808517450E+03  0.12500000000E+03 0.  0.
         25    1    1    2    0    0 -0.16510951394E+03  0.35876990813E+01  0.24525670273E+03  0.32101382121E+03  0.12500000000E+03 0.  0.
</event>
<event>
 4    0  0.2193754E-002  0.3116994E+03  0.7546771E-02  0.1079534E+00
         21   -1    0    0  502  501  0.00000000000E+00  0.00000000000E+00  0.16059938013E+03  0.16059938013E+03  0.00000000000E+00 0.  1.
         21   -1    0    0  501  502 -0.00000000000E+00 -0.00000000000E+00 -0.60496177530E+03  0.60496177530E+03  0.00000000000E+00 0.  1.
         25    1    1    2    0    0 -0.12206333566E+03 -0.25677583889E+03 -0.25463031654E+03  0.40161534763E+03  0.12500000000E+03 0.  0.
         25    1    1    2    0    0  0.12206333566E+03  0.25677583889E+03 -0.18973207863E+03  0.36394580779E+03  0.12500000000E+03 0.  0.
</event>
<event>
 4    0  0.2193754E-002  0.2001566E+03  0.7546771E-02  0.1149607E+00
         21   -1    0    0  502  501  0.00000000000E+00  0.00000000000E+00  0.94682998937E+03  0.94682998937E+03  0.00000000000E+00 0.  1.
         21   -1    0    0  501  502 -0.00000000000E+00 -0.00000000000E+00 -0.42312437220E+02  0.42312437220E+02  0.00000000000E+00 0.  1.
         25    1    1    2    0    0  0.12138234769E+03  0.96832756058E+02  0.40754756934E+03  0.45368521935E+03  0.12500000000E+03 0.  0.
         25    1    1    2    0    0 -0.12138234769E+03 -0.96832756058E+02  0.49696998281E+03  0.53545720725E+03  0.12500000000E+03 0.  0.
</event>
<event>
 4    0  0.2193754E-002  0.1775221E+03  0.7546771E-02  0.1170223E+00
         21   -1    0    0  502  501  0.00000000000E+00  0.00000000000E+00  0.21265338742E+03  0.21265338742E+03  0.00000000000E+00 0.  1.
         21   -1    0    0  501  502 -0.00000000000E+00 -0.00000000000E+00 -0.14819459376E+03  0.14819459376E+03  0.00000000000E+00 0.  1.
         25    1    1    2    0    0 -0.15113169836E+02 -0.28346733712E+02 -0.91652976682E+02  0.15829470411E+03  0.12500000000E+03 0.  0.
         25    1    1    2    0    0  0.15113169836E+02  0.28346733712E+02  0.15611177034E+03  0.20255327708E+03  0.12500000000E+03 0.  0.
</event>
<event>
 4    0  0.2193754E-002  0.3321061E+03  0.7546771E-02  0.1070209E+00
         21   -1    0    0  502  501  0.00000000000E+00  0.00000000000E+00  0.30473486640E+03  0.30473486640E+03  0.00000000000E+00 0. -1.
         21   -1    0    0  501  502 -0.00000000000E+00 -0.00000000000E+00 -0.36193591878E+03  0.36193591878E+03  0.00000000000E+00 0. -1.
         25    1    1    2    0    0 -0.51351319669E+01  0.23252748517E+03  0.17357515821E+03  0.31598850689E+03  0.12500000000E+03 0.  0.
         25    1    1    2    0    0  0.51351319669E+01 -0.23252748517E+03 -0.23077621059E+03  0.35068227830E+03  0.12500000000E+03 0.  0.
</event>
<event>
 4    0  0.2193754E-002  0.1744563E+03  0.7546771E-02  0.1173279E+00
         21   -1    0    0  502  501  0.00000000000E+00  0.00000000000E+00  0.30158574691E+03  0.30158574691E+03  0.00000000000E+00 0.  1.
         21   -1    0    0  501  502 -0.00000000000E+00 -0.00000000000E+00 -0.10091659783E+03  0.10091659783E+03  0.00000000000E+00 0.  1.
         25    1    1    2    0    0 -0.78356042261E+02  0.50451787275E+02  0.19061699110E+03  0.24626183117E+03  0.12500000000E+03 0.  0.
         25    1    1    2    0    0  0.78356042261E+02 -0.50451787275E+02  0.10052157982E+02  0.15624051356E+03  0.12500000000E+03 0.  0.
</event>
<event>
 4    0  0.2193754E-002  0.1626551E+03  0.7546771E-02  0.1185731E+00
         21   -1    0    0  502  501  0.00000000000E+00  0.00000000000E+00  0.24268449415E+02  0.24268449415E+02  0.00000000000E+00 0.  1.
         21   -1    0    0  501  502 -0.00000000000E+00 -0.00000000000E+00 -0.10901675902E+04  0.10901675902E+04  0.00000000000E+00 0.  1.
         25    1    1    2    0    0  0.16712678997E+02  0.41912627991E+02 -0.85423615013E+03  0.86451164377E+03  0.12500000000E+03 0.  0.
         25    1    1    2    0    0 -0.16712678997E+02 -0.41912627991E+02 -0.21166299063E+03  0.24992439583E+03  0.12500000000E+03 0.  0.
</event>
<event>
 4    0  0.2193754E-002  0.2416089E+03  0.7546771E-02  0.1118726E+00
         21   -1    0    0  502  501  0.00000000000E+00  0.00000000000E+00  0.73896575025E+02  0.73896575025E+02  0.00000000000E+00 0.  1.
         21   -1    0    0  501  502 -0.00000000000E+00 -0.00000000000E+00 -0.78995355038E+03  0.78995355038E+03  0.00000000000E+00 0.  1.
         25    1    1    2    0    0  0.14504222532E+03 -0.92464555053E+02 -0.56313129524E+03  0.60193753558E+03  0.12500000000E+03 0.  0.
         25    1    1    2    0    0 -0.14504222532E+03  0.92464555053E+02 -0.15292568012E+03  0.26191258982E+03  0.12500000000E+03 0.  0.
</event>
<event>
 4    0  0.2193754E-002  0.4366101E+03  0.7546771E-02  0.1031792E+00
         21   -1    0    0  502  501  0.00000000000E+00  0.00000000000E+00  0.29653723019E+03  0.29653723019E+03  0.00000000000E+00 0. -1.
         21   -1    0    0  501  502 -0.00000000000E+00 -0.00000000000E+00 -0.64284805150E+03  0.64284805150E+03  0.00000000000E+00 0. -1.
         25    1    1    2    0    0  0.32968904353E+02  0.32953937272E+03 -0.44809915425E+03  0.57105253600E+03  0.12500000000E+03 0.  0.
         25    1    1    2    0    0 -0.32968904353E+02 -0.32953937272E+03  0.10178833293E+03  0.36833274569E+03  0.12500000000E+03 0.  0.
</event>
<event>
 4    0  0.2193754E-002  0.1992710E+03  0.7546771E-02  0.1150356E+00
         21   -1    0    0  502  501  0.00000000000E+00  0.00000000000E+00  0.18823196904E+03  0.18823196904E+03  0.00000000000E+00 0.  1.
         21   -1    0    0  501  502 -0.00000000000E+00 -0.00000000000E+00 -0.21095739390E+03  0.21095739390E+03  0.00000000000E+00 0.  1.
         25    1    1    2    0    0  0.74220880178E+02  0.74095977756E+02  0.10321266748E+03  0.19307202724E+03  0.12500000000E+03 0.  0.
         25    1    1    2    0    0 -0.74220880178E+02 -0.74095977756E+02 -0.12593809234E+03  0.20611733570E+03  0.12500000000E+03 0.  0.
</event>
<event>
 4    0  0.2193754E-002  0.1798325E+03  0.7546771E-02  0.1167965E+00
         21   -1    0    0  502  501  0.00000000000E+00  0.00000000000E+00  0.55306630213E+02  0.55306630213E+02  0.00000000000E+00 0.  1.
         21   -1    0    0  501  502 -0.00000000000E+00 -0.00000000000E+00 -0.58473484608E+03  0.58473484608E+03  0.00000000000E+00 0.  1.
         25    1    1    2    0    0  0.11035386313E+03  0.57147390261E+02 -0.32815484463E+03  0.37249751861E+03  0.12500000000E+03 0.  0.
         25    1    1    2    0    0 -0.11035386313E+03 -0.57147390261E+02 -0.20127337124E+03  0.26754395768E+03  0.12500000000E+03 0.  0.
</event>
<event>
 4    0  0.2193754E-002  0.2142130E+03  0.7546771E-02  0.1138272E+00
         21   -1    0    0  502  501  0.00000000000E+00  0.00000000000E+00  0.54049484932E+02  0.54049484932E+02  0.00000000000E+00 0.  1.
         21   -1    0    0  501  502 -0.00000000000E+00 -0.00000000000E+00 -0.84898535294E+03  0.84898535294E+03  0.00000000000E+00 0.  1.
         25    1    1    2    0    0  0.93717020724E+01  0.89189156931E+02 -0.71166172228E+03  0.72810022763E+03  0.12500000000E+03 0.  0.
         25    1    1    2    0    0 -0.93717020724E+01 -0.89189156931E+02 -0.83274145725E+02  0.17493461024E+03  0.12500000000E+03 0.  0.
</event>
<event>
 4    0  0.2193754E-002  0.1760342E+03  0.7546771E-02  0.1171697E+00
         21   -1    0    0  502  501  0.00000000000E+00  0.00000000000E+00  0.13572893275E+02  0.13572893275E+02  0.00000000000E+00 0. -1.
         21   -1    0    0  501  502 -0.00000000000E+00 -0.00000000000E+00 -0.22830825164E+04  0.22830825164E+04  0.00000000000E+00 0. -1.
         25    1    1    2    0    0 -0.11574633545E+03 -0.31569337821E+02 -0.93167109986E+03  0.94764438244E+03  0.12500000000E+03 0.  0.
         25    1    1    2    0    0  0.11574633545E+03  0.31569337821E+02 -0.13378385233E+04  0.13490110273E+04  0.12500000000E+03 0.  0.
</event>
<event>
 4    0  0.2193754E-002  0.1735514E+03  0.7546771E-02  0.1174194E+00
         21   -1    0    0  502  501  0.00000000000E+00  0.00000000000E+00  0.11775740842E+03  0.11775740842E+03  0.00000000000E+00 0.  1.
         21   -1    0    0  501  502 -0.00000000000E+00 -0.00000000000E+00 -0.25578089755E+03  0.25578089755E+03  0.00000000000E+00 0.  1.
         25    1    1    2    0    0 -0.43809152644E+02 -0.93051379528E+02 -0.13636678315E+03  0.21165703540E+03  0.12500000000E+03 0.  0.
         25    1    1    2    0    0  0.43809152644E+02  0.93051379528E+02 -0.16567059806E+01  0.16188127057E+03  0.12500000000E+03 0.  0.
</event>
<event>
 4    0  0.2193754E-002  0.2226145E+03  0.7546771E-02  0.1131949E+00
         21   -1    0    0  502  501  0.00000000000E+00  0.00000000000E+00  0.36682282865E+03  0.36682282865E+03  0.00000000000E+00 0. -1.
         21   -1    0    0  501  502 -0.00000000000E+00 -0.00000000000E+00 -0.13509856103E+03  0.13509856103E+03  0.00000000000E+00 0. -1.
         25    1    1    2    0    0 -0.17641967366E+03  0.27730843911E+02  0.64952908118E+02  0.22745720747E+03  0.12500000000E+03 0.  0.
         25    1    1    2    0    0  0.17641967366E+03 -0.27730843911E+02  0.16677135950E+03  0.27446418220E+03  0.12500000000E+03 0.  0.
</event>
<event>
 4    0  0.2193754E-002  0.2156080E+03  0.7546771E-02  0.1137200E+00
         21   -1    0    0  502  501  0.00000000000E+00  0.00000000000E+00  0.27298098690E+03  0.27298098690E+03  0.00000000000E+00 0.  1.
         21   -1    0    0  501  502 -0.00000000000E+00 -0.00000000000E+00 -0.17029315855E+03  0.17029315855E+03  0.00000000000E+00 0.  1.
         25    1    1    2    0    0 -0.72026832715E+02 -0.20457833642E+02  0.21470732427E+03  0.25948144959E+03  0.12500000000E+03 0.  0.
         25    1    1    2    0    0  0.72026832715E+02  0.20457833642E+02 -0.11201949592E+03  0.18379269587E+03  0.12500000000E+03 0.  0.
</event>
<event>
 4    0  0.2193754E-002  0.3697746E+03  0.7546771E-02  0.1054779E+00
         21   -1    0    0  502  501  0.00000000000E+00  0.00000000000E+00  0.19712107368E+03  0.19712107368E+03  0.00000000000E+00 0. -1.
         21   -1    0    0  501  502 -0.00000000000E+00 -0.00000000000E+00 -0.69365112373E+03  0.69365112373E+03  0.00000000000E+00 0. -1.
         25    1    1    2    0    0  0.16735842928E+03  0.15264910210E+03  0.69949515561E+02  0.26800844567E+03  0.12500000000E+03 0.  0.
         25    1    1    2    0    0 -0.16735842928E+03 -0.15264910210E+03 -0.56647956562E+03  0.62276375174E+03  0.12500000000E+03 0.  0.
</event>
<event>
 4    0  0.2193754E-002  0.3166852E+03  0.7546771E-02  0.1077185E+00
         21   -1    0    0  502  501  0.00000000000E+00  0.00000000000E+00  0.53931921089E+03  0.53931921089E+03  0.00000000000E+00 0.  1.
         21   -1    0    0  501  502 -0.00000000000E+00 -0.00000000000E+00 -0.18595582097E+03  0.18595582097E+03  0.00000000000E+00 0.  1.
         25    1    1    2    0    0 -0.88619926860E+02  0.54986679417E+02  0.48773609919E+03  0.51418725072E+03  0.12500000000E+03 0.  0.
         25    1    1    2    0    0  0.88619926860E+02 -0.54986679417E+02 -0.13437270927E+03  0.21108778114E+03  0.12500000000E+03 0.  0.
</event>
<event>
 4    0  0.2193754E-002  0.2233832E+03  0.7546771E-02  0.1131386E+00
         21   -1    0    0  502  501  0.00000000000E+00  0.00000000000E+00  0.64691426374E+03  0.64691426374E+03  0.00000000000E+00 0. -1.
         21   -1    0    0  501  502 -0.00000000000E+00 -0.00000000000E+00 -0.77135506619E+02  0.77135506619E+02  0.00000000000E+00 0. -1.
         25    1    1    2    0    0  0.14880643936E+03  0.10013921841E+03  0.35922453303E+03  0.42052168148E+03  0.12500000000E+03 0.  0.
         25    1    1    2    0    0 -0.14880643936E+03 -0.10013921841E+03  0.21055422409E+03  0.30352808888E+03  0.12500000000E+03 0.  0.
</event>
<event>
 4    0  0.2193754E-002  0.2108562E+03  0.7546771E-02  0.1140890E+00
         21   -1    0    0  502  501  0.00000000000E+00  0.00000000000E+00  0.72178863303E+03  0.72178863303E+03  0.00000000000E+00 0.  1.
         21   -1    0    0  501  502 -0.00000000000E+00 -0.00000000000E+00 -0.61597444740E+02  0.61597444740E+02  0.00000000000E+00 0.  1.
         25    1    1    2    0    0 -0.50338560879E+02 -0.45892919091E+02  0.61904655057E+03  0.63520371733E+03  0.12500000000E+03 0.  0.
         25    1    1    2    0    0  0.50338560879E+02  0.45892919091E+02  0.41144637724E+02  0.14818236045E+03  0.12500000000E+03 0.  0.
</event>
<event>
 4    0  0.2193754E-002  0.1749403E+03  0.7546771E-02  0.1172792E+00
         21   -1    0    0  502  501  0.00000000000E+00  0.00000000000E+00  0.23636084042E+03  0.23636084042E+03  0.00000000000E+00 0. -1.
         21   -1    0    0  501  502 -0.00000000000E+00 -0.00000000000E+00 -0.12948050465E+03  0.12948050465E+03  0.00000000000E+00 0. -1.
         25    1    1    2    0    0  0.96878249875E+02  0.74064454898E+02  0.42564634260E+02  0.17974339172E+03  0.12500000000E+03 0.  0.
         25    1    1    2    0    0 -0.96878249875E+02 -0.74064454898E+02  0.64315701518E+02  0.18609795335E+03  0.12500000000E+03 0.  0.
</event>
<event>
 4    0  0.2193754E-002  0.2980480E+03  0.7546771E-02  0.1086220E+00
         21   -1    0    0  502  501  0.00000000000E+00  0.00000000000E+00  0.38387628207E+03  0.38387628207E+03  0.00000000000E+00 0.  1.
         21   -1    0    0  501  502 -0.00000000000E+00 -0.00000000000E+00 -0.23140951009E+03  0.23140951009E+03  0.00000000000E+00 0.  1.
         25    1    1    2    0    0 -0.16443514639E+03  0.62716685609E+02 -0.13589488699E+03  0.25507787111E+03  0.12500000000E+03 0.  0.
         25    1    1    2    0    0  0.16443514639E+03 -0.62716685609E+02  0.28836165898E+03  0.36020792105E+03  0.12500000000E+03 0.  0.
</event>
<event>
 4    0  0.2193754E-002  0.3401592E+03  0.7546771E-02  0.1066728E+00
         21   -1    0    0  502  501  0.00000000000E+00  0.00000000000E+00  0.60243984684E+03  0.60243984684E+03  0.00000000000E+00 0.  1.
         21   -1    0    0  501  502 -0.00000000000E+00 -0.00000000000E+00 -0.19206615209E+03  0.19206615209E+03  0.00000000000E+00 0.  1.
         25    1    1    2    0    0 -0.14879146831E+03 -0.13320267962E+03  0.49172891635E+03  0.54525607018E+03  0.12500000000E+03 0.  0.
         25    1    1    2    0    0  0.14879146831E+03  0.13320267962E+03 -0.81355221593E+02  0.24924992875E+03  0.12500000000E+03 0.  0.
</event>
<event>
 4    0  0.2193754E-002  0.2065163E+03  0.7546771E-02  0.1144355E+00
         21   -1    0    0  502  501  0.00000000000E+00  0.00000000000E+00  0.25595567836E+03  0.25595567836E+03  0.00000000000E+00 0. -1.
         21   -1    0    0  501  502 -0.00000000000E+00 -0.00000000000E+00 -0.16662650790E+03  0.16662650790E+03  0.00000000000E+00 0. -1.
         25    1    1    2    0    0  0.79969308849E+01  0.15264333843E+03  0.10656177508E+03  0.22437547010E+03  0.12500000000E+03 0.  0.
         25    1    1    2    0    0 -0.79969308849E+01 -0.15264333843E+03 -0.17232604626E+02  0.19820671617E+03  0.12500000000E+03 0.  0.
</event>
<event>
 4    0  0.2193754E-002  0.3425806E+03  0.7546771E-02  0.1065702E+00
         21   -1    0    0  502  501  0.00000000000E+00  0.00000000000E+00  0.28609551232E+03  0.28609551232E+03  0.00000000000E+00 0. -1.
         21   -1    0    0  501  502 -0.00000000000E+00 -0.00000000000E+00 -0.41021770570E+03  0.41021770570E+03  0.00000000000E+00 0. -1.
         25    1    1    2    0    0 -0.15521403677E+02  0.31618117233E+03 -0.22374266729E+02  0.34108218294E+03  0.12500000000E+03 0.  0.
         25    1    1    2    0    0  0.15521403677E+02 -0.31618117233E+03 -0.10174792665E+03  0.35523103508E+03  0.12500000000E+03 0.  0.
</event>
<event>
 4    0  0.2193754E-002  0.1845303E+03  0.7546771E-02  0.1163489E+00
         21   -1    0    0  502  501  0.00000000000E+00  0.00000000000E+00  0.16190101305E+03  0.16190101305E+03  0.00000000000E+00 0.  1.
         21   -1    0    0  501  502 -0.00000000000E+00 -0.00000000000E+00 -0.21032255316E+03  0.21032255316E+03  0.00000000000E+00 0.  1.
         25    1    1    2    0    0  0.33321467132E+02  0.10183160059E+03  0.59848824167E+02  0.17517670166E+03  0.12500000000E+03 0.  0.
         25    1    1    2    0    0 -0.33321467132E+02 -0.10183160059E+03 -0.10827036427E+03  0.19704686455E+03  0.12500000000E+03 0.  0.
</event>
<event>
 4    0  0.2193754E-002  0.1896050E+03  0.7546771E-02  0.1158818E+00
         21   -1    0    0  502  501  0.00000000000E+00  0.00000000000E+00  0.23369841824E+03  0.23369841824E+03  0.00000000000E+00 0.  1.
         21   -1    0    0  501  502 -0.00000000000E+00 -0.00000000000E+00 -0.15383096513E+03  0.15383096513E+03  0.00000000000E+00 0.  1.
         25    1    1    2    0    0  0.94851867865E+02  0.45537479417E+02  0.13824463054E+03  0.21402597212E+03  0.12500000000E+03 0.  0.
         25    1    1    2    0    0 -0.94851867865E+02 -0.45537479417E+02 -0.58377177433E+02  0.17350341125E+03  0.12500000000E+03 0.  0.
</event>
<event>
 4    0  0.2193754E-002  0.2604522E+03  0.7546771E-02  0.1106872E+00
         21   -1    0    0  502  501  0.00000000000E+00  0.00000000000E+00  0.25761854522E+03  0.25761854522E+03  0.00000000000E+00 0.  1.
         21   -1    0    0  501  502 -0.00000000000E+00 -0.00000000000E+00 -0.26331712194E+03  0.26331712194E+03  0.00000000000E+00 0.  1.
         25    1    1    2    0    0 -0.13263348127E+03 -0.30202127432E+02 -0.18645375177E+03  0.26247630446E+03  0.12500000000E+03 0.  0.
         25    1    1    2    0    0  0.13263348127E+03  0.30202127432E+02  0.18075517505E+03  0.25845936269E+03  0.12500000000E+03 0.  0.
</event>
<event>
 4    0  0.2193754E-002  0.1638719E+03  0.7546771E-02  0.1184393E+00
         21   -1    0    0  502  501  0.00000000000E+00  0.00000000000E+00  0.18458074902E+03  0.18458074902E+03  0.00000000000E+00 0. -1.
         21   -1    0    0  501  502 -0.00000000000E+00 -0.00000000000E+00 -0.14548646864E+03  0.14548646864E+03  0.00000000000E+00 0. -1.
         25    1    1    2    0    0  0.35470083172E+02  0.11763065800E+02 -0.80314794966E+02  0.15320562264E+03  0.12500000000E+03 0.  0.
         25    1    1    2    0    0 -0.35470083172E+02 -0.11763065800E+02  0.11940907535E+03  0.17686159502E+03  0.12500000000E+03 0.  0.
</event>
<event>
 4    0  0.2193754E-002  0.1738151E+03  0.7546771E-02  0.1173927E+00
         21   -1    0    0  502  501  0.00000000000E+00  0.00000000000E+00  0.29359313829E+02  0.29359313829E+02  0.00000000000E+00 0. -1.
         21   -1    0    0  501  502 -0.00000000000E+00 -0.00000000000E+00 -0.10290321305E+04  0.10290321305E+04  0.00000000000E+00 0. -1.
         25    1    1    2    0    0  0.89934892251E+02  0.52613891165E+02 -0.68578516114E+03  0.70482820150E+03  0.12500000000E+03 0.  0.
         25    1    1    2    0    0 -0.89934892251E+02 -0.52613891165E+02 -0.31388765555E+03  0.35356324285E+03  0.12500000000E+03 0.  0.
</event>
<event>
 4    0  0.2193754E-002  0.1744131E+03  0.7546771E-02  0.1173322E+00
         21   -1    0    0  502  501  0.00000000000E+00  0.00000000000E+00  0.98381030799E+02  0.98381030799E+02  0.00000000000E+00 0.  1.
         21   -1    0    0  501  502 -0.00000000000E+00 -0.00000000000E+00 -0.30920510461E+03  0.30920510461E+03  0.00000000000E+00 0.  1.
         25    1    1    2    0    0 -0.71035969496E+02  0.33193304259E+02  0.32413925569E+01  0.14759204259E+03  0.12500000000E+03 0.  0.
         25    1    1    2    0    0  0.71035969496E+02 -0.33193304259E+02 -0.21406546637E+03  0.25999409282E+03  0.12500000000E+03 0.  0.
</event>
<event>
 4    0  0.2193754E-002  0.2476168E+03  0.7546771E-02  0.1114820E+00
         21   -1    0    0  502  501  0.00000000000E+00  0.00000000000E+00  0.64308547631E+03  0.64308547631E+03  0.00000000000E+00 0. -1.
         21   -1    0    0  501  502 -0.00000000000E+00 -0.00000000000E+00 -0.95343571657E+02  0.95343571657E+02  0.00000000000E+00 0. -1.
         25    1    1    2    0    0 -0.10809102938E+03 -0.13974154675E+02 -0.30039383960E+00  0.16584341370E+03  0.12500000000E+03 0.  0.
         25    1    1    2    0    0  0.10809102938E+03  0.13974154675E+02  0.54804229849E+03  0.57258563426E+03  0.12500000000E+03 0.  0.
</event>
<event>
 4    0  0.2193754E-002  0.2150247E+03  0.7546771E-02  0.1137648E+00
         21   -1    0    0  502  501  0.00000000000E+00  0.00000000000E+00  0.31710855921E+03  0.31710855921E+03  0.00000000000E+00 0. -1.
         21   -1    0    0  501  502 -0.00000000000E+00 -0.00000000000E+00 -0.14580373459E+03  0.14580373459E+03  0.00000000000E+00 0. -1.
         25    1    1    2    0    0  0.19559332126E+02 -0.45586711815E+02 -0.94948031628E+02  0.16462334123E+03  0.12500000000E+03 0.  0.
         25    1    1    2    0    0 -0.19559332126E+02  0.45586711815E+02  0.26625285625E+03  0.29828895258E+03  0.12500000000E+03 0.  0.
</event>
<event>
 4    0  0.2193754E-002  0.2108943E+03  0.7546771E-02  0.1140860E+00
         21   -1    0    0  502  501  0.00000000000E+00  0.00000000000E+00  0.29940996658E+03  0.29940996658E+03  0.00000000000E+00 0.  1.
         21   -1    0    0  501  502 -0.00000000000E+00 -0.00000000000E+00 -0.14854685252E+03  0.14854685252E+03  0.00000000000E+00 0.  1.
         25    1    1    2    0    0 -0.24720540410E+02 -0.16639692274E+03  0.50470945729E+02  0.21557216281E+03  0.12500000000E+03 0.  0.
         25    1    1    2    0    0  0.24720540410E+02  0.16639692274E+03  0.10039216833E+03  0.23238465628E+03  0.12500000000E+03 0.  0.
</event>
<event>
 4    0  0.2193754E-002  0.3234535E+03  0.7546771E-02  0.1074071E+00
         21   -1    0    0  502  501  0.00000000000E+00  0.00000000000E+00  0.14382287974E+03  0.14382287974E+03  0.00000000000E+00 0.  1.
         21   -1    0    0  501  502 -0.00000000000E+00 -0.00000000000E+00 -0.72743741281E+03  0.72743741281E+03  0.00000000000E+00 0.  1.
         25    1    1    2    0    0  0.22493752271E+03  0.14213766573E+03 -0.11012703772E+03  0.31393147274E+03  0.12500000000E+03 0.  0.
         25    1    1    2    0    0 -0.22493752271E+03 -0.14213766573E+03 -0.47348749535E+03  0.55732881981E+03  0.12500000000E+03 0.  0.
</event>
<event>
 4    0  0.2193754E-002  0.1970989E+03  0.7546771E-02  0.1152210E+00
         21   -1    0    0  502  501  0.00000000000E+00  0.00000000000E+00  0.10097860702E+03  0.10097860702E+03  0.00000000000E+00 0.  1.
         21   -1    0    0  501  502 -0.00000000000E+00 -0.00000000000E+00 -0.38471481262E+03  0.38471481262E+03  0.00000000000E+00 0.  1.
         25    1    1    2    0    0 -0.60725270283E+02 -0.12066493172E+03 -0.22877640851E+03  0.29361748805E+03  0.12500000000E+03 0.  0.
         25    1    1    2    0    0  0.60725270283E+02  0.12066493172E+03 -0.54959797093E+02  0.19207593159E+03  0.12500000000E+03 0.  0.
</event>
<event>
 4    0  0.2193754E-002  0.3526799E+03  0.7546771E-02  0.1061520E+00
         21   -1    0    0  502  501  0.00000000000E+00  0.00000000000E+00  0.42415719498E+03  0.42415719498E+03  0.00000000000E+00 0.  1.
         21   -1    0    0  501  502 -0.00000000000E+00 -0.00000000000E+00 -0.29324762934E+03  0.29324762934E+03  0.00000000000E+00 0.  1.
         25    1    1    2    0    0 -0.17002074901E+03 -0.25861125561E+03 -0.50381503649E+02  0.33756500489E+03  0.12500000000E+03 0.  0.
         25    1    1    2    0    0  0.17002074901E+03  0.25861125561E+03  0.18129106929E+03  0.37983981943E+03  0.12500000000E+03 0.  0.
</event>
<event>
 4    0  0.2193754E-002  0.1951391E+03  0.7546771E-02  0.1153906E+00
         21   -1    0    0  502  501  0.00000000000E+00  0.00000000000E+00  0.40317102338E+02  0.40317102338E+02  0.00000000000E+00 0. -1.
         21   -1    0    0  501  502 -0.00000000000E+00 -0.00000000000E+00 -0.94449388867E+03  0.94449388867E+03  0.00000000000E+00 0. -1.
         25    1    1    2    0    0 -0.33073992469E+02  0.90018057614E+02 -0.16155021715E+03  0.22565596012E+03  0.12500000000E+03 0.  0.
         25    1    1    2    0    0  0.33073992469E+02 -0.90018057614E+02 -0.74262656918E+03  0.75915503089E+03  0.12500000000E+03 0.  0.
</event>
<event>
 4    0  0.2193754E-002  0.2353756E+03  0.7546771E-02  0.1122912E+00
         21   -1    0    0  502  501  0.00000000000E+00  0.00000000000E+00  0.11989924860E+03  0.11989924860E+03  0.00000000000E+00 0.  1.
         21   -1    0    0  501  502 -0.00000000000E+00 -0.00000000000E+00 -0.46206850997E+03  0.46206850997E+03  0.00000000000E+00 0.  1.
         25    1    1    2    0    0  0.50341260324E+02  0.16931675149E+03 -0.28555837693E+03  0.35828897759E+03  0.12500000000E+03 0.  0.
         25    1    1    2    0    0 -0.50341260324E+02 -0.16931675149E+03 -0.56610884435E+02  0.22367878099E+03  0.12500000000E+03 0.  0.
</event>
<event>
 4    0  0.2193754E-002  0.1867377E+03  0.7546771E-02  0.1161437E+00
         21   -1    0    0  502  501  0.00000000000E+00  0.00000000000E+00  0.83251506953E+02  0.83251506953E+02  0.00000000000E+00 0.  1.
         21   -1    0    0  501  502 -0.00000000000E+00 -0.00000000000E+00 -0.41886303724E+03  0.41886303724E+03  0.00000000000E+00 0.  1.
         25    1    1    2    0    0  0.14521547456E+02 -0.10909990667E+03 -0.28134761482E+03  0.32694823037E+03  0.12500000000E+03 0.  0.
         25    1    1    2    0    0 -0.14521547456E+02  0.10909990667E+03 -0.54263915467E+02  0.17516631382E+03  0.12500000000E+03 0.  0.
</event>
<event>
 4    0  0.2193754E-002  0.1695583E+03  0.7546771E-02  0.1178309E+00
         21   -1    0    0  502  501  0.00000000000E+00  0.00000000000E+00  0.86413584068E+01  0.86413584068E+01  0.00000000000E+00 0.  1.
         21   -1    0    0  501  502 -0.00000000000E+00 -0.00000000000E+00 -0.33270268721E+04  0.33270268721E+04  0.00000000000E+00 0.  1.
         25    1    1    2    0    0 -0.47646103865E+02 -0.84398015081E+02 -0.10583012061E+04  0.10700558953E+04  0.12500000000E+03 0.  0.
         25    1    1    2    0    0  0.47646103865E+02  0.84398015081E+02 -0.22600843076E+04  0.22656123353E+04  0.12500000000E+03 0.  0.
</event>
<event>
 4    0  0.2193754E-002  0.1833966E+03  0.7546771E-02  0.1164556E+00
         21   -1    0    0  502  501  0.00000000000E+00  0.00000000000E+00  0.65170536352E+03  0.65170536352E+03  0.00000000000E+00 0. -1.
         21   -1    0    0  501  502 -0.00000000000E+00 -0.00000000000E+00 -0.51609697265E+02  0.51609697265E+02  0.00000000000E+00 0. -1.
         25    1    1    2    0    0 -0.11665200386E+03 -0.81385152444E+01  0.17379452733E+03  0.24393331705E+03  0.12500000000E+03 0.  0.
         25    1    1    2    0    0  0.11665200386E+03  0.81385152444E+01  0.42630113892E+03  0.45938174374E+03  0.12500000000E+03 0.  0.
</event>
<event>
 4    0  0.2193754E-002  0.2568983E+03  0.7546771E-02  0.1109021E+00
         21   -1    0    0  502  501  0.00000000000E+00  0.00000000000E+00  0.90813248991E+02  0.90813248991E+02  0.00000000000E+00 0. -1.
         21   -1    0    0  501  502 -0.00000000000E+00 -0.00000000000E+00 -0.72673053144E+03  0.72673053144E+03  0.00000000000E+00 0. -1.
         25    1    1    2    0    0 -0.96108425156E+02 -0.17711143411E+03 -0.47520787963E+03  0.53108645091E+03  0.12500000000E+03 0.  0.
         25    1    1    2    0    0  0.96108425156E+02  0.17711143411E+03 -0.16070940282E+03  0.28645732952E+03  0.12500000000E+03 0.  0.
</event>
<event>
 4    0  0.2193754E-002  0.1709812E+03  0.7546771E-02  0.1176828E+00
         21   -1    0    0  502  501  0.00000000000E+00  0.00000000000E+00  0.32791797648E+03  0.32791797648E+03  0.00000000000E+00 0.  1.
         21   -1    0    0  501  502 -0.00000000000E+00 -0.00000000000E+00 -0.89152089572E+02  0.89152089572E+02  0.00000000000E+00 0.  1.
         25    1    1    2    0    0  0.57985630570E+02  0.97696485374E+02  0.15171221440E+03  0.22704301928E+03  0.12500000000E+03 0.  0.
         25    1    1    2    0    0 -0.57985630570E+02 -0.97696485374E+02  0.87053672512E+02  0.19002704677E+03  0.12500000000E+03 0.  0.
</event>
<event>
 4    0  0.2193754E-002  0.1883872E+03  0.7546771E-02  0.1159924E+00
         21   -1    0    0  502  501  0.00000000000E+00  0.00000000000E+00  0.27438221832E+03  0.27438221832E+03  0.00000000000E+00 0.  1.
         21   -1    0    0  501  502 -0.00000000000E+00 -0.00000000000E+00 -0.12934416720E+03  0.12934416720E+03  0.00000000000E+00 0.  1.
         25    1    1    2    0    0 -0.12982000637E+03  0.61062514384E+01  0.13095660459E+03  0.22285679852E+03  0.12500000000E+03 0.  0.
         25    1    1    2    0    0  0.12982000637E+03 -0.61062514384E+01  0.14081446524E+02  0.18086958699E+03  0.12500000000E+03 0.  0.
</event>
<event>
 4    0  0.2193754E-002  0.4143684E+03  0.7546771E-02  0.1038915E+00
         21   -1    0    0  502  501  0.00000000000E+00  0.00000000000E+00  0.11858989795E+03  0.11858989795E+03  0.00000000000E+00 0.  1.
         21   -1    0    0  501  502 -0.00000000000E+00 -0.00000000000E+00 -0.14478564711E+04  0.14478564711E+04  0.00000000000E+00 0.  1.
         25    1    1    2    0    0  0.39568382146E+02 -0.38011550904E+02 -0.14041325632E+04  0.14107529160E+04  0.12500000000E+03 0.  0.
         25    1    1    2    0    0 -0.39568382146E+02  0.38011550904E+02  0.74865990055E+02  0.15569345309E+03  0.12500000000E+03 0.  0.
</event>
<event>
 4    0  0.2193754E-002  0.2363432E+03  0.7546771E-02  0.1122253E+00
         21   -1    0    0  502  501  0.00000000000E+00  0.00000000000E+00  0.36154253669E+03  0.36154253669E+03  0.00000000000E+00 0.  1.
         21   -1    0    0  501  502 -0.00000000000E+00 -0.00000000000E+00 -0.15449939788E+03  0.15449939788E+03  0.00000000000E+00 0.  1.
         25    1    1    2    0    0 -0.13045616931E+03 -0.15160135027E+03  0.12012588743E+03  0.26468284860E+03  0.12500000000E+03 0.  0.
         25    1    1    2    0    0  0.13045616931E+03  0.15160135027E+03  0.86917251382E+02  0.25135908597E+03  0.12500000000E+03 0.  0.
</event>
<event>
 4    0  0.2193754E-002  0.1981633E+03  0.7546771E-02  0.1151298E+00
         21   -1    0    0  502  501  0.00000000000E+00  0.00000000000E+00  0.63692902826E+03  0.63692902826E+03  0.00000000000E+00 0.  1.
         21   -1    0    0  501  502 -0.00000000000E+00 -0.00000000000E+00 -0.61653184684E+02  0.61653184684E+02  0.00000000000E+00 0. -1.
         25    1    1    2    0    0 -0.66783198866E+02 -0.13845869192E+03  0.29396823626E+03  0.35450406056E+03  0.12500000000E+03 0.  0.
         25    1    1    2    0    0  0.66783198866E+02  0.13845869192E+03  0.28130760731E+03  0.34407815239E+03  0.12500000000E+03 0.  0.
</event>
<event>
 4    0  0.2193754E-002  0.1480296E+03  0.7546771E-02  0.1202915E+00
         21   -1    0    0  502  501  0.00000000000E+00  0.00000000000E+00  0.81939199714E+03  0.81939199714E+03  0.00000000000E+00 0. -1.
         21   -1    0    0  501  502 -0.00000000000E+00 -0.00000000000E+00 -0.26742698208E+02  0.26742698208E+02  0.00000000000E+00 0. -1.
         25    1    1    2    0    0 -0.43376612521E+02  0.61015986153E+02  0.32161825273E+03  0.35308325019E+03  0.12500000000E+03 0.  0.
         25    1    1    2    0    0  0.43376612521E+02 -0.61015986153E+02  0.47103104621E+03  0.49305144516E+03  0.12500000000E+03 0.  0.
</event>
<event>
 4    0  0.2193754E-002  0.1868510E+03  0.7546771E-02  0.1161333E+00
         21   -1    0    0  502  501  0.00000000000E+00  0.00000000000E+00  0.31609085335E+03  0.31609085335E+03  0.00000000000E+00 0. -1.
         21   -1    0    0  501  502 -0.00000000000E+00 -0.00000000000E+00 -0.11045335839E+03  0.11045335839E+03  0.00000000000E+00 0. -1.
         25    1    1    2    0    0  0.14709332295E+02  0.13029170077E+03  0.50562918456E+02  0.18807950571E+03  0.12500000000E+03 0.  0.
         25    1    1    2    0    0 -0.14709332295E+02 -0.13029170077E+03  0.15507457650E+03  0.23846470603E+03  0.12500000000E+03 0.  0.
</event>
<event>
 4    0  0.2193754E-002  0.2623610E+03  0.7546771E-02  0.1105733E+00
         21   -1    0    0  502  501  0.00000000000E+00  0.00000000000E+00  0.16814555716E+03  0.16814555716E+03  0.00000000000E+00 0.  1.
         21   -1    0    0  501  502 -0.00000000000E+00 -0.00000000000E+00 -0.40936736424E+03  0.40936736424E+03  0.00000000000E+00 0.  1.
         25    1    1    2    0    0  0.21164122599E+03 -0.82434969426E+02 -0.16492003203E+03  0.30726397395E+03  0.12500000000E+03 0.  0.
         25    1    1    2    0    0 -0.21164122599E+03  0.82434969426E+02 -0.76301775047E+02  0.27024894745E+03  0.12500000000E+03 0.  0.
</event>
<event>
 4    0  0.2193754E-002  0.2175672E+03  0.7546771E-02  0.1135710E+00
         21   -1    0    0  502  501  0.00000000000E+00  0.00000000000E+00  0.10084638853E+03  0.10084638853E+03  0.00000000000E+00 0.  1.
         21   -1    0    0  501  502 -0.00000000000E+00 -0.00000000000E+00 -0.46938223380E+03  0.46938223380E+03  0.00000000000E+00 0.  1.
         25    1    1    2    0    0  0.13029232687E+03  0.69207627366E+02 -0.31495171607E+03  0.36957457919E+03  0.12500000000E+03 0.  0.
         25    1    1    2    0    0 -0.13029232687E+03 -0.69207627366E+02 -0.53584129191E+02  0.20065404314E+03  0.12500000000E+03 0.  0.
</event>
<event>
 4    0  0.2193754E-002  0.2109947E+03  0.7546771E-02  0.1140781E+00
         21   -1    0    0  502  501  0.00000000000E+00  0.00000000000E+00  0.28771047153E+03  0.28771047153E+03  0.00000000000E+00 0. -1.
         21   -1    0    0  501  502 -0.00000000000E+00 -0.00000000000E+00 -0.15473454397E+03  0.15473454397E+03  0.00000000000E+00 0. -1.
         25    1    1    2    0    0 -0.15781902449E+03 -0.58399183409E+02  0.41314979685E+02  0.21365681983E+03  0.12500000000E+03 0.  0.
         25    1    1    2    0    0  0.15781902449E+03  0.58399183409E+02  0.91660947880E+02  0.22878819567E+03  0.12500000000E+03 0.  0.
</event>
<event>
 4    0  0.2193754E-002  0.1866735E+03  0.7546771E-02  0.1161496E+00
         21   -1    0    0  502  501  0.00000000000E+00  0.00000000000E+00  0.50532064386E+03  0.50532064386E+03  0.00000000000E+00 0. -1.
         21   -1    0    0  501  502 -0.00000000000E+00 -0.00000000000E+00 -0.68960135802E+02  0.68960135802E+02  0.00000000000E+00 0. -1.
         25    1    1    2    0    0  0.13569687059E+03 -0.25617513548E+02  0.23714955739E+03  0.30155399228E+03  0.12500000000E+03 0.  0.
         25    1    1    2    0    0 -0.13569687059E+03  0.25617513548E+02  0.19921095067E+03  0.27272678738E+03  0.12500000000E+03 0.  0.
</event>
<event>
 4    0  0.2193754E-002  0.2677035E+03  0.7546771E-02  0.1102601E+00
         21   -1    0    0  502  501  0.00000000000E+00  0.00000000000E+00  0.12046180185E+03  0.12046180185E+03  0.00000000000E+00 0. -1.
         21   -1    0    0  501  502 -0.00000000000E+00 -0.00000000000E+00 -0.59492035187E+03  0.59492035187E+03  0.00000000000E+00 0. -1.
         25    1    1    2    0    0  0.93527800439E+02  0.15427056502E+03 -0.32431034749E+02  0.22186398694E+03  0.12500000000E+03 0.  0.
         25    1    1    2    0    0 -0.93527800439E+02 -0.15427056502E+03 -0.44202751527E+03  0.49351816678E+03  0.12500000000E+03 0.  0.
</event>
<event>
 4    0  0.2193754E-002  0.2730747E+03  0.7546771E-02  0.1099533E+00
         21   -1    0    0  502  501  0.00000000000E+00  0.00000000000E+00  0.14358081749E+03  0.14358081749E+03  0.00000000000E+00 0.  1.
         21   -1    0    0  501  502 -0.00000000000E+00 -0.00000000000E+00 -0.51935749378E+03  0.51935749378E+03  0.00000000000E+00 0. -1.
         25    1    1    2    0    0  0.99509353854E+02  0.17400385880E+03 -0.21608463898E+02  0.23721589343E+03  0.12500000000E+03 0.  0.
         25    1    1    2    0    0 -0.99509353854E+02 -0.17400385880E+03 -0.35416821239E+03  0.42572241784E+03  0.12500000000E+03 0.  0.
</event>
<event>
 4    0  0.2193754E-002  0.2013044E+03  0.7546771E-02  0.1148643E+00
         21   -1    0    0  502  501  0.00000000000E+00  0.00000000000E+00  0.40343544443E+03  0.40343544443E+03  0.00000000000E+00 0. -1.
         21   -1    0    0  501  502 -0.00000000000E+00 -0.00000000000E+00 -0.10044592377E+03  0.10044592377E+03  0.00000000000E+00 0. -1.
         25    1    1    2    0    0 -0.13290483088E+03 -0.48245701059E+02  0.23916612328E+03  0.30465845839E+03  0.12500000000E+03 0.  0.
         25    1    1    2    0    0  0.13290483088E+03  0.48245701059E+02  0.63823397380E+02  0.19922290981E+03  0.12500000000E+03 0.  0.
</event>
<event>
 4    0  0.2193754E-002  0.2952441E+03  0.7546771E-02  0.1087643E+00
         21   -1    0    0  502  501  0.00000000000E+00  0.00000000000E+00  0.50831213188E+03  0.50831213188E+03  0.00000000000E+00 0. -1.
         21   -1    0    0  501  502 -0.00000000000E+00 -0.00000000000E+00 -0.17148726146E+03  0.17148726146E+03  0.00000000000E+00 0. -1.
         25    1    1    2    0    0 -0.54851506783E+02 -0.24940453578E+03  0.26002723022E+03  0.38529270785E+03  0.12500000000E+03 0.  0.
         25    1    1    2    0    0  0.54851506783E+02  0.24940453578E+03  0.76797640196E+02  0.29450668550E+03  0.12500000000E+03 0.  0.
</event>
<event>
 4    0  0.2193754E-002  0.2388657E+03  0.7546771E-02  0.1120551E+00
         21   -1    0    0  502  501  0.00000000000E+00  0.00000000000E+00  0.13806523267E+03  0.13806523267E+03  0.00000000000E+00 0. -1.
         21   -1    0    0  501  502 -0.00000000000E+00 -0.00000000000E+00 -0.41325990149E+03  0.41325990149E+03  0.00000000000E+00 0. -1.
         25    1    1    2    0    0  0.88538865835E+01 -0.92784156677E+01 -0.37203492946E+03  0.39268240226E+03  0.12500000000E+03 0.  0.
         25    1    1    2    0    0 -0.88538865835E+01  0.92784156677E+01  0.96840260634E+02  0.15864273190E+03  0.12500000000E+03 0.  0.
</event>
<event>
 4    0  0.2193754E-002  0.2240160E+03  0.7546771E-02  0.1130924E+00
         21   -1    0    0  502  501  0.00000000000E+00  0.00000000000E+00  0.43600967949E+03  0.43600967949E+03  0.00000000000E+00 0. -1.
         21   -1    0    0  501  502 -0.00000000000E+00 -0.00000000000E+00 -0.11509641029E+03  0.11509641029E+03  0.00000000000E+00 0. -1.
         25    1    1    2    0    0  0.10105885738E+03  0.11354734793E+02 -0.30960314336E+02  0.16408949912E+03  0.12500000000E+03 0.  0.
         25    1    1    2    0    0 -0.10105885738E+03 -0.11354734793E+02  0.35187358354E+03  0.38701659066E+03  0.12500000000E+03 0.  0.
</event>
<event>
 4    0  0.2193754E-002  0.1998062E+03  0.7546771E-02  0.1149903E+00
         21   -1    0    0  502  501  0.00000000000E+00  0.00000000000E+00  0.62501226978E+03  0.62501226978E+03  0.00000000000E+00 0.  1.
         21   -1    0    0  501  502 -0.00000000000E+00 -0.00000000000E+00 -0.63874781135E+02  0.63874781135E+02  0.00000000000E+00 0.  1.
         25    1    1    2    0    0  0.76629937511E+02 -0.10427772405E+03  0.43037382506E+03  0.46646824152E+03  0.12500000000E+03 0.  0.
         25    1    1    2    0    0 -0.76629937511E+02  0.10427772405E+03  0.13076366359E+03  0.22241880939E+03  0.12500000000E+03 0.  0.
</event>
<event>
 4    0  0.2193754E-002  0.1666264E+03  0.7546771E-02  0.1181412E+00
         21   -1    0    0  502  501  0.00000000000E+00  0.00000000000E+00  0.42629780337E+03  0.42629780337E+03  0.00000000000E+00 0. -1.
         21   -1    0    0  501  502 -0.00000000000E+00 -0.00000000000E+00 -0.65128988603E+02  0.65128988603E+02  0.00000000000E+00 0. -1.
         25    1    1    2    0    0  0.98841925698E+02  0.21576904505E+02  0.24493090950E+03  0.29300416296E+03  0.12500000000E+03 0.  0.
         25    1    1    2    0    0 -0.98841925698E+02 -0.21576904505E+02  0.11623790527E+03  0.19842262901E+03  0.12500000000E+03 0.  0.
</event>
<event>
 4    0  0.2193754E-002  0.2940634E+03  0.7546771E-02  0.1088246E+00
         21   -1    0    0  502  501  0.00000000000E+00  0.00000000000E+00  0.16061446586E+04  0.16061446586E+04  0.00000000000E+00 0.  1.
         21   -1    0    0  501  502 -0.00000000000E+00 -0.00000000000E+00 -0.53839032415E+02  0.53839032415E+02  0.00000000000E+00 0.  1.
         25    1    1    2    0    0  0.53394077919E+02 -0.25097225432E+03  0.97593815763E+03  0.10168177258E+04  0.12500000000E+03 0.  0.
         25    1    1    2    0    0 -0.53394077919E+02  0.25097225432E+03  0.57636746857E+03  0.64316596522E+03  0.12500000000E+03 0.  0.
</event>
<event>
 4    0  0.2193754E-002  0.1869731E+03  0.7546771E-02  0.1161220E+00
         21   -1    0    0  502  501  0.00000000000E+00  0.00000000000E+00  0.86550382165E+03  0.86550382165E+03  0.00000000000E+00 0. -1.
         21   -1    0    0  501  502 -0.00000000000E+00 -0.00000000000E+00 -0.40391453677E+02  0.40391453677E+02  0.00000000000E+00 0. -1.
         25    1    1    2    0    0  0.13295040418E+03  0.37556934762E+02  0.45067727354E+03  0.48766929184E+03  0.12500000000E+03 0.  0.
         25    1    1    2    0    0 -0.13295040418E+03 -0.37556934762E+02  0.37443509443E+03  0.41822598349E+03  0.12500000000E+03 0.  0.
</event>
<event>
 4    0  0.2193754E-002  0.2533008E+03  0.7546771E-02  0.1111236E+00
         21   -1    0    0  502  501  0.00000000000E+00  0.00000000000E+00  0.12233200195E+04  0.12233200195E+04  0.00000000000E+00 0. -1.
         21   -1    0    0  501  502 -0.00000000000E+00 -0.00000000000E+00 -0.52448478557E+02  0.52448478557E+02  0.00000000000E+00 0. -1.
         25    1    1    2    0    0 -0.72639139650E+01  0.13277756025E+03  0.14309342620E+03  0.23191242652E+03  0.12500000000E+03 0.  0.
         25    1    1    2    0    0  0.72639139650E+01 -0.13277756025E+03  0.10277781147E+04  0.10438560715E+04  0.12500000000E+03 0.  0.
</event>
<event>
 4    0  0.2193754E-002  0.2030942E+03  0.7546771E-02  0.1147154E+00
         21   -1    0    0  502  501  0.00000000000E+00  0.00000000000E+00  0.68535196878E+02  0.68535196878E+02  0.00000000000E+00 0.  1.
         21   -1    0    0  501  502 -0.00000000000E+00 -0.00000000000E+00 -0.60184043691E+03  0.60184043691E+03  0.00000000000E+00 0.  1.
         25    1    1    2    0    0 -0.41630979863E+02  0.37140584776E+02 -0.51426678209E+03  0.53217279589E+03  0.12500000000E+03 0.  0.
         25    1    1    2    0    0  0.41630979863E+02 -0.37140584776E+02 -0.19038457939E+02  0.13820283790E+03  0.12500000000E+03 0.  0.
</event>
<event>
 4    0  0.2193754E-002  0.1986110E+03  0.7546771E-02  0.1150916E+00
         21   -1    0    0  502  501  0.00000000000E+00  0.00000000000E+00  0.37845001684E+03  0.37845001684E+03  0.00000000000E+00 0. -1.
         21   -1    0    0  501  502 -0.00000000000E+00 -0.00000000000E+00 -0.10423125646E+03  0.10423125646E+03  0.00000000000E+00 0. -1.
         25    1    1    2    0    0  0.39988283509E+02  0.12130085921E+03  0.31816323797E+02  0.18152200892E+03  0.12500000000E+03 0.  0.
         25    1    1    2    0    0 -0.39988283509E+02 -0.12130085921E+03  0.24240243658E+03  0.30115926438E+03  0.12500000000E+03 0.  0.
</event>
<event>
 4    0  0.2193754E-002  0.2911068E+03  0.7546771E-02  0.1089773E+00
         21   -1    0    0  502  501  0.00000000000E+00  0.00000000000E+00  0.36970485252E+03  0.36970485252E+03  0.00000000000E+00 0. -1.
         21   -1    0    0  501  502 -0.00000000000E+00 -0.00000000000E+00 -0.22921845519E+03  0.22921845519E+03  0.00000000000E+00 0. -1.
         25    1    1    2    0    0 -0.14468126460E+03  0.55760921141E+02 -0.14816182771E+03  0.24823149648E+03  0.12500000000E+03 0.  0.
         25    1    1    2    0    0  0.14468126460E+03 -0.55760921141E+02  0.28864822504E+03  0.35069181124E+03  0.12500000000E+03 0.  0.
</event>
<event>
 4    0  0.2193754E-002  0.1492470E+03  0.7546771E-02  0.1201401E+00
         21   -1    0    0  502  501  0.00000000000E+00  0.00000000000E+00  0.10193354110E+04  0.10193354110E+04  0.00000000000E+00 0.  1.
         21   -1    0    0  501  502 -0.00000000000E+00 -0.00000000000E+00 -0.21852155685E+02  0.21852155685E+02  0.00000000000E+00 0. -1.
         25    1    1    2    0    0 -0.41040746248E+02 -0.58341926354E+02  0.63658047274E+03  0.65264678158E+03  0.12500000000E+03 0.  0.
         25    1    1    2    0    0  0.41040746248E+02  0.58341926354E+02  0.36090278253E+03  0.38854078507E+03  0.12500000000E+03 0.  0.
</event>
<event>
 4    0  0.2193754E-002  0.2268203E+03  0.7546771E-02  0.1128898E+00
         21   -1    0    0  502  501  0.00000000000E+00  0.00000000000E+00  0.28950842941E+03  0.28950842941E+03  0.00000000000E+00 0.  1.
         21   -1    0    0  501  502 -0.00000000000E+00 -0.00000000000E+00 -0.17770626177E+03  0.17770626177E+03  0.00000000000E+00 0.  1.
         25    1    1    2    0    0 -0.68054138522E+02 -0.16888570204E+03  0.26956988500E+01  0.22087555980E+03  0.12500000000E+03 0.  0.
         25    1    1    2    0    0  0.68054138522E+02  0.16888570204E+03  0.10910646879E+03  0.24633913139E+03  0.12500000000E+03 0.  0.
</event>
<event>
 4    0  0.2193754E-002  0.2515813E+03  0.7546771E-02  0.1112310E+00
         21   -1    0    0  502  501  0.00000000000E+00  0.00000000000E+00  0.12387183117E+03  0.12387183117E+03  0.00000000000E+00 0.  1.
         21   -1    0    0  501  502 -0.00000000000E+00 -0.00000000000E+00 -0.51095666769E+03  0.51095666769E+03  0.00000000000E+00 0.  1.
         25    1    1    2    0    0 -0.26458260042E+02  0.14443042071E+03  0.10318750082E+02  0.19311049313E+03  0.12500000000E+03 0.  0.
         25    1    1    2    0    0  0.26458260042E+02 -0.14443042071E+03 -0.39740358660E+03  0.44171800574E+03  0.12500000000E+03 0.  0.
</event>
<event>
 4    0  0.2193754E-002  0.2640673E+03  0.7546771E-02  0.1104724E+00
         21   -1    0    0  502  501  0.00000000000E+00  0.00000000000E+00  0.14363914872E+04  0.14363914872E+04  0.00000000000E+00 0. -1.
         21   -1    0    0  501  502 -0.00000000000E+00 -0.00000000000E+00 -0.48546317565E+02  0.48546317565E+02  0.00000000000E+00 0. -1.
         25    1    1    2    0    0  0.73123685210E+02 -0.17640281609E+03  0.32047354476E+03  0.39343782197E+03  0.12500000000E+03 0.  0.
         25    1    1    2    0    0 -0.73123685210E+02  0.17640281609E+03  0.10673716249E+04  0.10914999828E+04  0.12500000000E+03 0.  0.
</event>
<event>
 4    0  0.2193754E-002  0.1508289E+03  0.7546771E-02  0.1199458E+00
         21   -1    0    0  502  501  0.00000000000E+00  0.00000000000E+00  0.19673253627E+03  0.19673253627E+03  0.00000000000E+00 0. -1.
         21   -1    0    0  501  502 -0.00000000000E+00 -0.00000000000E+00 -0.11563599894E+03  0.11563599894E+03  0.00000000000E+00 0. -1.
         25    1    1    2    0    0  0.30597081908E+02 -0.63004570005E+02  0.89322761505E+02  0.16884701059E+03  0.12500000000E+03 0.  0.
         25    1    1    2    0    0 -0.30597081908E+02  0.63004570005E+02 -0.82262241769E+01  0.14352152461E+03  0.12500000000E+03 0.  0.
</event>
<event>
 4    0  0.2193754E-002  0.1744530E+03  0.7546771E-02  0.1173282E+00
         21   -1    0    0  502  501  0.00000000000E+00  0.00000000000E+00  0.25634066871E+02  0.25634066871E+02  0.00000000000E+00 0. -1.
         21   -1    0    0  501  502 -0.00000000000E+00 -0.00000000000E+00 -0.11872426440E+04  0.11872426440E+04  0.00000000000E+00 0. -1.
         25    1    1    2    0    0  0.82405193174E+02  0.88169225897E+02 -0.52645616056E+03  0.55438751541E+03  0.12500000000E+03 0.  0.
         25    1    1    2    0    0 -0.82405193174E+02 -0.88169225897E+02 -0.63515241656E+03  0.65848919544E+03  0.12500000000E+03 0.  0.
</event>
<event>
 4    0  0.2193754E-002  0.1997250E+03  0.7546771E-02  0.1149971E+00
         21   -1    0    0  502  501  0.00000000000E+00  0.00000000000E+00  0.74127115083E+02  0.74127115083E+02  0.00000000000E+00 0. -1.
         21   -1    0    0  501  502 -0.00000000000E+00 -0.00000000000E+00 -0.53813052030E+03  0.53813052030E+03  0.00000000000E+00 0. -1.
         25    1    1    2    0    0 -0.10383995738E+03 -0.11012149501E+03 -0.17556848078E+03  0.26336053588E+03  0.12500000000E+03 0.  0.
         25    1    1    2    0    0  0.10383995738E+03  0.11012149501E+03 -0.28843492443E+03  0.34889709951E+03  0.12500000000E+03 0.  0.
</event>
<event>
 4    0  0.2193754E-002  0.3051979E+03  0.7546771E-02  0.1082671E+00
         21   -1    0    0  502  501  0.00000000000E+00  0.00000000000E+00  0.36042729664E+03  0.36042729664E+03  0.00000000000E+00 0.  1.
         21   -1    0    0  501  502 -0.00000000000E+00 -0.00000000000E+00 -0.25843145768E+03  0.25843145768E+03  0.00000000000E+00 0.  1.
         25    1    1    2    0    0 -0.15332554703E+03  0.22171911841E+03  0.12162479369E+03  0.32106958947E+03  0.12500000000E+03 0.  0.
         25    1    1    2    0    0  0.15332554703E+03 -0.22171911841E+03 -0.19628954737E+02  0.29778916485E+03  0.12500000000E+03 0.  0.
</event>
<event>
 4    0  0.2193754E-002  0.2950502E+03  0.7546771E-02  0.1087741E+00
         21   -1    0    0  502  501  0.00000000000E+00  0.00000000000E+00  0.62897070827E+03  0.62897070827E+03  0.00000000000E+00 0. -1.
         21   -1    0    0  501  502 -0.00000000000E+00 -0.00000000000E+00 -0.13840803644E+03  0.13840803644E+03  0.00000000000E+00 0. -1.
         25    1    1    2    0    0 -0.24697076071E+03  0.97316022173E+02  0.20489210207E+03  0.35786972254E+03  0.12500000000E+03 0.  0.
         25    1    1    2    0    0  0.24697076071E+03 -0.97316022173E+02  0.28567056975E+03  0.40950902217E+03  0.12500000000E+03 0.  0.
</event>
<event>
 4    0  0.2193754E-002  0.1925208E+03  0.7546771E-02  0.1156207E+00
         21   -1    0    0  502  501  0.00000000000E+00  0.00000000000E+00  0.48689015767E+03  0.48689015767E+03  0.00000000000E+00 0.  1.
         21   -1    0    0  501  502 -0.00000000000E+00 -0.00000000000E+00 -0.76124465974E+02  0.76124465974E+02  0.00000000000E+00 0.  1.
         25    1    1    2    0    0  0.12559803441E+03 -0.75250701595E+02  0.20346577720E+03  0.28010865183E+03  0.12500000000E+03 0.  0.
         25    1    1    2    0    0 -0.12559803441E+03  0.75250701595E+02  0.20729991449E+03  0.28290597181E+03  0.12500000000E+03 0.  0.
</event>
<event>
 4    0  0.2193754E-002  0.1898379E+03  0.7546771E-02  0.1158608E+00
         21   -1    0    0  502  501  0.00000000000E+00  0.00000000000E+00  0.12788292067E+03  0.12788292067E+03  0.00000000000E+00 0. -1.
         21   -1    0    0  501  502 -0.00000000000E+00 -0.00000000000E+00 -0.28180791196E+03  0.28180791196E+03  0.00000000000E+00 0. -1.
         25    1    1    2    0    0 -0.75289697695E+02 -0.10291330527E+03 -0.74180234147E+01  0.17871685441E+03  0.12500000000E+03 0.  0.
         25    1    1    2    0    0  0.75289697695E+02  0.10291330527E+03 -0.14650696788E+03  0.23097397822E+03  0.12500000000E+03 0.  0.
</event>
<event>
 4    0  0.2193754E-002  0.2494004E+03  0.7546771E-02  0.1113684E+00
         21   -1    0    0  502  501  0.00000000000E+00  0.00000000000E+00  0.12478498419E+04  0.12478498419E+04  0.00000000000E+00 0.  1.
         21   -1    0    0  501  502 -0.00000000000E+00 -0.00000000000E+00 -0.49846174308E+02  0.49846174308E+02  0.00000000000E+00 0.  1.
         25    1    1    2    0    0  0.97233700176E+02 -0.10224057742E+03  0.10238573111E+04  0.10410649939E+04  0.12500000000E+03 0.  0.
         25    1    1    2    0    0 -0.97233700176E+02  0.10224057742E+03  0.17414635656E+03  0.25663102233E+03  0.12500000000E+03 0.  0.
</event>
<event>
 4    0  0.2193754E-002  0.2045543E+03  0.7546771E-02  0.1145952E+00
         21   -1    0    0  502  501  0.00000000000E+00  0.00000000000E+00  0.10297237637E+03  0.10297237637E+03  0.00000000000E+00 0.  1.
         21   -1    0    0  501  502 -0.00000000000E+00 -0.00000000000E+00 -0.40634634977E+03  0.40634634977E+03  0.00000000000E+00 0.  1.
         25    1    1    2    0    0 -0.11913346199E+03  0.17301124880E+02 -0.28649440621E+03  0.33495694570E+03  0.12500000000E+03 0.  0.
         25    1    1    2    0    0  0.11913346199E+03 -0.17301124880E+02 -0.16879567201E+02  0.17436178044E+03  0.12500000000E+03 0.  0.
</event>
<event>
 4    0  0.2193754E-002  0.1963113E+03  0.7546771E-02  0.1152889E+00
         21   -1    0    0  502  501  0.00000000000E+00  0.00000000000E+00  0.14619674458E+03  0.14619674458E+03  0.00000000000E+00 0. -1.
         21   -1    0    0  501  502 -0.00000000000E+00 -0.00000000000E+00 -0.26360465669E+03  0.26360465669E+03  0.00000000000E+00 0. -1.
         25    1    1    2    0    0 -0.94792513575E+02  0.11467100319E+03 -0.87818569869E+02  0.21324202404E+03  0.12500000000E+03 0.  0.
         25    1    1    2    0    0  0.94792513575E+02 -0.11467100319E+03 -0.29589342245E+02  0.19655937723E+03  0.12500000000E+03 0.  0.
</event>
<event>
 4    0  0.2193754E-002  0.1821821E+03  0.7546771E-02  0.1165708E+00
         21   -1    0    0  502  501  0.00000000000E+00  0.00000000000E+00  0.26533067427E+03  0.26533067427E+03  0.00000000000E+00 0.  1.
         21   -1    0    0  501  502 -0.00000000000E+00 -0.00000000000E+00 -0.12509033397E+03  0.12509033397E+03  0.00000000000E+00 0.  1.
         25    1    1    2    0    0 -0.93362402820E+01  0.11036533961E+03  0.14811006783E+03  0.22322469792E+03  0.12500000000E+03 0.  0.
         25    1    1    2    0    0  0.93362402820E+01 -0.11036533961E+03 -0.78697275313E+01  0.16719631031E+03  0.12500000000E+03 0.  0.
</event>
<event>
 4    0  0.2193754E-002  0.1682528E+03  0.7546771E-02  0.1179682E+00
         21   -1    0    0  502  501  0.00000000000E+00  0.00000000000E+00  0.65528520086E+02  0.65528520086E+02  0.00000000000E+00 0. -1.
         21   -1    0    0  501  502 -0.00000000000E+00 -0.00000000000E+00 -0.43201042522E+03  0.43201042522E+03  0.00000000000E+00 0. -1.
         25    1    1    2    0    0 -0.18280479936E+02 -0.75356960849E+02 -0.30400435791E+03  0.33772251498E+03  0.12500000000E+03 0.  0.
         25    1    1    2    0    0  0.18280479936E+02  0.75356960849E+02 -0.62477547223E+02  0.15981643033E+03  0.12500000000E+03 0.  0.
</event>
<event>
 4    0  0.2193754E-002  0.1791611E+03  0.7546771E-02  0.1168617E+00
         21   -1    0    0  502  501  0.00000000000E+00  0.00000000000E+00  0.85491245215E+03  0.85491245215E+03  0.00000000000E+00 0. -1.
         21   -1    0    0  501  502 -0.00000000000E+00 -0.00000000000E+00 -0.37546177148E+02  0.37546177148E+02  0.00000000000E+00 0. -1.
         25    1    1    2    0    0  0.56452826310E+02 -0.10549440484E+03  0.29298928607E+03  0.34027005864E+03  0.12500000000E+03 0.  0.
         25    1    1    2    0    0 -0.56452826310E+02  0.10549440484E+03  0.52437698893E+03  0.55218857067E+03  0.12500000000E+03 0.  0.
</event>
<event>
 4    0  0.2193754E-002  0.4810777E+03  0.7546771E-02  0.1018839E+00
         21   -1    0    0  502  501  0.00000000000E+00  0.00000000000E+00  0.84274291035E+02  0.84274291035E+02  0.00000000000E+00 0.  1.
         21   -1    0    0  501  502 -0.00000000000E+00 -0.00000000000E+00 -0.27462202307E+04  0.27462202307E+04  0.00000000000E+00 0. -1.
         25    1    1    2    0    0 -0.46285794025E+03  0.38467342141E+02 -0.13025186914E+04  0.13884873607E+04  0.12500000000E+03 0.  0.
         25    1    1    2    0    0  0.46285794025E+03 -0.38467342141E+02 -0.13594272482E+04  0.14420071610E+04  0.12500000000E+03 0.  0.
</event>
<event>
 4    0  0.2193754E-002  0.2151567E+03  0.7546771E-02  0.1137546E+00
         21   -1    0    0  502  501  0.00000000000E+00  0.00000000000E+00  0.65392545193E+03  0.65392545193E+03  0.00000000000E+00 0.  1.
         21   -1    0    0  501  502 -0.00000000000E+00 -0.00000000000E+00 -0.70791584709E+02  0.70791584709E+02  0.00000000000E+00 0.  1.
         25    1    1    2    0    0 -0.23389597302E+01 -0.54905309152E+02  0.57160065666E+03  0.58768390688E+03  0.12500000000E+03 0.  0.
         25    1    1    2    0    0  0.23389597302E+01  0.54905309152E+02  0.11533210556E+02  0.13703312976E+03  0.12500000000E+03 0.  0.
</event>
<event>
 4    0  0.2193754E-002  0.1947152E+03  0.7546771E-02  0.1154276E+00
         21   -1    0    0  502  501  0.00000000000E+00  0.00000000000E+00  0.95043860056E+02  0.95043860056E+02  0.00000000000E+00 0. -1.
         21   -1    0    0  501  502 -0.00000000000E+00 -0.00000000000E+00 -0.39891050516E+03  0.39891050516E+03  0.00000000000E+00 0.  1.
         25    1    1    2    0    0 -0.11652787690E+03  0.88206639470E+02 -0.11325563976E+03  0.22318377468E+03  0.12500000000E+03 0.  0.
         25    1    1    2    0    0  0.11652787690E+03 -0.88206639470E+02 -0.19061100534E+03  0.27077059054E+03  0.12500000000E+03 0.  0.
</event>
<event>
 4    0  0.2193754E-002  0.2281703E+03  0.7546771E-02  0.1127934E+00
         21   -1    0    0  502  501  0.00000000000E+00  0.00000000000E+00  0.68870307155E+03  0.68870307155E+03  0.00000000000E+00 0. -1.
         21   -1    0    0  501  502 -0.00000000000E+00 -0.00000000000E+00 -0.75593817024E+02  0.75593817024E+02  0.00000000000E+00 0. -1.
         25    1    1    2    0    0  0.19379137982E+02 -0.13077473407E+03  0.53716664918E+03  0.56714247861E+03  0.12500000000E+03 0.  0.
         25    1    1    2    0    0 -0.19379137982E+02  0.13077473407E+03  0.75942605347E+02  0.19715440996E+03  0.12500000000E+03 0.  0.
</event>
<event>
 4    0  0.2193754E-002  0.2481251E+03  0.7546771E-02  0.1114495E+00
         21   -1    0    0  502  501  0.00000000000E+00  0.00000000000E+00  0.19396807320E+03  0.19396807320E+03  0.00000000000E+00 0.  1.
         21   -1    0    0  501  502 -0.00000000000E+00 -0.00000000000E+00 -0.31740313289E+03  0.31740313289E+03  0.00000000000E+00 0.  1.
         25    1    1    2    0    0  0.17635242902E+03 -0.79023024613E+02  0.33823567835E+02  0.23262384095E+03  0.12500000000E+03 0.  0.
         25    1    1    2    0    0 -0.17635242902E+03  0.79023024613E+02 -0.15725862752E+03  0.27874736513E+03  0.12500000000E+03 0.  0.
</event>
<event>
 4    0  0.2193754E-002  0.2777162E+03  0.7546771E-02  0.1096943E+00
         21   -1    0    0  502  501  0.00000000000E+00  0.00000000000E+00  0.18029070644E+04  0.18029070644E+04  0.00000000000E+00 0.  1.
         21   -1    0    0  501  502 -0.00000000000E+00 -0.00000000000E+00 -0.42778834674E+02  0.42778834674E+02  0.00000000000E+00 0.  1.
         25    1    1    2    0    0  0.13515705408E+03 -0.18304974554E+03  0.55234050390E+03  0.61031112628E+03  0.12500000000E+03 0.  0.
         25    1    1    2    0    0 -0.13515705408E+03  0.18304974554E+03  0.12077877258E+04  0.12353747728E+04  0.12500000000E+03 0.  0.
</event>
<event>
 4    0  0.2193754E-002  0.1712857E+03  0.7546771E-02  0.1176514E+00
         21   -1    0    0  502  501  0.00000000000E+00  0.00000000000E+00  0.64833581826E+02  0.64833581826E+02  0.00000000000E+00 0.  1.
         21   -1    0    0  501  502 -0.00000000000E+00 -0.00000000000E+00 -0.45252457119E+03  0.45252457119E+03  0.00000000000E+00 0.  1.
         25    1    1    2    0    0  0.81854669432E+02 -0.33285057362E+02 -0.77787208116E+02  0.17170885737E+03  0.12500000000E+03 0.  0.
         25    1    1    2    0    0 -0.81854669432E+02  0.33285057362E+02 -0.30990378125E+03  0.34564929565E+03  0.12500000000E+03 0.  0.
</event>
<event>
 4    0  0.2193754E-002  0.2437196E+03  0.7546771E-02  0.1117339E+00
         21   -1    0    0  502  501  0.00000000000E+00  0.00000000000E+00  0.35598807629E+03  0.35598807629E+03  0.00000000000E+00 0.  1.
         21   -1    0    0  501  502 -0.00000000000E+00 -0.00000000000E+00 -0.16685735710E+03  0.16685735710E+03  0.00000000000E+00 0.  1.
         25    1    1    2    0    0  0.61745453151E+02 -0.15270398296E+02 -0.11923293633E+03  0.18408470647E+03  0.12500000000E+03 0.  0.
         25    1    1    2    0    0 -0.61745453151E+02  0.15270398296E+02  0.30836365552E+03  0.33876072691E+03  0.12500000000E+03 0.  0.
</event>
<event>
 4    0  0.2193754E-002  0.1834623E+03  0.7546771E-02  0.1164494E+00
         21   -1    0    0  502  501  0.00000000000E+00  0.00000000000E+00  0.12136882265E+03  0.12136882265E+03  0.00000000000E+00 0. -1.
         21   -1    0    0  501  502 -0.00000000000E+00 -0.00000000000E+00 -0.27732338895E+03  0.27732338895E+03  0.00000000000E+00 0. -1.
         25    1    1    2    0    0  0.92054279030E+02 -0.61798996094E+02 -0.16030166858E+03  0.23154855032E+03  0.12500000000E+03 0.  0.
         25    1    1    2    0    0 -0.92054279030E+02  0.61798996094E+02  0.43471022817E+01  0.16714366127E+03  0.12500000000E+03 0.  0.
</event>
<event>
 4    0  0.2193754E-002  0.3255286E+03  0.7546771E-02  0.1073133E+00
         21   -1    0    0  502  501  0.00000000000E+00  0.00000000000E+00  0.36506485812E+03  0.36506485812E+03  0.00000000000E+00 0.  1.
         21   -1    0    0  501  502 -0.00000000000E+00 -0.00000000000E+00 -0.29027401052E+03  0.29027401052E+03  0.00000000000E+00 0. -1.
         25    1    1    2    0    0  0.28503299170E+03  0.93778790712E+02  0.19799827508E+02  0.32566132886E+03  0.12500000000E+03 0.  0.
         25    1    1    2    0    0 -0.28503299170E+03 -0.93778790712E+02  0.54991020095E+02  0.32967753978E+03  0.12500000000E+03 0.  0.
</event>
<event>
 4    0  0.2193754E-002  0.2784320E+03  0.7546771E-02  0.1096548E+00
         21   -1    0    0  502  501  0.00000000000E+00  0.00000000000E+00  0.23431450434E+03  0.23431450434E+03  0.00000000000E+00 0. -1.
         21   -1    0    0  501  502 -0.00000000000E+00 -0.00000000000E+00 -0.33085598171E+03  0.33085598171E+03  0.00000000000E+00 0. -1.
         25    1    1    2    0    0  0.86095860847E+02  0.23314668998E+03 -0.36722116672E+02  0.28061252672E+03  0.12500000000E+03 0.  0.
         25    1    1    2    0    0 -0.86095860847E+02 -0.23314668998E+03 -0.59819360698E+02  0.28455795933E+03  0.12500000000E+03 0.  0.
</event>
<event>
 4    0  0.2193754E-002  0.1734440E+03  0.7546771E-02  0.1174303E+00
         21   -1    0    0  502  501  0.00000000000E+00  0.00000000000E+00  0.20165026971E+03  0.20165026971E+03  0.00000000000E+00 0.  1.
         21   -1    0    0  501  502 -0.00000000000E+00 -0.00000000000E+00 -0.14918308214E+03  0.14918308214E+03  0.00000000000E+00 0.  1.
         25    1    1    2    0    0  0.72137183244E+02 -0.71175527751E+02  0.91685026771E+02  0.18520494888E+03  0.12500000000E+03 0.  0.
         25    1    1    2    0    0 -0.72137183244E+02  0.71175527751E+02 -0.39217839197E+02  0.16562840296E+03  0.12500000000E+03 0.  0.
</event>
<event>
 4    0  0.2193754E-002  0.2310615E+03  0.7546771E-02  0.1125895E+00
         21   -1    0    0  502  501  0.00000000000E+00  0.00000000000E+00  0.13812985986E+03  0.13812985986E+03  0.00000000000E+00 0.  1.
         21   -1    0    0  501  502 -0.00000000000E+00 -0.00000000000E+00 -0.38651617574E+03  0.38651617574E+03  0.00000000000E+00 0.  1.
         25    1    1    2    0    0 -0.49128970978E+01 -0.19417324149E+03 -0.11728360958E+03  0.25905178892E+03  0.12500000000E+03 0.  0.
         25    1    1    2    0    0  0.49128970978E+01  0.19417324149E+03 -0.13110270630E+03  0.26559424668E+03  0.12500000000E+03 0.  0.
</event>
<event>
 4    0  0.2193754E-002  0.2565557E+03  0.7546771E-02  0.1109230E+00
         21   -1    0    0  502  501  0.00000000000E+00  0.00000000000E+00  0.21835620244E+03  0.21835620244E+03  0.00000000000E+00 0.  1.
         21   -1    0    0  501  502 -0.00000000000E+00 -0.00000000000E+00 -0.30143775008E+03  0.30143775008E+03  0.00000000000E+00 0.  1.
         25    1    1    2    0    0 -0.16377404620E+03  0.13691216347E+03 -0.11046305609E+03  0.27091320654E+03  0.12500000000E+03 0.  0.
         25    1    1    2    0    0  0.16377404620E+03 -0.13691216347E+03  0.27381508443E+02  0.24888074598E+03  0.12500000000E+03 0.  0.
</event>
<event>
 4    0  0.2193754E-002  0.2447046E+03  0.7546771E-02  0.1116698E+00
         21   -1    0    0  502  501  0.00000000000E+00  0.00000000000E+00  0.18164236743E+04  0.18164236743E+04  0.00000000000E+00 0.  1.
         21   -1    0    0  501  502 -0.00000000000E+00 -0.00000000000E+00 -0.32966074773E+02  0.32966074773E+02  0.00000000000E+00 0.  1.
         25    1    1    2    0    0 -0.92574098591E+02  0.17961114745E+03  0.67057155817E+03  0.71142205662E+03  0.12500000000E+03 0.  0.
         25    1    1    2    0    0  0.92574098591E+02 -0.17961114745E+03  0.11128860413E+04  0.11379676924E+04  0.12500000000E+03 0.  0.
</event>
<event>
 4    0  0.2193754E-002  0.2245484E+03  0.7546771E-02  0.1130537E+00
         21   -1    0    0  502  501  0.00000000000E+00  0.00000000000E+00  0.24834891155E+02  0.24834891155E+02  0.00000000000E+00 0.  1.
         21   -1    0    0  501  502 -0.00000000000E+00 -0.00000000000E+00 -0.20302889518E+04  0.20302889518E+04  0.00000000000E+00 0.  1.
         25    1    1    2    0    0 -0.17122110327E+03 -0.72768027471E+02 -0.94045924152E+03  0.96679906754E+03  0.12500000000E+03 0.  0.
         25    1    1    2    0    0  0.17122110327E+03  0.72768027471E+02 -0.10649948192E+04  0.10883247755E+04  0.12500000000E+03 0.  0.
</event>
<event>
 4    0  0.2193754E-002  0.2850783E+03  0.7546771E-02  0.1092947E+00
         21   -1    0    0  502  501  0.00000000000E+00  0.00000000000E+00  0.36998455386E+02  0.36998455386E+02  0.00000000000E+00 0. -1.
         21   -1    0    0  501  502 -0.00000000000E+00 -0.00000000000E+00 -0.21965676694E+04  0.21965676694E+04  0.00000000000E+00 0. -1.
         25    1    1    2    0    0 -0.23825076135E+03 -0.54270246536E+02 -0.13816052685E+04  0.14086045587E+04  0.12500000000E+03 0.  0.
         25    1    1    2    0    0  0.23825076135E+03  0.54270246536E+02 -0.77796394552E+03  0.82496156606E+03  0.12500000000E+03 0.  0.
</event>
<event>
 4    0  0.2193754E-002  0.2177154E+03  0.7546771E-02  0.1135598E+00
         21   -1    0    0  502  501  0.00000000000E+00  0.00000000000E+00  0.13525735786E+03  0.13525735786E+03  0.00000000000E+00 0. -1.
         21   -1    0    0  501  502 -0.00000000000E+00 -0.00000000000E+00 -0.35044291658E+03  0.35044291658E+03  0.00000000000E+00 0. -1.
         25    1    1    2    0    0 -0.92963206254E+02 -0.91252786560E+02 -0.24331924122E+03  0.30298264293E+03  0.12500000000E+03 0.  0.
         25    1    1    2    0    0  0.92963206254E+02  0.91252786560E+02  0.28133682503E+02  0.18271763151E+03  0.12500000000E+03 0.  0.
</event>
<event>
 4    0  0.2193754E-002  0.1769128E+03  0.7546771E-02  0.1170825E+00
         21   -1    0    0  502  501  0.00000000000E+00  0.00000000000E+00  0.20686877258E+02  0.20686877258E+02  0.00000000000E+00 0. -1.
         21   -1    0    0  501  502 -0.00000000000E+00 -0.00000000000E+00 -0.15129470056E+04  0.15129470056E+04  0.00000000000E+00 0. -1.
         25    1    1    2    0    0 -0.78269852104E+02  0.92183261354E+02 -0.88652996715E+03  0.90342919262E+03  0.12500000000E+03 0.  0.
         25    1    1    2    0    0  0.78269852104E+02 -0.92183261354E+02 -0.60573016121E+03  0.63020469026E+03  0.12500000000E+03 0.  0.
</event>
<event>
 4    0  0.2193754E-002  0.2425818E+03  0.7546771E-02  0.1118085E+00
         21   -1    0    0  502  501  0.00000000000E+00  0.00000000000E+00  0.47296112291E+03  0.47296112291E+03  0.00000000000E+00 0. -1.
         21   -1    0    0  501  502 -0.00000000000E+00 -0.00000000000E+00 -0.12442022536E+03  0.12442022536E+03  0.00000000000E+00 0. -1.
         25    1    1    2    0    0 -0.10000824177E+03 -0.10675238278E+03  0.35616628757E+03  0.40481742064E+03  0.12500000000E+03 0.  0.
         25    1    1    2    0    0  0.10000824177E+03  0.10675238278E+03 -0.76253900202E+01  0.19256392763E+03  0.12500000000E+03 0.  0.
</event>
<event>
 4    0  0.2193754E-002  0.2358162E+03  0.7546771E-02  0.1122612E+00
         21   -1    0    0  502  501  0.00000000000E+00  0.00000000000E+00  0.34560260163E+02  0.34560260163E+02  0.00000000000E+00 0.  1.
         21   -1    0    0  501  502 -0.00000000000E+00 -0.00000000000E+00 -0.16090531918E+04  0.16090531918E+04  0.00000000000E+00 0.  1.
         25    1    1    2    0    0 -0.31820855836E+02 -0.12907242815E+03 -0.26669267545E+03  0.32314430478E+03  0.12500000000E+03 0.  0.
         25    1    1    2    0    0  0.31820855836E+02  0.12907242815E+03 -0.13078002562E+04  0.13204691472E+04  0.12500000000E+03 0.  0.
</event>
<event>
 4    0  0.2193754E-002  0.2794280E+03  0.7546771E-02  0.1096002E+00
         21   -1    0    0  502  501  0.00000000000E+00  0.00000000000E+00  0.24254418070E+04  0.24254418070E+04  0.00000000000E+00 0. -1.
         21   -1    0    0  501  502 -0.00000000000E+00 -0.00000000000E+00 -0.32192083625E+02  0.32192083625E+02  0.00000000000E+00 0. -1.
         25    1    1    2    0    0 -0.13089163570E+03 -0.17021666911E+03  0.17589127226E+04  0.17763742005E+04  0.12500000000E+03 0.  0.
         25    1    1    2    0    0  0.13089163570E+03  0.17021666911E+03  0.63433700083E+03  0.68125969010E+03  0.12500000000E+03 0.  0.
</event>
<event>
 4    0  0.2193754E-002  0.2474920E+03  0.7546771E-02  0.1114900E+00
         21   -1    0    0  502  501  0.00000000000E+00  0.00000000000E+00  0.51144250987E+02  0.51144250987E+02  0.00000000000E+00 0. -1.
         21   -1    0    0  501  502 -0.00000000000E+00 -0.00000000000E+00 -0.11976377037E+04  0.11976377037E+04  0.00000000000E+00 0. -1.
         25    1    1    2    0    0 -0.11030198938E+03 -0.13032798682E+03 -0.24941971647E+03  0.32708883804E+03  0.12500000000E+03 0.  0.
         25    1    1    2    0    0  0.11030198938E+03  0.13032798682E+03 -0.89707373624E+03  0.92169311664E+03  0.12500000000E+03 0.  0.
</event>
<event>
 4    0  0.2193754E-002  0.1848490E+03  0.7546771E-02  0.1163191E+00
         21   -1    0    0  502  501  0.00000000000E+00  0.00000000000E+00  0.13919260074E+04  0.13919260074E+04  0.00000000000E+00 0. -1.
         21   -1    0    0  501  502 -0.00000000000E+00 -0.00000000000E+00 -0.24548123261E+02  0.24548123261E+02  0.00000000000E+00 0. -1.
         25    1    1    2    0    0  0.13215790138E+03  0.30273279556E+02  0.73245346581E+03  0.75531136753E+03  0.12500000000E+03 0.  0.
         25    1    1    2    0    0 -0.13215790138E+03 -0.30273279556E+02  0.63492441829E+03  0.66116276308E+03  0.12500000000E+03 0.  0.
</event>
<event>
 4    0  0.2193754E-002  0.2787400E+03  0.7546771E-02  0.1096379E+00
         21   -1    0    0  502  501  0.00000000000E+00  0.00000000000E+00  0.81910898240E+03  0.81910898240E+03  0.00000000000E+00 0.  1.
         21   -1    0    0  501  502 -0.00000000000E+00 -0.00000000000E+00 -0.94854253768E+02  0.94854253768E+02  0.00000000000E+00 0.  1.
         25    1    1    2    0    0 -0.79759919471E+02  0.23167421039E+03  0.28814476018E+03  0.39835535308E+03  0.12500000000E+03 0.  0.
         25    1    1    2    0    0  0.79759919471E+02 -0.23167421039E+03  0.43610996845E+03  0.51560788308E+03  0.12500000000E+03 0.  0.
</event>
<event>
 4    0  0.2193754E-002  0.3631798E+03  0.7546771E-02  0.1057332E+00
         21   -1    0    0  502  501  0.00000000000E+00  0.00000000000E+00  0.53059262607E+02  0.53059262607E+02  0.00000000000E+00 0. -1.
         21   -1    0    0  501  502 -0.00000000000E+00 -0.00000000000E+00 -0.24858915711E+04  0.24858915711E+04  0.00000000000E+00 0. -1.
         25    1    1    2    0    0  0.31323389828E+03 -0.13469370146E+03 -0.12307028425E+04  0.12831649756E+04  0.12500000000E+03 0.  0.
         25    1    1    2    0    0 -0.31323389828E+03  0.13469370146E+03 -0.12021294660E+04  0.12557858581E+04  0.12500000000E+03 0.  0.
</event>
<event>
 4    0  0.2193754E-002  0.2739883E+03  0.7546771E-02  0.1099018E+00
         21   -1    0    0  502  501  0.00000000000E+00  0.00000000000E+00  0.90868393760E+02  0.90868393760E+02  0.00000000000E+00 0.  1.
         21   -1    0    0  501  502 -0.00000000000E+00 -0.00000000000E+00 -0.82613533073E+03  0.82613533073E+03  0.00000000000E+00 0.  1.
         25    1    1    2    0    0  0.10513945600E+03 -0.17155735373E+03 -0.59804778503E+03  0.64325141585E+03  0.12500000000E+03 0.  0.
         25    1    1    2    0    0 -0.10513945600E+03  0.17155735373E+03 -0.13721915195E+03  0.27375230864E+03  0.12500000000E+03 0.  0.
</event>
<event>
 4    0  0.2193754E-002  0.2610894E+03  0.7546771E-02  0.1106490E+00
         21   -1    0    0  502  501  0.00000000000E+00  0.00000000000E+00  0.29227296797E+03  0.29227296797E+03  0.00000000000E+00 0.  1.
         21   -1    0    0  501  502 -0.00000000000E+00 -0.00000000000E+00 -0.23323290552E+03  0.23323290552E+03  0.00000000000E+00 0.  1.
         25    1    1    2    0    0  0.18199930059E+03 -0.15922277306E+02 -0.10980122787E+03  0.24710033179E+03  0.12500000000E+03 0.  0.
         25    1    1    2    0    0 -0.18199930059E+03  0.15922277306E+02  0.16884129032E+03  0.27840554169E+03  0.12500000000E+03 0.  0.
</event>
<event>
 4    0  0.2193754E-002  0.2715616E+03  0.7546771E-02  0.1100389E+00
         21   -1    0    0  502  501  0.00000000000E+00  0.00000000000E+00  0.33332404174E+03  0.33332404174E+03  0.00000000000E+00 0. -1.
         21   -1    0    0  501  502 -0.00000000000E+00 -0.00000000000E+00 -0.22124321708E+03  0.22124321708E+03  0.00000000000E+00 0. -1.
         25    1    1    2    0    0  0.27537090207E+02  0.20580107671E+03 -0.69049361280E+02  0.25200235873E+03  0.12500000000E+03 0.  0.
         25    1    1    2    0    0 -0.27537090207E+02 -0.20580107671E+03  0.18113018594E+03  0.30256490010E+03  0.12500000000E+03 0.  0.
</event>
<event>
 4    0  0.2193754E-002  0.1845233E+03  0.7546771E-02  0.1163496E+00
         21   -1    0    0  502  501  0.00000000000E+00  0.00000000000E+00  0.47806040151E+02  0.47806040151E+02  0.00000000000E+00 0. -1.
         21   -1    0    0  501  502 -0.00000000000E+00 -0.00000000000E+00 -0.71222897784E+03  0.71222897784E+03  0.00000000000E+00 0. -1.
         25    1    1    2    0    0 -0.10537733448E+03  0.83757376925E+02 -0.29629381604E+03  0.34861828155E+03  0.12500000000E+03 0.  0.
         25    1    1    2    0    0  0.10537733448E+03 -0.83757376925E+02 -0.36812912165E+03  0.41141673643E+03  0.12500000000E+03 0.  0.
</event>
<event>
 4    0  0.2193754E-002  0.3292771E+03  0.7546771E-02  0.1071457E+00
         21   -1    0    0  502  501  0.00000000000E+00  0.00000000000E+00  0.48522451173E+03  0.48522451173E+03  0.00000000000E+00 0.  1.
         21   -1    0    0  501  502 -0.00000000000E+00 -0.00000000000E+00 -0.22345003247E+03  0.22345003247E+03  0.00000000000E+00 0.  1.
         25    1    1    2    0    0  0.21401292356E+02 -0.23461875044E+03  0.33870249220E+03  0.43110132404E+03  0.12500000000E+03 0.  0.
         25    1    1    2    0    0 -0.21401292356E+02  0.23461875044E+03 -0.76928012937E+02  0.27757322015E+03  0.12500000000E+03 0.  0.
</event>
<event>
 4    0  0.2193754E-002  0.2097597E+03  0.7546771E-02  0.1141756E+00
         21   -1    0    0  502  501  0.00000000000E+00  0.00000000000E+00  0.21883610681E+02  0.21883610681E+02  0.00000000000E+00 0. -1.
         21   -1    0    0  501  502 -0.00000000000E+00 -0.00000000000E+00 -0.20105970862E+04  0.20105970862E+04  0.00000000000E+00 0. -1.
         25    1    1    2    0    0 -0.10171594729E+03 -0.11095905666E+03 -0.62806807156E+03  0.65783930310E+03  0.12500000000E+03 0.  0.
         25    1    1    2    0    0  0.10171594729E+03  0.11095905666E+03 -0.13606454039E+04  0.13746413938E+04  0.12500000000E+03 0.  0.
</event>
<event>
 4    0  0.2193754E-002  0.1984112E+03  0.7546771E-02  0.1151086E+00
         21   -1    0    0  502  501  0.00000000000E+00  0.00000000000E+00  0.18983184224E+04  0.18983184224E+04  0.00000000000E+00 0. -1.
         21   -1    0    0  501  502 -0.00000000000E+00 -0.00000000000E+00 -0.20737836054E+02  0.20737836054E+02  0.00000000000E+00 0. -1.
         25    1    1    2    0    0 -0.76897660641E+02  0.89864037592E+02  0.46118900612E+03  0.49224901710E+03  0.12500000000E+03 0.  0.
         25    1    1    2    0    0  0.76897660641E+02 -0.89864037592E+02  0.14163915802E+04  0.14268072414E+04  0.12500000000E+03 0.  0.
</event>
<event>
 4    0  0.2193754E-002  0.2125873E+03  0.7546771E-02  0.1139533E+00
         21   -1    0    0  502  501  0.00000000000E+00  0.00000000000E+00  0.38721497534E+03  0.38721497534E+03  0.00000000000E+00 0. -1.
         21   -1    0    0  501  502 -0.00000000000E+00 -0.00000000000E+00 -0.11671383633E+03  0.11671383633E+03  0.00000000000E+00 0. -1.
         25    1    1    2    0    0 -0.10969702183E+03 -0.57125364382E+01  0.29205170667E+03  0.33613281458E+03  0.12500000000E+03 0.  0.
         25    1    1    2    0    0  0.10969702183E+03  0.57125364382E+01 -0.21550567654E+02  0.16779599708E+03  0.12500000000E+03 0.  0.
</event>
<event>
 4    0  0.2193754E-002  0.2909800E+03  0.7546771E-02  0.1089839E+00
         21   -1    0    0  502  501  0.00000000000E+00  0.00000000000E+00  0.14536324178E+04  0.14536324178E+04  0.00000000000E+00 0.  1.
         21   -1    0    0  501  502 -0.00000000000E+00 -0.00000000000E+00 -0.58246737395E+02  0.58246737395E+02  0.00000000000E+00 0.  1.
         25    1    1    2    0    0 -0.13174188802E+03  0.14698454867E+03  0.11482931702E+04  0.11718202027E+04  0.12500000000E+03 0.  0.
         25    1    1    2    0    0  0.13174188802E+03 -0.14698454867E+03  0.24709251021E+03  0.34005895255E+03  0.12500000000E+03 0.  0.
</event>
<event>
 4    0  0.2193754E-002  0.2081571E+03  0.7546771E-02  0.1143034E+00
         21   -1    0    0  502  501  0.00000000000E+00  0.00000000000E+00  0.19157454661E+03  0.19157454661E+03  0.00000000000E+00 0. -1.
         21   -1    0    0  501  502 -0.00000000000E+00 -0.00000000000E+00 -0.22617492308E+03  0.22617492308E+03  0.00000000000E+00 0. -1.
         25    1    1    2    0    0 -0.10378037966E+03 -0.64402444373E+02  0.96166271460E+02  0.19947680018E+03  0.12500000000E+03 0.  0.
         25    1    1    2    0    0  0.10378037966E+03  0.64402444373E+02 -0.13076664793E+03  0.21827266951E+03  0.12500000000E+03 0.  0.
</event>
<event>
 4    0  0.2193754E-002  0.3080577E+03  0.7546771E-02  0.1081281E+00
         21   -1    0    0  502  501  0.00000000000E+00  0.00000000000E+00  0.62796869091E+03  0.62796869091E+03  0.00000000000E+00 0. -1.
         21   -1    0    0  501  502 -0.00000000000E+00 -0.00000000000E+00 -0.15112143103E+03  0.15112143103E+03  0.00000000000E+00 0. -1.
         25    1    1    2    0    0 -0.51137974315E+02  0.89903570584E+02  0.56956560237E+03  0.59222269445E+03  0.12500000000E+03 0.  0.
         25    1    1    2    0    0  0.51137974315E+02 -0.89903570584E+02 -0.92718342492E+02  0.18686742749E+03  0.12500000000E+03 0.  0.
</event>
<event>
 4    0  0.2193754E-002  0.3764964E+03  0.7546771E-02  0.1052236E+00
         21   -1    0    0  502  501  0.00000000000E+00  0.00000000000E+00  0.49869981150E+03  0.49869981150E+03  0.00000000000E+00 0.  1.
         21   -1    0    0  501  502 -0.00000000000E+00 -0.00000000000E+00 -0.28423818840E+03  0.28423818840E+03  0.00000000000E+00 0.  1.
         25    1    1    2    0    0 -0.20817013660E+03  0.21227535995E+03 -0.94733025976E+02  0.33614726003E+03  0.12500000000E+03 0.  0.
         25    1    1    2    0    0  0.20817013660E+03 -0.21227535995E+03  0.30919464908E+03  0.44679073987E+03  0.12500000000E+03 0.  0.
</event>
<event>
 4    0  0.2193754E-002  0.1742931E+03  0.7546771E-02  0.1173443E+00
         21   -1    0    0  502  501  0.00000000000E+00  0.00000000000E+00  0.19780800148E+03  0.19780800148E+03  0.00000000000E+00 0. -1.
         21   -1    0    0  501  502 -0.00000000000E+00 -0.00000000000E+00 -0.15357362922E+03  0.15357362922E+03  0.00000000000E+00 0. -1.
         25    1    1    2    0    0  0.11220321308E+03  0.11093083980E+02  0.67651045396E+02  0.18142293538E+03  0.12500000000E+03 0.  0.
         25    1    1    2    0    0 -0.11220321308E+03 -0.11093083980E+02 -0.23416673138E+02  0.16995869533E+03  0.12500000000E+03 0.  0.
</event>
<event>
 4    0  0.2193754E-002  0.2073689E+03  0.7546771E-02  0.1143667E+00
         21   -1    0    0  502  501  0.00000000000E+00  0.00000000000E+00  0.69526028936E+02  0.69526028936E+02  0.00000000000E+00 0.  1.
         21   -1    0    0  501  502 -0.00000000000E+00 -0.00000000000E+00 -0.61849994653E+03  0.61849994653E+03  0.00000000000E+00 0.  1.
         25    1    1    2    0    0 -0.92697799663E+02 -0.13065372607E+03 -0.34315929720E+03  0.39880644610E+03  0.12500000000E+03 0.  0.
         25    1    1    2    0    0  0.92697799663E+02  0.13065372607E+03 -0.20581462040E+03  0.28921952937E+03  0.12500000000E+03 0.  0.
</event>
<event>
 4    0  0.2193754E-002  0.1772847E+03  0.7546771E-02  0.1170457E+00
         21   -1    0    0  502  501  0.00000000000E+00  0.00000000000E+00  0.13707914474E+03  0.13707914474E+03  0.00000000000E+00 0. -1.
         21   -1    0    0  501  502 -0.00000000000E+00 -0.00000000000E+00 -0.22928268603E+03  0.22928268603E+03  0.00000000000E+00 0. -1.
         25    1    1    2    0    0 -0.56577748953E+02 -0.10118575239E+03  0.41498237100E+01  0.17053392390E+03  0.12500000000E+03 0.  0.
         25    1    1    2    0    0  0.56577748953E+02  0.10118575239E+03 -0.96353365001E+02  0.19582790687E+03  0.12500000000E+03 0.  0.
</event>
<event>
 4    0  0.2193754E-002  0.6597327E+03  0.7546771E-02  0.9788686E-01
         21   -1    0    0  502  501  0.00000000000E+00  0.00000000000E+00  0.11823979200E+04  0.11823979200E+04  0.00000000000E+00 0.  1.
         21   -1    0    0  501  502 -0.00000000000E+00 -0.00000000000E+00 -0.36810557328E+03  0.36810557328E+03  0.00000000000E+00 0.  1.
         25    1    1    2    0    0 -0.80489764522E+02 -0.62338461322E+03  0.22308156523E+03  0.67858482369E+03  0.12500000000E+03 0.  0.
         25    1    1    2    0    0  0.80489764522E+02  0.62338461322E+03  0.59121078146E+03  0.87191866955E+03  0.12500000000E+03 0.  0.
</event>
<event>
 4    0  0.2193754E-002  0.2252195E+03  0.7546771E-02  0.1130050E+00
         21   -1    0    0  502  501  0.00000000000E+00  0.00000000000E+00  0.32173709345E+02  0.32173709345E+02  0.00000000000E+00 0.  1.
         21   -1    0    0  501  502 -0.00000000000E+00 -0.00000000000E+00 -0.15765616191E+04  0.15765616191E+04  0.00000000000E+00 0.  1.
         25    1    1    2    0    0  0.16147793744E+01 -0.14365907254E+03 -0.12016385661E+04  0.12166350234E+04  0.12500000000E+03 0.  0.
         25    1    1    2    0    0 -0.16147793744E+01  0.14365907254E+03 -0.34274934362E+03  0.39210030501E+03  0.12500000000E+03 0.  0.
</event>
<event>
 4    0  0.2193754E-002  0.2969321E+03  0.7546771E-02  0.1086784E+00
         21   -1    0    0  502  501  0.00000000000E+00  0.00000000000E+00  0.23273309608E+04  0.23273309608E+04  0.00000000000E+00 0. -1.
         21   -1    0    0  501  502 -0.00000000000E+00 -0.00000000000E+00 -0.37884019155E+02  0.37884019155E+02  0.00000000000E+00 0.  1.
         25    1    1    2    0    0  0.76135854505E+02  0.25729697433E+03  0.10517238648E+04  0.10925870625E+04  0.12500000000E+03 0.  0.
         25    1    1    2    0    0 -0.76135854505E+02 -0.25729697433E+03  0.12377230768E+04  0.12726279174E+04  0.12500000000E+03 0.  0.
</event>
<event>
 4    0  0.2193754E-002  0.3190902E+03  0.7546771E-02  0.1076069E+00
         21   -1    0    0  502  501  0.00000000000E+00  0.00000000000E+00  0.57815324247E+03  0.57815324247E+03  0.00000000000E+00 0. -1.
         21   -1    0    0  501  502 -0.00000000000E+00 -0.00000000000E+00 -0.17610993505E+03  0.17610993505E+03  0.00000000000E+00 0. -1.
         25    1    1    2    0    0 -0.16032320798E+03 -0.20665957378E+03  0.43417522060E+02  0.29312419156E+03  0.12500000000E+03 0.  0.
         25    1    1    2    0    0  0.16032320798E+03  0.20665957378E+03  0.35862578536E+03  0.46113898597E+03  0.12500000000E+03 0.  0.
</event>
<event>
 4    0  0.2193754E-002  0.2925422E+03  0.7546771E-02  0.1089029E+00
         21   -1    0    0  502  501  0.00000000000E+00  0.00000000000E+00  0.65258709373E+03  0.65258709373E+03  0.00000000000E+00 0.  1.
         21   -1    0    0  501  502 -0.00000000000E+00 -0.00000000000E+00 -0.13114101045E+03  0.13114101045E+03  0.00000000000E+00 0.  1.
         25    1    1    2    0    0  0.37276303282E+02 -0.10567414906E+03 -0.60199727858E+02  0.17834112201E+03  0.12500000000E+03 0.  0.
         25    1    1    2    0    0 -0.37276303282E+02  0.10567414906E+03  0.58164581114E+03  0.60538698217E+03  0.12500000000E+03 0.  0.
</event>
<event>
 4    0  0.2193754E-002  0.2203357E+03  0.7546771E-02  0.1133633E+00
         21   -1    0    0  502  501  0.00000000000E+00  0.00000000000E+00  0.30418024686E+03  0.30418024686E+03  0.00000000000E+00 0.  1.
         21   -1    0    0  501  502 -0.00000000000E+00 -0.00000000000E+00 -0.15960209731E+03  0.15960209731E+03  0.00000000000E+00 0.  1.
         25    1    1    2    0    0 -0.15415791119E+02  0.15838746079E+03 -0.19452328270E+02  0.20329197581E+03  0.12500000000E+03 0.  0.
         25    1    1    2    0    0  0.15415791119E+02 -0.15838746079E+03  0.16403047783E+03  0.26049036836E+03  0.12500000000E+03 0.  0.
</event>
<event>
 4    0  0.2193754E-002  0.1407396E+03  0.7546771E-02  0.1212337E+00
         21   -1    0    0  502  501  0.00000000000E+00  0.00000000000E+00  0.13992128302E+04  0.13992128302E+04  0.00000000000E+00 0.  1.
         21   -1    0    0  501  502 -0.00000000000E+00 -0.00000000000E+00 -0.14156271110E+02  0.14156271110E+02  0.00000000000E+00 0.  1.
         25    1    1    2    0    0 -0.42085384364E+02  0.37273192877E+01  0.93839194228E+03  0.94762308426E+03  0.12500000000E+03 0.  0.
         25    1    1    2    0    0  0.42085384364E+02 -0.37273192877E+01  0.44666461677E+03  0.46574601701E+03  0.12500000000E+03 0.  0.
</event>
<event>
 4    0  0.2193754E-002  0.3178546E+03  0.7546771E-02  0.1076641E+00
         21   -1    0    0  502  501  0.00000000000E+00  0.00000000000E+00  0.10498506486E+04  0.10498506486E+04  0.00000000000E+00 0. -1.
         21   -1    0    0  501  502 -0.00000000000E+00 -0.00000000000E+00 -0.96234228671E+02  0.96234228671E+02  0.00000000000E+00 0. -1.
         25    1    1    2    0    0 -0.37493773103E+02  0.28962850147E+03  0.45738131707E+03  0.55687801275E+03  0.12500000000E+03 0.  0.
         25    1    1    2    0    0  0.37493773103E+02 -0.28962850147E+03  0.49623510284E+03  0.58920686450E+03  0.12500000000E+03 0.  0.
</event>
<event>
 4    0  0.2193754E-002  0.4598997E+03  0.7546771E-02  0.1024810E+00
         21   -1    0    0  502  501  0.00000000000E+00  0.00000000000E+00  0.16378529657E+03  0.16378529657E+03  0.00000000000E+00 0.  1.
         21   -1    0    0  501  502 -0.00000000000E+00 -0.00000000000E+00 -0.12913721365E+04  0.12913721365E+04  0.00000000000E+00 0.  1.
         25    1    1    2    0    0  0.14157374292E+03 -0.15864740644E+03 -0.11778821785E+04  0.12034299110E+04  0.12500000000E+03 0.  0.
         25    1    1    2    0    0 -0.14157374292E+03  0.15864740644E+03  0.50295338619E+02  0.25172752202E+03  0.12500000000E+03 0.  0.
</event>
<event>
 4    0  0.2193754E-002  0.1710082E+03  0.7546771E-02  0.1176800E+00
         21   -1    0    0  502  501  0.00000000000E+00  0.00000000000E+00  0.54473928626E+03  0.54473928626E+03  0.00000000000E+00 0. -1.
         21   -1    0    0  501  502 -0.00000000000E+00 -0.00000000000E+00 -0.53684059361E+02  0.53684059361E+02  0.00000000000E+00 0. -1.
         25    1    1    2    0    0 -0.32121519057E+02  0.96164446918E+02  0.34663834411E+03  0.38218128479E+03  0.12500000000E+03 0.  0.
         25    1    1    2    0    0  0.32121519057E+02 -0.96164446918E+02  0.14441688279E+03  0.21624206083E+03  0.12500000000E+03 0.  0.
</event>
<event>
 4    0  0.2193754E-002  0.1678970E+03  0.7546771E-02  0.1180059E+00
         21   -1    0    0  502  501  0.00000000000E+00  0.00000000000E+00  0.14335973129E+03  0.14335973129E+03  0.00000000000E+00 0. -1.
         21   -1    0    0  501  502 -0.00000000000E+00 -0.00000000000E+00 -0.19663396400E+03  0.19663396400E+03  0.00000000000E+00 0. -1.
         25    1    1    2    0    0 -0.54584334629E+01 -0.54036337898E+02  0.72643678776E+02  0.15444035864E+03  0.12500000000E+03 0.  0.
         25    1    1    2    0    0  0.54584334629E+01  0.54036337898E+02 -0.12591791149E+03  0.18555333665E+03  0.12500000000E+03 0.  0.
</event>
<event>
 4    0  0.2193754E-002  0.1934352E+03  0.7546771E-02  0.1155399E+00
         21   -1    0    0  502  501  0.00000000000E+00  0.00000000000E+00  0.13912753227E+03  0.13912753227E+03  0.00000000000E+00 0.  1.
         21   -1    0    0  501  502 -0.00000000000E+00 -0.00000000000E+00 -0.26894143932E+03  0.26894143932E+03  0.00000000000E+00 0.  1.
         25    1    1    2    0    0  0.66956841369E+02 -0.10384160453E+03  0.20302365656E+02  0.17692790477E+03  0.12500000000E+03 0.  0.
         25    1    1    2    0    0 -0.66956841369E+02  0.10384160453E+03 -0.15011627271E+03  0.23114106681E+03  0.12500000000E+03 0.  0.
</event>
<event>
 4    0  0.2193754E-002  0.1974933E+03  0.7546771E-02  0.1151871E+00
         21   -1    0    0  502  501  0.00000000000E+00  0.00000000000E+00  0.90709079369E+02  0.90709079369E+02  0.00000000000E+00 0.  1.
         21   -1    0    0  501  502 -0.00000000000E+00 -0.00000000000E+00 -0.42998548811E+03  0.42998548811E+03  0.00000000000E+00 0.  1.
         25    1    1    2    0    0 -0.47922037455E+02 -0.14507400441E+03 -0.17750362104E+03  0.26547226581E+03  0.12500000000E+03 0.  0.
         25    1    1    2    0    0  0.47922037455E+02  0.14507400441E+03 -0.16177278770E+03  0.25522230167E+03  0.12500000000E+03 0.  0.
</event>
<event>
 4    0  0.2193754E-002  0.2474451E+03  0.7546771E-02  0.1114930E+00
         21   -1    0    0  502  501  0.00000000000E+00  0.00000000000E+00  0.11407443397E+03  0.11407443397E+03  0.00000000000E+00 0. -1.
         21   -1    0    0  501  502 -0.00000000000E+00 -0.00000000000E+00 -0.53674652651E+03  0.53674652651E+03  0.00000000000E+00 0. -1.
         25    1    1    2    0    0  0.87512731225E+02  0.12886275854E+03 -0.40344589516E+03  0.45017516478E+03  0.12500000000E+03 0.  0.
         25    1    1    2    0    0 -0.87512731225E+02 -0.12886275854E+03 -0.19226197380E+02  0.20064579570E+03  0.12500000000E+03 0.  0.
</event>
<event>
 4    0  0.2193754E-002  0.2343705E+03  0.7546771E-02  0.1123601E+00
         21   -1    0    0  502  501  0.00000000000E+00  0.00000000000E+00  0.22002532342E+03  0.22002532342E+03  0.00000000000E+00 0.  1.
         21   -1    0    0  501  502 -0.00000000000E+00 -0.00000000000E+00 -0.24965088646E+03  0.24965088646E+03  0.00000000000E+00 0.  1.
         25    1    1    2    0    0  0.17248524409E+03  0.44917618339E+02 -0.10179477468E+03  0.24032463048E+03  0.12500000000E+03 0.  0.
         25    1    1    2    0    0 -0.17248524409E+03 -0.44917618339E+02  0.72169211640E+02  0.22935157940E+03  0.12500000000E+03 0.  0.
</event>
<event>
 4    0  0.2193754E-002  0.1901987E+03  0.7546771E-02  0.1158282E+00
         21   -1    0    0  502  501  0.00000000000E+00  0.00000000000E+00  0.98797269366E+02  0.98797269366E+02  0.00000000000E+00 0.  1.
         21   -1    0    0  501  502 -0.00000000000E+00 -0.00000000000E+00 -0.36615920153E+03  0.36615920153E+03  0.00000000000E+00 0.  1.
         25    1    1    2    0    0  0.64814221216E+02  0.12786156780E+03 -0.13241929521E+03  0.23175274224E+03  0.12500000000E+03 0.  0.
         25    1    1    2    0    0 -0.64814221216E+02 -0.12786156780E+03 -0.13494263695E+03  0.23320372865E+03  0.12500000000E+03 0.  0.
</event>
<event>
 4    0  0.2193754E-002  0.1774885E+03  0.7546771E-02  0.1170256E+00
         21   -1    0    0  502  501  0.00000000000E+00  0.00000000000E+00  0.40314842287E+03  0.40314842287E+03  0.00000000000E+00 0. -1.
         21   -1    0    0  501  502 -0.00000000000E+00 -0.00000000000E+00 -0.78140352675E+02  0.78140352675E+02  0.00000000000E+00 0. -1.
         25    1    1    2    0    0  0.11620287641E+03 -0.27753845644E+02  0.21680122581E+03  0.27731057670E+03  0.12500000000E+03 0.  0.
         25    1    1    2    0    0 -0.11620287641E+03  0.27753845644E+02  0.10820684439E+03  0.20397819885E+03  0.12500000000E+03 0.  0.
</event>
<event>
 4    0  0.2193754E-002  0.2090720E+03  0.7546771E-02  0.1142303E+00
         21   -1    0    0  502  501  0.00000000000E+00  0.00000000000E+00  0.15060000708E+03  0.15060000708E+03  0.00000000000E+00 0. -1.
         21   -1    0    0  501  502 -0.00000000000E+00 -0.00000000000E+00 -0.29024637360E+03  0.29024637360E+03  0.00000000000E+00 0. -1.
         25    1    1    2    0    0 -0.15347572140E+03  0.38422832918E+02 -0.12809608202E+03  0.23888222491E+03  0.12500000000E+03 0.  0.
         25    1    1    2    0    0  0.15347572140E+03 -0.38422832918E+02 -0.11550284502E+02  0.20196415578E+03  0.12500000000E+03 0.  0.
</event>
<event>
 4    0  0.2193754E-002  0.1793090E+03  0.7546771E-02  0.1168473E+00
         21   -1    0    0  502  501  0.00000000000E+00  0.00000000000E+00  0.23198453423E+03  0.23198453423E+03  0.00000000000E+00 0. -1.
         21   -1    0    0  501  502 -0.00000000000E+00 -0.00000000000E+00 -0.13859419728E+03  0.13859419728E+03  0.00000000000E+00 0. -1.
         25    1    1    2    0    0 -0.16731520152E+02 -0.12041699844E+03  0.35100248116E+01  0.17440618554E+03  0.12500000000E+03 0.  0.
         25    1    1    2    0    0  0.16731520152E+02  0.12041699844E+03  0.89880312146E+02  0.19617254597E+03  0.12500000000E+03 0.  0.
</event>
<event>
 4    0  0.2193754E-002  0.2569780E+03  0.7546771E-02  0.1108973E+00
         21   -1    0    0  502  501  0.00000000000E+00  0.00000000000E+00  0.31195815559E+02  0.31195815559E+02  0.00000000000E+00 0. -1.
         21   -1    0    0  501  502 -0.00000000000E+00 -0.00000000000E+00 -0.21168766849E+04  0.21168766849E+04  0.00000000000E+00 0. -1.
         25    1    1    2    0    0  0.15867911334E+03  0.57415098222E+02 -0.16618722815E+04  0.16750880677E+04  0.12500000000E+03 0.  0.
         25    1    1    2    0    0 -0.15867911334E+03 -0.57415098222E+02 -0.42380858787E+03  0.47298443280E+03  0.12500000000E+03 0.  0.
</event>
<event>
 4    0  0.2193754E-002  0.5867502E+03  0.7546771E-02  0.9933283E-01
         21   -1    0    0  502  501  0.00000000000E+00  0.00000000000E+00  0.56732196010E+03  0.56732196010E+03  0.00000000000E+00 0.  1.
         21   -1    0    0  501  502 -0.00000000000E+00 -0.00000000000E+00 -0.60684370714E+03  0.60684370714E+03  0.00000000000E+00 0.  1.
         25    1    1    2    0    0  0.55048817415E+03  0.15243326476E+03 -0.68549480105E+02  0.58872503031E+03  0.12500000000E+03 0.  0.
         25    1    1    2    0    0 -0.55048817415E+03 -0.15243326476E+03  0.29027733067E+02  0.58544063694E+03  0.12500000000E+03 0.  0.
</event>
<event>
 4    0  0.2193754E-002  0.1773801E+03  0.7546771E-02  0.1170363E+00
         21   -1    0    0  502  501  0.00000000000E+00  0.00000000000E+00  0.79663611127E+02  0.79663611127E+02  0.00000000000E+00 0.  1.
         21   -1    0    0  501  502 -0.00000000000E+00 -0.00000000000E+00 -0.39495695238E+03  0.39495695238E+03  0.00000000000E+00 0.  1.
         25    1    1    2    0    0 -0.68463367941E+02 -0.99751306512E+02 -0.20401363937E+03  0.26811214249E+03  0.12500000000E+03 0.  0.
         25    1    1    2    0    0  0.68463367941E+02  0.99751306512E+02 -0.11127970188E+03  0.20650842102E+03  0.12500000000E+03 0.  0.
</event>
<event>
 4    0  0.2193754E-002  0.1732159E+03  0.7546771E-02  0.1174535E+00
         21   -1    0    0  502  501  0.00000000000E+00  0.00000000000E+00  0.42328196513E+03  0.42328196513E+03  0.00000000000E+00 0.  1.
         21   -1    0    0  501  502 -0.00000000000E+00 -0.00000000000E+00 -0.70883590943E+02  0.70883590943E+02  0.00000000000E+00 0.  1.
         25    1    1    2    0    0 -0.63528800233E+02  0.10144641527E+03  0.16596629870E+03  0.23978552069E+03  0.12500000000E+03 0.  0.
         25    1    1    2    0    0  0.63528800233E+02 -0.10144641527E+03  0.18643207548E+03  0.25438003538E+03  0.12500000000E+03 0.  0.
</event>
