<event>
 6    0  0.2117869E+002  0.2033002E+03  0.7546771E-02  0.1146984E+00
         21   -1    0    0  504  502  0.00000000000E+00  0.00000000000E+00  0.49899508611E+03  0.49899508611E+03  0.00000000000E+00 0.  1.
          2   -1    0    0  505    0 -0.00000000000E+00 -0.00000000000E+00 -0.28385038910E+03  0.28385038910E+03  0.00000000000E+00 0.  1.
         21    1    1    2  503  502 -0.20860923443E+02 -0.59822362386E+02 -0.21815871025E+02  0.67006159395E+02  0.00000000000E+00 0.  1.
         21    1    1    2  504  501  0.22744303889E+02  0.33204032405E+02  0.31358815969E+03  0.31616031539E+03  0.00000000000E+00 0.  1.
         21    1    1    2  505  503  0.10954573398E+02 -0.13828381529E+03 -0.16222089131E+03  0.21344328011E+03  0.00000000000E+00 0.  1.
          2    1    1    2  501    0 -0.12837953844E+02  0.16490214527E+03  0.85593299640E+02  0.18623572031E+03  0.00000000000E+00 0.  1.
<scales pt_clust_3="48.69366" pt_clust_4="40.24688" pt_clust_5="48.69366" pt_clust_6="189.45394"></scales>
<clustering>
<clus scale="   40.247">  1  4  2 -1</clus>
<clus scale="   48.694">  3  5 -1 -1</clus>
<clus scale="  189.454">  1  6  2 -1</clus>
<clus scale="   40.247">  1  3  2 -1</clus>
</clustering>
</event>
<event>
 6    0  0.2117869E+002  0.7652974E+02  0.7546771E-02  0.1339198E+00
          2   -1    0    0  505    0 -0.00000000000E+00  0.00000000000E+00  0.63210545086E+03  0.63210545086E+03  0.00000000000E+00 0. -1.
         21   -1    0    0  504  502  0.00000000000E+00 -0.00000000000E+00 -0.77425095397E+03  0.77425095397E+03  0.00000000000E+00 0. -1.
         21    1    1    2  503  502  0.44980448517E+02 -0.73607280343E+02 -0.77143414630E+02  0.11572544616E+03  0.00000000000E+00 0. -1.
         21    1    1    2  504  501 -0.37819830348E+02 -0.16675549049E+01 -0.66607887716E+03  0.66715379854E+03  0.00000000000E+00 0. -1.
         21    1    1    2  505  503  0.37663694963E+02 -0.13866543386E+02  0.53483384214E+02  0.66867834799E+02  0.00000000000E+00 0. -1.
          2    1    1    2  501    0 -0.44824313132E+02  0.89141378634E+02  0.54759340446E+03  0.55660932533E+03  0.00000000000E+00 0. -1.
<scales pt_clust_3="14000.00000" pt_clust_4="37.85658" pt_clust_5="37.97527" pt_clust_6="76.52974"></scales>
<clustering>
<clus scale="   37.857">  2  4  1 -1</clus>
<clus scale="   37.975">  1  5  2 -1</clus>
<clus scale="   76.530">  1  6  2 -1</clus>
<clus scale="   37.857">  2  3  1 -1</clus>
</clustering>
</event>
<event>
 6    0  0.2117869E+002  0.1127412E+03  0.7546771E-02  0.1255576E+00
         -4   -1    0    0    0  501 -0.00000000000E+00  0.00000000000E+00  0.80086493704E+03  0.80086493704E+03  0.00000000000E+00 0.  1.
         21   -1    0    0  503  502  0.00000000000E+00 -0.00000000000E+00 -0.12881011899E+03  0.12881011899E+03  0.00000000000E+00 0. -1.
         21    1    1    2  503  504 -0.11545324227E+03  0.40913825748E+02 -0.40226614081E+02  0.12892467866E+03  0.00000000000E+00 0. -1.
         21    1    1    2  504  501  0.39733505724E+02  0.89180079176E+01  0.67403861072E+02  0.78750002094E+02  0.00000000000E+00 0. -1.
         21    1    1    2  505  502 -0.10942136506E+00 -0.40290360459E+02 -0.25236810024E+02  0.47541788977E+02  0.00000000000E+00 0. -1.
         -4    1    1    2    0  505  0.75829157911E+02 -0.95414732064E+01  0.67011438108E+03  0.67445858630E+03  0.00000000000E+00 0.  1.
<scales pt_clust_3="14000.00000" pt_clust_4="40.24617" pt_clust_5="40.29051" pt_clust_6="112.74124"></scales>
<clustering>
<clus scale="   40.291">  2  5  1 -1</clus>
<clus scale="   40.246">  1  4  2 -1</clus>
<clus scale="  112.741">  1  6  2 -1</clus>
<clus scale="   40.291">  2  3  1 -1</clus>
</clustering>
</event>
<event>
 6    0  0.2117869E+002  0.8704917E+02  0.7546771E-02  0.1310159E+00
          2   -1    0    0  503    0 -0.00000000000E+00  0.00000000000E+00  0.19519286994E+04  0.19519286994E+04  0.00000000000E+00 0. -1.
         21   -1    0    0  501  502  0.00000000000E+00 -0.00000000000E+00 -0.10145906438E+03  0.10145906438E+03  0.00000000000E+00 0.  1.
         21    1    1    2  503  504  0.34174795862E+02 -0.19903685583E+02  0.24060664001E+03  0.24383524887E+03  0.00000000000E+00 0. -1.
         21    1    1    2  504  505 -0.65592764595E+02 -0.11146061701E+03  0.33821227278E+03  0.36209587317E+03  0.00000000000E+00 0. -1.
         21    1    1    2  505  502  0.28482226787E+02  0.79762841551E+02 -0.66886478568E+02  0.10792195861E+03  0.00000000000E+00 0.  1.
          2    1    1    2  501    0  0.29357419457E+01  0.51601461041E+02  0.13385372008E+04  0.13395346832E+04  0.00000000000E+00 0. -1.
<scales pt_clust_3="39.54837" pt_clust_4="87.04917" pt_clust_5="14000.00000" pt_clust_6="46.68085"></scales>
<clustering>
<clus scale="   39.548">  1  3  2 -1</clus>
<clus scale="   46.681">  1  6  2 -1</clus>
<clus scale="   87.049">  1  4  2 -1</clus>
<clus scale="   87.049">  2  3  1 -1</clus>
</clustering>
</event>
<event>
 6    0  0.2117869E+002  0.1394350E+03  0.7546771E-02  0.1214091E+00
         21   -1    0    0  503  502  0.00000000000E+00  0.00000000000E+00  0.15861058739E+04  0.15861058739E+04  0.00000000000E+00 0. -1.
          2   -1    0    0  505    0 -0.00000000000E+00 -0.00000000000E+00 -0.39477590868E+03  0.39477590868E+03  0.00000000000E+00 0. -1.
         21    1    1    2  503  501  0.55474567129E+02  0.12829772454E+03  0.15324079048E+04  0.15387695475E+04  0.00000000000E+00 0. -1.
         21    1    1    2  504  502 -0.40861613750E+02 -0.15080338577E+02  0.23639835041E+02  0.49557339423E+02  0.00000000000E+00 0.  1.
         21    1    1    2  505  504  0.32109387927E+02 -0.17565555095E+02 -0.66498706884E+02  0.75905464468E+02  0.00000000000E+00 0.  1.
          2    1    1    2  501    0 -0.46722341305E+02 -0.95651830867E+02 -0.29821906771E+03  0.31664943119E+03  0.00000000000E+00 0. -1.
<scales pt_clust_3="139.43503" pt_clust_4="42.60707" pt_clust_5="36.60002" pt_clust_6="14000.00000"></scales>
<clustering>
<clus scale="   36.600">  2  5  1 -1</clus>
<clus scale="   42.607">  2  4  1 -1</clus>
<clus scale="  139.435">  1  3  2 -1</clus>
<clus scale="  139.435">  1  3  2 -1</clus>
</clustering>
</event>
<event>
 6    0  0.2117869E+002  0.7972622E+02  0.7546771E-02  0.1329830E+00
         21   -1    0    0  504  502  0.00000000000E+00  0.00000000000E+00  0.10182754396E+03  0.10182754396E+03  0.00000000000E+00 0.  1.
          2   -1    0    0  505    0 -0.00000000000E+00 -0.00000000000E+00 -0.22307937226E+04  0.22307937226E+04  0.00000000000E+00 0. -1.
         21    1    1    2  503  501  0.87617595510E+02  0.82243579427E+02  0.10242835402E+02  0.12060582522E+03  0.00000000000E+00 0.  1.
         21    1    1    2  504  503 -0.30756327654E+02 -0.29154739304E+02  0.17955802027E+02  0.46025659594E+02  0.00000000000E+00 0.  1.
         21    1    1    2  505  502 -0.11089848186E+02 -0.37509121561E+02 -0.88479990098E+02  0.96739999901E+02  0.00000000000E+00 0.  1.
          2    1    1    2  501    0 -0.45771419670E+02 -0.15579718562E+02 -0.20686848260E+04  0.20692497819E+04  0.00000000000E+00 0. -1.
<scales pt_clust_3="14000.00000" pt_clust_4="42.60106" pt_clust_5="39.11418" pt_clust_6="79.72622"></scales>
<clustering>
<clus scale="   39.114">  2  5  1 -1</clus>
<clus scale="   42.601">  1  4  2 -1</clus>
<clus scale="   79.726">  2  6  1 -1</clus>
<clus scale="   42.601">  1  3  2 -1</clus>
</clustering>
</event>
<event>
 6    0  0.2117869E+002  0.1188111E+03  0.7546771E-02  0.1245071E+00
         21   -1    0    0  504  502  0.00000000000E+00  0.00000000000E+00  0.65520064143E+02  0.65520064143E+02  0.00000000000E+00 0.  1.
          2   -1    0    0  503    0 -0.00000000000E+00 -0.00000000000E+00 -0.14789789874E+04  0.14789789874E+04  0.00000000000E+00 0.  1.
         21    1    1    2  503  502 -0.40198392996E+02 -0.27956086310E+02 -0.27173229530E+03  0.27610848207E+03  0.00000000000E+00 0.  1.
         21    1    1    2  504  505 -0.44263322832E+02  0.15709019372E+02 -0.23311136342E+02  0.52434951276E+02  0.00000000000E+00 0.  1.
         21    1    1    2  505  501 -0.55052202093E+02  0.25545370953E+02  0.23788490559E+02  0.65185912708E+02  0.00000000000E+00 0.  1.
          2    1    1    2  501    0  0.13951391792E+03 -0.13298304015E+02 -0.11422039822E+04  0.11507697055E+04  0.00000000000E+00 0.  1.
<scales pt_clust_3="48.96380" pt_clust_4="41.90387" pt_clust_5="41.90387" pt_clust_6="108.84458"></scales>
<clustering>
<clus scale="   41.904">  4  5 -1 -1</clus>
<clus scale="   48.964">  2  3  1 -1</clus>
<clus scale="  108.845">  2  6  1 -1</clus>
<clus scale="  118.811">  1  3  2 -1</clus>
</clustering>
</event>
<event>
 6    0  0.2117869E+002  0.1283550E+03  0.7546771E-02  0.1229917E+00
         21   -1    0    0  505  502  0.00000000000E+00  0.00000000000E+00  0.60474578556E+02  0.60474578556E+02  0.00000000000E+00 0. -1.
          1   -1    0    0  503    0 -0.00000000000E+00 -0.00000000000E+00 -0.19423763832E+04  0.19423763832E+04  0.00000000000E+00 0. -1.
         21    1    1    2  503  502 -0.80714209064E+02 -0.25464486792E+02 -0.98204531091E+03  0.98568565797E+03  0.00000000000E+00 0. -1.
         21    1    1    2  504  501  0.36976425056E+02  0.67417985254E+02 -0.39962399998E+02  0.86656991404E+02  0.00000000000E+00 0. -1.
         21    1    1    2  505  504  0.83151760652E+01  0.42635158991E+02  0.18590959226E+02  0.47249578836E+02  0.00000000000E+00 0. -1.
          1    1    1    2  501    0  0.35422607943E+02 -0.84588657453E+02 -0.87848505299E+03  0.88325873358E+03  0.00000000000E+00 0. -1.
<scales pt_clust_3="84.63583" pt_clust_4="43.25025" pt_clust_5="43.25025" pt_clust_6="114.73365"></scales>
<clustering>
<clus scale="   43.250">  4  5 -1 -1</clus>
<clus scale="   84.636">  2  3  1 -1</clus>
<clus scale="  114.734">  2  6  1 -1</clus>
<clus scale="  128.355">  1  3  2 -1</clus>
</clustering>
</event>
<event>
 6    0  0.2117869E+002  0.8340242E+02  0.7546771E-02  0.1319664E+00
         21   -1    0    0  503  502  0.00000000000E+00  0.00000000000E+00  0.20845324582E+04  0.20845324582E+04  0.00000000000E+00 0. -1.
          2   -1    0    0  504    0 -0.00000000000E+00 -0.00000000000E+00 -0.69230861358E+03  0.69230861358E+03  0.00000000000E+00 0.  1.
         21    1    1    2  503  501 -0.67803029836E+02  0.33275383363E+02  0.53719529195E+03  0.54247883248E+03  0.00000000000E+00 0. -1.
         21    1    1    2  504  505  0.92835094561E+00  0.61434418184E+02 -0.34495424341E+02  0.70462641687E+02  0.00000000000E+00 0. -1.
         21    1    1    2  505  502  0.27158029220E+02 -0.15958122117E+02  0.15234960283E+04  0.15238216327E+04  0.00000000000E+00 0. -1.
          2    1    1    2  501    0  0.39716649670E+02 -0.78751679430E+02 -0.63397205129E+03  0.64007796486E+03  0.00000000000E+00 0.  1.
<scales pt_clust_3="45.35231" pt_clust_4="83.40242" pt_clust_5="31.49953" pt_clust_6="14000.00000"></scales>
<clustering>
<clus scale="   31.500">  1  5  2 -1</clus>
<clus scale="   45.352">  1  3  2 -1</clus>
<clus scale="   83.402">  1  4  2 -1</clus>
<clus scale="   31.500">  1  3  2 -1</clus>
</clustering>
</event>
<event>
 6    0  0.2117869E+002  0.1218593E+03  0.7546771E-02  0.1240061E+00
         21   -1    0    0  503  502  0.00000000000E+00  0.00000000000E+00  0.74014309270E+02  0.74014309270E+02  0.00000000000E+00 0. -1.
          1   -1    0    0  504    0 -0.00000000000E+00 -0.00000000000E+00 -0.23346027352E+04  0.23346027352E+04  0.00000000000E+00 0. -1.
         21    1    1    2  503  501  0.90670645556E+02  0.80582637867E+02  0.13734007548E+02  0.12207927938E+03  0.00000000000E+00 0. -1.
         21    1    1    2  504  505  0.37908851667E+01 -0.36997802190E+02 -0.52145716004E+03  0.52278176894E+03  0.00000000000E+00 0. -1.
         21    1    1    2  505  502  0.33747696029E+02  0.19768808812E+02 -0.16988346043E+03  0.17432757360E+03  0.00000000000E+00 0.  1.
          1    1    1    2  501    0 -0.12820922675E+03 -0.63353644489E+02 -0.15829818130E+04  0.15894284226E+04  0.00000000000E+00 0. -1.
<scales pt_clust_3="14000.00000" pt_clust_4="37.19151" pt_clust_5="37.78332" pt_clust_6="121.85933"></scales>
<clustering>
<clus scale="   37.192">  2  4  1 -1</clus>
<clus scale="   37.783">  2  5  1 -1</clus>
<clus scale="  121.859">  2  6  1 -1</clus>
<clus scale="  121.859">  1  3  2 -1</clus>
</clustering>
</event>
<event>
 6    0  0.2117869E+002  0.8471232E+02  0.7546771E-02  0.1316187E+00
         21   -1    0    0  505  502  0.00000000000E+00  0.00000000000E+00  0.86545556463E+03  0.86545556463E+03  0.00000000000E+00 0. -1.
         -1   -1    0    0    0  501 -0.00000000000E+00 -0.00000000000E+00 -0.24318633300E+03  0.24318633300E+03  0.00000000000E+00 0. -1.
         21    1    1    2  503  502 -0.86671452279E+02  0.28504694700E+02  0.72192071684E+03  0.72766336974E+03  0.00000000000E+00 0. -1.
         21    1    1    2  504  501 -0.23893900510E+02 -0.35300673965E+02 -0.10698275581E+03  0.11516234673E+03  0.00000000000E+00 0. -1.
         21    1    1    2  505  504  0.67872351521E+01 -0.50240772369E+02  0.10219923361E+03  0.11408279940E+03  0.00000000000E+00 0. -1.
         -1    1    1    2    0  503  0.10377811764E+03  0.57036751633E+02 -0.94867963010E+02  0.15173338177E+03  0.00000000000E+00 0. -1.
<scales pt_clust_3="84.71232" pt_clust_4="42.62694" pt_clust_5="52.14229" pt_clust_6="14000.00000"></scales>
<clustering>
<clus scale="   42.627">  2  4  1 -1</clus>
<clus scale="   52.142">  1  5  2 -1</clus>
<clus scale="   84.712">  1  3  2 -1</clus>
<clus scale="   52.142">  1  3  2 -1</clus>
</clustering>
</event>
<event>
 6    0  0.2117869E+002  0.1351751E+03  0.7546771E-02  0.1219973E+00
         21   -1    0    0  504  502  0.00000000000E+00  0.00000000000E+00  0.16016559174E+03  0.16016559174E+03  0.00000000000E+00 0.  1.
          2   -1    0    0  505    0 -0.00000000000E+00 -0.00000000000E+00 -0.99465921256E+03  0.99465921256E+03  0.00000000000E+00 0.  1.
         21    1    1    2  503  502  0.16794297184E+02 -0.12909042752E+03 -0.33386186164E+02  0.13439131044E+03  0.00000000000E+00 0.  1.
         21    1    1    2  504  501  0.33430752069E+02 -0.20586131814E+00  0.98830226051E+02  0.10433154434E+03  0.00000000000E+00 0.  1.
         21    1    1    2  505  503 -0.28371194438E+02  0.10085638977E+02 -0.56701071724E+02  0.64200127119E+02  0.00000000000E+00 0. -1.
          2    1    1    2  501    0 -0.21853854815E+02  0.11921064986E+03 -0.84323658898E+03  0.85190182240E+03  0.00000000000E+00 0.  1.
<scales pt_clust_3="135.17510" pt_clust_4="33.34768" pt_clust_5="30.11054" pt_clust_6="14000.00000"></scales>
<clustering>
<clus scale="   30.111">  2  5  1 -1</clus>
<clus scale="   33.348">  1  4  2 -1</clus>
<clus scale="  135.175">  1  3  2 -1</clus>
<clus scale="   33.348">  1  3  2 -1</clus>
</clustering>
</event>
<event>
 6    0  0.2117869E+002  0.2791089E+03  0.7546771E-02  0.1096177E+00
         21   -1    0    0  503  502  0.00000000000E+00  0.00000000000E+00  0.19583798348E+03  0.19583798348E+03  0.00000000000E+00 0. -1.
          2   -1    0    0  505    0 -0.00000000000E+00 -0.00000000000E+00 -0.20019297248E+04  0.20019297248E+04  0.00000000000E+00 0.  1.
         21    1    1    2  503  501 -0.55826889141E+02 -0.24857574823E+02 -0.14697575987E+01  0.61128559321E+02  0.00000000000E+00 0. -1.
         21    1    1    2  504  502 -0.29904624910E+02  0.28047889638E+03 -0.18983320129E+01  0.28207499281E+03  0.00000000000E+00 0. -1.
         21    1    1    2  505  504 -0.29037432640E+02  0.76682677248E+02 -0.41304518030E+03  0.42110536265E+03  0.00000000000E+00 0. -1.
          2    1    1    2  501    0  0.11476894669E+03 -0.33230399880E+03 -0.13896784714E+04  0.14334587935E+04  0.00000000000E+00 0.  1.
<scales pt_clust_3="61.11089" pt_clust_4="14000.00000" pt_clust_5="81.92536" pt_clust_6="279.10887"></scales>
<clustering>
<clus scale="   61.111">  1  3  2 -1</clus>
<clus scale="   81.925">  2  5  1 -1</clus>
<clus scale="  279.109">  2  6  1 -1</clus>
<clus scale="   61.111">  1  3  2 -1</clus>
</clustering>
</event>
<event>
 6    0  0.2117869E+002  0.1054418E+03  0.7546771E-02  0.1269252E+00
         21   -1    0    0  503  502  0.00000000000E+00  0.00000000000E+00  0.55582722115E+02  0.55582722115E+02  0.00000000000E+00 0.  1.
          1   -1    0    0  505    0 -0.00000000000E+00 -0.00000000000E+00 -0.12105347058E+04  0.12105347058E+04  0.00000000000E+00 0. -1.
         21    1    1    2  503  501  0.53753521182E+02  0.21094820750E+02 -0.30792529874E+02  0.65441671723E+02  0.00000000000E+00 0.  1.
         21    1    1    2  504  502  0.47719804750E+01 -0.34595792119E+02  0.14859508712E+02  0.37953203147E+02  0.00000000000E+00 0.  1.
         21    1    1    2  505  504  0.38768021021E+02 -0.83979001804E+02 -0.55718832113E+03  0.56481347133E+03  0.00000000000E+00 0.  1.
          1    1    1    2  501    0 -0.97293522678E+02  0.97479973173E+02 -0.58183064135E+03  0.59790908167E+03  0.00000000000E+00 0. -1.
<scales pt_clust_3="56.58976" pt_clust_4="34.92335" pt_clust_5="105.44179" pt_clust_6="14000.00000"></scales>
<clustering>
<clus scale="   34.923">  1  4  2 -1</clus>
<clus scale="   56.590">  1  3  2 -1</clus>
<clus scale="  105.442">  2  5  1 -1</clus>
<clus scale="   34.923">  1  3  2 -1</clus>
</clustering>
</event>
<event>
 6    0  0.2117869E+002  0.1200013E+03  0.7546771E-02  0.1243095E+00
          2   -1    0    0  503    0 -0.00000000000E+00  0.00000000000E+00  0.11345411647E+04  0.11345411647E+04  0.00000000000E+00 0. -1.
         21   -1    0    0  501  502  0.00000000000E+00 -0.00000000000E+00 -0.21494447174E+03  0.21494447174E+03  0.00000000000E+00 0.  1.
         21    1    1    2  503  505  0.98604185808E+01  0.29238569991E+02  0.45569721831E+03  0.45674071048E+03  0.00000000000E+00 0.  1.
         21    1    1    2  504  502  0.32522663514E+02 -0.10965850076E+02 -0.18502430078E+03  0.18818067219E+03  0.00000000000E+00 0.  1.
         21    1    1    2  505  504  0.90531264455E+02  0.34490192943E+02  0.10812457443E+03  0.14517715677E+03  0.00000000000E+00 0.  1.
          2    1    1    2  501    0 -0.13291434655E+03 -0.52762912858E+02  0.54079920102E+03  0.55938709702E+03  0.00000000000E+00 0. -1.
<scales pt_clust_3="30.85647" pt_clust_4="34.32170" pt_clust_5="120.00132" pt_clust_6="14000.00000"></scales>
<clustering>
<clus scale="   30.856">  1  3  2 -1</clus>
<clus scale="   34.322">  2  4  1 -1</clus>
<clus scale="  120.001">  2  5  1 -1</clus>
<clus scale="   34.322">  2  3  1 -1</clus>
</clustering>
</event>
<event>
 6    0  0.2117869E+002  0.1122875E+03  0.7546771E-02  0.1256391E+00
         21   -1    0    0  504  502  0.00000000000E+00  0.00000000000E+00  0.16259374038E+03  0.16259374038E+03  0.00000000000E+00 0.  1.
         -4   -1    0    0    0  501 -0.00000000000E+00 -0.00000000000E+00 -0.11856599664E+04  0.11856599664E+04  0.00000000000E+00 0. -1.
         21    1    1    2  503  501  0.47841114716E+02 -0.88117700179E+01 -0.18533011558E+03  0.19160811906E+03  0.00000000000E+00 0. -1.
         21    1    1    2  504  503 -0.88607176016E+01  0.39817262070E+02 -0.25983738488E+02  0.48364050088E+02  0.00000000000E+00 0. -1.
         21    1    1    2  505  502 -0.10186246617E+03 -0.60018737127E+01  0.12934819132E+03  0.16475114294E+03  0.00000000000E+00 0.  1.
         -4    1    1    2    0  505  0.62882069051E+02 -0.25003618339E+02 -0.94110056323E+03  0.94353039466E+03  0.00000000000E+00 0. -1.
<scales pt_clust_3="48.32193" pt_clust_4="40.79126" pt_clust_5="14000.00000" pt_clust_6="112.28754"></scales>
<clustering>
<clus scale="   40.791">  1  4  2 -1</clus>
<clus scale="   48.322">  2  3  1 -1</clus>
<clus scale="  112.288">  2  6  1 -1</clus>
<clus scale="   40.791">  1  3  2 -1</clus>
</clustering>
</event>
<event>
 6    0  0.2117869E+002  0.7293627E+02  0.7546771E-02  0.1350384E+00
         21   -1    0    0  503  502  0.00000000000E+00  0.00000000000E+00  0.13123574374E+04  0.13123574374E+04  0.00000000000E+00 0. -1.
         -1   -1    0    0    0  501 -0.00000000000E+00 -0.00000000000E+00 -0.67058998210E+03  0.67058998210E+03  0.00000000000E+00 0. -1.
         21    1    1    2  503  504  0.34602421695E+01 -0.69546569193E+02  0.91322032708E+03  0.91587120511E+03  0.00000000000E+00 0. -1.
         21    1    1    2  504  501  0.10770224063E+02  0.58494883418E+02 -0.56194861790E+03  0.56508751382E+03  0.00000000000E+00 0. -1.
         21    1    1    2  505  502 -0.39099181381E+02  0.83308154539E+02  0.37612532865E+03  0.38721990839E+03  0.00000000000E+00 0.  1.
         -1    1    1    2    0  505  0.24868715149E+02 -0.72256468765E+02 -0.85629582485E+02  0.11476879222E+03  0.00000000000E+00 0. -1.
<scales pt_clust_3="72.93627" pt_clust_4="59.47814" pt_clust_5="14000.00000" pt_clust_6="39.09163"></scales>
<clustering>
<clus scale="   59.478">  2  4  1 -1</clus>
<clus scale="   39.092">  2  6  1 -1</clus>
<clus scale="   72.936">  1  3  2 -1</clus>
<clus scale="   72.936">  1  3  2 -1</clus>
</clustering>
</event>
<event>
 6    0  0.2117869E+002  0.2385191E+03  0.7546771E-02  0.1120783E+00
         21   -1    0    0  503  502  0.00000000000E+00  0.00000000000E+00  0.58979693840E+03  0.58979693840E+03  0.00000000000E+00 0.  1.
          2   -1    0    0  505    0 -0.00000000000E+00 -0.00000000000E+00 -0.91819446922E+03  0.91819446922E+03  0.00000000000E+00 0. -1.
         21    1    1    2  503  501 -0.36145905488E+02  0.10421192194E+02  0.35310884430E+03  0.35510700311E+03  0.00000000000E+00 0.  1.
         21    1    1    2  504  502  0.23063754132E+03 -0.13078425699E+03  0.11312235795E+03  0.28826179978E+03  0.00000000000E+00 0. -1.
         21    1    1    2  505  504  0.43976695312E+02 -0.30585039376E+02 -0.79952785356E+02  0.96238465544E+02  0.00000000000E+00 0.  1.
          2    1    1    2  501    0 -0.23846833114E+03  0.15094810417E+03 -0.71467594772E+03  0.76838413919E+03  0.00000000000E+00 0. -1.
<scales pt_clust_3="37.61818" pt_clust_4="14000.00000" pt_clust_5="52.33758" pt_clust_6="238.51908"></scales>
<clustering>
<clus scale="   37.618">  1  3  2 -1</clus>
<clus scale="   52.338">  2  5  1 -1</clus>
<clus scale="  238.519">  2  6  1 -1</clus>
<clus scale="   37.618">  1  3  2 -1</clus>
</clustering>
</event>
<event>
 6    0  0.2117869E+002  0.1253804E+03  0.7546771E-02  0.1234476E+00
         21   -1    0    0  505  502  0.00000000000E+00  0.00000000000E+00  0.11931596923E+04  0.11931596923E+04  0.00000000000E+00 0. -1.
          1   -1    0    0  504    0 -0.00000000000E+00 -0.00000000000E+00 -0.27933698754E+03  0.27933698754E+03  0.00000000000E+00 0.  1.
         21    1    1    2  503  501 -0.56253250226E+02 -0.82670971112E+02 -0.10842331283E+02  0.10058068290E+03  0.00000000000E+00 0.  1.
         21    1    1    2  504  502  0.65267148115E+02  0.48580094818E+02  0.10314486352E+04  0.10346526535E+04  0.00000000000E+00 0. -1.
         21    1    1    2  505  503  0.46256214160E+02  0.26493790806E+02  0.10526807025E+03  0.11799544447E+03  0.00000000000E+00 0.  1.
          1    1    1    2  501    0 -0.55270112049E+02  0.75970854878E+01 -0.21205166946E+03  0.21926789896E+03  0.00000000000E+00 0.  1.
<scales pt_clust_3="14000.00000" pt_clust_4="125.38039" pt_clust_5="53.30627" pt_clust_6="55.64906"></scales>
<clustering>
<clus scale="   53.306">  1  5  2 -1</clus>
<clus scale="   55.649">  2  6  1 -1</clus>
<clus scale="  125.380">  1  4  2 -1</clus>
<clus scale="   53.306">  1  3  2 -1</clus>
</clustering>
</event>
<event>
 6    0  0.2117869E+002  0.7891380E+02  0.7546771E-02  0.1332162E+00
          2   -1    0    0  505    0 -0.00000000000E+00  0.00000000000E+00  0.21143951798E+04  0.21143951798E+04  0.00000000000E+00 0.  1.
         21   -1    0    0  503  502  0.00000000000E+00 -0.00000000000E+00 -0.85165948229E+02  0.85165948229E+02  0.00000000000E+00 0.  1.
         21    1    1    2  503  501 -0.52150568935E+02  0.19049895957E+02 -0.50819549394E+02  0.75267569224E+02  0.00000000000E+00 0.  1.
         21    1    1    2  504  502 -0.27273150340E+02 -0.22125127268E+02 -0.22102044112E+01  0.35188506499E+02  0.00000000000E+00 0.  1.
         21    1    1    2  505  504 -0.31677677108E+02 -0.34785909287E+02  0.40026342673E+03  0.40301903862E+03  0.00000000000E+00 0.  1.
          2    1    1    2  501    0  0.11110139638E+03  0.37861140598E+02  0.16819955586E+04  0.16860860137E+04  0.00000000000E+00 0.  1.
<scales pt_clust_3="78.91380" pt_clust_4="35.11903" pt_clust_5="47.76810" pt_clust_6="14000.00000"></scales>
<clustering>
<clus scale="   35.119">  2  4  1 -1</clus>
<clus scale="   47.768">  1  5  2 -1</clus>
<clus scale="   78.914">  2  3  1 -1</clus>
<clus scale="   35.119">  2  3  1 -1</clus>
</clustering>
</event>
<event>
 6    0  0.2117869E+002  0.1306676E+03  0.7546771E-02  0.1226469E+00
         21   -1    0    0  504  502  0.00000000000E+00  0.00000000000E+00  0.30087458350E+03  0.30087458350E+03  0.00000000000E+00 0.  1.
         -1   -1    0    0    0  501 -0.00000000000E+00 -0.00000000000E+00 -0.83352392624E+03  0.83352392624E+03  0.00000000000E+00 0.  1.
         21    1    1    2  503  505  0.21140580243E+02  0.65933616859E+02  0.21307133631E+02  0.72444184782E+02  0.00000000000E+00 0.  1.
         21    1    1    2  504  503 -0.16262236087E-01  0.43720696965E+02  0.21836806465E+03  0.22270184387E+03  0.00000000000E+00 0.  1.
         21    1    1    2  505  501 -0.85474614681E+02  0.26740429449E+02 -0.52530378159E+02  0.10382870967E+03  0.00000000000E+00 0.  1.
         -1    1    1    2    0  502  0.64350296674E+02 -0.13639474327E+03 -0.71979416286E+03  0.73542377141E+03  0.00000000000E+00 0.  1.
<scales pt_clust_3="93.85305" pt_clust_4="43.72070" pt_clust_5="130.66759" pt_clust_6="14000.00000"></scales>
<clustering>
<clus scale="   43.721">  1  4  2 -1</clus>
<clus scale="   93.853">  1  3  2 -1</clus>
<clus scale="  130.668">  1  5  2 -1</clus>
<clus scale="   43.721">  1  3  2 -1</clus>
</clustering>
</event>
<event>
 6    0  0.2117869E+002  0.1155642E+03  0.7546771E-02  0.1250599E+00
         21   -1    0    0  503  502  0.00000000000E+00  0.00000000000E+00  0.47771221231E+03  0.47771221231E+03  0.00000000000E+00 0. -1.
          2   -1    0    0  504    0 -0.00000000000E+00 -0.00000000000E+00 -0.44051907959E+04  0.44051907959E+04  0.00000000000E+00 0.  1.
         21    1    1    2  503  501  0.16234448518E+02  0.25456695907E+02 -0.10830439460E+02  0.32076457162E+02  0.00000000000E+00 0.  1.
         21    1    1    2  504  505 -0.25725000787E+02 -0.10802634379E+03 -0.35127313480E+04  0.35144861630E+04  0.00000000000E+00 0.  1.
         21    1    1    2  505  502  0.98771017200E+02 -0.41028742538E+02  0.45326046476E+03  0.46570819240E+03  0.00000000000E+00 0. -1.
          2    1    1    2  501    0 -0.89280464931E+02  0.12359839042E+03 -0.85717726090E+03  0.87063219567E+03  0.00000000000E+00 0.  1.
<scales pt_clust_3="30.19273" pt_clust_4="110.99356" pt_clust_5="115.56421" pt_clust_6="14000.00000"></scales>
<clustering>
<clus scale="   30.193">  1  3  2 -1</clus>
<clus scale="  110.994">  2  4  1 -1</clus>
<clus scale="  115.564">  1  5  2 -1</clus>
<clus scale="   30.193">  1  3  2 -1</clus>
</clustering>
</event>
<event>
 6    0  0.2117869E+002  0.1159085E+03  0.7546771E-02  0.1250003E+00
          2   -1    0    0  505    0 -0.00000000000E+00  0.00000000000E+00  0.66699926085E+03  0.66699926085E+03  0.00000000000E+00 0.  1.
         21   -1    0    0  501  502  0.00000000000E+00 -0.00000000000E+00 -0.10825227951E+04  0.10825227951E+04  0.00000000000E+00 0. -1.
         21    1    1    2  503  504  0.86875925508E+02 -0.65527467549E+02 -0.36451801606E+03  0.38041380031E+03  0.00000000000E+00 0. -1.
         21    1    1    2  504  502  0.23217009073E+02  0.26877011186E+02 -0.70150076250E+03  0.70239926184E+03  0.00000000000E+00 0. -1.
         21    1    1    2  505  503 -0.75836167511E+01  0.42105260116E+02  0.22448471234E+03  0.22852516327E+03  0.00000000000E+00 0. -1.
          2    1    1    2  501    0 -0.10250931783E+03 -0.34548037533E+01  0.42601053201E+03  0.43818383048E+03  0.00000000000E+00 0.  1.
<scales pt_clust_3="14000.00000" pt_clust_4="35.51624" pt_clust_5="42.90157" pt_clust_6="115.90854"></scales>
<clustering>
<clus scale="   35.516">  2  4  1 -1</clus>
<clus scale="   42.902">  1  5  2 -1</clus>
<clus scale="  115.909">  1  6  2 -1</clus>
<clus scale="   35.516">  2  3  1 -1</clus>
</clustering>
</event>
<event>
 6    0  0.2117869E+002  0.1317769E+03  0.7546771E-02  0.1224843E+00
         21   -1    0    0  503  502  0.00000000000E+00  0.00000000000E+00  0.12004600493E+03  0.12004600493E+03  0.00000000000E+00 0. -1.
          2   -1    0    0  505    0 -0.00000000000E+00 -0.00000000000E+00 -0.93782472886E+03  0.93782472886E+03  0.00000000000E+00 0. -1.
         21    1    1    2  503  501 -0.30240525479E+02  0.10919558345E+03  0.65816916601E+02  0.13103446622E+03  0.00000000000E+00 0. -1.
         21    1    1    2  504  502  0.21239924097E+02  0.24105953017E+02 -0.25028907839E+02  0.40726865508E+02  0.00000000000E+00 0. -1.
         21    1    1    2  505  504  0.37967937524E+02  0.80029848996E+01 -0.47058466237E+03  0.47218167744E+03  0.00000000000E+00 0. -1.
          2    1    1    2  501    0 -0.28967336142E+02 -0.14130452136E+03 -0.38798207032E+03  0.41392772463E+03  0.00000000000E+00 0. -1.
<scales pt_clust_3="131.77688" pt_clust_4="32.12836" pt_clust_5="38.98576" pt_clust_6="14000.00000"></scales>
<clustering>
<clus scale="   32.128">  1  4  2 -1</clus>
<clus scale="   38.986">  2  5  1 -1</clus>
<clus scale="  131.777">  1  3  2 -1</clus>
<clus scale="   32.128">  1  3  2 -1</clus>
</clustering>
</event>
<event>
 6    0  0.2117869E+002  0.1014881E+03  0.7546771E-02  0.1277197E+00
         21   -1    0    0  503  502  0.00000000000E+00  0.00000000000E+00  0.24893103456E+03  0.24893103456E+03  0.00000000000E+00 0.  1.
          2   -1    0    0  505    0 -0.00000000000E+00 -0.00000000000E+00 -0.17219757560E+03  0.17219757560E+03  0.00000000000E+00 0.  1.
         21    1    1    2  503  504 -0.85564158051E+02  0.34413363229E+02  0.28720180650E+02  0.96593754913E+02  0.00000000000E+00 0.  1.
         21    1    1    2  504  501 -0.37973865102E+02 -0.13857372182E+02 -0.83096926823E+01  0.41268537496E+02  0.00000000000E+00 0.  1.
         21    1    1    2  505  502  0.48155629927E+02  0.34132283688E+01  0.15179252642E+03  0.15928460660E+03  0.00000000000E+00 0.  1.
          2    1    1    2  501    0  0.75382393226E+02 -0.23969219416E+02 -0.95469555427E+02  0.12398171116E+03  0.00000000000E+00 0.  1.
<scales pt_clust_3="35.68462" pt_clust_4="35.68462" pt_clust_5="48.27644" pt_clust_6="85.99187"></scales>
<clustering>
<clus scale="   35.685">  3  4 -1 -1</clus>
<clus scale="   48.276">  1  5  2 -1</clus>
<clus scale="   85.992">  2  6  1 -1</clus>
<clus scale="   48.276">  1  3  2 -1</clus>
</clustering>
</event>
<event>
 6    0  0.2117869E+002  0.6650386E+02  0.7546771E-02  0.1372402E+00
          2   -1    0    0  505    0 -0.00000000000E+00  0.00000000000E+00  0.28735500474E+04  0.28735500474E+04  0.00000000000E+00 0. -1.
         21   -1    0    0  501  502  0.00000000000E+00 -0.00000000000E+00 -0.14735335204E+02  0.14735335204E+02  0.00000000000E+00 0. -1.
         21    1    1    2  503  502 -0.78683959273E+01  0.44281994092E+02  0.16033950483E+03  0.16652796601E+03  0.00000000000E+00 0. -1.
         21    1    1    2  504  503 -0.51104245786E+02  0.19329393979E+02  0.27285711235E+03  0.27827373783E+03  0.00000000000E+00 0. -1.
         21    1    1    2  505  504 -0.61706595185E+02 -0.16891272768E+02  0.19358809715E+04  0.19369378294E+04  0.00000000000E+00 0. -1.
          2    1    1    2  501    0  0.12067923690E+03 -0.46720115303E+02  0.48973712354E+03  0.50654584942E+03  0.00000000000E+00 0. -1.
<scales pt_clust_3="44.97562" pt_clust_4="60.66408" pt_clust_5="14000.00000" pt_clust_6="66.50386"></scales>
<clustering>
<clus scale="   44.976">  2  3  1 -1</clus>
<clus scale="   60.664">  2  4  1 -1</clus>
<clus scale="   66.504">  2  6  1 -1</clus>
<clus scale="   44.976">  2  3  1 -1</clus>
</clustering>
</event>
<event>
 6    0  0.2117869E+002  0.1211256E+03  0.7546771E-02  0.1241252E+00
          1   -1    0    0  504    0 -0.00000000000E+00  0.00000000000E+00  0.79190873049E+03  0.79190873049E+03  0.00000000000E+00 0.  1.
         21   -1    0    0  503  502  0.00000000000E+00 -0.00000000000E+00 -0.18600833336E+04  0.18600833336E+04  0.00000000000E+00 0. -1.
         21    1    1    2  503  501 -0.15395050698E+03  0.71474948112E+02 -0.16768610672E+04  0.16854294602E+04  0.00000000000E+00 0. -1.
         21    1    1    2  504  505  0.25834790513E+02  0.28218919066E+02  0.43309799973E+03  0.43478456869E+03  0.00000000000E+00 0. -1.
         21    1    1    2  505  502  0.32182702260E+02 -0.69594433491E+02 -0.16216424120E+03  0.17937768150E+03  0.00000000000E+00 0.  1.
          1    1    1    2  501    0  0.95933014209E+02 -0.30099433688E+02  0.33775270556E+03  0.35240035363E+03  0.00000000000E+00 0.  1.
<scales pt_clust_3="14000.00000" pt_clust_4="38.25890" pt_clust_5="76.32498" pt_clust_6="121.12560"></scales>
<clustering>
<clus scale="   38.259">  1  4  2 -1</clus>
<clus scale="   76.325">  2  5  1 -1</clus>
<clus scale="  121.126">  1  6  2 -1</clus>
<clus scale="   76.325">  2  3  1 -1</clus>
</clustering>
</event>
<event>
 6    0  0.2117869E+002  0.7917569E+02  0.7546771E-02  0.1331407E+00
          1   -1    0    0  505    0 -0.00000000000E+00  0.00000000000E+00  0.40059934244E+04  0.40059934244E+04  0.00000000000E+00 0. -1.
         21   -1    0    0  503  502  0.00000000000E+00 -0.00000000000E+00 -0.23780361242E+03  0.23780361242E+03  0.00000000000E+00 0.  1.
         21    1    1    2  503  504 -0.20797956321E+02 -0.38552176624E+02 -0.20491356843E+03  0.20954330301E+03  0.00000000000E+00 0.  1.
         21    1    1    2  504  501  0.47654833718E+02 -0.44528351724E+02  0.79298795701E+03  0.79566554359E+03  0.00000000000E+00 0. -1.
         21    1    1    2  505  502  0.62829407172E+02  0.71271912282E+02  0.50373701492E+02  0.10753943318E+03  0.00000000000E+00 0. -1.
          1    1    1    2  501    0 -0.89686284569E+02  0.11808616066E+02  0.31297417220E+04  0.31310487571E+04  0.00000000000E+00 0. -1.
<scales pt_clust_3="43.80440" pt_clust_4="79.17569" pt_clust_5="55.88994" pt_clust_6="14000.00000"></scales>
<clustering>
<clus scale="   43.804">  2  3  1 -1</clus>
<clus scale="   55.890">  2  5  1 -1</clus>
<clus scale="   79.176">  2  4  1 -1</clus>
<clus scale="   43.804">  2  3  1 -1</clus>
</clustering>
</event>
<event>
 6    0  0.2117869E+002  0.8357180E+02  0.7546771E-02  0.1319210E+00
          2   -1    0    0  505    0 -0.00000000000E+00  0.00000000000E+00  0.36106848976E+04  0.36106848976E+04  0.00000000000E+00 0. -1.
         21   -1    0    0  503  502  0.00000000000E+00 -0.00000000000E+00 -0.21789491433E+04  0.21789491433E+04  0.00000000000E+00 0. -1.
         21    1    1    2  503  504  0.43397424864E+02  0.17397589683E+02 -0.19794142724E+04  0.19799663821E+04  0.00000000000E+00 0. -1.
         21    1    1    2  504  501 -0.86653777317E+02  0.53628531714E+02 -0.17642747154E+03  0.20374383243E+03  0.00000000000E+00 0. -1.
         21    1    1    2  505  502 -0.39829394513E+02 -0.15325895286E+02  0.45307352587E+02  0.62241625396E+02  0.00000000000E+00 0.  1.
          2    1    1    2  501    0  0.83085746966E+02 -0.55700226112E+02  0.35422701456E+04  0.35436822009E+04  0.00000000000E+00 0. -1.
<scales pt_clust_3="46.75150" pt_clust_4="14000.00000" pt_clust_5="42.67627" pt_clust_6="83.57180"></scales>
<clustering>
<clus scale="   42.676">  1  5  2 -1</clus>
<clus scale="   46.752">  2  3  1 -1</clus>
<clus scale="   83.572">  1  6  2 -1</clus>
<clus scale="   46.752">  2  3  1 -1</clus>
</clustering>
</event>
<event>
 6    0  0.2117869E+002  0.1076033E+03  0.7546771E-02  0.1265074E+00
         21   -1    0    0  504  502  0.00000000000E+00  0.00000000000E+00  0.58991215679E+02  0.58991215679E+02  0.00000000000E+00 0.  1.
          2   -1    0    0  503    0 -0.00000000000E+00 -0.00000000000E+00 -0.27003477918E+04  0.27003477918E+04  0.00000000000E+00 0.  1.
         21    1    1    2  503  505 -0.34677843634E+02 -0.48205189399E+02 -0.21250722149E+04  0.21259017409E+04  0.00000000000E+00 0.  1.
         21    1    1    2  504  501 -0.99575060362E+01  0.29178310658E+02  0.13338836511E+02  0.33592414304E+02  0.00000000000E+00 0.  1.
         21    1    1    2  505  502 -0.71013985429E+02 -0.53425440196E+01 -0.45395819874E+03  0.45951014690E+03  0.00000000000E+00 0.  1.
          2    1    1    2  501    0  0.11564933510E+03  0.24369422761E+02 -0.75664998957E+02  0.14033470541E+03  0.00000000000E+00 0.  1.
<scales pt_clust_3="59.17468" pt_clust_4="30.83060" pt_clust_5="14000.00000" pt_clust_6="107.60325"></scales>
<clustering>
<clus scale="   30.831">  1  4  2 -1</clus>
<clus scale="   59.175">  2  3  1 -1</clus>
<clus scale="  107.603">  1  6  2 -1</clus>
<clus scale="   30.831">  1  3  2 -1</clus>
</clustering>
</event>
<event>
 6    0  0.2117869E+002  0.9480796E+02  0.7546771E-02  0.1291609E+00
         21   -1    0    0  505  502  0.00000000000E+00  0.00000000000E+00  0.12058916488E+04  0.12058916488E+04  0.00000000000E+00 0.  1.
          2   -1    0    0  503    0 -0.00000000000E+00 -0.00000000000E+00 -0.74752173771E+02  0.74752173771E+02  0.00000000000E+00 0. -1.
         21    1    1    2  503  504 -0.42649837818E+02  0.19173435241E+02  0.76477276198E+01  0.47382665845E+02  0.00000000000E+00 0. -1.
         21    1    1    2  504  502  0.79468220749E+02 -0.37656831229E+02  0.32680138700E+03  0.33842633111E+03  0.00000000000E+00 0.  1.
         21    1    1    2  505  501 -0.82905712255E+02  0.12267528625E+03  0.76125681129E+03  0.77552209234E+03  0.00000000000E+00 0.  1.
          2    1    1    2  501    0  0.46087329324E+02 -0.10419189026E+03  0.35433549143E+02  0.11931273329E+03  0.00000000000E+00 0. -1.
<scales pt_clust_3="46.76141" pt_clust_4="82.98768" pt_clust_5="14000.00000" pt_clust_6="94.80796"></scales>
<clustering>
<clus scale="   46.761">  2  3  1 -1</clus>
<clus scale="   82.988">  1  4  2 -1</clus>
<clus scale="   94.808">  2  6  1 -1</clus>
<clus scale="   82.988">  1  3  2 -1</clus>
</clustering>
</event>
<event>
 6    0  0.2117869E+002  0.2101446E+03  0.7546771E-02  0.1141452E+00
          1   -1    0    0  504    0 -0.00000000000E+00  0.00000000000E+00  0.25406178215E+03  0.25406178215E+03  0.00000000000E+00 0. -1.
         21   -1    0    0  503  502  0.00000000000E+00 -0.00000000000E+00 -0.37091647625E+03  0.37091647625E+03  0.00000000000E+00 0.  1.
         21    1    1    2  503  501  0.29964528388E+02  0.42312083248E+02 -0.66986819272E+02  0.84707846782E+02  0.00000000000E+00 0. -1.
         21    1    1    2  504  505 -0.19201532577E+02 -0.25836506958E+02  0.68789358386E+02  0.75948665375E+02  0.00000000000E+00 0. -1.
         21    1    1    2  505  502  0.86244831196E+02 -0.20371887735E+03 -0.12354831147E+03  0.25338456379E+03  0.00000000000E+00 0.  1.
          1    1    1    2  501    0 -0.97007827007E+02  0.18724330106E+03  0.48910782643E+01  0.21093718245E+03  0.00000000000E+00 0. -1.
<scales pt_clust_3="50.27833" pt_clust_4="32.19043" pt_clust_5="210.14459" pt_clust_6="14000.00000"></scales>
<clustering>
<clus scale="   32.190">  1  4  2 -1</clus>
<clus scale="   50.278">  2  3  1 -1</clus>
<clus scale="  210.145">  2  5  1 -1</clus>
<clus scale="   50.278">  2  3  1 -1</clus>
</clustering>
</event>
<event>
 6    0  0.2117869E+002  0.1760170E+03  0.7546771E-02  0.1171714E+00
          1   -1    0    0  502    0 -0.00000000000E+00  0.00000000000E+00  0.77827244692E+03  0.77827244692E+03  0.00000000000E+00 0.  1.
         21   -1    0    0  505  502  0.00000000000E+00 -0.00000000000E+00 -0.52385400079E+02  0.52385400079E+02  0.00000000000E+00 0. -1.
         21    1    1    2  503  504 -0.83063607492E+02  0.14515181177E+03  0.30569319637E+03  0.34844933872E+03  0.00000000000E+00 0. -1.
         21    1    1    2  504  501  0.49623881915E+01 -0.55793338575E+02  0.22710758005E+03  0.23391317800E+03  0.00000000000E+00 0.  1.
         21    1    1    2  505  503  0.29962832693E+02  0.57926235502E+01  0.34211291434E+01  0.30708792799E+02  0.00000000000E+00 0. -1.
          1    1    1    2  501    0  0.48138386608E+02 -0.95151096740E+02  0.18966514128E+03  0.21758653748E+03  0.00000000000E+00 0.  1.
<scales pt_clust_3="162.58355" pt_clust_4="48.00273" pt_clust_5="30.51763" pt_clust_6="48.00273"></scales>
<clustering>
<clus scale="   30.518">  2  5  1 -1</clus>
<clus scale="   48.003">  4  6 -1 -1</clus>
<clus scale="  162.584">  2  3  1 -1</clus>
<clus scale="   30.518">  2  3  1 -1</clus>
</clustering>
</event>
<event>
 6    0  0.2117869E+002  0.1266940E+03  0.7546771E-02  0.1232445E+00
          4   -1    0    0  504    0 -0.00000000000E+00  0.00000000000E+00  0.40161455160E+03  0.40161455160E+03  0.00000000000E+00 0.  1.
         21   -1    0    0  503  502  0.00000000000E+00 -0.00000000000E+00 -0.75799237926E+03  0.75799237926E+03  0.00000000000E+00 0.  1.
         21    1    1    2  503  501 -0.11772683642E+03 -0.14700047974E+03 -0.47697875809E+03  0.51281330397E+03  0.00000000000E+00 0.  1.
         21    1    1    2  504  505 -0.36825553177E+02  0.90339800234E+02  0.46466834676E+02  0.10805816766E+03  0.00000000000E+00 0.  1.
         21    1    1    2  505  502  0.10584006051E+03  0.93249388812E+01 -0.21602076159E+03  0.24073645825E+03  0.00000000000E+00 0.  1.
          4    1    1    2  501    0  0.48712329084E+02  0.47335740626E+02  0.29015485735E+03  0.29799900098E+03  0.00000000000E+00 0.  1.
<scales pt_clust_3="14000.00000" pt_clust_4="126.69396" pt_clust_5="112.41175" pt_clust_6="67.92322"></scales>
<clustering>
<clus scale="   67.923">  1  6  2 -1</clus>
<clus scale="  112.412">  2  5  1 -1</clus>
<clus scale="  126.694">  1  4  2 -1</clus>
<clus scale="  112.412">  2  3  1 -1</clus>
</clustering>
</event>
<event>
 6    0  0.2117869E+002  0.1665180E+03  0.7546771E-02  0.1181528E+00
          2   -1    0    0  504    0 -0.00000000000E+00  0.00000000000E+00  0.76366026370E+03  0.76366026370E+03  0.00000000000E+00 0. -1.
         21   -1    0    0  505  502  0.00000000000E+00 -0.00000000000E+00 -0.75899900670E+03  0.75899900670E+03  0.00000000000E+00 0. -1.
         21    1    1    2  503  502 -0.11301562101E+02  0.63954990403E+02 -0.89351074797E+02  0.11046076530E+03  0.00000000000E+00 0. -1.
         21    1    1    2  504  503  0.10311230966E+03 -0.12648846941E+03  0.44649561812E+03  0.47538386415E+03  0.00000000000E+00 0. -1.
         21    1    1    2  505  501  0.72379667047E+02 -0.19780984523E+02 -0.61326906390E+03  0.61784225195E+03  0.00000000000E+00 0. -1.
          2    1    1    2  501    0 -0.16419041460E+03  0.82314463527E+02  0.26078577758E+03  0.31897238900E+03  0.00000000000E+00 0. -1.
<scales pt_clust_3="64.94587" pt_clust_4="166.51798" pt_clust_5="73.60868" pt_clust_6="14000.00000"></scales>
<clustering>
<clus scale="   64.946">  2  3  1 -1</clus>
<clus scale="   73.609">  2  5  1 -1</clus>
<clus scale="  166.518">  1  4  2 -1</clus>
<clus scale="   64.946">  2  3  1 -1</clus>
</clustering>
</event>
<event>
 6    0  0.2117869E+002  0.8113020E+02  0.7546771E-02  0.1325874E+00
         21   -1    0    0  504  502  0.00000000000E+00  0.00000000000E+00  0.25312682253E+03  0.25312682253E+03  0.00000000000E+00 0. -1.
          2   -1    0    0  505    0 -0.00000000000E+00 -0.00000000000E+00 -0.21958909568E+04  0.21958909568E+04  0.00000000000E+00 0. -1.
         21    1    1    2  503  502 -0.12871501186E+03  0.29671114720E+02  0.19906288268E+03  0.23890157092E+03  0.00000000000E+00 0. -1.
         21    1    1    2  504  501  0.63223966869E+02  0.18245702836E+02 -0.26406198878E+01  0.65857030999E+02  0.00000000000E+00 0.  1.
         21    1    1    2  505  503 -0.63117236467E+01 -0.43141496970E+02 -0.25511455237E+03  0.25881356504E+03  0.00000000000E+00 0.  1.
          2    1    1    2  501    0  0.71802768640E+02 -0.47753205862E+01 -0.18840718447E+04  0.18854456124E+04  0.00000000000E+00 0. -1.
<scales pt_clust_3="14000.00000" pt_clust_4="65.48941" pt_clust_5="43.60076" pt_clust_6="81.13020"></scales>
<clustering>
<clus scale="   43.601">  2  5  1 -1</clus>
<clus scale="   65.489">  1  4  2 -1</clus>
<clus scale="   81.130">  2  6  1 -1</clus>
<clus scale="   65.489">  1  3  2 -1</clus>
</clustering>
</event>
<event>
 6    0  0.2117869E+002  0.1174403E+03  0.7546771E-02  0.1247380E+00
          2   -1    0    0  505    0 -0.00000000000E+00  0.00000000000E+00  0.11697331580E+04  0.11697331580E+04  0.00000000000E+00 0. -1.
         21   -1    0    0  501  502  0.00000000000E+00 -0.00000000000E+00 -0.28762449803E+03  0.28762449803E+03  0.00000000000E+00 0. -1.
         21    1    1    2  503  502 -0.10118790062E+03  0.55638107069E+02 -0.19818539513E+03  0.22937314802E+03  0.00000000000E+00 0. -1.
         21    1    1    2  504  503  0.70699326278E+02 -0.12877967957E+03  0.21074078881E+02  0.14841400677E+03  0.00000000000E+00 0. -1.
         21    1    1    2  505  504 -0.44852832439E+02  0.12743527052E+01  0.59908780936E+02  0.74849599771E+02  0.00000000000E+00 0. -1.
          2    1    1    2  501    0  0.75341406780E+02  0.71867219794E+02  0.99931119531E+03  0.10047209015E+04  0.00000000000E+00 0. -1.
<scales pt_clust_3="117.44032" pt_clust_4="14000.00000" pt_clust_5="44.87093" pt_clust_6="80.79542"></scales>
<clustering>
<clus scale="   44.871">  1  5  2 -1</clus>
<clus scale="   80.795">  1  6  2 -1</clus>
<clus scale="  117.440">  2  3  1 -1</clus>
<clus scale="  117.440">  2  3  1 -1</clus>
</clustering>
</event>
<event>
 6    0  0.2117869E+002  0.1326972E+03  0.7546771E-02  0.1223508E+00
         21   -1    0    0  505  502  0.00000000000E+00  0.00000000000E+00  0.32082485164E+03  0.32082485164E+03  0.00000000000E+00 0.  1.
         -1   -1    0    0    0  501 -0.00000000000E+00 -0.00000000000E+00 -0.99693834386E+02  0.99693834386E+02  0.00000000000E+00 0.  1.
         21    1    1    2  503  501 -0.31267433036E+02 -0.87234071786E+01 -0.42801563562E+02  0.53718935626E+02  0.00000000000E+00 0.  1.
         21    1    1    2  504  502 -0.35625543935E+02  0.24123813091E+02  0.51015057425E+02  0.66735851106E+02  0.00000000000E+00 0.  1.
         21    1    1    2  505  503  0.68715158215E+02 -0.10298876547E+03  0.12665859345E+03  0.17711820368E+03  0.00000000000E+00 0.  1.
         -1    1    1    2    0  504 -0.18221812445E+01  0.87588359557E+02  0.86258929946E+02  0.12294569561E+03  0.00000000000E+00 0.  1.
<scales pt_clust_3="32.46152" pt_clust_4="42.01910" pt_clust_5="119.81466" pt_clust_6="42.01910"></scales>
<clustering>
<clus scale="   32.462">  2  3  1 -1</clus>
<clus scale="   42.019">  4  6 -1 -1</clus>
<clus scale="  119.815">  2  5  1 -1</clus>
<clus scale="  132.697">  1  3  2 -1</clus>
</clustering>
</event>
<event>
 6    0  0.2117869E+002  0.5977712E+02  0.7546771E-02  0.1398769E+00
         21   -1    0    0  501  502  0.00000000000E+00  0.00000000000E+00  0.10274919409E+03  0.10274919409E+03  0.00000000000E+00 0.  1.
          3   -1    0    0  505    0 -0.00000000000E+00 -0.00000000000E+00 -0.53755969285E+03  0.53755969285E+03  0.00000000000E+00 0.  1.
         21    1    1    2  503  504  0.42516330229E+02 -0.11327079126E+03 -0.21259975568E+03  0.24461513977E+03  0.00000000000E+00 0.  1.
         21    1    1    2  504  502 -0.34028265354E+02  0.45933292913E+02  0.67418363788E+02  0.88391323197E+02  0.00000000000E+00 0.  1.
         21    1    1    2  505  503  0.27997733233E+02  0.46257936807E+02 -0.21401628094E+03  0.22074111147E+03  0.00000000000E+00 0.  1.
          3    1    1    2  501    0 -0.36485798109E+02  0.21079561539E+02 -0.75612825927E+02  0.86561312508E+02  0.00000000000E+00 0.  1.
<scales pt_clust_3="59.77712" pt_clust_4="14000.00000" pt_clust_5="57.28976" pt_clust_6="42.13741"></scales>
<clustering>
<clus scale="   42.137">  2  6  1 -1</clus>
<clus scale="   57.290">  2  5  1 -1</clus>
<clus scale="   59.777">  2  3  1 -1</clus>
<clus scale="   59.777">  1  3  2 -1</clus>
</clustering>
</event>
<event>
 6    0  0.2117869E+002  0.5692267E+02  0.7546771E-02  0.1411219E+00
         21   -1    0    0  505  502  0.00000000000E+00  0.00000000000E+00  0.63203610332E+02  0.63203610332E+02  0.00000000000E+00 0.  1.
         -2   -1    0    0    0  501 -0.00000000000E+00 -0.00000000000E+00 -0.74112262145E+03  0.74112262145E+03  0.00000000000E+00 0.  1.
         21    1    1    2  503  504  0.18104810731E+02  0.55101662734E+02 -0.14991801754E+03  0.16074635109E+03  0.00000000000E+00 0.  1.
         21    1    1    2  504  502  0.80697479139E+02 -0.35976944050E+01 -0.24972798025E+02  0.84549791163E+02  0.00000000000E+00 0.  1.
         21    1    1    2  505  501 -0.49304037128E+02 -0.18207463172E+02 -0.82239961635E-01  0.52558601158E+02  0.00000000000E+00 0.  1.
         -2    1    1    2    0  503 -0.49498252742E+02 -0.33296505157E+02 -0.50294595559E+03  0.50647148836E+03  0.00000000000E+00 0.  1.
<scales pt_clust_3="14000.00000" pt_clust_4="44.85540" pt_clust_5="52.55854" pt_clust_6="56.92267"></scales>
<clustering>
<clus scale="   52.559">  1  5  2 -1</clus>
<clus scale="   44.855">  1  4  2 -1</clus>
<clus scale="   56.923">  2  6  1 -1</clus>
<clus scale="   52.559">  1  3  2 -1</clus>
</clustering>
</event>
<event>
 6    0  0.2117869E+002  0.1217131E+03  0.7546771E-02  0.1240297E+00
         21   -1    0    0  505  502  0.00000000000E+00  0.00000000000E+00  0.30852898087E+03  0.30852898087E+03  0.00000000000E+00 0. -1.
          2   -1    0    0  503    0 -0.00000000000E+00 -0.00000000000E+00 -0.77544567837E+03  0.77544567837E+03  0.00000000000E+00 0. -1.
         21    1    1    2  503  504  0.11589210763E+02 -0.36118310017E+02 -0.25250894760E+02  0.45568078857E+02  0.00000000000E+00 0. -1.
         21    1    1    2  504  502 -0.85642729494E+02  0.34598634393E+02  0.10679742292E+02  0.92982791485E+02  0.00000000000E+00 0.  1.
         21    1    1    2  505  501  0.52342629286E+02  0.88472435352E+02  0.23277680825E+03  0.25446446729E+03  0.00000000000E+00 0. -1.
          2    1    1    2  501    0  0.21710889445E+02 -0.86952759728E+02 -0.68512235328E+03  0.69095932160E+03  0.00000000000E+00 0. -1.
<scales pt_clust_3="37.93207" pt_clust_4="91.03202" pt_clust_5="14000.00000" pt_clust_6="121.71306"></scales>
<clustering>
<clus scale="   37.932">  2  3  1 -1</clus>
<clus scale="   91.032">  1  4  2 -1</clus>
<clus scale="  121.713">  2  6  1 -1</clus>
<clus scale="   91.032">  1  3  2 -1</clus>
</clustering>
</event>
<event>
 6    0  0.2117869E+002  0.1582571E+03  0.7546771E-02  0.1190679E+00
         21   -1    0    0  503  502  0.00000000000E+00  0.00000000000E+00  0.25914799700E+03  0.25914799700E+03  0.00000000000E+00 0. -1.
         -4   -1    0    0    0  501 -0.00000000000E+00 -0.00000000000E+00 -0.90095240921E+03  0.90095240921E+03  0.00000000000E+00 0.  1.
         21    1    1    2  503  501 -0.21488473377E+02 -0.37565712646E+02  0.65020289970E+02  0.78106180052E+02  0.00000000000E+00 0. -1.
         21    1    1    2  504  502  0.57529277890E+02  0.41904592176E+01  0.14724661540E+03  0.15814153000E+03  0.00000000000E+00 0. -1.
         21    1    1    2  505  504 -0.17384740470E+03  0.79064358417E+02 -0.34328648806E+03  0.39283546910E+03  0.00000000000E+00 0. -1.
         -4    1    1    2    0  505  0.13780660019E+03 -0.45689104988E+02 -0.51078482952E+03  0.53101722706E+03  0.00000000000E+00 0.  1.
<scales pt_clust_3="43.27745" pt_clust_4="47.95146" pt_clust_5="14000.00000" pt_clust_6="158.25708"></scales>
<clustering>
<clus scale="   43.277">  1  3  2 -1</clus>
<clus scale="   47.951">  1  4  2 -1</clus>
<clus scale="  158.257">  2  6  1 -1</clus>
<clus scale="   43.277">  1  3  2 -1</clus>
</clustering>
</event>
<event>
 6    0  0.2117869E+002  0.1266728E+03  0.7546771E-02  0.1232478E+00
         21   -1    0    0  504  502  0.00000000000E+00  0.00000000000E+00  0.51655014165E+02  0.51655014165E+02  0.00000000000E+00 0.  1.
          2   -1    0    0  505    0 -0.00000000000E+00 -0.00000000000E+00 -0.12853055130E+04  0.12853055130E+04  0.00000000000E+00 0.  1.
         21    1    1    2  503  502 -0.62920183960E+02 -0.12306543915E+03 -0.18879784228E+03  0.23398435228E+03  0.00000000000E+00 0.  1.
         21    1    1    2  504  501  0.33608511434E+02  0.59013327709E+02 -0.38779529704E+02  0.78204583064E+02  0.00000000000E+00 0.  1.
         21    1    1    2  505  503 -0.14999560068E+02  0.47817717532E+02 -0.95068771147E+03  0.95200769201E+03  0.00000000000E+00 0. -1.
          2    1    1    2  501    0  0.44311232593E+02  0.16234393911E+02 -0.55385415429E+02  0.72763899853E+02  0.00000000000E+00 0.  1.
<scales pt_clust_3="117.70834" pt_clust_4="39.01689" pt_clust_5="50.11508" pt_clust_6="39.01689"></scales>
<clustering>
<clus scale="   39.017">  4  6 -1 -1</clus>
<clus scale="   50.115">  2  5  1 -1</clus>
<clus scale="  117.708">  2  3  1 -1</clus>
<clus scale="  126.673">  1  3  2 -1</clus>
</clustering>
</event>
<event>
 6    0  0.2117869E+002  0.1167976E+03  0.7546771E-02  0.1248475E+00
         21   -1    0    0  504  502  0.00000000000E+00  0.00000000000E+00  0.73807572506E+03  0.73807572506E+03  0.00000000000E+00 0.  1.
         -3   -1    0    0    0  501 -0.00000000000E+00 -0.00000000000E+00 -0.47035952983E+03  0.47035952983E+03  0.00000000000E+00 0. -1.
         21    1    1    2  503  501 -0.40111992489E+00 -0.31209526725E+02 -0.14389688109E+02  0.34369442525E+02  0.00000000000E+00 0.  1.
         21    1    1    2  504  503 -0.33565101751E+02 -0.57208507013E+02  0.50432824040E+03  0.50867121345E+03  0.00000000000E+00 0.  1.
         21    1    1    2  505  502  0.14010571654E+03  0.96972015084E+02  0.18086113122E+03  0.24848326362E+03  0.00000000000E+00 0.  1.
         -3    1    1    2    0  505 -0.10613949486E+03 -0.85539813457E+01 -0.40308348828E+03  0.41691133528E+03  0.00000000000E+00 0. -1.
<scales pt_clust_3="31.21210" pt_clust_4="66.46029" pt_clust_5="14000.00000" pt_clust_6="116.79762"></scales>
<clustering>
<clus scale="   31.212">  2  3  1 -1</clus>
<clus scale="   66.460">  1  4  2 -1</clus>
<clus scale="  116.798">  2  6  1 -1</clus>
<clus scale="   66.460">  1  3  2 -1</clus>
</clustering>
</event>
<event>
 6    0  0.2117869E+002  0.1276834E+03  0.7546771E-02  0.1230934E+00
         21   -1    0    0  505  502  0.00000000000E+00  0.00000000000E+00  0.87405252865E+03  0.87405252865E+03  0.00000000000E+00 0.  1.
          3   -1    0    0  503    0 -0.00000000000E+00 -0.00000000000E+00 -0.81003015021E+02  0.81003015021E+02  0.00000000000E+00 0. -1.
         21    1    1    2  503  502  0.94731700571E+02  0.15984852731E+02  0.71038063633E+03  0.71684744478E+03  0.00000000000E+00 0.  1.
         21    1    1    2  504  501 -0.49111047530E+02  0.24365165489E+02 -0.14385731976E+02  0.56678969321E+02  0.00000000000E+00 0. -1.
         21    1    1    2  505  504  0.26988080400E+02 -0.25355379361E+02  0.10070599143E+03  0.10729840845E+03  0.00000000000E+00 0. -1.
          3    1    1    2  501    0 -0.72608733441E+02 -0.14994638858E+02 -0.36513821576E+01  0.74230721120E+02  0.00000000000E+00 0. -1.
<scales pt_clust_3="119.97727" pt_clust_4="37.47577" pt_clust_5="37.03042" pt_clust_6="37.47577"></scales>
<clustering>
<clus scale="   37.030">  1  5  2 -1</clus>
<clus scale="   37.476">  4  6 -1 -1</clus>
<clus scale="  119.977">  1  3  2 -1</clus>
<clus scale="   37.030">  1  3  2 -1</clus>
</clustering>
</event>
<event>
 6    0  0.2117869E+002  0.2100946E+03  0.7546771E-02  0.1141491E+00
          2   -1    0    0  505    0 -0.00000000000E+00  0.00000000000E+00  0.19363156904E+04  0.19363156904E+04  0.00000000000E+00 0.  1.
         21   -1    0    0  501  502  0.00000000000E+00 -0.00000000000E+00 -0.14528156773E+03  0.14528156773E+03  0.00000000000E+00 0.  1.
         21    1    1    2  503  504  0.54227169691E+02  0.32204541356E+02  0.17958317963E+02  0.65576059662E+02  0.00000000000E+00 0. -1.
         21    1    1    2  504  502  0.29604977163E+02  0.17215550174E+02 -0.92987284897E+02  0.99093213659E+02  0.00000000000E+00 0.  1.
         21    1    1    2  505  503  0.12360695007E+03 -0.14801637376E+03  0.60087287582E+03  0.63105921901E+03  0.00000000000E+00 0.  1.
          2    1    1    2  501    0 -0.20743909692E+03  0.98596282231E+02  0.12651902138E+04  0.12858687658E+04  0.00000000000E+00 0.  1.
<scales pt_clust_3="79.62732" pt_clust_4="34.24660" pt_clust_5="210.09459" pt_clust_6="14000.00000"></scales>
<clustering>
<clus scale="   34.247">  2  4  1 -1</clus>
<clus scale="   79.627">  2  3  1 -1</clus>
<clus scale="  210.095">  2  5  1 -1</clus>
<clus scale="   34.247">  2  3  1 -1</clus>
</clustering>
</event>
<event>
 6    0  0.2117869E+002  0.6126466E+02  0.7546771E-02  0.1392600E+00
         21   -1    0    0  504  502  0.00000000000E+00  0.00000000000E+00  0.10293781808E+03  0.10293781808E+03  0.00000000000E+00 0. -1.
          2   -1    0    0  503    0 -0.00000000000E+00 -0.00000000000E+00 -0.44102530437E+03  0.44102530437E+03  0.00000000000E+00 0.  1.
         21    1    1    2  503  505  0.36181859525E+02 -0.50526329944E+02 -0.15250767604E+03  0.16468341819E+03  0.00000000000E+00 0.  1.
         21    1    1    2  504  501  0.23393326812E+02  0.10830420545E+03  0.25135157778E+02  0.11361700935E+03  0.00000000000E+00 0. -1.
         21    1    1    2  505  502  0.16644021857E+01 -0.57235119649E+02 -0.13049637977E+02  0.58727525124E+02  0.00000000000E+00 0. -1.
          2    1    1    2  501    0 -0.61239588523E+02 -0.54275585666E+00 -0.19766533005E+03  0.20693516978E+03  0.00000000000E+00 0.  1.
<scales pt_clust_3="14000.00000" pt_clust_4="58.88758" pt_clust_5="57.25932" pt_clust_6="61.26466"></scales>
<clustering>
<clus scale="   57.259">  1  5  2 -1</clus>
<clus scale="   61.265">  2  6  1 -1</clus>
<clus scale="   58.888">  1  4  2 -1</clus>
<clus scale="   57.259">  1  3  2 -1</clus>
</clustering>
</event>
<event>
 6    0  0.2117869E+002  0.1541402E+03  0.7546771E-02  0.1195476E+00
         21   -1    0    0  503  502  0.00000000000E+00  0.00000000000E+00  0.23529704105E+03  0.23529704105E+03  0.00000000000E+00 0.  1.
          1   -1    0    0  505    0 -0.00000000000E+00 -0.00000000000E+00 -0.14490819384E+04  0.14490819384E+04  0.00000000000E+00 0.  1.
         21    1    1    2  503  504  0.33674028288E+02  0.44148889982E+02 -0.75356420642E+01  0.56034369534E+02  0.00000000000E+00 0.  1.
         21    1    1    2  504  501 -0.18863293666E+03 -0.64302111771E+02  0.14878706686E+03  0.24870612706E+03  0.00000000000E+00 0.  1.
         21    1    1    2  505  502  0.86197551882E+02 -0.73468920650E+02 -0.34899073916E+03  0.36690902997E+03  0.00000000000E+00 0.  1.
          1    1    1    2  501    0  0.68761356493E+02  0.93622142439E+02 -0.10060455830E+04  0.10127294529E+04  0.00000000000E+00 0.  1.
<scales pt_clust_3="55.52535" pt_clust_4="154.14019" pt_clust_5="113.15613" pt_clust_6="14000.00000"></scales>
<clustering>
<clus scale="   55.525">  1  3  2 -1</clus>
<clus scale="  113.156">  2  5  1 -1</clus>
<clus scale="  154.140">  1  4  2 -1</clus>
<clus scale="   55.525">  1  3  2 -1</clus>
</clustering>
</event>
<event>
 6    0  0.2117869E+002  0.8568873E+02  0.7546771E-02  0.1313641E+00
          1   -1    0    0  505    0 -0.00000000000E+00  0.00000000000E+00  0.12113015009E+04  0.12113015009E+04  0.00000000000E+00 0.  1.
         21   -1    0    0  503  502  0.00000000000E+00 -0.00000000000E+00 -0.17581320634E+03  0.17581320634E+03  0.00000000000E+00 0. -1.
         21    1    1    2  503  504  0.42714512135E+02 -0.53388915356E+02 -0.54005213728E+02  0.87129036146E+02  0.00000000000E+00 0. -1.
         21    1    1    2  504  501 -0.10061769821E+03  0.82838507373E+02 -0.61921678650E+02  0.14429287502E+03  0.00000000000E+00 0. -1.
         21    1    1    2  505  502  0.37328435936E+02  0.14492951803E+02  0.27109038188E+03  0.27403184656E+03  0.00000000000E+00 0. -1.
          1    1    1    2  501    0  0.20574750135E+02 -0.43942543819E+02  0.88032480506E+03  0.88166094952E+03  0.00000000000E+00 0.  1.
<scales pt_clust_3="85.68873" pt_clust_4="14000.00000" pt_clust_5="40.04320" pt_clust_6="63.34596"></scales>
<clustering>
<clus scale="   40.043">  1  5  2 -1</clus>
<clus scale="   63.346">  1  6  2 -1</clus>
<clus scale="   85.689">  2  3  1 -1</clus>
<clus scale="   85.689">  2  3  1 -1</clus>
</clustering>
</event>
<event>
 6    0  0.2117869E+002  0.1650075E+03  0.7546771E-02  0.1183157E+00
         21   -1    0    0  503  502  0.00000000000E+00  0.00000000000E+00  0.11496377800E+04  0.11496377800E+04  0.00000000000E+00 0.  1.
         -4   -1    0    0    0  501 -0.00000000000E+00 -0.00000000000E+00 -0.11324058564E+04  0.11324058564E+04  0.00000000000E+00 0. -1.
         21    1    1    2  503  505 -0.24403023402E+02 -0.47721059766E+02  0.38782007230E+03  0.39150634168E+03  0.00000000000E+00 0. -1.
         21    1    1    2  504  501 -0.30585605036E+02  0.18158365228E+02 -0.59014921567E+03  0.59122018083E+03  0.00000000000E+00 0.  1.
         21    1    1    2  505  504 -0.10493240847E+03 -0.36590311909E+02  0.74132094370E+03  0.74960416411E+03  0.00000000000E+00 0.  1.
         -4    1    1    2    0  502  0.15992103691E+03  0.66153006447E+02 -0.52175987666E+03  0.54971294982E+03  0.00000000000E+00 0. -1.
<scales pt_clust_3="40.08790" pt_clust_4="35.56973" pt_clust_5="40.08790" pt_clust_6="154.56323"></scales>
<clustering>
<clus scale="   35.570">  2  4  1 -1</clus>
<clus scale="   40.088">  3  5 -1 -1</clus>
<clus scale="  154.563">  2  6  1 -1</clus>
<clus scale="  165.008">  1  3  2 -1</clus>
</clustering>
</event>
<event>
 6    0  0.2117869E+002  0.1471378E+03  0.7546771E-02  0.1204035E+00
          1   -1    0    0  503    0 -0.00000000000E+00  0.00000000000E+00  0.72012667891E+03  0.72012667891E+03  0.00000000000E+00 0. -1.
         21   -1    0    0  501  502  0.00000000000E+00 -0.00000000000E+00 -0.41839333325E+03  0.41839333325E+03  0.00000000000E+00 0.  1.
         21    1    1    2  503  505  0.75959048494E+01  0.36275507605E+02  0.46974288634E+02  0.59834722488E+02  0.00000000000E+00 0. -1.
         21    1    1    2  504  502  0.32201137200E+02 -0.84867820257E+01 -0.53308319222E+02  0.62854718235E+02  0.00000000000E+00 0.  1.
         21    1    1    2  505  504  0.58049325757E+02 -0.92923111623E+02 -0.33998560479E+03  0.35720391985E+03  0.00000000000E+00 0.  1.
          1    1    1    2  501    0 -0.97846367806E+02  0.65134386043E+02  0.64805298104E+03  0.65862665158E+03  0.00000000000E+00 0. -1.
<scales pt_clust_3="37.06225" pt_clust_4="31.86156" pt_clust_5="31.86156" pt_clust_6="135.31264"></scales>
<clustering>
<clus scale="   31.862">  4  5 -1 -1</clus>
<clus scale="   37.062">  1  3  2 -1</clus>
<clus scale="  135.313">  1  6  2 -1</clus>
<clus scale="  147.138">  2  3  1 -1</clus>
</clustering>
</event>
<event>
 6    0  0.2117869E+002  0.9372151E+02  0.7546771E-02  0.1294082E+00
         21   -1    0    0  504  502  0.00000000000E+00  0.00000000000E+00  0.22547480164E+02  0.22547480164E+02  0.00000000000E+00 0.  1.
          2   -1    0    0  505    0 -0.00000000000E+00 -0.00000000000E+00 -0.15441449406E+04  0.15441449406E+04  0.00000000000E+00 0. -1.
         21    1    1    2  503  501 -0.54863865426E+01 -0.11672255144E+03 -0.40085081372E+03  0.41753518332E+03  0.00000000000E+00 0.  1.
         21    1    1    2  504  503 -0.55333314156E+01  0.34361013724E+02 -0.29647832576E+02  0.45719700318E+02  0.00000000000E+00 0.  1.
         21    1    1    2  505  502 -0.37649298368E+02  0.14158673795E+02 -0.78641556927E+03  0.78744357594E+03  0.00000000000E+00 0. -1.
          2    1    1    2  501    0  0.48669016326E+02  0.68202863916E+02 -0.30468324486E+03  0.31599396117E+03  0.00000000000E+00 0. -1.
<scales pt_clust_3="14000.00000" pt_clust_4="34.80369" pt_clust_5="40.84948" pt_clust_6="93.72151"></scales>
<clustering>
<clus scale="   34.804">  1  4  2 -1</clus>
<clus scale="   40.849">  2  5  1 -1</clus>
<clus scale="   93.722">  2  6  1 -1</clus>
<clus scale="   34.804">  1  3  2 -1</clus>
</clustering>
</event>
<event>
 6    0  0.2117869E+002  0.7947831E+02  0.7546771E-02  0.1330538E+00
         21   -1    0    0  503  502  0.00000000000E+00  0.00000000000E+00  0.55788071424E+02  0.55788071424E+02  0.00000000000E+00 0.  1.
         -1   -1    0    0    0  501 -0.00000000000E+00 -0.00000000000E+00 -0.99052566134E+03  0.99052566134E+03  0.00000000000E+00 0.  1.
         21    1    1    2  503  505  0.13672088480E+02  0.74437343118E+02  0.39402924013E+01  0.75785024630E+02  0.00000000000E+00 0.  1.
         21    1    1    2  504  501  0.18129510077E+02  0.26832930463E+02 -0.51664578362E+03  0.51765968650E+03  0.00000000000E+00 0.  1.
         21    1    1    2  505  504  0.96480983890E+01 -0.11818967171E+03 -0.32648067230E+03  0.34734926757E+03  0.00000000000E+00 0.  1.
         -1    1    1    2    0  502 -0.41449696947E+02  0.16919398128E+02 -0.95551426396E+02  0.10551975406E+03  0.00000000000E+00 0.  1.
<scales pt_clust_3="14000.00000" pt_clust_4="32.38341" pt_clust_5="79.47831" pt_clust_6="43.87816"></scales>
<clustering>
<clus scale="   32.383">  2  4  1 -1</clus>
<clus scale="   43.878">  2  6  1 -1</clus>
<clus scale="   79.478">  2  5  1 -1</clus>
<clus scale="   79.478">  1  3  2 -1</clus>
</clustering>
</event>
<event>
 6    0  0.2117869E+002  0.1355945E+03  0.7546771E-02  0.1219383E+00
          1   -1    0    0  505    0 -0.00000000000E+00  0.00000000000E+00  0.86615000235E+03  0.86615000235E+03  0.00000000000E+00 0.  1.
         21   -1    0    0  503  502  0.00000000000E+00 -0.00000000000E+00 -0.31184399742E+03  0.31184399742E+03  0.00000000000E+00 0. -1.
         21    1    1    2  503  501 -0.15181425682E+02 -0.10650510330E+03 -0.25809044696E+03  0.27961489862E+03  0.00000000000E+00 0. -1.
         21    1    1    2  504  502 -0.13636390211E+03  0.94225751122E+02  0.21549206142E+03  0.27186473569E+03  0.00000000000E+00 0.  1.
         21    1    1    2  505  504  0.50555841796E+02  0.52658540238E+02  0.15361982915E+03  0.17008194175E+03  0.00000000000E+00 0.  1.
          1    1    1    2  501    0  0.10098948600E+03 -0.40379188057E+02  0.44328456132E+03  0.45643242371E+03  0.00000000000E+00 0.  1.
<scales pt_clust_3="106.67802" pt_clust_4="14000.00000" pt_clust_5="72.99873" pt_clust_6="135.59445"></scales>
<clustering>
<clus scale="   72.999">  1  5  2 -1</clus>
<clus scale="  106.678">  2  3  1 -1</clus>
<clus scale="  135.594">  1  6  2 -1</clus>
<clus scale="  106.678">  2  3  1 -1</clus>
</clustering>
</event>
<event>
 6    0  0.2117869E+002  0.1970578E+03  0.7546771E-02  0.1152245E+00
         21   -1    0    0  501  502  0.00000000000E+00  0.00000000000E+00  0.17378717339E+03  0.17378717339E+03  0.00000000000E+00 0.  1.
          2   -1    0    0  504    0 -0.00000000000E+00 -0.00000000000E+00 -0.29004239507E+04  0.29004239507E+04  0.00000000000E+00 0. -1.
         21    1    1    2  503  502 -0.44300187958E+02 -0.19435463328E+02  0.14480242763E+02  0.50496745621E+02  0.00000000000E+00 0. -1.
         21    1    1    2  504  505 -0.75415327815E+01  0.43850288841E+02 -0.33164826368E+03  0.33461962487E+03  0.00000000000E+00 0.  1.
         21    1    1    2  505  503 -0.45718211847E+02  0.19316557584E+03  0.60597501887E+02  0.20754554156E+03  0.00000000000E+00 0.  1.
          2    1    1    2  501    0  0.97559932586E+02 -0.21758040135E+03 -0.24700662583E+04  0.24815492120E+04  0.00000000000E+00 0. -1.
<scales pt_clust_3="48.30188" pt_clust_4="44.49407" pt_clust_5="197.05781" pt_clust_6="14000.00000"></scales>
<clustering>
<clus scale="   44.494">  2  4  1 -1</clus>
<clus scale="   48.302">  1  3  2 -1</clus>
<clus scale="  197.058">  1  5  2 -1</clus>
<clus scale="   48.302">  1  3  2 -1</clus>
</clustering>
</event>
<event>
 6    0  0.2117869E+002  0.8929287E+02  0.7546771E-02  0.1304573E+00
         21   -1    0    0  505  502  0.00000000000E+00  0.00000000000E+00  0.38514918613E+03  0.38514918613E+03  0.00000000000E+00 0.  1.
          2   -1    0    0  503    0 -0.00000000000E+00 -0.00000000000E+00 -0.12562753011E+04  0.12562753011E+04  0.00000000000E+00 0. -1.
         21    1    1    2  503  504  0.30199988254E+02 -0.12059640795E+01 -0.42827419665E+03  0.42933935431E+03  0.00000000000E+00 0.  1.
         21    1    1    2  504  502  0.51618331533E+02 -0.20644142952E+02  0.35528893275E+02  0.65976776565E+02  0.00000000000E+00 0.  1.
         21    1    1    2  505  501  0.13153892188E+02  0.81687914618E+02  0.32477368000E+03  0.33514755481E+03  0.00000000000E+00 0.  1.
          2    1    1    2  501    0 -0.94972211975E+02 -0.59837807587E+02 -0.80315449160E+03  0.81096080154E+03  0.00000000000E+00 0. -1.
<scales pt_clust_3="30.22406" pt_clust_4="56.11790" pt_clust_5="89.29287" pt_clust_6="14000.00000"></scales>
<clustering>
<clus scale="   30.224">  2  3  1 -1</clus>
<clus scale="   56.118">  1  4  2 -1</clus>
<clus scale="   89.293">  1  5  2 -1</clus>
<clus scale="   56.118">  1  3  2 -1</clus>
</clustering>
</event>
<event>
 6    0  0.2117869E+002  0.1300610E+03  0.7546771E-02  0.1227365E+00
         21   -1    0    0  503  502  0.00000000000E+00  0.00000000000E+00  0.32068404925E+03  0.32068404925E+03  0.00000000000E+00 0.  1.
         -4   -1    0    0    0  501 -0.00000000000E+00 -0.00000000000E+00 -0.24333008017E+04  0.24333008017E+04  0.00000000000E+00 0.  1.
         21    1    1    2  503  504 -0.41184077667E+02 -0.35171466782E+02 -0.75966053660E+00  0.54163986310E+02  0.00000000000E+00 0.  1.
         21    1    1    2  504  501 -0.11503194170E+03  0.86035222765E+02 -0.15471529303E+04  0.15538071299E+04  0.00000000000E+00 0.  1.
         21    1    1    2  505  502  0.36475079236E+02 -0.32259045390E+02  0.28428253313E+03  0.28842266911E+03  0.00000000000E+00 0.  1.
         -4    1    1    2    0  505  0.11974094013E+03 -0.18604710594E+02 -0.84898669474E+03  0.85759106563E+03  0.00000000000E+00 0.  1.
<scales pt_clust_3="61.60922" pt_clust_4="14000.00000" pt_clust_5="48.69371" pt_clust_6="130.06102"></scales>
<clustering>
<clus scale="   48.694">  1  5  2 -1</clus>
<clus scale="   61.609">  1  3  2 -1</clus>
<clus scale="  130.061">  1  6  2 -1</clus>
<clus scale="   48.694">  1  3  2 -1</clus>
</clustering>
</event>
<event>
 6    0  0.2117869E+002  0.1174072E+03  0.7546771E-02  0.1247437E+00
          2   -1    0    0  503    0 -0.00000000000E+00  0.00000000000E+00  0.22986645522E+04  0.22986645522E+04  0.00000000000E+00 0. -1.
         21   -1    0    0  505  502  0.00000000000E+00 -0.00000000000E+00 -0.75822857488E+03  0.75822857488E+03  0.00000000000E+00 0.  1.
         21    1    1    2  503  504  0.22718200978E+00 -0.30154564636E+02  0.33490535478E+03  0.33626023559E+03  0.00000000000E+00 0.  1.
         21    1    1    2  504  502 -0.31863471264E+02 -0.41849885877E+02 -0.13684283695E+03  0.14660373724E+03  0.00000000000E+00 0. -1.
         21    1    1    2  505  501  0.81327691083E+02 -0.64598307643E+02 -0.60872577383E+03  0.61752263312E+03  0.00000000000E+00 0.  1.
          2    1    1    2  501    0 -0.49691401829E+02  0.13660275816E+03  0.19510992333E+04  0.19565065211E+04  0.00000000000E+00 0. -1.
<scales pt_clust_3="30.15542" pt_clust_4="52.65870" pt_clust_5="117.40721" pt_clust_6="14000.00000"></scales>
<clustering>
<clus scale="   30.155">  1  3  2 -1</clus>
<clus scale="   52.659">  2  4  1 -1</clus>
<clus scale="  117.407">  2  5  1 -1</clus>
<clus scale="   52.659">  2  3  1 -1</clus>
</clustering>
</event>
<event>
 6    0  0.2117869E+002  0.9237917E+02  0.7546771E-02  0.1297190E+00
          2   -1    0    0  504    0 -0.00000000000E+00  0.00000000000E+00  0.52729150800E+03  0.52729150800E+03  0.00000000000E+00 0.  1.
         21   -1    0    0  501  502  0.00000000000E+00 -0.00000000000E+00 -0.64159462069E+02  0.64159462069E+02  0.00000000000E+00 0. -1.
         21    1    1    2  503  502 -0.92928946455E+01 -0.44631823027E+02  0.11956977129E+02  0.47130953944E+02  0.00000000000E+00 0. -1.
         21    1    1    2  504  505  0.41502768824E+02 -0.55965651821E+02  0.11596768282E+03  0.13528908848E+03  0.00000000000E+00 0. -1.
         21    1    1    2  505  503 -0.33287713007E+02 -0.24276584525E+02 -0.96025642586E+01  0.42304061670E+02  0.00000000000E+00 0. -1.
          2    1    1    2  501    0  0.10778388284E+01  0.12487405937E+03  0.34480995024E+03  0.36672686598E+03  0.00000000000E+00 0.  1.
<scales pt_clust_3="35.96903" pt_clust_4="69.67520" pt_clust_5="35.96903" pt_clust_6="84.27520"></scales>
<clustering>
<clus scale="   35.969">  3  5 -1 -1</clus>
<clus scale="   69.675">  1  4  2 -1</clus>
<clus scale="   84.275">  1  6  2 -1</clus>
<clus scale="   92.379">  2  3  1 -1</clus>
</clustering>
</event>
<event>
 6    0  0.2117869E+002  0.8485216E+02  0.7546771E-02  0.1315820E+00
         21   -1    0    0  501  502  0.00000000000E+00  0.00000000000E+00  0.69992848026E+03  0.69992848026E+03  0.00000000000E+00 0. -1.
          2   -1    0    0  503    0 -0.00000000000E+00 -0.00000000000E+00 -0.65649482995E+03  0.65649482995E+03  0.00000000000E+00 0. -1.
         21    1    1    2  503  504 -0.56996907851E+02 -0.17520459479E+02 -0.29965210201E+02  0.66734757266E+02  0.00000000000E+00 0. -1.
         21    1    1    2  504  505  0.10178257663E+03  0.11403445709E+02  0.21463394002E+03  0.23781812313E+03  0.00000000000E+00 0. -1.
         21    1    1    2  505  502 -0.74224499366E+02  0.37203158533E+02  0.45075325106E+03  0.45833595173E+03  0.00000000000E+00 0. -1.
          2    1    1    2  501    0  0.29438830583E+02 -0.31086144763E+02 -0.59198833057E+03  0.59353447808E+03  0.00000000000E+00 0. -1.
<scales pt_clust_3="53.76856" pt_clust_4="84.85216" pt_clust_5="14000.00000" pt_clust_6="42.81347"></scales>
<clustering>
<clus scale="   42.813">  2  6  1 -1</clus>
<clus scale="   53.769">  2  3  1 -1</clus>
<clus scale="   84.852">  2  4  1 -1</clus>
<clus scale="   84.852">  1  3  2 -1</clus>
</clustering>
</event>
<event>
 6    0  0.2117869E+002  0.1646390E+03  0.7546771E-02  0.1183557E+00
         21   -1    0    0  503  502  0.00000000000E+00  0.00000000000E+00  0.55465231802E+03  0.55465231802E+03  0.00000000000E+00 0.  1.
         -4   -1    0    0    0  501 -0.00000000000E+00 -0.00000000000E+00 -0.28263247999E+03  0.28263247999E+03  0.00000000000E+00 0.  1.
         21    1    1    2  503  505 -0.10094010511E+03 -0.23573569565E+03  0.21423341280E+03  0.33414993369E+03  0.00000000000E+00 0.  1.
         21    1    1    2  504  502  0.92107366442E+02  0.67687060096E+02  0.21796562259E+03  0.24611850335E+03  0.00000000000E+00 0.  1.
         21    1    1    2  505  501 -0.21033486243E+02  0.68903656005E+02 -0.73550674770E+01  0.72416975717E+02  0.00000000000E+00 0.  1.
         -4    1    1    2    0  504  0.29866224907E+02  0.99144979546E+02 -0.15282412989E+03  0.18459938525E+03  0.00000000000E+00 0.  1.
<scales pt_clust_3="14000.00000" pt_clust_4="115.75393" pt_clust_5="72.04250" pt_clust_6="164.63895"></scales>
<clustering>
<clus scale="   72.042">  2  5  1 -1</clus>
<clus scale="  115.754">  1  4  2 -1</clus>
<clus scale="  164.639">  2  6  1 -1</clus>
<clus scale="  115.754">  1  3  2 -1</clus>
</clustering>
</event>
<event>
 6    0  0.2117869E+002  0.8704262E+02  0.7546771E-02  0.1310176E+00
         21   -1    0    0  503  502  0.00000000000E+00  0.00000000000E+00  0.51516896835E+03  0.51516896835E+03  0.00000000000E+00 0. -1.
         -1   -1    0    0    0  501 -0.00000000000E+00 -0.00000000000E+00 -0.31198432138E+03  0.31198432138E+03  0.00000000000E+00 0.  1.
         21    1    1    2  503  501  0.30458414588E+02 -0.10158253069E+03  0.18989156313E+03  0.21749834782E+03  0.00000000000E+00 0. -1.
         21    1    1    2  504  505 -0.29968538680E+02  0.51003842849E+02 -0.84434989188E+02  0.10309593928E+03  0.00000000000E+00 0. -1.
         21    1    1    2  505  502  0.55685074941E+02  0.58272142308E+02  0.29265600830E+03  0.30355231729E+03  0.00000000000E+00 0. -1.
         -1    1    1    2    0  504 -0.56174950848E+02 -0.76934544716E+01 -0.19492793527E+03  0.20300668534E+03  0.00000000000E+00 0.  1.
<scales pt_clust_3="87.04262" pt_clust_4="14000.00000" pt_clust_5="78.48011" pt_clust_6="56.69933"></scales>
<clustering>
<clus scale="   56.699">  2  6  1 -1</clus>
<clus scale="   78.480">  1  5  2 -1</clus>
<clus scale="   87.043">  1  3  2 -1</clus>
<clus scale="   78.480">  1  3  2 -1</clus>
</clustering>
</event>
<event>
 6    0  0.2117869E+002  0.1339007E+03  0.7546771E-02  0.1221780E+00
          1   -1    0    0  503    0 -0.00000000000E+00  0.00000000000E+00  0.10568532375E+04  0.10568532375E+04  0.00000000000E+00 0.  1.
         21   -1    0    0  505  502  0.00000000000E+00 -0.00000000000E+00 -0.37114145758E+03  0.37114145758E+03  0.00000000000E+00 0.  1.
         21    1    1    2  503  504 -0.37490015416E+02 -0.41615263123E+02  0.23944261558E+03  0.24590668461E+03  0.00000000000E+00 0.  1.
         21    1    1    2  504  502  0.17127104007E+02  0.27391308225E+02 -0.43019221844E+02  0.53798465647E+02  0.00000000000E+00 0.  1.
         21    1    1    2  505  501 -0.10353871284E+03  0.75491812194E+02 -0.30040424054E+03  0.32659146728E+03  0.00000000000E+00 0.  1.
          1    1    1    2  501    0  0.12390162425E+03 -0.61267857296E+02  0.78969262669E+03  0.80169807751E+03  0.00000000000E+00 0.  1.
<scales pt_clust_3="55.69330" pt_clust_4="32.30513" pt_clust_5="133.90068" pt_clust_6="14000.00000"></scales>
<clustering>
<clus scale="   32.305">  2  4  1 -1</clus>
<clus scale="   55.693">  1  3  2 -1</clus>
<clus scale="  133.901">  2  5  1 -1</clus>
<clus scale="   32.305">  2  3  1 -1</clus>
</clustering>
</event>
<event>
 6    0  0.2117869E+002  0.1189603E+03  0.7546771E-02  0.1244822E+00
         21   -1    0    0  501  502  0.00000000000E+00  0.00000000000E+00  0.26393366922E+03  0.26393366922E+03  0.00000000000E+00 0. -1.
          1   -1    0    0  504    0 -0.00000000000E+00 -0.00000000000E+00 -0.17838006049E+04  0.17838006049E+04  0.00000000000E+00 0.  1.
         21    1    1    2  503  502 -0.68725136612E+01  0.40858835108E+02  0.21716076680E+03  0.22107798282E+03  0.00000000000E+00 0. -1.
         21    1    1    2  504  505  0.61523330558E+02 -0.76818655729E+01 -0.24367854347E+03  0.25144256563E+03  0.00000000000E+00 0. -1.
         21    1    1    2  505  503 -0.10070501373E+03 -0.96059083432E+02 -0.81631575096E+02  0.16134609184E+03  0.00000000000E+00 0.  1.
          1    1    1    2  501    0  0.46054196832E+02  0.62882113897E+02 -0.14117175839E+04  0.14138676339E+04  0.00000000000E+00 0.  1.
<scales pt_clust_3="41.43279" pt_clust_4="61.06866" pt_clust_5="14000.00000" pt_clust_6="118.96028"></scales>
<clustering>
<clus scale="   41.433">  1  3  2 -1</clus>
<clus scale="   61.069">  2  4  1 -1</clus>
<clus scale="  118.960">  2  6  1 -1</clus>
<clus scale="   41.433">  1  3  2 -1</clus>
</clustering>
</event>
<event>
 6    0  0.2117869E+002  0.9614343E+02  0.7546771E-02  0.1288621E+00
         21   -1    0    0  504  502  0.00000000000E+00  0.00000000000E+00  0.29699241895E+03  0.29699241895E+03  0.00000000000E+00 0.  1.
         -4   -1    0    0    0  501 -0.00000000000E+00 -0.00000000000E+00 -0.45606995869E+03  0.45606995869E+03  0.00000000000E+00 0.  1.
         21    1    1    2  503  501  0.56905310441E+02 -0.48862086646E+02 -0.89377610352E+02  0.11667936878E+03  0.00000000000E+00 0.  1.
         21    1    1    2  504  503 -0.54102056979E+02 -0.39233469479E+02  0.31452673605E+02  0.73861819458E+02  0.00000000000E+00 0.  1.
         21    1    1    2  505  502  0.10386656708E+03  0.47032297693E+02  0.20563652021E+03  0.23513119578E+03  0.00000000000E+00 0.  1.
         -4    1    1    2    0  505 -0.10666982054E+03  0.41063258432E+02 -0.30678912321E+03  0.32738999362E+03  0.00000000000E+00 0.  1.
<scales pt_clust_3="96.14343" pt_clust_4="66.83037" pt_clust_5="56.28569" pt_clust_6="14000.00000"></scales>
<clustering>
<clus scale="   66.830">  1  4  2 -1</clus>
<clus scale="   56.286">  1  5  2 -1</clus>
<clus scale="   96.143">  1  3  2 -1</clus>
<clus scale="   66.830">  1  3  2 -1</clus>
</clustering>
</event>
<event>
 6    0  0.2117869E+002  0.9982014E+02  0.7546771E-02  0.1280675E+00
          3   -1    0    0  503    0 -0.00000000000E+00  0.00000000000E+00  0.28113258858E+03  0.28113258858E+03  0.00000000000E+00 0. -1.
         21   -1    0    0  501  502  0.00000000000E+00 -0.00000000000E+00 -0.12665019786E+04  0.12665019786E+04  0.00000000000E+00 0.  1.
         21    1    1    2  503  504  0.25232871837E+01 -0.31335411832E+02 -0.14414541573E+02  0.34584013961E+02  0.00000000000E+00 0.  1.
         21    1    1    2  504  505 -0.36246732647E+02 -0.43838185100E+02  0.54714241726E+02  0.78925663431E+02  0.00000000000E+00 0. -1.
         21    1    1    2  505  502 -0.25646983127E+02  0.97136292931E+02 -0.12228817543E+04  0.12270016349E+04  0.00000000000E+00 0.  1.
          3    1    1    2  501    0  0.59370428589E+02 -0.21962695999E+02  0.19721266413E+03  0.20712325485E+03  0.00000000000E+00 0. -1.
<scales pt_clust_3="31.43684" pt_clust_4="62.67276" pt_clust_5="99.82014" pt_clust_6="14000.00000"></scales>
<clustering>
<clus scale="   31.437">  1  3  2 -1</clus>
<clus scale="   62.673">  1  4  2 -1</clus>
<clus scale="   99.820">  2  5  1 -1</clus>
<clus scale="   99.820">  2  3  1 -1</clus>
</clustering>
</event>
<event>
 6    0  0.2117869E+002  0.1328839E+03  0.7546771E-02  0.1223238E+00
          3   -1    0    0  505    0 -0.00000000000E+00  0.00000000000E+00  0.36499767422E+03  0.36499767422E+03  0.00000000000E+00 0.  1.
         21   -1    0    0  504  502  0.00000000000E+00 -0.00000000000E+00 -0.12103557215E+03  0.12103557215E+03  0.00000000000E+00 0. -1.
         21    1    1    2  503  501  0.13357977614E+02 -0.55170062242E+02 -0.17128516800E+02  0.59292136254E+02  0.00000000000E+00 0. -1.
         21    1    1    2  504  503 -0.36673322630E+02 -0.59016408689E+02 -0.24509711202E+02  0.73678999928E+02  0.00000000000E+00 0. -1.
         21    1    1    2  505  502  0.46182503125E+00 -0.45725008918E+02  0.71202789852E+02  0.84621669835E+02  0.00000000000E+00 0.  1.
          3    1    1    2  501    0  0.22853519985E+02  0.15991147985E+03  0.21439754022E+03  0.26844044035E+03  0.00000000000E+00 0.  1.
<scales pt_clust_3="43.95952" pt_clust_4="43.95952" pt_clust_5="45.72734" pt_clust_6="123.66364"></scales>
<clustering>
<clus scale="   43.960">  3  4 -1 -1</clus>
<clus scale="   45.727">  1  5  2 -1</clus>
<clus scale="  123.664">  1  6  2 -1</clus>
<clus scale="  132.884">  2  3  1 -1</clus>
</clustering>
</event>
<event>
 6    0  0.2117869E+002  0.1149105E+03  0.7546771E-02  0.1251737E+00
          2   -1    0    0  503    0 -0.00000000000E+00  0.00000000000E+00  0.11176514578E+04  0.11176514578E+04  0.00000000000E+00 0. -1.
         21   -1    0    0  501  502  0.00000000000E+00 -0.00000000000E+00 -0.95305174845E+02  0.95305174845E+02  0.00000000000E+00 0. -1.
         21    1    1    2  503  505  0.29929932963E+02 -0.42602205009E+02  0.27191383266E+03  0.27685353737E+03  0.00000000000E+00 0. -1.
         21    1    1    2  504  502  0.44871371725E+02  0.39577105904E+01 -0.41752084673E+02  0.61419378442E+02  0.00000000000E+00 0. -1.
         21    1    1    2  505  504  0.40202333669E+02 -0.82238865696E+02  0.32882740527E+02  0.97266300885E+02  0.00000000000E+00 0. -1.
          2    1    1    2  501    0 -0.11500363836E+03  0.12088336011E+03  0.75930179446E+03  0.77741741598E+03  0.00000000000E+00 0. -1.
<scales pt_clust_3="53.38459" pt_clust_4="45.04557" pt_clust_5="14000.00000" pt_clust_6="114.91055"></scales>
<clustering>
<clus scale="   45.046">  2  4  1 -1</clus>
<clus scale="   53.385">  1  3  2 -1</clus>
<clus scale="  114.911">  1  6  2 -1</clus>
<clus scale="   45.046">  2  3  1 -1</clus>
</clustering>
</event>
<event>
 6    0  0.2117869E+002  0.8422208E+02  0.7546771E-02  0.1317479E+00
          3   -1    0    0  505    0 -0.00000000000E+00  0.00000000000E+00  0.27664053088E+03  0.27664053088E+03  0.00000000000E+00 0. -1.
         21   -1    0    0  503  502  0.00000000000E+00 -0.00000000000E+00 -0.20586299488E+04  0.20586299488E+04  0.00000000000E+00 0. -1.
         21    1    1    2  503  501 -0.66349176519E+02  0.69508234217E+02 -0.16255894496E+04  0.16284270528E+04  0.00000000000E+00 0. -1.
         21    1    1    2  504  502  0.27790212940E+01  0.44586040362E+02 -0.58246407949E+02  0.73404918046E+02  0.00000000000E+00 0.  1.
         21    1    1    2  505  504  0.69411032282E+02 -0.29994615294E+02 -0.35507644861E+03  0.36303836259E+03  0.00000000000E+00 0. -1.
          3    1    1    2  501    0 -0.58408770565E+01 -0.84099659284E+02  0.25692288825E+03  0.27040014616E+03  0.00000000000E+00 0. -1.
<scales pt_clust_3="84.22208" pt_clust_4="44.67256" pt_clust_5="73.27993" pt_clust_6="14000.00000"></scales>
<clustering>
<clus scale="   44.673">  2  4  1 -1</clus>
<clus scale="   73.280">  2  5  1 -1</clus>
<clus scale="   84.222">  2  3  1 -1</clus>
<clus scale="   44.673">  2  3  1 -1</clus>
</clustering>
</event>
<event>
 6    0  0.2117869E+002  0.6511496E+02  0.7546771E-02  0.1377540E+00
         21   -1    0    0  503  502  0.00000000000E+00  0.00000000000E+00  0.12290113835E+03  0.12290113835E+03  0.00000000000E+00 0.  1.
          1   -1    0    0  504    0 -0.00000000000E+00 -0.00000000000E+00 -0.34340639650E+03  0.34340639650E+03  0.00000000000E+00 0. -1.
         21    1    1    2  503  505 -0.18493194177E+02  0.58961613367E+02  0.75977075541E+02  0.97933579989E+02  0.00000000000E+00 0.  1.
         21    1    1    2  504  502  0.13488262333E+02  0.50309918550E+02 -0.77111550821E+02  0.93054889153E+02  0.00000000000E+00 0.  1.
         21    1    1    2  505  501  0.48942132722E+02 -0.84529153149E+02 -0.77291842891E+02  0.12455737258E+03  0.00000000000E+00 0.  1.
          1    1    1    2  501    0 -0.43937200878E+02 -0.24742378768E+02 -0.14207893998E+03  0.15076169313E+03  0.00000000000E+00 0. -1.
<scales pt_clust_3="14000.00000" pt_clust_4="40.00150" pt_clust_5="65.11496" pt_clust_6="50.42482"></scales>
<clustering>
<clus scale="   50.425">  2  6  1 -1</clus>
<clus scale="   40.001">  2  4  1 -1</clus>
<clus scale="   65.115">  2  5  1 -1</clus>
<clus scale="   65.115">  1  3  2 -1</clus>
</clustering>
</event>
<event>
 6    0  0.2117869E+002  0.1575762E+03  0.7546771E-02  0.1191461E+00
          1   -1    0    0  503    0 -0.00000000000E+00  0.00000000000E+00  0.10414571648E+04  0.10414571648E+04  0.00000000000E+00 0.  1.
         21   -1    0    0  504  502  0.00000000000E+00 -0.00000000000E+00 -0.18801438380E+03  0.18801438380E+03  0.00000000000E+00 0. -1.
         21    1    1    2  503  505  0.38725443475E+02 -0.18456455826E+02  0.10087385790E+03  0.10961676853E+03  0.00000000000E+00 0. -1.
         21    1    1    2  504  501 -0.17714106050E+03 -0.65718958754E+02 -0.60820764024E+02  0.19848703280E+03  0.00000000000E+00 0. -1.
         21    1    1    2  505  502  0.21961402656E+02  0.36057953608E+02 -0.40337719693E+02  0.58391873193E+02  0.00000000000E+00 0. -1.
          1    1    1    2  501    0  0.11645421437E+03  0.48117460972E+02  0.85372740685E+03  0.86297587411E+03  0.00000000000E+00 0.  1.
<scales pt_clust_3="43.05503" pt_clust_4="14000.00000" pt_clust_5="42.21942" pt_clust_6="157.57618"></scales>
<clustering>
<clus scale="   42.219">  2  5  1 -1</clus>
<clus scale="   43.055">  1  3  2 -1</clus>
<clus scale="  157.576">  1  6  2 -1</clus>
<clus scale="   42.219">  2  3  1 -1</clus>
</clustering>
</event>
<event>
 6    0  0.2117869E+002  0.7840142E+02  0.7546771E-02  0.1333650E+00
         -4   -1    0    0    0  501 -0.00000000000E+00  0.00000000000E+00  0.13561437998E+04  0.13561437998E+04  0.00000000000E+00 0.  1.
         21   -1    0    0  504  502  0.00000000000E+00 -0.00000000000E+00 -0.48601490965E+02  0.48601490965E+02  0.00000000000E+00 0.  1.
         21    1    1    2  503  501 -0.50398333762E+02 -0.34266052228E+02  0.28002419897E+03  0.28657931954E+03  0.00000000000E+00 0.  1.
         21    1    1    2  504  503 -0.77478509242E+02 -0.43607644409E+02  0.13368053636E+03  0.16054604277E+03  0.00000000000E+00 0.  1.
         21    1    1    2  505  502  0.49135266252E+02  0.32828751276E+02 -0.98066421288E-01  0.59093239182E+02  0.00000000000E+00 0.  1.
         -4    1    1    2    0  505  0.78741576751E+02  0.45044945361E+02  0.89393563994E+03  0.89852668929E+03  0.00000000000E+00 0.  1.
<scales pt_clust_3="78.40142" pt_clust_4="47.37129" pt_clust_5="59.09316" pt_clust_6="14000.00000"></scales>
<clustering>
<clus scale="   59.093">  2  5  1 -1</clus>
<clus scale="   47.371">  2  4  1 -1</clus>
<clus scale="   78.401">  2  3  1 -1</clus>
<clus scale="   59.093">  2  3  1 -1</clus>
</clustering>
</event>
<event>
 6    0  0.2117869E+002  0.1520940E+03  0.7546771E-02  0.1197923E+00
         21   -1    0    0  504  502  0.00000000000E+00  0.00000000000E+00  0.26665191228E+02  0.26665191228E+02  0.00000000000E+00 0. -1.
          2   -1    0    0  505    0 -0.00000000000E+00 -0.00000000000E+00 -0.17752723171E+04  0.17752723171E+04  0.00000000000E+00 0. -1.
         21    1    1    2  503  502  0.84674419050E+02 -0.43636885756E+02 -0.41267500117E+03  0.42352637655E+03  0.00000000000E+00 0. -1.
         21    1    1    2  504  501 -0.10623599819E+03 -0.17449411210E+02 -0.22911617040E+03  0.25314973593E+03  0.00000000000E+00 0. -1.
         21    1    1    2  505  503  0.71140381617E+02  0.77868207611E+01 -0.94639912360E+03  0.94910109557E+03  0.00000000000E+00 0. -1.
          2    1    1    2  501    0 -0.49578802480E+02  0.53299476205E+02 -0.16041683066E+03  0.17616030023E+03  0.00000000000E+00 0. -1.
<scales pt_clust_3="126.98395" pt_clust_4="68.83461" pt_clust_5="71.56527" pt_clust_6="68.83461"></scales>
<clustering>
<clus scale="   68.835">  4  6 -1 -1</clus>
<clus scale="   71.565">  2  5  1 -1</clus>
<clus scale="  126.984">  2  3  1 -1</clus>
<clus scale="  152.094">  1  3  2 -1</clus>
</clustering>
</event>
<event>
 6    0  0.2117869E+002  0.8073097E+02  0.7546771E-02  0.1326990E+00
         21   -1    0    0  505  502  0.00000000000E+00  0.00000000000E+00  0.60994858279E+03  0.60994858279E+03  0.00000000000E+00 0.  1.
          2   -1    0    0  503    0 -0.00000000000E+00 -0.00000000000E+00 -0.22172097491E+04  0.22172097491E+04  0.00000000000E+00 0. -1.
         21    1    1    2  503  502 -0.86448602561E+01  0.30673007597E+02 -0.34418496020E+03  0.34565713335E+03  0.00000000000E+00 0. -1.
         21    1    1    2  504  501 -0.55283002649E+02  0.74690592176E+02  0.34412682101E+03  0.35645219018E+03  0.00000000000E+00 0.  1.
         21    1    1    2  505  504 -0.13612830668E+02 -0.32838004923E+02  0.25618458807E+03  0.25863910550E+03  0.00000000000E+00 0.  1.
          2    1    1    2  501    0  0.77540693573E+02 -0.72525594850E+02 -0.18633876152E+04  0.18664099029E+04  0.00000000000E+00 0. -1.
<scales pt_clust_3="31.86796" pt_clust_4="14000.00000" pt_clust_5="35.53137" pt_clust_6="80.73097"></scales>
<clustering>
<clus scale="   31.868">  2  3  1 -1</clus>
<clus scale="   35.531">  1  5  2 -1</clus>
<clus scale="   80.731">  2  6  1 -1</clus>
<clus scale="   35.531">  1  3  2 -1</clus>
</clustering>
</event>
<event>
 6    0  0.2117869E+002  0.1177056E+03  0.7546771E-02  0.1246931E+00
          1   -1    0    0  504    0 -0.00000000000E+00  0.00000000000E+00  0.84245600408E+03  0.84245600408E+03  0.00000000000E+00 0. -1.
         21   -1    0    0  503  502  0.00000000000E+00 -0.00000000000E+00 -0.17696929309E+03  0.17696929309E+03  0.00000000000E+00 0. -1.
         21    1    1    2  503  501  0.50693080735E+02 -0.12437845063E+03 -0.20938848228E+02  0.13593462686E+03  0.00000000000E+00 0. -1.
         21    1    1    2  504  505 -0.13017647423E+01  0.47949272694E+02  0.12879857865E+03  0.13744053698E+03  0.00000000000E+00 0.  1.
         21    1    1    2  505  502 -0.37514830022E+02  0.43793421997E+01 -0.88284308985E+02  0.96024269446E+02  0.00000000000E+00 0. -1.
          1    1    1    2  501    0 -0.11876485971E+02  0.72049835733E+02  0.64591128955E+03  0.65002586388E+03  0.00000000000E+00 0. -1.
<scales pt_clust_3="14000.00000" pt_clust_4="48.27941" pt_clust_5="37.76958" pt_clust_6="117.70565"></scales>
<clustering>
<clus scale="   37.770">  2  5  1 -1</clus>
<clus scale="   48.279">  1  4  2 -1</clus>
<clus scale="  117.706">  1  6  2 -1</clus>
<clus scale="   37.770">  2  3  1 -1</clus>
</clustering>
</event>
<event>
 6    0  0.2117869E+002  0.5285788E+02  0.7546771E-02  0.1430509E+00
         21   -1    0    0  503  502  0.00000000000E+00  0.00000000000E+00  0.21470863236E+04  0.21470863236E+04  0.00000000000E+00 0. -1.
          2   -1    0    0  504    0 -0.00000000000E+00 -0.00000000000E+00 -0.12781602753E+03  0.12781602753E+03  0.00000000000E+00 0.  1.
         21    1    1    2  503  501 -0.71407582191E+02  0.61191093883E+02  0.53894662480E+03  0.54708944164E+03  0.00000000000E+00 0.  1.
         21    1    1    2  504  505 -0.24232455064E+02 -0.44078316365E+02 -0.34662869371E+02  0.61087022886E+02  0.00000000000E+00 0.  1.
         21    1    1    2  505  502  0.32529928022E+02 -0.33475299496E+02  0.15764403858E+04  0.15771312824E+04  0.00000000000E+00 0. -1.
          2    1    1    2  501    0  0.63110109233E+02  0.16362521979E+02 -0.61453845189E+02  0.89594604198E+02  0.00000000000E+00 0.  1.
<scales pt_clust_3="49.94391" pt_clust_4="14000.00000" pt_clust_5="46.67753" pt_clust_6="52.85788"></scales>
<clustering>
<clus scale="   46.678">  1  5  2 -1</clus>
<clus scale="   49.944">  1  3  2 -1</clus>
<clus scale="   52.858">  1  6  2 -1</clus>
<clus scale="   46.678">  1  3  2 -1</clus>
</clustering>
</event>
<event>
 6    0  0.2117869E+002  0.7564457E+02  0.7546771E-02  0.1341887E+00
         21   -1    0    0  505  502  0.00000000000E+00  0.00000000000E+00  0.92060134573E+03  0.92060134573E+03  0.00000000000E+00 0. -1.
          2   -1    0    0  504    0 -0.00000000000E+00 -0.00000000000E+00 -0.13700039260E+03  0.13700039260E+03  0.00000000000E+00 0. -1.
         21    1    1    2  503  502 -0.55463275554E+02  0.56655962747E+02  0.72738165455E+03  0.73168992368E+03  0.00000000000E+00 0. -1.
         21    1    1    2  504  503  0.34501149507E+02 -0.27254988446E+02 -0.18019859146E+01  0.44004668681E+02  0.00000000000E+00 0. -1.
         21    1    1    2  505  501 -0.16305645075E+02 -0.85989652397E+02  0.14638558297E+03  0.17055448772E+03  0.00000000000E+00 0. -1.
          2    1    1    2  501    0  0.37267771122E+02  0.56588678096E+02 -0.88364298468E+02  0.11135265824E+03  0.00000000000E+00 0. -1.
<scales pt_clust_3="75.64457" pt_clust_4="43.96776" pt_clust_5="14000.00000" pt_clust_6="74.98591"></scales>
<clustering>
<clus scale="   43.968">  2  4  1 -1</clus>
<clus scale="   74.986">  2  6  1 -1</clus>
<clus scale="   75.645">  1  3  2 -1</clus>
<clus scale="   75.645">  1  3  2 -1</clus>
</clustering>
</event>
<event>
 6    0  0.2117869E+002  0.1210366E+03  0.7546771E-02  0.1241397E+00
          2   -1    0    0  503    0 -0.00000000000E+00  0.00000000000E+00  0.21181876084E+04  0.21181876084E+04  0.00000000000E+00 0.  1.
         21   -1    0    0  505  502  0.00000000000E+00 -0.00000000000E+00 -0.48669850880E+03  0.48669850880E+03  0.00000000000E+00 0. -1.
         21    1    1    2  503  504 -0.60834146413E+02  0.18785672030E+02  0.36619998150E+03  0.37169358522E+03  0.00000000000E+00 0. -1.
         21    1    1    2  504  502 -0.35131445166E+02  0.71921353525E+02 -0.22828816626E+03  0.24191400618E+03  0.00000000000E+00 0. -1.
         21    1    1    2  505  501 -0.50577806658E+02 -0.15577093587E+03 -0.21774463368E+03  0.27246178537E+03  0.00000000000E+00 0. -1.
          2    1    1    2  501    0  0.14654339824E+03  0.65063910312E+02  0.17113219180E+04  0.17188167404E+04  0.00000000000E+00 0.  1.
<scales pt_clust_3="63.66863" pt_clust_4="80.21305" pt_clust_5="14000.00000" pt_clust_6="121.03657"></scales>
<clustering>
<clus scale="   63.669">  1  3  2 -1</clus>
<clus scale="   80.213">  2  4  1 -1</clus>
<clus scale="  121.037">  1  6  2 -1</clus>
<clus scale="   80.213">  2  3  1 -1</clus>
</clustering>
</event>
<event>
 6    0  0.2117869E+002  0.9228091E+02  0.7546771E-02  0.1297420E+00
          2   -1    0    0  503    0 -0.00000000000E+00  0.00000000000E+00  0.24698268069E+04  0.24698268069E+04  0.00000000000E+00 0. -1.
         21   -1    0    0  504  502  0.00000000000E+00 -0.00000000000E+00 -0.55990257831E+03  0.55990257831E+03  0.00000000000E+00 0. -1.
         21    1    1    2  503  505 -0.41525156162E+02 -0.18957475584E+02  0.47586577215E+02  0.65940934220E+02  0.00000000000E+00 0.  1.
         21    1    1    2  504  501 -0.51901650357E+02  0.36338190603E+02 -0.72611357751E+02  0.96367290511E+02  0.00000000000E+00 0. -1.
         21    1    1    2  505  502  0.11581068446E+03 -0.10126316047E+03 -0.45273553473E+03  0.47815876727E+03  0.00000000000E+00 0. -1.
          2    1    1    2  501    0 -0.22383877947E+02  0.83882445446E+02  0.23876845439E+04  0.23892623932E+04  0.00000000000E+00 0. -1.
<scales pt_clust_3="45.64783" pt_clust_4="63.47229" pt_clust_5="92.28091" pt_clust_6="14000.00000"></scales>
<clustering>
<clus scale="   45.648">  1  3  2 -1</clus>
<clus scale="   63.472">  2  4  1 -1</clus>
<clus scale="   92.281">  2  5  1 -1</clus>
<clus scale="   63.472">  2  3  1 -1</clus>
</clustering>
</event>
<event>
 6    0  0.2117869E+002  0.8677404E+02  0.7546771E-02  0.1310857E+00
         21   -1    0    0  503  502  0.00000000000E+00  0.00000000000E+00  0.34750491052E+03  0.34750491052E+03  0.00000000000E+00 0.  1.
          1   -1    0    0  504    0 -0.00000000000E+00 -0.00000000000E+00 -0.41176277893E+03  0.41176277893E+03  0.00000000000E+00 0. -1.
         21    1    1    2  503  505  0.10937582624E+02 -0.42572537089E+02  0.46081163409E+02  0.63683005967E+02  0.00000000000E+00 0.  1.
         21    1    1    2  504  502 -0.28782197925E+02  0.22051151644E+02  0.23289046502E+03  0.23569606892E+03  0.00000000000E+00 0.  1.
         21    1    1    2  505  501  0.97509740128E+02 -0.11764514621E+02  0.77634368657E+01  0.98523216432E+02  0.00000000000E+00 0.  1.
          1    1    1    2  501    0 -0.79665124828E+02  0.32285900066E+02 -0.35099293371E+03  0.36136539814E+03  0.00000000000E+00 0. -1.
<scales pt_clust_3="32.02497" pt_clust_4="36.25835" pt_clust_5="86.77404" pt_clust_6="14000.00000"></scales>
<clustering>
<clus scale="   36.258">  1  4  2 -1</clus>
<clus scale="   32.025">  1  3  2 -1</clus>
<clus scale="   86.774">  1  5  2 -1</clus>
<clus scale="   36.258">  1  3  2 -1</clus>
</clustering>
</event>
<event>
 6    0  0.2117869E+002  0.2200424E+03  0.7546771E-02  0.1133851E+00
          2   -1    0    0  503    0 -0.00000000000E+00  0.00000000000E+00  0.28179024534E+04  0.28179024534E+04  0.00000000000E+00 0.  1.
         21   -1    0    0  505  502  0.00000000000E+00 -0.00000000000E+00 -0.78046235546E+02  0.78046235546E+02  0.00000000000E+00 0.  1.
         21    1    1    2  503  504  0.18062201987E+02  0.94532477810E+02  0.39133446972E+03  0.40299540902E+03  0.00000000000E+00 0.  1.
         21    1    1    2  504  502  0.85608239777E+02 -0.20574813931E+03  0.10918101977E+03  0.24815632699E+03  0.00000000000E+00 0.  1.
         21    1    1    2  505  501 -0.63464009495E+02  0.43248975550E+02  0.12063860337E+04  0.12088281171E+04  0.00000000000E+00 0.  1.
          2    1    1    2  501    0 -0.40206432269E+02  0.67966685946E+02  0.10329546947E+04  0.10359688359E+04  0.00000000000E+00 0.  1.
<scales pt_clust_3="96.24257" pt_clust_4="216.95318" pt_clust_5="36.23393" pt_clust_6="36.23393"></scales>
<clustering>
<clus scale="   36.234">  5  6 -1 -1</clus>
<clus scale="   96.243">  1  3  2 -1</clus>
<clus scale="  216.953">  2  4  1 -1</clus>
<clus scale="  216.953">  2  3  1 -1</clus>
</clustering>
</event>
<event>
 6    0  0.2117869E+002  0.8050338E+02  0.7546771E-02  0.1327629E+00
         -4   -1    0    0    0  501 -0.00000000000E+00  0.00000000000E+00  0.28441436035E+03  0.28441436035E+03  0.00000000000E+00 0. -1.
         21   -1    0    0  505  502  0.00000000000E+00 -0.00000000000E+00 -0.24556476559E+03  0.24556476559E+03  0.00000000000E+00 0.  1.
         21    1    1    2  503  502  0.26575751244E+02  0.16356222642E+02 -0.35345295987E+02  0.47149618469E+02  0.00000000000E+00 0. -1.
         21    1    1    2  504  503  0.74140708629E+02  0.22071104562E+02  0.21096591817E+02  0.80181322756E+02  0.00000000000E+00 0.  1.
         21    1    1    2  505  501 -0.66154622284E+02 -0.86116110572E+02 -0.15338221322E+03  0.18793222683E+03  0.00000000000E+00 0.  1.
         -4    1    1    2    0  504 -0.34561837589E+02  0.47688783368E+02  0.20648051215E+03  0.21471595789E+03  0.00000000000E+00 0. -1.
<scales pt_clust_3="31.20571" pt_clust_4="80.50338" pt_clust_5="14000.00000" pt_clust_6="58.85196"></scales>
<clustering>
<clus scale="   31.206">  2  3  1 -1</clus>
<clus scale="   58.852">  1  6  2 -1</clus>
<clus scale="   80.503">  1  4  2 -1</clus>
<clus scale="   31.206">  2  3  1 -1</clus>
</clustering>
</event>
<event>
 6    0  0.2117869E+002  0.8044459E+02  0.7546771E-02  0.1327794E+00
         21   -1    0    0  505  502  0.00000000000E+00  0.00000000000E+00  0.16153675914E+03  0.16153675914E+03  0.00000000000E+00 0.  1.
          2   -1    0    0  504    0 -0.00000000000E+00 -0.00000000000E+00 -0.14224629103E+03  0.14224629103E+03  0.00000000000E+00 0.  1.
         21    1    1    2  503  502 -0.60582243140E+02 -0.78564201519E+02  0.57499814602E+02  0.11466808895E+03  0.00000000000E+00 0.  1.
         21    1    1    2  504  503  0.18251573088E+02 -0.27991233007E+02 -0.15789759546E+02  0.36958700626E+02  0.00000000000E+00 0.  1.
         21    1    1    2  505  501  0.74906591124E+00  0.72415127172E+02  0.28740682707E+02  0.77913661097E+02  0.00000000000E+00 0. -1.
          2    1    1    2  501    0  0.41581604141E+02  0.34140307355E+02 -0.51160269647E+02  0.74242599494E+02  0.00000000000E+00 0.  1.
<scales pt_clust_3="80.44459" pt_clust_4="33.41600" pt_clust_5="14000.00000" pt_clust_6="54.85144"></scales>
<clustering>
<clus scale="   33.416">  2  4  1 -1</clus>
<clus scale="   54.851">  2  6  1 -1</clus>
<clus scale="   80.445">  2  3  1 -1</clus>
<clus scale="   80.445">  1  3  2 -1</clus>
</clustering>
</event>
<event>
 6    0  0.2442481E+002  0.6974596E+02  0.7546771E-02  0.1360959E+00
         21   -1    0    0  505  502  0.00000000000E+00  0.00000000000E+00  0.12560198393E+04  0.12560198393E+04  0.00000000000E+00 0. -1.
          2   -1    0    0  503    0 -0.00000000000E+00 -0.00000000000E+00 -0.17391576987E+04  0.17391576987E+04  0.00000000000E+00 0. -1.
         21    1    1    2  503  504  0.12157370526E+03 -0.46598070084E+02 -0.27202136238E+03  0.30157448092E+03  0.00000000000E+00 0. -1.
         21    1    1    2  504  502 -0.28539696159E+02  0.24097357193E+02  0.12366083402E+04  0.12371723340E+04  0.00000000000E+00 0. -1.
         21    1    1    2  505  501 -0.37840738659E+02 -0.14636433961E+02 -0.11324359082E+03  0.12029238364E+03  0.00000000000E+00 0. -1.
          2    1    1    2  501    0 -0.55193270444E+02  0.37137146852E+02 -0.13344812465E+04  0.13361383394E+04  0.00000000000E+00 0. -1.
<scales pt_clust_3="69.74596" pt_clust_4="37.35233" pt_clust_5="44.28866" pt_clust_6="14000.00000"></scales>
<clustering>
<clus scale="   37.352">  1  4  2 -1</clus>
<clus scale="   44.289">  1  5  2 -1</clus>
<clus scale="   69.746">  1  3  2 -1</clus>
<clus scale="   37.352">  1  3  2 -1</clus>
</clustering>
</event>
<event>
 6    0  0.2117869E+002  0.8991191E+02  0.7546771E-02  0.1303065E+00
         21   -1    0    0  503  502  0.00000000000E+00  0.00000000000E+00  0.11452605939E+03  0.11452605939E+03  0.00000000000E+00 0.  1.
          2   -1    0    0  504    0 -0.00000000000E+00 -0.00000000000E+00 -0.22116322670E+04  0.22116322670E+04  0.00000000000E+00 0.  1.
         21    1    1    2  503  501  0.78804009373E+02  0.39583115320E+02  0.78096690706E+02  0.11779638369E+03  0.00000000000E+00 0.  1.
         21    1    1    2  504  505  0.49490782746E+02 -0.11099275065E+02 -0.15106201238E+03  0.15934949974E+03  0.00000000000E+00 0.  1.
         21    1    1    2  505  502 -0.90518286845E+02 -0.76923147465E+02 -0.28470956749E+03  0.30849678879E+03  0.00000000000E+00 0.  1.
          2    1    1    2  501    0 -0.37776505275E+02  0.48439307210E+02 -0.17394313185E+04  0.17405156542E+04  0.00000000000E+00 0.  1.
<scales pt_clust_3="89.91191" pt_clust_4="50.72013" pt_clust_5="14000.00000" pt_clust_6="39.26253"></scales>
<clustering>
<clus scale="   50.720">  2  4  1 -1</clus>
<clus scale="   39.263">  2  6  1 -1</clus>
<clus scale="   89.912">  1  3  2 -1</clus>
<clus scale="   89.912">  1  3  2 -1</clus>
</clustering>
</event>
<event>
 6    0  0.2117869E+002  0.2961956E+03  0.7546771E-02  0.1087158E+00
          4   -1    0    0  503    0 -0.00000000000E+00  0.00000000000E+00  0.23827517836E+03  0.23827517836E+03  0.00000000000E+00 0. -1.
         21   -1    0    0  504  502  0.00000000000E+00 -0.00000000000E+00 -0.23271974022E+04  0.23271974022E+04  0.00000000000E+00 0.  1.
         21    1    1    2  503  505  0.74084091105E+02 -0.17863682229E+02  0.10180597974E+03  0.12716926204E+03  0.00000000000E+00 0. -1.
         21    1    1    2  504  501  0.78038405593E+02 -0.54915293908E+02 -0.10340838359E+04  0.10384772804E+04  0.00000000000E+00 0. -1.
         21    1    1    2  505  502 -0.22398048461E+03 -0.20953602561E+03 -0.10429418080E+04  0.10871063510E+04  0.00000000000E+00 0.  1.
          4    1    1    2  501    0  0.71857987913E+02  0.28231500175E+03 -0.11370255970E+03  0.31271968713E+03  0.00000000000E+00 0. -1.
<scales pt_clust_3="76.20737" pt_clust_4="96.68258" pt_clust_5="14000.00000" pt_clust_6="296.19558"></scales>
<clustering>
<clus scale="   76.207">  1  3  2 -1</clus>
<clus scale="   96.683">  2  4  1 -1</clus>
<clus scale="  296.196">  1  6  2 -1</clus>
<clus scale="   96.683">  2  3  1 -1</clus>
</clustering>
</event>
<event>
 6    0  0.2117869E+002  0.7580802E+02  0.7546771E-02  0.1341387E+00
          1   -1    0    0  503    0 -0.00000000000E+00  0.00000000000E+00  0.20313349261E+04  0.20313349261E+04  0.00000000000E+00 0. -1.
         21   -1    0    0  504  502  0.00000000000E+00 -0.00000000000E+00 -0.92786144480E+02  0.92786144480E+02  0.00000000000E+00 0. -1.
         21    1    1    2  503  502 -0.66401649050E+02  0.35561368935E+02  0.16602471336E+03  0.18231290520E+03  0.00000000000E+00 0. -1.
         21    1    1    2  504  505  0.25910418984E+02 -0.33986883887E+02 -0.65287712825E+02  0.78031682887E+02  0.00000000000E+00 0. -1.
         21    1    1    2  505  501  0.18232903831E+02 -0.74696130745E+02  0.10963147683E+03  0.13390672665E+03  0.00000000000E+00 0.  1.
          1    1    1    2  501    0  0.22258326235E+02  0.73121645697E+02  0.17281803043E+04  0.17298697559E+04  0.00000000000E+00 0. -1.
<scales pt_clust_3="60.71988" pt_clust_4="42.73708" pt_clust_5="75.80802" pt_clust_6="14000.00000"></scales>
<clustering>
<clus scale="   42.737">  2  4  1 -1</clus>
<clus scale="   60.720">  2  3  1 -1</clus>
<clus scale="   75.808">  2  5  1 -1</clus>
<clus scale="   42.737">  2  3  1 -1</clus>
</clustering>
</event>
<event>
 6    0  0.2117869E+002  0.1339154E+03  0.7546771E-02  0.1221759E+00
         21   -1    0    0  505  502  0.00000000000E+00  0.00000000000E+00  0.34733502909E+03  0.34733502909E+03  0.00000000000E+00 0.  1.
          2   -1    0    0  503    0 -0.00000000000E+00 -0.00000000000E+00 -0.15290038909E+04  0.15290038909E+04  0.00000000000E+00 0.  1.
         21    1    1    2  503  502  0.12091873986E+03 -0.17666763522E+00 -0.52833875083E+03  0.54199926983E+03  0.00000000000E+00 0. -1.
         21    1    1    2  504  501 -0.11978242950E+03 -0.69654548964E+02  0.19473393002E+03  0.23899977010E+03  0.00000000000E+00 0.  1.
         21    1    1    2  505  504  0.34991711702E+02 -0.38379609786E+02  0.11466303057E+03  0.12587702298E+03  0.00000000000E+00 0.  1.
          2    1    1    2  501    0 -0.36128022062E+02  0.10821082639E+03 -0.96272707160E+03  0.96946285711E+03  0.00000000000E+00 0.  1.
<scales pt_clust_3="14000.00000" pt_clust_4="133.91544" pt_clust_5="51.93664" pt_clust_6="113.37861"></scales>
<clustering>
<clus scale="   51.937">  1  5  2 -1</clus>
<clus scale="  113.379">  2  6  1 -1</clus>
<clus scale="  133.915">  1  4  2 -1</clus>
<clus scale="   51.937">  1  3  2 -1</clus>
</clustering>
</event>
<event>
 6    0  0.2117869E+002  0.1751030E+03  0.7546771E-02  0.1172628E+00
          2   -1    0    0  504    0 -0.00000000000E+00  0.00000000000E+00  0.19966502928E+04  0.19966502928E+04  0.00000000000E+00 0. -1.
         21   -1    0    0  501  502  0.00000000000E+00 -0.00000000000E+00 -0.95429356559E+02  0.95429356559E+02  0.00000000000E+00 0.  1.
         21    1    1    2  503  505 -0.17465848250E+02 -0.18913243714E+03  0.19676730356E+03  0.27348401486E+03  0.00000000000E+00 0.  1.
         21    1    1    2  504  503 -0.34152448033E+01 -0.46813829465E+02  0.40539166625E+03  0.40809998970E+03  0.00000000000E+00 0.  1.
         21    1    1    2  505  502 -0.25817219063E+02  0.30153599708E+02 -0.39146228747E+02  0.55751193715E+02  0.00000000000E+00 0.  1.
          2    1    1    2  501    0  0.46698312117E+02  0.20579266690E+03  0.13382081952E+04  0.13547444511E+04  0.00000000000E+00 0. -1.
<scales pt_clust_3="175.10303" pt_clust_4="46.14922" pt_clust_5="39.69595" pt_clust_6="14000.00000"></scales>
<clustering>
<clus scale="   39.696">  2  5  1 -1</clus>
<clus scale="   46.149">  1  4  2 -1</clus>
<clus scale="  175.103">  2  3  1 -1</clus>
<clus scale="   39.696">  2  3  1 -1</clus>
</clustering>
</event>
<event>
 6    0  0.2117869E+002  0.1483226E+03  0.7546771E-02  0.1202549E+00
          1   -1    0    0  504    0 -0.00000000000E+00  0.00000000000E+00  0.16160323594E+04  0.16160323594E+04  0.00000000000E+00 0. -1.
         21   -1    0    0  505  502  0.00000000000E+00 -0.00000000000E+00 -0.83720464066E+02  0.83720464066E+02  0.00000000000E+00 0.  1.
         21    1    1    2  503  501  0.42738806150E+02  0.13312175878E+02  0.33243147064E+03  0.33543181461E+03  0.00000000000E+00 0. -1.
         21    1    1    2  504  502  0.73331496389E+02 -0.11551036163E+03  0.30567163394E+03  0.33489595369E+03  0.00000000000E+00 0. -1.
         21    1    1    2  505  503 -0.13554304305E+03  0.75736722697E+02  0.22256993573E+02  0.15685452320E+03  0.00000000000E+00 0.  1.
          1    1    1    2  501    0  0.19472740512E+02  0.26461463056E+02  0.87195179717E+03  0.87257053196E+03  0.00000000000E+00 0. -1.
<scales pt_clust_3="57.31503" pt_clust_4="14000.00000" pt_clust_5="148.32263" pt_clust_6="32.85417"></scales>
<clustering>
<clus scale="   32.854">  1  6  2 -1</clus>
<clus scale="   57.315">  1  3  2 -1</clus>
<clus scale="  148.323">  2  5  1 -1</clus>
<clus scale="  148.323">  2  3  1 -1</clus>
</clustering>
</event>
<event>
 6    0  0.2117869E+002  0.2019999E+03  0.7546771E-02  0.1148063E+00
          2   -1    0    0  504    0 -0.00000000000E+00  0.00000000000E+00  0.10541418637E+04  0.10541418637E+04  0.00000000000E+00 0.  1.
         21   -1    0    0  501  502  0.00000000000E+00 -0.00000000000E+00 -0.74358654533E+02  0.74358654533E+02  0.00000000000E+00 0.  1.
         21    1    1    2  503  505  0.19448650785E+03  0.59069460850E+02  0.57345756352E+03  0.60841415179E+03  0.00000000000E+00 0.  1.
         21    1    1    2  504  503  0.89899499262E+00  0.38066361209E+02  0.13227476022E+03  0.13764617045E+03  0.00000000000E+00 0.  1.
         21    1    1    2  505  502 -0.54515984584E+01 -0.64986304106E+02  0.30719191420E+02  0.72087504941E+02  0.00000000000E+00 0.  1.
          2    1    1    2  501    0 -0.18993390438E+03 -0.32149517953E+02  0.24333169403E+03  0.31035269108E+03  0.00000000000E+00 0.  1.
<scales pt_clust_3="201.99987" pt_clust_4="38.07698" pt_clust_5="63.08916" pt_clust_6="14000.00000"></scales>
<clustering>
<clus scale="   38.077">  1  4  2 -1</clus>
<clus scale="   63.089">  2  5  1 -1</clus>
<clus scale="  202.000">  1  3  2 -1</clus>
<clus scale="   63.089">  2  3  1 -1</clus>
</clustering>
</event>
<event>
 6    0  0.2117869E+002  0.1576146E+03  0.7546771E-02  0.1191417E+00
         21   -1    0    0  501  502  0.00000000000E+00  0.00000000000E+00  0.34647833825E+02  0.34647833825E+02  0.00000000000E+00 0. -1.
          2   -1    0    0  504    0 -0.00000000000E+00 -0.00000000000E+00 -0.34550172920E+04  0.34550172920E+04  0.00000000000E+00 0. -1.
         21    1    1    2  503  502  0.50225029032E+02  0.13681835503E+00 -0.69329872313E+02  0.85610767170E+02  0.00000000000E+00 0. -1.
         21    1    1    2  504  505 -0.73442757026E+02  0.31037922293E+01 -0.86987072782E+03  0.87297110789E+03  0.00000000000E+00 0.  1.
         21    1    1    2  505  503 -0.10050452812E+03 -0.14147591785E+03 -0.33845093239E+03  0.38034935144E+03  0.00000000000E+00 0. -1.
          2    1    1    2  501    0  0.12372225611E+03  0.13823530726E+03 -0.21427179256E+04  0.21507338993E+04  0.00000000000E+00 0. -1.
<scales pt_clust_3="50.22522" pt_clust_4="70.57416" pt_clust_5="14000.00000" pt_clust_6="157.61455"></scales>
<clustering>
<clus scale="   50.225">  1  3  2 -1</clus>
<clus scale="   70.574">  2  4  1 -1</clus>
<clus scale="  157.615">  2  6  1 -1</clus>
<clus scale="   50.225">  1  3  2 -1</clus>
</clustering>
</event>
<event>
 6    0  0.2117869E+002  0.8546140E+02  0.7546771E-02  0.1314230E+00
          2   -1    0    0  505    0 -0.00000000000E+00  0.00000000000E+00  0.20273655087E+04  0.20273655087E+04  0.00000000000E+00 0.  1.
         21   -1    0    0  504  502  0.00000000000E+00 -0.00000000000E+00 -0.10249894541E+02  0.10249894541E+02  0.00000000000E+00 0. -1.
         21    1    1    2  503  502  0.29109724885E+02 -0.15914261520E+02  0.13032408086E+03  0.13448050362E+03  0.00000000000E+00 0. -1.
         21    1    1    2  504  501  0.10431279617E+01  0.91606159954E+02  0.37596037846E+03  0.38696121618E+03  0.00000000000E+00 0. -1.
         21    1    1    2  505  503 -0.32948652362E+02  0.15139206478E+02  0.44696030196E+03  0.44842872431E+03  0.00000000000E+00 0. -1.
          2    1    1    2  501    0  0.27957995156E+01 -0.90831104913E+02  0.10638708529E+04  0.10677449591E+04  0.00000000000E+00 0.  1.
<scales pt_clust_3="33.17589" pt_clust_4="85.46140" pt_clust_5="33.28737" pt_clust_6="14000.00000"></scales>
<clustering>
<clus scale="   33.176">  2  3  1 -1</clus>
<clus scale="   33.287">  1  5  2 -1</clus>
<clus scale="   85.461">  2  4  1 -1</clus>
<clus scale="   33.176">  2  3  1 -1</clus>
</clustering>
</event>
<event>
 6    0  0.2117869E+002  0.1032037E+03  0.7546771E-02  0.1273700E+00
         21   -1    0    0  505  502  0.00000000000E+00  0.00000000000E+00  0.19528577023E+03  0.19528577023E+03  0.00000000000E+00 0. -1.
          2   -1    0    0  503    0 -0.00000000000E+00 -0.00000000000E+00 -0.11655590777E+04  0.11655590777E+04  0.00000000000E+00 0.  1.
         21    1    1    2  503  502 -0.43055711173E+02  0.43087140220E+01 -0.22802056682E+02  0.48911073082E+02  0.00000000000E+00 0.  1.
         21    1    1    2  504  501  0.11855404324E+03  0.61793537426E+02 -0.78455432087E+02  0.15501211972E+03  0.00000000000E+00 0. -1.
         21    1    1    2  505  504 -0.66685162639E+02  0.18238409146E+02  0.13375829666E+03  0.15056836457E+03  0.00000000000E+00 0. -1.
          2    1    1    2  501    0 -0.88131694283E+01 -0.84340660594E+02 -0.10027741154E+04  0.10063532906E+04  0.00000000000E+00 0.  1.
<scales pt_clust_3="43.27077" pt_clust_4="14000.00000" pt_clust_5="103.20365" pt_clust_6="84.80280"></scales>
<clustering>
<clus scale="   43.271">  1  3  2 -1</clus>
<clus scale="   84.803">  2  6  1 -1</clus>
<clus scale="  103.204">  1  5  2 -1</clus>
<clus scale="   43.271">  1  3  2 -1</clus>
</clustering>
</event>
<event>
 6    0  0.2117869E+002  0.1587313E+03  0.7546771E-02  0.1190137E+00
          2   -1    0    0  503    0 -0.00000000000E+00  0.00000000000E+00  0.23783149278E+04  0.23783149278E+04  0.00000000000E+00 0.  1.
         21   -1    0    0  501  502  0.00000000000E+00 -0.00000000000E+00 -0.12531783957E+04  0.12531783957E+04  0.00000000000E+00 0.  1.
         21    1    1    2  503  505  0.26908589062E+02  0.19516871790E+02  0.72965518189E+02  0.80180716475E+02  0.00000000000E+00 0. -1.
         21    1    1    2  504  502  0.24120280696E+02  0.93258138133E+02 -0.79110894243E+03  0.79695183484E+03  0.00000000000E+00 0.  1.
         21    1    1    2  505  504  0.52712946572E+02  0.32741512603E+02 -0.44993445783E+03  0.45419343646E+03  0.00000000000E+00 0. -1.
          2    1    1    2  501    0 -0.10374181633E+03 -0.14551652253E+03  0.22932144142E+04  0.23001673357E+04  0.00000000000E+00 0.  1.
<scales pt_clust_3="33.24125" pt_clust_4="46.78004" pt_clust_5="46.78004" pt_clust_6="147.64528"></scales>
<clustering>
<clus scale="   33.241">  1  3  2 -1</clus>
<clus scale="   46.780">  4  5 -1 -1</clus>
<clus scale="  147.645">  1  6  2 -1</clus>
<clus scale="  158.731">  2  3  1 -1</clus>
</clustering>
</event>
<event>
 6    0  0.2117869E+002  0.9369580E+02  0.7546771E-02  0.1294141E+00
         21   -1    0    0  501  502  0.00000000000E+00  0.00000000000E+00  0.16999139318E+03  0.16999139318E+03  0.00000000000E+00 0.  1.
          2   -1    0    0  504    0 -0.00000000000E+00 -0.00000000000E+00 -0.13724082230E+04  0.13724082230E+04  0.00000000000E+00 0.  1.
         21    1    1    2  503  502  0.39400503915E+02 -0.85536922298E+02  0.14842929521E+03  0.17578458539E+03  0.00000000000E+00 0.  1.
         21    1    1    2  504  505 -0.31414778165E+02  0.23525885309E+02 -0.75273165389E+02  0.84890547144E+02  0.00000000000E+00 0.  1.
         21    1    1    2  505  503 -0.36237776931E+02 -0.16525243254E+02 -0.30933261100E+03  0.31188607594E+03  0.00000000000E+00 0.  1.
          2    1    1    2  501    0  0.28252051181E+02  0.78536280243E+02 -0.96624034860E+03  0.96983840766E+03  0.00000000000E+00 0.  1.
<scales pt_clust_3="93.69580" pt_clust_4="39.24736" pt_clust_5="45.11750" pt_clust_6="14000.00000"></scales>
<clustering>
<clus scale="   39.247">  2  4  1 -1</clus>
<clus scale="   45.118">  2  5  1 -1</clus>
<clus scale="   93.696">  1  3  2 -1</clus>
<clus scale="   93.696">  1  3  2 -1</clus>
</clustering>
</event>
<event>
 6    0  0.2117869E+002  0.1038711E+03  0.7546771E-02  0.1272360E+00
          2   -1    0    0  504    0 -0.00000000000E+00  0.00000000000E+00  0.84081568720E+03  0.84081568720E+03  0.00000000000E+00 0. -1.
         21   -1    0    0  503  502  0.00000000000E+00 -0.00000000000E+00 -0.25675152590E+03  0.25675152590E+03  0.00000000000E+00 0. -1.
         21    1    1    2  503  501  0.23258097935E+02 -0.53702009659E+02 -0.15509380335E+03  0.16576770735E+03  0.00000000000E+00 0. -1.
         21    1    1    2  504  505  0.10040772262E+03 -0.97248228146E+01  0.69928063970E+03  0.70651942365E+03  0.00000000000E+00 0. -1.
         21    1    1    2  505  502  0.65139364139E+01  0.30713892021E+02 -0.53315365392E+02  0.61873279512E+02  0.00000000000E+00 0. -1.
          2    1    1    2  501    0 -0.13017975697E+03  0.32712940452E+02  0.93192690349E+02  0.16340680259E+03  0.00000000000E+00 0. -1.
<scales pt_clust_3="40.63578" pt_clust_4="14000.00000" pt_clust_5="31.39705" pt_clust_6="103.87107"></scales>
<clustering>
<clus scale="   31.397">  2  5  1 -1</clus>
<clus scale="   40.636">  2  3  1 -1</clus>
<clus scale="  103.871">  2  6  1 -1</clus>
<clus scale="   31.397">  2  3  1 -1</clus>
</clustering>
</event>
<event>
 6    0  0.2117869E+002  0.1611579E+03  0.7546771E-02  0.1187396E+00
         21   -1    0    0  504  502  0.00000000000E+00  0.00000000000E+00  0.32434899861E+03  0.32434899861E+03  0.00000000000E+00 0. -1.
          2   -1    0    0  505    0 -0.00000000000E+00 -0.00000000000E+00 -0.21489515259E+04  0.21489515259E+04  0.00000000000E+00 0.  1.
         21    1    1    2  503  502  0.10354529572E+03 -0.83442387429E+02 -0.44681822693E+03  0.46618750327E+03  0.00000000000E+00 0.  1.
         21    1    1    2  504  501 -0.15261202106E+03 -0.55535125094E+02  0.28775517650E+03  0.33042036967E+03  0.00000000000E+00 0. -1.
         21    1    1    2  505  503  0.16890832041E+02  0.28742419006E+02 -0.75756039057E+02  0.82767169282E+02  0.00000000000E+00 0. -1.
          2    1    1    2  501    0  0.32175893293E+02  0.11023509352E+03 -0.15897834378E+04  0.15939254823E+04  0.00000000000E+00 0.  1.
<scales pt_clust_3="132.10554" pt_clust_4="161.15791" pt_clust_5="33.33807" pt_clust_6="14000.00000"></scales>
<clustering>
<clus scale="   33.338">  2  5  1 -1</clus>
<clus scale="  132.106">  2  3  1 -1</clus>
<clus scale="  161.158">  1  4  2 -1</clus>
<clus scale="  161.158">  1  3  2 -1</clus>
</clustering>
</event>
<event>
 6    0  0.2117869E+002  0.9428291E+02  0.7546771E-02  0.1292799E+00
         21   -1    0    0  504  502  0.00000000000E+00  0.00000000000E+00  0.23276907544E+03  0.23276907544E+03  0.00000000000E+00 0. -1.
         -1   -1    0    0    0  501 -0.00000000000E+00 -0.00000000000E+00 -0.26632311723E+03  0.26632311723E+03  0.00000000000E+00 0. -1.
         21    1    1    2  503  502 -0.25301506145E+02  0.59428047081E+02  0.33150586662E+02  0.72600415902E+02  0.00000000000E+00 0. -1.
         21    1    1    2  504  505 -0.72746547239E+02 -0.18848615445E+02  0.11245174326E+03  0.13525060075E+03  0.00000000000E+00 0. -1.
         21    1    1    2  505  501 -0.80723611441E+01 -0.98654053339E+02 -0.12296728835E+03  0.15785670483E+03  0.00000000000E+00 0. -1.
         -1    1    1    2    0  503  0.10612041453E+03  0.58074621703E+02 -0.56189083370E+02  0.13338447119E+03  0.00000000000E+00 0. -1.
<scales pt_clust_3="64.58993" pt_clust_4="92.82661" pt_clust_5="94.28291" pt_clust_6="14000.00000"></scales>
<clustering>
<clus scale="   64.590">  1  3  2 -1</clus>
<clus scale="   92.827">  1  4  2 -1</clus>
<clus scale="   94.283">  2  5  1 -1</clus>
<clus scale="   64.590">  1  3  2 -1</clus>
</clustering>
</event>
<event>
 6    0  0.2117869E+002  0.1387964E+03  0.7546771E-02  0.1214958E+00
         21   -1    0    0  503  502  0.00000000000E+00  0.00000000000E+00  0.62753970726E+03  0.62753970726E+03  0.00000000000E+00 0.  1.
          2   -1    0    0  505    0 -0.00000000000E+00 -0.00000000000E+00 -0.12957707685E+04  0.12957707685E+04  0.00000000000E+00 0. -1.
         21    1    1    2  503  504 -0.10709910519E+02  0.52073388080E+02  0.49183396787E+03  0.49469889012E+03  0.00000000000E+00 0.  1.
         21    1    1    2  504  501  0.82781434274E+02  0.30746315140E+02 -0.26720084850E+02  0.92260851337E+02  0.00000000000E+00 0. -1.
         21    1    1    2  505  502  0.30485060485E+02  0.21874082251E+02  0.93518563659E+02  0.10076475642E+03  0.00000000000E+00 0. -1.
          2    1    1    2  501    0 -0.10255658424E+03 -0.10469378547E+03 -0.12268635079E+04  0.12355859779E+04  0.00000000000E+00 0. -1.
<scales pt_clust_3="74.53389" pt_clust_4="138.79645" pt_clust_5="37.52085" pt_clust_6="14000.00000"></scales>
<clustering>
<clus scale="   37.521">  1  5  2 -1</clus>
<clus scale="   74.534">  1  3  2 -1</clus>
<clus scale="  138.796">  1  4  2 -1</clus>
<clus scale="   37.521">  1  3  2 -1</clus>
</clustering>
</event>
<event>
 6    0  0.2117869E+002  0.1476551E+03  0.7546771E-02  0.1203384E+00
         -2   -1    0    0    0  501 -0.00000000000E+00  0.00000000000E+00  0.45096532158E+03  0.45096532158E+03  0.00000000000E+00 0. -1.
         21   -1    0    0  504  502  0.00000000000E+00 -0.00000000000E+00 -0.90765567828E+03  0.90765567828E+03  0.00000000000E+00 0.  1.
         21    1    1    2  503  501 -0.34935067375E+02  0.47452640564E+01  0.67615165922E+02  0.76254751498E+02  0.00000000000E+00 0.  1.
         21    1    1    2  504  503  0.14362834929E+03 -0.22911929704E+02 -0.47352371112E+03  0.49535720872E+03  0.00000000000E+00 0.  1.
         21    1    1    2  505  502 -0.15257978060E+03 -0.15804378486E+02 -0.40260382110E+03  0.43083663330E+03  0.00000000000E+00 0.  1.
         -2    1    1    2    0  505  0.43886498679E+02  0.33971044133E+02  0.35182200959E+03  0.35617240634E+03  0.00000000000E+00 0. -1.
<scales pt_clust_3="35.25587" pt_clust_4="147.65509" pt_clust_5="14000.00000" pt_clust_6="40.01927"></scales>
<clustering>
<clus scale="   35.256">  1  3  2 -1</clus>
<clus scale="   40.019">  1  6  2 -1</clus>
<clus scale="  147.655">  2  4  1 -1</clus>
<clus scale="  147.655">  2  3  1 -1</clus>
</clustering>
</event>
<event>
 6    0  0.2117869E+002  0.2032267E+03  0.7546771E-02  0.1147045E+00
          2   -1    0    0  503    0 -0.00000000000E+00  0.00000000000E+00  0.26452940401E+04  0.26452940401E+04  0.00000000000E+00 0. -1.
         21   -1    0    0  504  502  0.00000000000E+00 -0.00000000000E+00 -0.17626130335E+04  0.17626130335E+04  0.00000000000E+00 0. -1.
         21    1    1    2  503  505 -0.44489414933E+02 -0.20174662797E+01  0.15199740885E+03  0.15838746954E+03  0.00000000000E+00 0. -1.
         21    1    1    2  504  501  0.54013072159E+02  0.73401586505E+01 -0.10215983218E+04  0.10230515242E+04  0.00000000000E+00 0. -1.
         21    1    1    2  505  502 -0.25326703756E+03  0.27622799410E+02 -0.70876375634E+03  0.75316218284E+03  0.00000000000E+00 0.  1.
          2    1    1    2  501    0  0.24374338033E+03 -0.32945491780E+02  0.24610456760E+04  0.24733058970E+04  0.00000000000E+00 0. -1.
<scales pt_clust_3="44.53513" pt_clust_4="54.49660" pt_clust_5="203.22674" pt_clust_6="14000.00000"></scales>
<clustering>
<clus scale="   44.535">  1  3  2 -1</clus>
<clus scale="   54.497">  2  4  1 -1</clus>
<clus scale="  203.227">  2  5  1 -1</clus>
<clus scale="   54.497">  2  3  1 -1</clus>
</clustering>
</event>
<event>
 6    0  0.2117869E+002  0.1260863E+03  0.7546771E-02  0.1233381E+00
         21   -1    0    0  505  502  0.00000000000E+00  0.00000000000E+00  0.15349707291E+02  0.15349707291E+02  0.00000000000E+00 0. -1.
          2   -1    0    0  503    0 -0.00000000000E+00 -0.00000000000E+00 -0.19673536197E+04  0.19673536197E+04  0.00000000000E+00 0.  1.
         21    1    1    2  503  502  0.39238042457E+02 -0.53287187794E+02 -0.14709086767E+03  0.16129126359E+03  0.00000000000E+00 0. -1.
         21    1    1    2  504  501  0.17415348353E+02  0.64736431662E+02 -0.70351342435E+03  0.70670024634E+03  0.00000000000E+00 0.  1.
         21    1    1    2  505  504 -0.10656258428E+02 -0.81650544029E+02 -0.40601847974E+03  0.41428416947E+03  0.00000000000E+00 0.  1.
          2    1    1    2  501    0 -0.45997132382E+02  0.70201300161E+02 -0.69538114066E+03  0.70042764760E+03  0.00000000000E+00 0.  1.
<scales pt_clust_3="66.17513" pt_clust_4="57.07149" pt_clust_5="108.71966" pt_clust_6="57.07149"></scales>
<clustering>
<clus scale="   57.071">  4  6 -1 -1</clus>
<clus scale="   66.175">  1  3  2 -1</clus>
<clus scale="  108.720">  1  5  2 -1</clus>
<clus scale="   66.175">  1  3  2 -1</clus>
</clustering>
</event>
<event>
 6    0  0.2117869E+002  0.1043693E+03  0.7546771E-02  0.1271367E+00
         21   -1    0    0  503  502  0.00000000000E+00  0.00000000000E+00  0.41910562661E+03  0.41910562661E+03  0.00000000000E+00 0. -1.
          1   -1    0    0  504    0 -0.00000000000E+00 -0.00000000000E+00 -0.19431941420E+04  0.19431941420E+04  0.00000000000E+00 0.  1.
         21    1    1    2  503  501  0.48739853142E+01 -0.36915567388E+02  0.25192489238E+02  0.44957495063E+02  0.00000000000E+00 0. -1.
         21    1    1    2  504  505 -0.47763027682E+01 -0.10418705908E+03 -0.11328415253E+04  0.11376324880E+04  0.00000000000E+00 0.  1.
         21    1    1    2  505  502 -0.63008049332E+02  0.45469296451E+02  0.37351155758E+03  0.38150800103E+03  0.00000000000E+00 0. -1.
          1    1    1    2  501    0  0.62910366786E+02  0.95633330021E+02 -0.78995103693E+03  0.79820178452E+03  0.00000000000E+00 0.  1.
<scales pt_clust_3="37.23593" pt_clust_4="104.36927" pt_clust_5="58.93625" pt_clust_6="14000.00000"></scales>
<clustering>
<clus scale="   37.236">  1  3  2 -1</clus>
<clus scale="   58.936">  1  5  2 -1</clus>
<clus scale="  104.369">  2  4  1 -1</clus>
<clus scale="   37.236">  1  3  2 -1</clus>
</clustering>
</event>
<event>
 6    0  0.2117869E+002  0.1973353E+03  0.7546771E-02  0.1152007E+00
         21   -1    0    0  501  502  0.00000000000E+00  0.00000000000E+00  0.54446012294E+03  0.54446012294E+03  0.00000000000E+00 0.  1.
          2   -1    0    0  504    0 -0.00000000000E+00 -0.00000000000E+00 -0.79138432273E+03  0.79138432273E+03  0.00000000000E+00 0.  1.
         21    1    1    2  503  505 -0.45414285163E+02  0.87758094302E+02 -0.16809089426E+03  0.19498330479E+03  0.00000000000E+00 0.  1.
         21    1    1    2  504  503  0.63087621743E+02 -0.20049763301E+02 -0.43310611171E+03  0.43813576095E+03  0.00000000000E+00 0.  1.
         21    1    1    2  505  502 -0.13858643999E+03  0.13431341413E+03  0.41663612246E+03  0.45916440749E+03  0.00000000000E+00 0.  1.
          2    1    1    2  501    0  0.12091310340E+03 -0.20202174513E+03 -0.62363316288E+02  0.24356097244E+03  0.00000000000E+00 0.  1.
<scales pt_clust_3="78.64665" pt_clust_4="66.19699" pt_clust_5="197.33533" pt_clust_6="14000.00000"></scales>
<clustering>
<clus scale="   66.197">  2  4  1 -1</clus>
<clus scale="   78.647">  2  3  1 -1</clus>
<clus scale="  197.335">  1  5  2 -1</clus>
<clus scale="  197.335">  1  3  2 -1</clus>
</clustering>
</event>
<event>
 6    0  0.2117869E+002  0.1008119E+03  0.7546771E-02  0.1278598E+00
         -3   -1    0    0    0  501 -0.00000000000E+00  0.00000000000E+00  0.40085832651E+03  0.40085832651E+03  0.00000000000E+00 0.  1.
         21   -1    0    0  505  502  0.00000000000E+00 -0.00000000000E+00 -0.91881728342E+02  0.91881728342E+02  0.00000000000E+00 0.  1.
         21    1    1    2  503  501  0.25454861888E+02  0.10279050880E+03  0.27634328565E+03  0.29593825406E+03  0.00000000000E+00 0.  1.
         21    1    1    2  504  503 -0.45379347336E+02 -0.75450225922E+02  0.32856395411E+02  0.93976403825E+02  0.00000000000E+00 0.  1.
         21    1    1    2  505  504 -0.32645195370E+02 -0.19897373283E+00  0.22283916488E+02  0.39526210359E+02  0.00000000000E+00 0.  1.
         -3    1    1    2    0  502  0.52569680818E+02 -0.27141309147E+02 -0.22506999384E+02  0.63299186604E+02  0.00000000000E+00 0.  1.
<scales pt_clust_3="14000.00000" pt_clust_4="100.81186" pt_clust_5="32.64580" pt_clust_6="44.94607"></scales>
<clustering>
<clus scale="   32.646">  2  5  1 -1</clus>
<clus scale="   44.946">  2  6  1 -1</clus>
<clus scale="  100.812">  2  4  1 -1</clus>
<clus scale="   32.646">  2  3  1 -1</clus>
</clustering>
</event>
<event>
 6    0  0.2117869E+002  0.1171359E+03  0.7546771E-02  0.1247898E+00
          1   -1    0    0  505    0 -0.00000000000E+00  0.00000000000E+00  0.66147599007E+02  0.66147599007E+02  0.00000000000E+00 0. -1.
         21   -1    0    0  503  502  0.00000000000E+00 -0.00000000000E+00 -0.11872469535E+04  0.11872469535E+04  0.00000000000E+00 0. -1.
         21    1    1    2  503  501 -0.45600445189E+02 -0.79360075361E+02 -0.25320269172E+03  0.26923786000E+03  0.00000000000E+00 0. -1.
         21    1    1    2  504  502  0.30155245544E+02  0.30613498457E+01 -0.65768800975E+03  0.65838607888E+03  0.00000000000E+00 0. -1.
         21    1    1    2  505  504 -0.10872767662E+03  0.13078572962E+02 -0.90288214749E+02  0.14193209101E+03  0.00000000000E+00 0. -1.
          1    1    1    2  501    0  0.12417287627E+03  0.63220152553E+02 -0.11992043833E+03  0.18383852267E+03  0.00000000000E+00 0. -1.
<scales pt_clust_3="83.68941" pt_clust_4="30.31024" pt_clust_5="117.13591" pt_clust_6="14000.00000"></scales>
<clustering>
<clus scale="   30.310">  2  4  1 -1</clus>
<clus scale="   83.689">  2  3  1 -1</clus>
<clus scale="  117.136">  1  5  2 -1</clus>
<clus scale="   30.310">  2  3  1 -1</clus>
</clustering>
</event>
<event>
 6    0  0.2117869E+002  0.1576273E+03  0.7546771E-02  0.1191402E+00
         21   -1    0    0  501  502  0.00000000000E+00  0.00000000000E+00  0.69511467304E+03  0.69511467304E+03  0.00000000000E+00 0.  1.
          2   -1    0    0  504    0 -0.00000000000E+00 -0.00000000000E+00 -0.15056979142E+03  0.15056979142E+03  0.00000000000E+00 0.  1.
         21    1    1    2  503  502  0.63787842565E+02 -0.47328401102E+02  0.24837049830E+03  0.26076190450E+03  0.00000000000E+00 0.  1.
         21    1    1    2  504  505  0.35092034801E+00 -0.54918723004E+02 -0.41909817022E+02  0.69084166379E+02  0.00000000000E+00 0.  1.
         21    1    1    2  505  503  0.71335024372E+02  0.19670857061E+02  0.34904584700E+03  0.35680335148E+03  0.00000000000E+00 0.  1.
          2    1    1    2  501    0 -0.13547378728E+03  0.82576267045E+02 -0.10961646652E+02  0.15903504211E+03  0.00000000000E+00 0.  1.
<scales pt_clust_3="70.07438" pt_clust_4="54.91984" pt_clust_5="70.07438" pt_clust_6="139.24422"></scales>
<clustering>
<clus scale="   54.920">  2  4  1 -1</clus>
<clus scale="   70.074">  3  5 -1 -1</clus>
<clus scale="  139.244">  2  6  1 -1</clus>
<clus scale="  157.627">  1  3  2 -1</clus>
</clustering>
</event>
<event>
 6    0  0.2117869E+002  0.1212165E+03  0.7546771E-02  0.1241104E+00
         21   -1    0    0  504  502  0.00000000000E+00  0.00000000000E+00  0.13756141467E+03  0.13756141467E+03  0.00000000000E+00 0. -1.
          2   -1    0    0  505    0 -0.00000000000E+00 -0.00000000000E+00 -0.74006234721E+03  0.74006234721E+03  0.00000000000E+00 0.  1.
         21    1    1    2  503  502  0.12417749539E+02 -0.13194079391E+03 -0.14155442759E+03  0.19390778626E+03  0.00000000000E+00 0. -1.
         21    1    1    2  504  501  0.69474684802E+02  0.10299452536E+03  0.64203552206E+02  0.13984527235E+03  0.00000000000E+00 0. -1.
         21    1    1    2  505  503 -0.29619935673E+02  0.61375598328E+02 -0.38248159931E+03  0.38850544201E+03  0.00000000000E+00 0.  1.
          2    1    1    2  501    0 -0.52272498668E+02 -0.32429329773E+02 -0.14266845784E+03  0.15536526127E+03  0.00000000000E+00 0.  1.
<scales pt_clust_3="121.21648" pt_clust_4="14000.00000" pt_clust_5="75.34843" pt_clust_6="61.51484"></scales>
<clustering>
<clus scale="   61.515">  2  6  1 -1</clus>
<clus scale="   75.348">  2  5  1 -1</clus>
<clus scale="  121.216">  2  3  1 -1</clus>
<clus scale="  121.216">  1  3  2 -1</clus>
</clustering>
</event>
<event>
 6    0  0.2117869E+002  0.1066063E+03  0.7546771E-02  0.1266987E+00
          1   -1    0    0  503    0 -0.00000000000E+00  0.00000000000E+00  0.55626941392E+03  0.55626941392E+03  0.00000000000E+00 0. -1.
         21   -1    0    0  505  502  0.00000000000E+00 -0.00000000000E+00 -0.30423416857E+03  0.30423416857E+03  0.00000000000E+00 0. -1.
         21    1    1    2  503  502 -0.45393732289E+02 -0.53776595177E+02  0.82914280800E+02  0.10875334974E+03  0.00000000000E+00 0. -1.
         21    1    1    2  504  501 -0.31927539698E+02  0.26080866987E+02 -0.15669931967E+02  0.44103584682E+02  0.00000000000E+00 0. -1.
         21    1    1    2  505  504  0.10282534516E+03  0.44426815426E+02 -0.24886921203E+03  0.27291514842E+03  0.00000000000E+00 0. -1.
          1    1    1    2  501    0 -0.25504073177E+02 -0.16731087236E+02  0.43366010856E+03  0.43473149964E+03  0.00000000000E+00 0. -1.
<scales pt_clust_3="14000.00000" pt_clust_4="42.42905" pt_clust_5="106.60627" pt_clust_6="30.50225"></scales>
<clustering>
<clus scale="   30.502">  1  6  2 -1</clus>
<clus scale="   42.429">  1  4  2 -1</clus>
<clus scale="  106.606">  2  5  1 -1</clus>
<clus scale="  106.606">  2  3  1 -1</clus>
</clustering>
</event>
<event>
 6    0  0.2117869E+002  0.1275641E+03  0.7546771E-02  0.1231116E+00
         21   -1    0    0  504  502  0.00000000000E+00  0.00000000000E+00  0.35035851531E+03  0.35035851531E+03  0.00000000000E+00 0.  1.
          1   -1    0    0  503    0 -0.00000000000E+00 -0.00000000000E+00 -0.30716533328E+04  0.30716533328E+04  0.00000000000E+00 0. -1.
         21    1    1    2  503  505  0.33799816689E+02  0.71423429336E+02 -0.22464933951E+03  0.23814083986E+03  0.00000000000E+00 0. -1.
         21    1    1    2  504  501  0.33027275516E+02  0.31051040435E+02  0.52215230880E+02  0.69147656330E+02  0.00000000000E+00 0. -1.
         21    1    1    2  505  502  0.87264352919E+02  0.14194845939E+02  0.27263683431E+03  0.28661368489E+03  0.00000000000E+00 0.  1.
          1    1    1    2  501    0 -0.15409144512E+03 -0.11666931571E+03 -0.28214975431E+04  0.28281096670E+04  0.00000000000E+00 0. -1.
<scales pt_clust_3="80.00082" pt_clust_4="45.33176" pt_clust_5="127.56410" pt_clust_6="14000.00000"></scales>
<clustering>
<clus scale="   45.332">  1  4  2 -1</clus>
<clus scale="   80.001">  2  3  1 -1</clus>
<clus scale="  127.564">  1  5  2 -1</clus>
<clus scale="   45.332">  1  3  2 -1</clus>
</clustering>
</event>
<event>
 6    0  0.2117869E+002  0.1581835E+03  0.7546771E-02  0.1190763E+00
          2   -1    0    0  504    0 -0.00000000000E+00  0.00000000000E+00  0.17276781184E+04  0.17276781184E+04  0.00000000000E+00 0. -1.
         21   -1    0    0  503  502  0.00000000000E+00 -0.00000000000E+00 -0.13298141750E+04  0.13298141750E+04  0.00000000000E+00 0. -1.
         21    1    1    2  503  505 -0.44495921024E+02 -0.12024586030E+02 -0.67088469793E+03  0.67246617429E+03  0.00000000000E+00 0. -1.
         21    1    1    2  504  502  0.43034093351E+02  0.22903187418E+02  0.55137384075E+02  0.73597692267E+02  0.00000000000E+00 0.  1.
         21    1    1    2  505  501 -0.95930747826E+02 -0.32406722247E+02 -0.64344976839E+03  0.65136818195E+03  0.00000000000E+00 0. -1.
          2    1    1    2  501    0  0.97392575499E+02  0.21528120859E+02  0.16570610257E+04  0.16600602448E+04  0.00000000000E+00 0. -1.
<scales pt_clust_3="39.15805" pt_clust_4="48.74925" pt_clust_5="39.15805" pt_clust_6="147.15122"></scales>
<clustering>
<clus scale="   39.158">  3  5 -1 -1</clus>
<clus scale="   48.749">  1  4  2 -1</clus>
<clus scale="  147.151">  1  6  2 -1</clus>
<clus scale="  158.183">  2  3  1 -1</clus>
</clustering>
</event>
<event>
 6    0  0.2117869E+002  0.2780426E+03  0.7546771E-02  0.1096763E+00
          2   -1    0    0  503    0 -0.00000000000E+00  0.00000000000E+00  0.20100108145E+04  0.20100108145E+04  0.00000000000E+00 0.  1.
         21   -1    0    0  504  502  0.00000000000E+00 -0.00000000000E+00 -0.58915527619E+02  0.58915527619E+02  0.00000000000E+00 0. -1.
         21    1    1    2  503  505  0.65879166794E+02  0.20448177538E+02  0.18614462223E+03  0.19851451576E+03  0.00000000000E+00 0. -1.
         21    1    1    2  504  501 -0.52515951047E+02  0.95225719868E+02  0.28217947420E+03  0.30240885982E+03  0.00000000000E+00 0.  1.
         21    1    1    2  505  502  0.22364399057E+03 -0.12532417150E+03  0.57151488495E+03  0.62638011319E+03  0.00000000000E+00 0. -1.
          2    1    1    2  501    0 -0.23700720632E+03  0.96502740964E+01  0.91125630553E+03  0.94162285338E+03  0.00000000000E+00 0.  1.
<scales pt_clust_3="55.82090" pt_clust_4="108.74678" pt_clust_5="55.82090" pt_clust_6="256.37298"></scales>
<clustering>
<clus scale="   55.821">  3  5 -1 -1</clus>
<clus scale="  108.747">  2  4  1 -1</clus>
<clus scale="  256.373">  1  6  2 -1</clus>
<clus scale="  108.747">  2  3  1 -1</clus>
</clustering>
</event>
<event>
 6    0  0.2117869E+002  0.1337499E+03  0.7546771E-02  0.1221995E+00
         21   -1    0    0  503  502  0.00000000000E+00  0.00000000000E+00  0.24254819395E+03  0.24254819395E+03  0.00000000000E+00 0.  1.
          2   -1    0    0  505    0 -0.00000000000E+00 -0.00000000000E+00 -0.34693397390E+03  0.34693397390E+03  0.00000000000E+00 0. -1.
         21    1    1    2  503  501  0.36290777316E+01  0.30473614082E+02  0.57185658047E+01  0.31217196467E+02  0.00000000000E+00 0. -1.
         21    1    1    2  504  502  0.26775061764E+02  0.21065924408E+02  0.12387662150E+03  0.12847604624E+03  0.00000000000E+00 0.  1.
         21    1    1    2  505  504  0.55302137974E+02  0.38024558006E+02  0.72735738227E+02  0.98968081176E+02  0.00000000000E+00 0.  1.
          2    1    1    2  501    0 -0.85706277470E+02 -0.89564096496E+02 -0.30671670548E+03  0.33082084396E+03  0.00000000000E+00 0. -1.
<scales pt_clust_3="30.68895" pt_clust_4="42.51030" pt_clust_5="42.51030" pt_clust_6="122.64977"></scales>
<clustering>
<clus scale="   30.689">  1  3  2 -1</clus>
<clus scale="   42.510">  4  5 -1 -1</clus>
<clus scale="  122.650">  2  6  1 -1</clus>
<clus scale="   30.689">  1  3  2 -1</clus>
</clustering>
</event>
<event>
 6    0  0.2117869E+002  0.2044966E+03  0.7546771E-02  0.1146000E+00
         21   -1    0    0  505  502  0.00000000000E+00  0.00000000000E+00  0.44676948798E+02  0.44676948798E+02  0.00000000000E+00 0.  1.
          2   -1    0    0  504    0 -0.00000000000E+00 -0.00000000000E+00 -0.25382884581E+04  0.25382884581E+04  0.00000000000E+00 0.  1.
         21    1    1    2  503  502 -0.22344059911E+03 -0.13158077363E+02 -0.44879335008E+03  0.50151202119E+03  0.00000000000E+00 0.  1.
         21    1    1    2  504  503 -0.24338329344E+02 -0.31849490498E+02 -0.82891093318E+03  0.82987955721E+03  0.00000000000E+00 0.  1.
         21    1    1    2  505  501  0.38892175447E+02  0.62984396947E+02 -0.17935125803E+03  0.19402708400E+03  0.00000000000E+00 0. -1.
          2    1    1    2  501    0  0.20888675301E+03 -0.17976829087E+02 -0.10365559680E+04  0.10575467445E+04  0.00000000000E+00 0.  1.
<scales pt_clust_3="14000.00000" pt_clust_4="40.08422" pt_clust_5="69.66847" pt_clust_6="204.49661"></scales>
<clustering>
<clus scale="   40.084">  2  4  1 -1</clus>
<clus scale="   69.668">  1  5  2 -1</clus>
<clus scale="  204.497">  2  6  1 -1</clus>
<clus scale="   69.668">  1  3  2 -1</clus>
</clustering>
</event>
<event>
 6    0  0.2117869E+002  0.1056812E+03  0.7546771E-02  0.1268783E+00
          2   -1    0    0  505    0 -0.00000000000E+00  0.00000000000E+00  0.73970904948E+03  0.73970904948E+03  0.00000000000E+00 0. -1.
         21   -1    0    0  503  502  0.00000000000E+00 -0.00000000000E+00 -0.36494109032E+03  0.36494109032E+03  0.00000000000E+00 0.  1.
         21    1    1    2  503  504  0.37573655018E+02  0.11368262256E+02 -0.14579205600E+03  0.15098457050E+03  0.00000000000E+00 0. -1.
         21    1    1    2  504  501 -0.14322030734E+03 -0.21185706455E+02 -0.18634593061E+03  0.23597816943E+03  0.00000000000E+00 0.  1.
         21    1    1    2  505  502  0.26318568996E+02  0.16849659702E+02  0.37749467210E+03  0.37878596274E+03  0.00000000000E+00 0. -1.
          2    1    1    2  501    0  0.79328083328E+02 -0.70322155023E+01  0.32941127367E+03  0.33890143712E+03  0.00000000000E+00 0. -1.
<scales pt_clust_3="39.47176" pt_clust_4="105.68121" pt_clust_5="31.25025" pt_clust_6="14000.00000"></scales>
<clustering>
<clus scale="   31.250">  1  5  2 -1</clus>
<clus scale="   39.472">  2  3  1 -1</clus>
<clus scale="  105.681">  2  4  1 -1</clus>
<clus scale="   39.472">  2  3  1 -1</clus>
</clustering>
</event>
<event>
 6    0  0.2117869E+002  0.1103871E+03  0.7546771E-02  0.1259855E+00
          1   -1    0    0  504    0 -0.00000000000E+00  0.00000000000E+00  0.17574839766E+04  0.17574839766E+04  0.00000000000E+00 0.  1.
         21   -1    0    0  501  502  0.00000000000E+00 -0.00000000000E+00 -0.24297205463E+03  0.24297205463E+03  0.00000000000E+00 0. -1.
         21    1    1    2  503  502  0.90459119527E+02  0.69871473818E+02 -0.16245446472E+03  0.19863617059E+03  0.00000000000E+00 0. -1.
         21    1    1    2  504  505  0.74423120737E+01  0.45170994307E+02  0.66967916863E+03  0.67124212891E+03  0.00000000000E+00 0.  1.
         21    1    1    2  505  503 -0.47789298209E+02 -0.97092586369E+02 -0.12918103920E+02  0.10898469966E+03  0.00000000000E+00 0. -1.
          1    1    1    2  501    0 -0.50112133392E+02 -0.17949881756E+02  0.10202053220E+04  0.10215930321E+04  0.00000000000E+00 0.  1.
<scales pt_clust_3="110.38706" pt_clust_4="45.77998" pt_clust_5="14000.00000" pt_clust_6="49.58324"></scales>
<clustering>
<clus scale="   45.780">  1  4  2 -1</clus>
<clus scale="   49.583">  1  6  2 -1</clus>
<clus scale="  110.387">  2  3  1 -1</clus>
<clus scale="  110.387">  2  3  1 -1</clus>
</clustering>
</event>
<event>
 6    0  0.2117869E+002  0.1576850E+03  0.7546771E-02  0.1191335E+00
         21   -1    0    0  501  502  0.00000000000E+00  0.00000000000E+00  0.63209893152E+02  0.63209893152E+02  0.00000000000E+00 0. -1.
          2   -1    0    0  503    0 -0.00000000000E+00 -0.00000000000E+00 -0.18067377635E+04  0.18067377635E+04  0.00000000000E+00 0.  1.
         21    1    1    2  503  505  0.44631792561E+02  0.39274153852E+02 -0.38855860802E+03  0.39308045987E+03  0.00000000000E+00 0. -1.
         21    1    1    2  504  502 -0.15273925653E+02  0.28351108443E+02 -0.85463673804E+01  0.33318441594E+02  0.00000000000E+00 0.  1.
         21    1    1    2  505  504 -0.12756579746E+03  0.74270865322E+01 -0.43807882192E+02  0.13508265928E+03  0.00000000000E+00 0. -1.
          2    1    1    2  501    0  0.98207930548E+02 -0.75052348827E+02 -0.13026150128E+04  0.13084660959E+04  0.00000000000E+00 0.  1.
<scales pt_clust_3="59.45129" pt_clust_4="31.49010" pt_clust_5="31.49010" pt_clust_6="144.67159"></scales>
<clustering>
<clus scale="   31.490">  4  5 -1 -1</clus>
<clus scale="   59.451">  2  3  1 -1</clus>
<clus scale="  144.672">  2  6  1 -1</clus>
<clus scale="  157.685">  1  3  2 -1</clus>
</clustering>
</event>
<event>
 6    0  0.2117869E+002  0.8714697E+02  0.7546771E-02  0.1309912E+00
         -3   -1    0    0    0  501 -0.00000000000E+00  0.00000000000E+00  0.57159658704E+03  0.57159658704E+03  0.00000000000E+00 0. -1.
         21   -1    0    0  503  502  0.00000000000E+00 -0.00000000000E+00 -0.22763728123E+03  0.22763728123E+03  0.00000000000E+00 0.  1.
         21    1    1    2  503  501 -0.16345716235E+02  0.33136198214E+02  0.45271051384E+02  0.58435076493E+02  0.00000000000E+00 0.  1.
         21    1    1    2  504  505 -0.96603731381E+02 -0.86296768591E+01  0.27176245181E+03  0.28855083166E+03  0.00000000000E+00 0. -1.
         21    1    1    2  505  502  0.57186959861E+02 -0.67077584522E+02 -0.19794696736E+03  0.21668583851E+03  0.00000000000E+00 0.  1.
         -3    1    1    2    0  504  0.55762487755E+02  0.42571063166E+02  0.22487276998E+03  0.23556212161E+03  0.00000000000E+00 0. -1.
<scales pt_clust_3="36.94848" pt_clust_4="14000.00000" pt_clust_5="87.14697" pt_clust_6="75.04535"></scales>
<clustering>
<clus scale="   36.948">  1  3  2 -1</clus>
<clus scale="   75.045">  1  6  2 -1</clus>
<clus scale="   87.147">  2  5  1 -1</clus>
<clus scale="   87.147">  2  3  1 -1</clus>
</clustering>
</event>
<event>
 6    0  0.2117869E+002  0.1235694E+03  0.7546771E-02  0.1237322E+00
          2   -1    0    0  503    0 -0.00000000000E+00  0.00000000000E+00  0.14678406084E+04  0.14678406084E+04  0.00000000000E+00 0. -1.
         21   -1    0    0  501  502  0.00000000000E+00 -0.00000000000E+00 -0.27043621634E+02  0.27043621634E+02  0.00000000000E+00 0. -1.
         21    1    1    2  503  505 -0.19370326615E+02 -0.45603363125E+02  0.23095988559E+03  0.23621461647E+03  0.00000000000E+00 0. -1.
         21    1    1    2  504  502  0.38078147104E+02  0.64134016878E+02  0.90295701746E+02  0.11711716852E+03  0.00000000000E+00 0. -1.
         21    1    1    2  505  504 -0.16464742574E+02  0.52974144681E+02  0.68800946512E+02  0.88379398016E+02  0.00000000000E+00 0. -1.
          2    1    1    2  501    0 -0.22430779151E+01 -0.71504798434E+02  0.10507404529E+04  0.10531730470E+04  0.00000000000E+00 0. -1.
<scales pt_clust_3="49.54671" pt_clust_4="45.10697" pt_clust_5="45.10697" pt_clust_6="111.95434"></scales>
<clustering>
<clus scale="   45.107">  4  5 -1 -1</clus>
<clus scale="   49.547">  1  3  2 -1</clus>
<clus scale="  111.954">  1  6  2 -1</clus>
<clus scale="  123.569">  2  3  1 -1</clus>
</clustering>
</event>
<event>
 6    0  0.2117869E+002  0.1133135E+03  0.7546771E-02  0.1254554E+00
         21   -1    0    0  501  502  0.00000000000E+00  0.00000000000E+00  0.64141871237E+03  0.64141871237E+03  0.00000000000E+00 0. -1.
          1   -1    0    0  504    0 -0.00000000000E+00 -0.00000000000E+00 -0.38308635297E+03  0.38308635297E+03  0.00000000000E+00 0. -1.
         21    1    1    2  503  505 -0.10135077872E+03  0.68702255463E+02 -0.22071004549E+03  0.25239830513E+03  0.00000000000E+00 0. -1.
         21    1    1    2  504  503  0.14177429714E+02  0.27286127185E+02 -0.99310673981E+02  0.10396221533E+03  0.00000000000E+00 0.  1.
         21    1    1    2  505  502  0.38961945464E+01 -0.69645787950E+02  0.57657811958E+03  0.58078226909E+03  0.00000000000E+00 0. -1.
          1    1    1    2  501    0  0.83277154461E+02 -0.26342594698E+02  0.17749592929E+01  0.87362275789E+02  0.00000000000E+00 0. -1.
<scales pt_clust_3="113.31349" pt_clust_4="30.74951" pt_clust_5="69.55722" pt_clust_6="14000.00000"></scales>
<clustering>
<clus scale="   30.750">  2  4  1 -1</clus>
<clus scale="   69.557">  1  5  2 -1</clus>
<clus scale="  113.313">  2  3  1 -1</clus>
<clus scale="   69.557">  1  3  2 -1</clus>
</clustering>
</event>
<event>
 6    0  0.2117869E+002  0.1464804E+03  0.7546771E-02  0.1204866E+00
          1   -1    0    0  504    0 -0.00000000000E+00  0.00000000000E+00  0.15742034076E+03  0.15742034076E+03  0.00000000000E+00 0. -1.
         21   -1    0    0  503  502  0.00000000000E+00 -0.00000000000E+00 -0.30818375425E+04  0.30818375425E+04  0.00000000000E+00 0. -1.
         21    1    1    2  503  501  0.29221755749E+02 -0.60763619039E+02 -0.14664862652E+04  0.14680354541E+04  0.00000000000E+00 0. -1.
         21    1    1    2  504  505  0.24482887917E+02 -0.49214559966E+02 -0.44172597180E+02  0.70517395408E+02  0.00000000000E+00 0.  1.
         21    1    1    2  505  502 -0.13781860431E+03  0.15752930104E+03 -0.15330035924E+04  0.15472263773E+04  0.00000000000E+00 0. -1.
          1    1    1    2  501    0  0.84113960640E+02 -0.47551122033E+02  0.11924525310E+03  0.15347865639E+03  0.00000000000E+00 0. -1.
<scales pt_clust_3="67.72013" pt_clust_4="54.96803" pt_clust_5="146.48038" pt_clust_6="14000.00000"></scales>
<clustering>
<clus scale="   54.968">  1  4  2 -1</clus>
<clus scale="   67.720">  2  3  1 -1</clus>
<clus scale="  146.480">  2  5  1 -1</clus>
<clus scale="   67.720">  2  3  1 -1</clus>
</clustering>
</event>
<event>
 6    0  0.2117869E+002  0.2011156E+03  0.7546771E-02  0.1148801E+00
         21   -1    0    0  504  502  0.00000000000E+00  0.00000000000E+00  0.76449804720E+02  0.76449804720E+02  0.00000000000E+00 0. -1.
          2   -1    0    0  503    0 -0.00000000000E+00 -0.00000000000E+00 -0.21953359760E+04  0.21953359760E+04  0.00000000000E+00 0.  1.
         21    1    1    2  503  502 -0.15697229317E+03  0.97832280061E+02 -0.11718284308E+04  0.11863360936E+04  0.00000000000E+00 0.  1.
         21    1    1    2  504  505  0.20641358751E+02  0.27315677531E+02  0.72251823492E+01  0.34991644575E+02  0.00000000000E+00 0. -1.
         21    1    1    2  505  501 -0.37060021365E+02  0.32813530455E+02  0.16160904558E+02  0.52070603997E+02  0.00000000000E+00 0. -1.
          2    1    1    2  501    0  0.17339095578E+03 -0.15796148805E+03 -0.97044382740E+03  0.99838743852E+03  0.00000000000E+00 0.  1.
<scales pt_clust_3="14000.00000" pt_clust_4="34.23758" pt_clust_5="55.29548" pt_clust_6="201.11561"></scales>
<clustering>
<clus scale="   34.238">  1  4  2 -1</clus>
<clus scale="   55.295">  1  5  2 -1</clus>
<clus scale="  201.116">  1  6  2 -1</clus>
<clus scale="   34.238">  1  3  2 -1</clus>
</clustering>
</event>
<event>
 6    0  0.2117869E+002  0.1481709E+03  0.7546771E-02  0.1202739E+00
         21   -1    0    0  504  502  0.00000000000E+00  0.00000000000E+00  0.26197667914E+03  0.26197667914E+03  0.00000000000E+00 0. -1.
          1   -1    0    0  505    0 -0.00000000000E+00 -0.00000000000E+00 -0.80741334808E+03  0.80741334808E+03  0.00000000000E+00 0.  1.
         21    1    1    2  503  502  0.10699271902E+03 -0.67047647015E+02  0.98919629285E+02  0.16039925795E+03  0.00000000000E+00 0. -1.
         21    1    1    2  504  501 -0.15938211241E+03  0.14568460200E+03  0.34844052698E+02  0.21872532781E+03  0.00000000000E+00 0. -1.
         21    1    1    2  505  503  0.10178479547E+02 -0.35975163223E+02 -0.82758537579E+02  0.90811834895E+02  0.00000000000E+00 0.  1.
          1    1    1    2  501    0  0.42210913842E+02 -0.42661791762E+02 -0.59644181334E+03  0.59945360657E+03  0.00000000000E+00 0.  1.
<scales pt_clust_3="148.17087" pt_clust_4="14000.00000" pt_clust_5="37.38735" pt_clust_6="88.45425"></scales>
<clustering>
<clus scale="   37.387">  2  5  1 -1</clus>
<clus scale="   88.454">  2  6  1 -1</clus>
<clus scale="  148.171">  1  3  2 -1</clus>
<clus scale="  148.171">  1  3  2 -1</clus>
</clustering>
</event>
<event>
 6    0  0.2117869E+002  0.1535528E+03  0.7546771E-02  0.1196174E+00
         21   -1    0    0  505  502  0.00000000000E+00  0.00000000000E+00  0.20302252367E+03  0.20302252367E+03  0.00000000000E+00 0.  1.
          2   -1    0    0  504    0 -0.00000000000E+00 -0.00000000000E+00 -0.12766936558E+04  0.12766936558E+04  0.00000000000E+00 0.  1.
         21    1    1    2  503  502 -0.17714434420E+03 -0.31995012077E+00  0.77749055421E+02  0.19345577445E+03  0.00000000000E+00 0.  1.
         21    1    1    2  504  503 -0.26781591103E+02 -0.16745417461E+02 -0.85006795628E+02  0.90685268543E+02  0.00000000000E+00 0. -1.
         21    1    1    2  505  501  0.12327121488E+03 -0.41615767266E+02 -0.57511745730E+01  0.13023340782E+03  0.00000000000E+00 0.  1.
          2    1    1    2  501    0  0.80654720421E+02  0.58681134847E+02 -0.10606622174E+04  0.10653417287E+04  0.00000000000E+00 0.  1.
<scales pt_clust_3="153.55283" pt_clust_4="31.58580" pt_clust_5="14000.00000" pt_clust_6="71.59766"></scales>
<clustering>
<clus scale="   31.586">  2  4  1 -1</clus>
<clus scale="   71.598">  2  6  1 -1</clus>
<clus scale="  153.553">  1  3  2 -1</clus>
<clus scale="  153.553">  1  3  2 -1</clus>
</clustering>
</event>
<event>
 6    0  0.2117869E+002  0.1474326E+03  0.7546771E-02  0.1203664E+00
         21   -1    0    0  504  502  0.00000000000E+00  0.00000000000E+00  0.15261914842E+03  0.15261914842E+03  0.00000000000E+00 0. -1.
          2   -1    0    0  503    0 -0.00000000000E+00 -0.00000000000E+00 -0.85622748438E+03  0.85622748438E+03  0.00000000000E+00 0. -1.
         21    1    1    2  503  505 -0.51191572891E+02  0.13082495819E+02 -0.12267298093E+03  0.13356791936E+03  0.00000000000E+00 0.  1.
         21    1    1    2  504  501 -0.54086600057E+02 -0.18926175837E+01  0.45256214571E+02  0.70548332825E+02  0.00000000000E+00 0.  1.
         21    1    1    2  505  502  0.17216373558E+03 -0.89483759062E+02 -0.25994173573E+02  0.19576361267E+03  0.00000000000E+00 0. -1.
          2    1    1    2  501    0 -0.66885562630E+02  0.78293880826E+02 -0.60019739603E+03  0.60896676794E+03  0.00000000000E+00 0. -1.
<scales pt_clust_3="52.83681" pt_clust_4="55.00094" pt_clust_5="14000.00000" pt_clust_6="147.43259"></scales>
<clustering>
<clus scale="   52.837">  2  3  1 -1</clus>
<clus scale="   55.001">  1  4  2 -1</clus>
<clus scale="  147.433">  2  6  1 -1</clus>
<clus scale="   55.001">  1  3  2 -1</clus>
</clustering>
</event>
<event>
 6    0  0.2117869E+002  0.9756208E+02  0.7546771E-02  0.1285508E+00
          2   -1    0    0  503    0 -0.00000000000E+00  0.00000000000E+00  0.24042835850E+03  0.24042835850E+03  0.00000000000E+00 0. -1.
         21   -1    0    0  505  502  0.00000000000E+00 -0.00000000000E+00 -0.42510158131E+03  0.42510158131E+03  0.00000000000E+00 0.  1.
         21    1    1    2  503  502  0.52725148626E+01  0.66044719898E+02  0.68895161674E+02  0.95583721111E+02  0.00000000000E+00 0. -1.
         21    1    1    2  504  501 -0.26613389587E+02 -0.36691499114E+02  0.54814822321E+02  0.71128077147E+02  0.00000000000E+00 0.  1.
         21    1    1    2  505  504  0.34085576291E+02  0.75563686493E+02 -0.36817311175E+03  0.37738990108E+03  0.00000000000E+00 0.  1.
          2    1    1    2  501    0 -0.12744701566E+02 -0.10491690728E+03  0.59789904939E+02  0.12142824047E+03  0.00000000000E+00 0. -1.
<scales pt_clust_3="66.25484" pt_clust_4="31.69059" pt_clust_5="84.71521" pt_clust_6="31.69059"></scales>
<clustering>
<clus scale="   31.691">  4  6 -1 -1</clus>
<clus scale="   66.255">  1  3  2 -1</clus>
<clus scale="   84.715">  2  5  1 -1</clus>
<clus scale="   84.715">  2  3  1 -1</clus>
</clustering>
</event>
<event>
 6    0  0.2117869E+002  0.1447958E+03  0.7546771E-02  0.1207018E+00
         21   -1    0    0  504  502  0.00000000000E+00  0.00000000000E+00  0.12662198257E+03  0.12662198257E+03  0.00000000000E+00 0. -1.
          1   -1    0    0  505    0 -0.00000000000E+00 -0.00000000000E+00 -0.19835493461E+04  0.19835493461E+04  0.00000000000E+00 0.  1.
         21    1    1    2  503  501 -0.89852836983E+02 -0.75630023150E+02 -0.19574503221E+03  0.22827516368E+03  0.00000000000E+00 0. -1.
         21    1    1    2  504  503 -0.59244381190E+02 -0.25357698968E+02 -0.48512906612E+02  0.80662331404E+02  0.00000000000E+00 0. -1.
         21    1    1    2  505  502  0.19981339659E+02  0.83156366319E+02  0.71838007062E+02  0.11169124609E+03  0.00000000000E+00 0. -1.
          1    1    1    2  501    0  0.12911587851E+03  0.17831355798E+02 -0.16845074318E+04  0.16895425875E+04  0.00000000000E+00 0.  1.
<scales pt_clust_3="42.88622" pt_clust_4="42.88622" pt_clust_5="85.52330" pt_clust_6="132.71729"></scales>
<clustering>
<clus scale="   42.886">  3  4 -1 -1</clus>
<clus scale="   85.523">  1  5  2 -1</clus>
<clus scale="  132.717">  2  6  1 -1</clus>
<clus scale="   85.523">  1  3  2 -1</clus>
</clustering>
</event>
<event>
 6    0  0.2117869E+002  0.1895144E+03  0.7546771E-02  0.1158900E+00
         -1   -1    0    0    0  501 -0.00000000000E+00  0.00000000000E+00  0.27588227511E+03  0.27588227511E+03  0.00000000000E+00 0.  1.
         21   -1    0    0  504  502  0.00000000000E+00 -0.00000000000E+00 -0.49791953509E+03  0.49791953509E+03  0.00000000000E+00 0. -1.
         21    1    1    2  503  501 -0.39955901209E+02  0.15001867490E+02  0.14722903239E+03  0.15329030643E+03  0.00000000000E+00 0.  1.
         21    1    1    2  504  503 -0.20381522907E+03 -0.56077903574E+02 -0.20880242195E+03  0.29712595019E+03  0.00000000000E+00 0. -1.
         21    1    1    2  505  502  0.44164990383E+02  0.31155233234E+02 -0.10153834574E+03  0.11502708633E+03  0.00000000000E+00 0.  1.
         -1    1    1    2    0  505  0.19960613989E+03  0.99208028501E+01 -0.58925524678E+02  0.20835846724E+03  0.00000000000E+00 0.  1.
<scales pt_clust_3="42.67939" pt_clust_4="189.51439" pt_clust_5="52.79348" pt_clust_6="14000.00000"></scales>
<clustering>
<clus scale="   42.679">  1  3  2 -1</clus>
<clus scale="   52.793">  2  5  1 -1</clus>
<clus scale="  189.514">  2  4  1 -1</clus>
<clus scale="   52.793">  2  3  1 -1</clus>
</clustering>
</event>
<event>
 6    0  0.2117869E+002  0.8230172E+02  0.7546771E-02  0.1322644E+00
         21   -1    0    0  505  502  0.00000000000E+00  0.00000000000E+00  0.33991313018E+03  0.33991313018E+03  0.00000000000E+00 0.  1.
          2   -1    0    0  503    0 -0.00000000000E+00 -0.00000000000E+00 -0.99535736432E+03  0.99535736432E+03  0.00000000000E+00 0.  1.
         21    1    1    2  503  502 -0.65466847867E+02 -0.33140031930E+02 -0.13138389644E+03  0.15048554126E+03  0.00000000000E+00 0.  1.
         21    1    1    2  504  501  0.59003938988E+02  0.81644606114E+02  0.14043692422E+02  0.10170807156E+03  0.00000000000E+00 0.  1.
         21    1    1    2  505  504 -0.43130496249E+02  0.56991724365E+01  0.26907090770E+03  0.27256535664E+03  0.00000000000E+00 0.  1.
          2    1    1    2  501    0  0.49593405128E+02 -0.54203746621E+02 -0.80717493782E+03  0.81051152504E+03  0.00000000000E+00 0.  1.
<scales pt_clust_3="14000.00000" pt_clust_4="82.30172" pt_clust_5="43.50541" pt_clust_6="72.66668"></scales>
<clustering>
<clus scale="   43.505">  1  5  2 -1</clus>
<clus scale="   72.667">  2  6  1 -1</clus>
<clus scale="   82.302">  1  4  2 -1</clus>
<clus scale="   43.505">  1  3  2 -1</clus>
</clustering>
</event>
<event>
 6    0  0.2117869E+002  0.6763855E+02  0.7546771E-02  0.1368312E+00
         21   -1    0    0  503  502  0.00000000000E+00  0.00000000000E+00  0.11960197362E+03  0.11960197362E+03  0.00000000000E+00 0.  1.
          2   -1    0    0  505    0 -0.00000000000E+00 -0.00000000000E+00 -0.77807644481E+03  0.77807644481E+03  0.00000000000E+00 0. -1.
         21    1    1    2  503  501 -0.29834753272E+02  0.60415470052E+02  0.89953141445E+02  0.11239087677E+03  0.00000000000E+00 0.  1.
         21    1    1    2  504  502  0.53378609169E+02 -0.10862879785E+02 -0.51796853061E+02  0.75167759452E+02  0.00000000000E+00 0. -1.
         21    1    1    2  505  504 -0.11565070291E+02  0.42152491571E+02 -0.27618157799E+03  0.27961911133E+03  0.00000000000E+00 0. -1.
          2    1    1    2  501    0 -0.11978785606E+02 -0.91705081839E+02 -0.42044918158E+03  0.43050067089E+03  0.00000000000E+00 0. -1.
<scales pt_clust_3="67.63855" pt_clust_4="52.20268" pt_clust_5="43.71022" pt_clust_6="14000.00000"></scales>
<clustering>
<clus scale="   43.710">  2  5  1 -1</clus>
<clus scale="   52.203">  2  4  1 -1</clus>
<clus scale="   67.639">  1  3  2 -1</clus>
<clus scale="   67.639">  1  3  2 -1</clus>
</clustering>
</event>
<event>
 6    0  0.2117869E+002  0.7624325E+02  0.7546771E-02  0.1340064E+00
         21   -1    0    0  505  502  0.00000000000E+00  0.00000000000E+00  0.13753446114E+03  0.13753446114E+03  0.00000000000E+00 0. -1.
          2   -1    0    0  504    0 -0.00000000000E+00 -0.00000000000E+00 -0.37786142869E+04  0.37786142869E+04  0.00000000000E+00 0. -1.
         21    1    1    2  503  502  0.31510196812E+02 -0.16800024265E+02 -0.85061791336E+02  0.92253139046E+02  0.00000000000E+00 0.  1.
         21    1    1    2  504  503  0.29779200118E+02 -0.57735194763E+02 -0.12467483118E+04  0.12484396287E+04  0.00000000000E+00 0. -1.
         21    1    1    2  505  501  0.10409603232E+02 -0.44596038269E+02  0.12711212035E+03  0.13510979834E+03  0.00000000000E+00 0. -1.
          2    1    1    2  501    0 -0.71699000161E+02  0.11913125730E+03 -0.24363818429E+04  0.24403461819E+04  0.00000000000E+00 0. -1.
<scales pt_clust_3="35.70901" pt_clust_4="65.14830" pt_clust_5="76.24325" pt_clust_6="14000.00000"></scales>
<clustering>
<clus scale="   35.709">  1  3  2 -1</clus>
<clus scale="   65.148">  2  4  1 -1</clus>
<clus scale="   76.243">  1  5  2 -1</clus>
<clus scale="   35.709">  1  3  2 -1</clus>
</clustering>
</event>
<event>
 6    0  0.2940136E+002  0.1133001E+03  0.7546771E-02  0.1254578E+00
         21   -1    0    0  504  502  0.00000000000E+00  0.00000000000E+00  0.55970870146E+03  0.55970870146E+03  0.00000000000E+00 0.  1.
          2   -1    0    0  505    0 -0.00000000000E+00 -0.00000000000E+00 -0.24729389212E+04  0.24729389212E+04  0.00000000000E+00 0.  1.
         21    1    1    2  503  501  0.84768786704E+01  0.38381078150E+02 -0.24478681538E+02  0.46305188497E+02  0.00000000000E+00 0. -1.
         21    1    1    2  504  503  0.34556831980E+02  0.26064335693E+01  0.40857777266E+02  0.53575424362E+02  0.00000000000E+00 0.  1.
         21    1    1    2  505  502 -0.63726150011E+02  0.70494037707E+02  0.49574144919E+03  0.50476728895E+03  0.00000000000E+00 0.  1.
          2    1    1    2  501    0  0.20692439361E+02 -0.11148154943E+03 -0.24253507646E+04  0.24279997208E+04  0.00000000000E+00 0.  1.
<scales pt_clust_3="39.52525" pt_clust_4="34.65499" pt_clust_5="14000.00000" pt_clust_6="113.30008"></scales>
<clustering>
<clus scale="   34.655">  1  4  2 -1</clus>
<clus scale="   39.525">  1  3  2 -1</clus>
<clus scale="  113.300">  2  6  1 -1</clus>
<clus scale="   34.655">  1  3  2 -1</clus>
</clustering>
</event>
<event>
 6    0  0.2117869E+002  0.1442054E+03  0.7546771E-02  0.1207780E+00
          2   -1    0    0  503    0 -0.00000000000E+00  0.00000000000E+00  0.22415119894E+04  0.22415119894E+04  0.00000000000E+00 0. -1.
         21   -1    0    0  505  502  0.00000000000E+00 -0.00000000000E+00 -0.48352197597E+03  0.48352197597E+03  0.00000000000E+00 0. -1.
         21    1    1    2  503  504  0.36685699092E+02 -0.61948622935E+02  0.20901234224E+03  0.22106476791E+03  0.00000000000E+00 0. -1.
         21    1    1    2  504  502 -0.30620860642E+02 -0.39292082780E+02 -0.76485537852E+02  0.91277282914E+02  0.00000000000E+00 0. -1.
         21    1    1    2  505  501 -0.10028028712E+03  0.10177018572E+03 -0.37950627194E+03  0.40550994702E+03  0.00000000000E+00 0. -1.
          2    1    1    2  501    0  0.94215448669E+02 -0.52948000746E+00  0.20049694809E+04  0.20071819675E+04  0.00000000000E+00 0. -1.
<scales pt_clust_3="72.27424" pt_clust_4="49.81471" pt_clust_5="14000.00000" pt_clust_6="144.20538"></scales>
<clustering>
<clus scale="   49.815">  2  4  1 -1</clus>
<clus scale="   72.274">  1  3  2 -1</clus>
<clus scale="  144.205">  1  6  2 -1</clus>
<clus scale="   49.815">  2  3  1 -1</clus>
</clustering>
</event>
<event>
 6    0  0.2117869E+002  0.7122074E+02  0.7546771E-02  0.1355990E+00
         21   -1    0    0  504  502  0.00000000000E+00  0.00000000000E+00  0.74557744435E+03  0.74557744435E+03  0.00000000000E+00 0.  1.
          4   -1    0    0  505    0 -0.00000000000E+00 -0.00000000000E+00 -0.22310792893E+03  0.22310792893E+03  0.00000000000E+00 0.  1.
         21    1    1    2  503  502 -0.12414821991E+02 -0.83495145040E+02  0.19382162689E+03  0.21140574755E+03  0.00000000000E+00 0.  1.
         21    1    1    2  504  501 -0.24014157511E+02  0.26415101390E+02  0.51407732243E+03  0.51531537021E+03  0.00000000000E+00 0.  1.
         21    1    1    2  505  503 -0.28993317684E+02 -0.30738774546E+02 -0.77141091628E+02  0.87955856817E+02  0.00000000000E+00 0. -1.
          4    1    1    2  501    0  0.65422297186E+02  0.87818818196E+02 -0.10828834227E+03  0.15400839870E+03  0.00000000000E+00 0.  1.
<scales pt_clust_3="14000.00000" pt_clust_4="35.69926" pt_clust_5="42.19909" pt_clust_6="71.22074"></scales>
<clustering>
<clus scale="   35.699">  1  4  2 -1</clus>
<clus scale="   42.199">  2  5  1 -1</clus>
<clus scale="   71.221">  2  6  1 -1</clus>
<clus scale="   35.699">  1  3  2 -1</clus>
</clustering>
</event>
<event>
 6    0  0.2117869E+002  0.1331724E+03  0.7546771E-02  0.1222823E+00
          2   -1    0    0  505    0 -0.00000000000E+00  0.00000000000E+00  0.11404620203E+04  0.11404620203E+04  0.00000000000E+00 0. -1.
         21   -1    0    0  504  502  0.00000000000E+00 -0.00000000000E+00 -0.72897172934E+03  0.72897172934E+03  0.00000000000E+00 0.  1.
         21    1    1    2  503  502 -0.24201587877E+02  0.22856797482E+02 -0.75407137580E+02  0.82428068307E+02  0.00000000000E+00 0.  1.
         21    1    1    2  504  501 -0.26503770788E+02 -0.23386925604E+02 -0.62670534643E+03  0.62770135367E+03  0.00000000000E+00 0.  1.
         21    1    1    2  505  503 -0.71059440273E+02  0.75045955152E+02  0.13335146659E+03  0.16871263462E+03  0.00000000000E+00 0.  1.
          2    1    1    2  501    0  0.12176479894E+03 -0.74515827029E+02  0.98025130840E+03  0.99059169306E+03  0.00000000000E+00 0. -1.
<scales pt_clust_3="33.28889" pt_clust_4="49.87246" pt_clust_5="14000.00000" pt_clust_6="133.17237"></scales>
<clustering>
<clus scale="   33.289">  2  3  1 -1</clus>
<clus scale="   49.872">  2  4  1 -1</clus>
<clus scale="  133.172">  1  6  2 -1</clus>
<clus scale="   33.289">  2  3  1 -1</clus>
</clustering>
</event>
<event>
 6    0  0.2117869E+002  0.8362826E+02  0.7546771E-02  0.1319059E+00
         21   -1    0    0  505  502  0.00000000000E+00  0.00000000000E+00  0.85878732828E+02  0.85878732828E+02  0.00000000000E+00 0. -1.
         -2   -1    0    0    0  501 -0.00000000000E+00 -0.00000000000E+00 -0.34907905789E+04  0.34907905789E+04  0.00000000000E+00 0. -1.
         21    1    1    2  503  502 -0.43748291560E+02  0.70870207518E+02  0.58951192742E+02  0.10203794615E+03  0.00000000000E+00 0. -1.
         21    1    1    2  504  501 -0.64052835160E+01  0.35627391741E+02 -0.79203437094E+03  0.79286113756E+03  0.00000000000E+00 0. -1.
         21    1    1    2  505  504 -0.39916187926E+02 -0.16423312374E+02 -0.13471382404E+03  0.14145968201E+03  0.00000000000E+00 0. -1.
         -2    1    1    2    0  503  0.90069763002E+02 -0.90074286885E+02 -0.25371148438E+04  0.25403105460E+04  0.00000000000E+00 0. -1.
<scales pt_clust_3="83.62826" pt_clust_4="36.19860" pt_clust_5="42.81052" pt_clust_6="14000.00000"></scales>
<clustering>
<clus scale="   36.199">  2  4  1 -1</clus>
<clus scale="   42.811">  2  5  1 -1</clus>
<clus scale="   83.628">  1  3  2 -1</clus>
<clus scale="   83.628">  1  3  2 -1</clus>
</clustering>
</event>
<event>
 6    0  0.2117869E+002  0.2677680E+03  0.7546771E-02  0.1102564E+00
         21   -1    0    0  505  502  0.00000000000E+00  0.00000000000E+00  0.16990839213E+03  0.16990839213E+03  0.00000000000E+00 0. -1.
          2   -1    0    0  503    0 -0.00000000000E+00 -0.00000000000E+00 -0.12350089947E+04  0.12350089947E+04  0.00000000000E+00 0.  1.
         21    1    1    2  503  504 -0.24262394331E+02  0.19949566214E+02 -0.21864101595E+03  0.22088581400E+03  0.00000000000E+00 0.  1.
         21    1    1    2  504  502 -0.18506410382E+03 -0.15672139338E+03 -0.78729708210E+02  0.25496800705E+03  0.00000000000E+00 0. -1.
         21    1    1    2  505  501 -0.35232982312E+02 -0.43371598970E+01  0.51496139986E+02  0.62546194385E+02  0.00000000000E+00 0.  1.
          2    1    1    2  501    0  0.24455948046E+03  0.14110898707E+03 -0.81922601839E+03  0.86651737139E+03  0.00000000000E+00 0.  1.
<scales pt_clust_3="31.41097" pt_clust_4="14000.00000" pt_clust_5="35.61693" pt_clust_6="267.76797"></scales>
<clustering>
<clus scale="   31.411">  2  3  1 -1</clus>
<clus scale="   35.617">  1  5  2 -1</clus>
<clus scale="  267.768">  2  6  1 -1</clus>
<clus scale="   35.617">  1  3  2 -1</clus>
</clustering>
</event>
<event>
 6    0  0.2117869E+002  0.6777149E+02  0.7546771E-02  0.1367839E+00
         21   -1    0    0  505  502  0.00000000000E+00  0.00000000000E+00  0.13172311390E+03  0.13172311390E+03  0.00000000000E+00 0.  1.
          2   -1    0    0  503    0 -0.00000000000E+00 -0.00000000000E+00 -0.15242038410E+04  0.15242038410E+04  0.00000000000E+00 0.  1.
         21    1    1    2  503  502  0.20533122534E+02  0.47978572002E+02 -0.84158341556E+03  0.84319997500E+03  0.00000000000E+00 0. -1.
         21    1    1    2  504  501  0.12043948248E+01  0.72032746374E+02 -0.48803473291E+02  0.87016930091E+02  0.00000000000E+00 0. -1.
         21    1    1    2  505  504 -0.32281025509E+02 -0.16014657643E+02  0.10431202958E+03  0.11036092326E+03  0.00000000000E+00 0.  1.
          2    1    1    2  501    0  0.10543508150E+02 -0.10399666073E+03 -0.60640586782E+03  0.61534912654E+03  0.00000000000E+00 0.  1.
<scales pt_clust_3="51.28457" pt_clust_4="14000.00000" pt_clust_5="36.03518" pt_clust_6="67.77149"></scales>
<clustering>
<clus scale="   36.035">  1  5  2 -1</clus>
<clus scale="   51.285">  2  3  1 -1</clus>
<clus scale="   67.771">  2  6  1 -1</clus>
<clus scale="   36.035">  1  3  2 -1</clus>
</clustering>
</event>
<event>
 6    0  0.2117869E+002  0.8019270E+02  0.7546771E-02  0.1328505E+00
         21   -1    0    0  503  502  0.00000000000E+00  0.00000000000E+00  0.47633253345E+03  0.47633253345E+03  0.00000000000E+00 0. -1.
         -1   -1    0    0    0  501 -0.00000000000E+00 -0.00000000000E+00 -0.23492397111E+03  0.23492397111E+03  0.00000000000E+00 0.  1.
         21    1    1    2  503  504  0.62161357633E+02 -0.43728992642E+02  0.12991523016E+03  0.15051320941E+03  0.00000000000E+00 0. -1.
         21    1    1    2  504  501  0.31030045885E+02  0.54481474432E+02 -0.16868432786E+02  0.64927951058E+02  0.00000000000E+00 0. -1.
         21    1    1    2  505  502 -0.11760628058E+02  0.32616850451E+02  0.29944257646E+03  0.30144324160E+03  0.00000000000E+00 0. -1.
         -1    1    1    2    0  505 -0.81430775460E+02 -0.43369332241E+02 -0.17108081149E+03  0.19437210250E+03  0.00000000000E+00 0.  1.
<scales pt_clust_3="55.68346" pt_clust_4="14000.00000" pt_clust_5="34.67234" pt_clust_6="80.19270"></scales>
<clustering>
<clus scale="   34.672">  1  5  2 -1</clus>
<clus scale="   55.683">  1  3  2 -1</clus>
<clus scale="   80.193">  2  6  1 -1</clus>
<clus scale="   34.672">  1  3  2 -1</clus>
</clustering>
</event>
<event>
 6    0  0.2117869E+002  0.1115480E+03  0.7546771E-02  0.1257730E+00
         21   -1    0    0  503  502  0.00000000000E+00  0.00000000000E+00  0.24992252278E+02  0.24992252278E+02  0.00000000000E+00 0. -1.
          2   -1    0    0  504    0 -0.00000000000E+00 -0.00000000000E+00 -0.72450372743E+03  0.72450372743E+03  0.00000000000E+00 0. -1.
         21    1    1    2  503  505  0.39381216089E+02  0.23513153025E+02 -0.10190220425E+03  0.11174886029E+03  0.00000000000E+00 0.  1.
         21    1    1    2  504  502 -0.46866932287E+01 -0.11369783957E+03 -0.37641085863E+03  0.39323567782E+03  0.00000000000E+00 0. -1.
         21    1    1    2  505  501 -0.16171034998E+02  0.45049255782E+02 -0.64015203311E+02  0.79930495272E+02  0.00000000000E+00 0. -1.
          2    1    1    2  501    0 -0.18523487863E+02  0.45135430765E+02 -0.15718320896E+03  0.16458094632E+03  0.00000000000E+00 0. -1.
<scales pt_clust_3="45.86664" pt_clust_4="104.51235" pt_clust_5="38.61741" pt_clust_6="38.61741"></scales>
<clustering>
<clus scale="   38.617">  5  6 -1 -1</clus>
<clus scale="   45.867">  1  3  2 -1</clus>
<clus scale="  104.512">  2  4  1 -1</clus>
<clus scale="   45.867">  1  3  2 -1</clus>
</clustering>
</event>
<event>
 6    0  0.2117869E+002  0.1020305E+03  0.7546771E-02  0.1276083E+00
          2   -1    0    0  503    0 -0.00000000000E+00  0.00000000000E+00  0.50173715235E+03  0.50173715235E+03  0.00000000000E+00 0.  1.
         21   -1    0    0  505  502  0.00000000000E+00 -0.00000000000E+00 -0.21981510266E+04  0.21981510266E+04  0.00000000000E+00 0. -1.
         21    1    1    2  503  504 -0.80296411224E+02 -0.39133399495E+02 -0.40992182817E+03  0.41954122780E+03  0.00000000000E+00 0.  1.
         21    1    1    2  504  502  0.26709661238E+02 -0.13895082502E+02 -0.17234631663E+04  0.17237261282E+04  0.00000000000E+00 0. -1.
         21    1    1    2  505  501  0.37031971320E+02 -0.48323119327E+02 -0.37273313865E+02  0.71384807122E+02  0.00000000000E+00 0.  1.
          2    1    1    2  501    0  0.16554778665E+02  0.10135160132E+03  0.47424443411E+03  0.48523601584E+03  0.00000000000E+00 0.  1.
<scales pt_clust_3="102.03052" pt_clust_4="30.10780" pt_clust_5="64.02021" pt_clust_6="14000.00000"></scales>
<clustering>
<clus scale="   30.108">  2  4  1 -1</clus>
<clus scale="   64.020">  2  5  1 -1</clus>
<clus scale="  102.031">  2  3  1 -1</clus>
<clus scale="   30.108">  2  3  1 -1</clus>
</clustering>
</event>
<event>
 6    0  0.2117869E+002  0.9859740E+02  0.7546771E-02  0.1283273E+00
         21   -1    0    0  501  502  0.00000000000E+00  0.00000000000E+00  0.17282389646E+03  0.17282389646E+03  0.00000000000E+00 0.  1.
          2   -1    0    0  505    0 -0.00000000000E+00 -0.00000000000E+00 -0.78712407718E+03  0.78712407718E+03  0.00000000000E+00 0.  1.
         21    1    1    2  503  504  0.13253682661E+03 -0.11632499784E+02  0.61516136279E+02  0.14657953636E+03  0.00000000000E+00 0.  1.
         21    1    1    2  504  502 -0.41867372836E+02  0.59655199124E+02  0.26387648611E+02  0.77510823050E+02  0.00000000000E+00 0.  1.
         21    1    1    2  505  503 -0.26983898727E+02  0.14591774709E+02 -0.59729102200E+03  0.59807826882E+03  0.00000000000E+00 0.  1.
          2    1    1    2  501    0 -0.63685555045E+02 -0.62614474049E+02 -0.10491294362E+03  0.13777934540E+03  0.00000000000E+00 0.  1.
<scales pt_clust_3="98.59740" pt_clust_4="76.60642" pt_clust_5="30.67655" pt_clust_6="14000.00000"></scales>
<clustering>
<clus scale="   30.677">  2  5  1 -1</clus>
<clus scale="   76.606">  1  4  2 -1</clus>
<clus scale="   98.597">  1  3  2 -1</clus>
<clus scale="   76.606">  1  3  2 -1</clus>
</clustering>
</event>
<event>
 6    0  0.2117869E+002  0.1684193E+03  0.7546771E-02  0.1179506E+00
          3   -1    0    0  503    0 -0.00000000000E+00  0.00000000000E+00  0.60920615384E+03  0.60920615384E+03  0.00000000000E+00 0. -1.
         21   -1    0    0  501  502  0.00000000000E+00 -0.00000000000E+00 -0.40070926524E+03  0.40070926524E+03  0.00000000000E+00 0. -1.
         21    1    1    2  503  505  0.57796738218E+02 -0.88874113366E+02  0.19279331636E+03  0.22001893966E+03  0.00000000000E+00 0. -1.
         21    1    1    2  504  502  0.32343607796E+02 -0.54068870479E+02 -0.26691972170E+03  0.27425478948E+03  0.00000000000E+00 0. -1.
         21    1    1    2  505  504 -0.20438038791E+03  0.10844484394E+03  0.26247634722E+02  0.23285309847E+03  0.00000000000E+00 0. -1.
          3    1    1    2  501    0  0.11424004190E+03  0.34498139908E+02  0.25637565922E+03  0.28278859148E+03  0.00000000000E+00 0. -1.
<scales pt_clust_3="112.60137" pt_clust_4="63.00438" pt_clust_5="168.41930" pt_clust_6="14000.00000"></scales>
<clustering>
<clus scale="   63.004">  2  4  1 -1</clus>
<clus scale="  112.601">  1  3  2 -1</clus>
<clus scale="  168.419">  2  5  1 -1</clus>
<clus scale="   63.004">  2  3  1 -1</clus>
</clustering>
</event>
<event>
 6    0  0.2117869E+002  0.9925384E+02  0.7546771E-02  0.1281873E+00
          1   -1    0    0  504    0 -0.00000000000E+00  0.00000000000E+00  0.24853959975E+03  0.24853959975E+03  0.00000000000E+00 0.  1.
         21   -1    0    0  503  502  0.00000000000E+00 -0.00000000000E+00 -0.40682548422E+03  0.40682548422E+03  0.00000000000E+00 0.  1.
         21    1    1    2  503  505  0.96694015031E+01  0.29317338847E+02 -0.57339862865E+02  0.65121913023E+02  0.00000000000E+00 0. -1.
         21    1    1    2  504  502  0.37275645018E+01 -0.50033222781E+02  0.12161701007E+03  0.13155955024E+03  0.00000000000E+00 0.  1.
         21    1    1    2  505  501 -0.10319073905E+03  0.99782848718E+01 -0.31364330199E+03  0.33033318888E+03  0.00000000000E+00 0.  1.
          1    1    1    2  501    0  0.89793773044E+02  0.10737599062E+02  0.91080270307E+02  0.12835043183E+03  0.00000000000E+00 0.  1.
<scales pt_clust_3="30.87076" pt_clust_4="49.76195" pt_clust_5="14000.00000" pt_clust_6="99.25384"></scales>
<clustering>
<clus scale="   30.871">  2  3  1 -1</clus>
<clus scale="   49.762">  1  4  2 -1</clus>
<clus scale="   99.254">  1  6  2 -1</clus>
<clus scale="   30.871">  2  3  1 -1</clus>
</clustering>
</event>
<event>
 6    0  0.2117869E+002  0.1503524E+03  0.7546771E-02  0.1200041E+00
          2   -1    0    0  503    0 -0.00000000000E+00  0.00000000000E+00  0.29137437054E+03  0.29137437054E+03  0.00000000000E+00 0.  1.
         21   -1    0    0  504  502  0.00000000000E+00 -0.00000000000E+00 -0.44385166316E+03  0.44385166316E+03  0.00000000000E+00 0. -1.
         21    1    1    2  503  502  0.19143284233E+02  0.24198166753E+02 -0.19605361925E+02  0.36556624867E+02  0.00000000000E+00 0. -1.
         21    1    1    2  504  505  0.87055871754E+02 -0.14442669600E+02 -0.23444718510E+03  0.25050508600E+03  0.00000000000E+00 0.  1.
         21    1    1    2  505  501  0.28650802010E+02  0.27910578882E+02 -0.15272080871E+03  0.15787182866E+03  0.00000000000E+00 0. -1.
          2    1    1    2  501    0 -0.13484995800E+03 -0.37666076034E+02  0.25429606312E+03  0.29029249417E+03  0.00000000000E+00 0.  1.
<scales pt_clust_3="30.85477" pt_clust_4="41.59623" pt_clust_5="41.59623" pt_clust_6="138.93387"></scales>
<clustering>
<clus scale="   30.855">  2  3  1 -1</clus>
<clus scale="   41.596">  4  5 -1 -1</clus>
<clus scale="  138.934">  1  6  2 -1</clus>
<clus scale="   30.855">  2  3  1 -1</clus>
</clustering>
</event>
<event>
 6    0  0.2117869E+002  0.1766675E+03  0.7546771E-02  0.1171068E+00
         -2   -1    0    0    0  501 -0.00000000000E+00  0.00000000000E+00  0.46298123485E+03  0.46298123485E+03  0.00000000000E+00 0. -1.
         21   -1    0    0  504  502  0.00000000000E+00 -0.00000000000E+00 -0.25104662751E+03  0.25104662751E+03  0.00000000000E+00 0.  1.
         21    1    1    2  503  501  0.40957012349E+01  0.12596415882E+03  0.35616433968E+01  0.12608104290E+03  0.00000000000E+00 0.  1.
         21    1    1    2  504  505  0.36672610804E+02 -0.80019377485E+01 -0.12574904746E+03  0.13123160567E+03  0.00000000000E+00 0.  1.
         21    1    1    2  505  503 -0.16914772394E+02  0.48425196994E+02 -0.27308237008E+02  0.58110661995E+02  0.00000000000E+00 0.  1.
         -2    1    1    2    0  502 -0.23853539644E+02 -0.16638741806E+03  0.36143024841E+03  0.39860455179E+03  0.00000000000E+00 0. -1.
<scales pt_clust_3="33.67768" pt_clust_4="37.53547" pt_clust_5="33.67768" pt_clust_6="168.59622"></scales>
<clustering>
<clus scale="   33.678">  3  5 -1 -1</clus>
<clus scale="   37.535">  2  4  1 -1</clus>
<clus scale="  168.596">  1  6  2 -1</clus>
<clus scale="   37.535">  2  3  1 -1</clus>
</clustering>
</event>
<event>
 6    0  0.2117869E+002  0.7698589E+02  0.7546771E-02  0.1337829E+00
          2   -1    0    0  505    0 -0.00000000000E+00  0.00000000000E+00  0.21056699005E+04  0.21056699005E+04  0.00000000000E+00 0. -1.
         21   -1    0    0  504  502  0.00000000000E+00 -0.00000000000E+00 -0.36874710145E+02  0.36874710145E+02  0.00000000000E+00 0.  1.
         21    1    1    2  503  501 -0.19706513623E+02 -0.66780706579E+02  0.12147511204E+03  0.14001504310E+03  0.00000000000E+00 0.  1.
         21    1    1    2  504  503 -0.39358176912E+02  0.15099343694E+02 -0.32425737115E+01  0.42279670695E+02  0.00000000000E+00 0.  1.
         21    1    1    2  505  502 -0.53356496427E+02 -0.33209005581E+01  0.28354178411E+03  0.28853749744E+03  0.00000000000E+00 0. -1.
          2    1    1    2  501    0  0.11242118696E+03  0.55002263443E+02  0.16670208679E+04  0.16717123994E+04  0.00000000000E+00 0. -1.
<scales pt_clust_3="76.98589" pt_clust_4="42.15515" pt_clust_5="60.32569" pt_clust_6="14000.00000"></scales>
<clustering>
<clus scale="   42.155">  2  4  1 -1</clus>
<clus scale="   60.326">  1  5  2 -1</clus>
<clus scale="   76.986">  2  3  1 -1</clus>
<clus scale="   42.155">  2  3  1 -1</clus>
</clustering>
</event>
<event>
 6    0  0.2117869E+002  0.8372157E+02  0.7546771E-02  0.1318810E+00
         21   -1    0    0  505  502  0.00000000000E+00  0.00000000000E+00  0.36959895946E+03  0.36959895946E+03  0.00000000000E+00 0. -1.
         -3   -1    0    0    0  501 -0.00000000000E+00 -0.00000000000E+00 -0.32880400252E+03  0.32880400252E+03  0.00000000000E+00 0.  1.
         21    1    1    2  503  502  0.86433212441E+02 -0.88017091036E+02  0.29591834108E+03  0.32060158003E+03  0.00000000000E+00 0. -1.
         21    1    1    2  504  501  0.21132798176E+02  0.22816688072E+02 -0.23349159115E+02  0.38889325588E+02  0.00000000000E+00 0.  1.
         21    1    1    2  505  504 -0.21770237717E+02  0.38052708991E+02  0.35806791617E+02  0.56604577887E+02  0.00000000000E+00 0. -1.
         -3    1    1    2    0  503 -0.85795772899E+02  0.27147693973E+02 -0.26758101664E+03  0.28230747848E+03  0.00000000000E+00 0.  1.
<scales pt_clust_3="83.72157" pt_clust_4="31.09978" pt_clust_5="44.17747" pt_clust_6="14000.00000"></scales>
<clustering>
<clus scale="   31.100">  2  4  1 -1</clus>
<clus scale="   44.177">  1  5  2 -1</clus>
<clus scale="   83.722">  1  3  2 -1</clus>
<clus scale="   44.177">  1  3  2 -1</clus>
</clustering>
</event>
<event>
 6    0  0.2117869E+002  0.1487727E+03  0.7546771E-02  0.1201989E+00
          4   -1    0    0  503    0 -0.00000000000E+00  0.00000000000E+00  0.69608198655E+02  0.69608198655E+02  0.00000000000E+00 0. -1.
         21   -1    0    0  504  502  0.00000000000E+00 -0.00000000000E+00 -0.13251114243E+04  0.13251114243E+04  0.00000000000E+00 0. -1.
         21    1    1    2  503  505  0.70528485963E+02  0.65480523355E+02 -0.17621742637E+03  0.20078482918E+03  0.00000000000E+00 0. -1.
         21    1    1    2  504  501 -0.14375910734E+03 -0.18904566990E+03 -0.52858306958E+03  0.57948684860E+03  0.00000000000E+00 0. -1.
         21    1    1    2  505  502  0.16454896036E+02  0.96519688164E+02 -0.54222081309E+03  0.55099022128E+03  0.00000000000E+00 0. -1.
          4    1    1    2  501    0  0.56775725345E+02  0.27045458384E+02 -0.84819165658E+01  0.63457723850E+02  0.00000000000E+00 0. -1.
<scales pt_clust_3="148.77272" pt_clust_4="14000.00000" pt_clust_5="101.82174" pt_clust_6="62.88831"></scales>
<clustering>
<clus scale="   62.888">  1  6  2 -1</clus>
<clus scale="  101.822">  2  5  1 -1</clus>
<clus scale="  148.773">  1  3  2 -1</clus>
<clus scale="  101.822">  2  3  1 -1</clus>
</clustering>
</event>
<event>
 6    0  0.2117869E+002  0.1569328E+03  0.7546771E-02  0.1192204E+00
         21   -1    0    0  505  502  0.00000000000E+00  0.00000000000E+00  0.28618799115E+03  0.28618799115E+03  0.00000000000E+00 0. -1.
          2   -1    0    0  503    0 -0.00000000000E+00 -0.00000000000E+00 -0.17151113209E+04  0.17151113209E+04  0.00000000000E+00 0. -1.
         21    1    1    2  503  504  0.11704961616E+02  0.33846013333E+02 -0.29491181420E+03  0.29707833462E+03  0.00000000000E+00 0. -1.
         21    1    1    2  504  502  0.40310685621E+02  0.94257314316E+00  0.41072119195E+02  0.57556570385E+02  0.00000000000E+00 0. -1.
         21    1    1    2  505  501  0.37765366118E+02 -0.13818551866E+03  0.21034072259E+03  0.25448905679E+03  0.00000000000E+00 0. -1.
          2    1    1    2  501    0 -0.89781013355E+02  0.10339693218E+03 -0.13854243574E+04  0.13921753503E+04  0.00000000000E+00 0. -1.
<scales pt_clust_3="35.81283" pt_clust_4="40.39473" pt_clust_5="156.93277" pt_clust_6="14000.00000"></scales>
<clustering>
<clus scale="   35.813">  2  3  1 -1</clus>
<clus scale="   40.395">  1  4  2 -1</clus>
<clus scale="  156.933">  1  5  2 -1</clus>
<clus scale="   40.395">  1  3  2 -1</clus>
</clustering>
</event>
<event>
 6    0  0.2117869E+002  0.2442728E+03  0.7546771E-02  0.1116979E+00
          2   -1    0    0  503    0 -0.00000000000E+00  0.00000000000E+00  0.45079390684E+03  0.45079390684E+03  0.00000000000E+00 0. -1.
         21   -1    0    0  501  502  0.00000000000E+00 -0.00000000000E+00 -0.81450061954E+03  0.81450061954E+03  0.00000000000E+00 0.  1.
         21    1    1    2  503  505  0.32062092746E+02 -0.37066499322E+01  0.72178961742E+01  0.33072875142E+02  0.00000000000E+00 0. -1.
         21    1    1    2  504  502  0.26023149543E+02 -0.77272078126E+02 -0.37796812478E+03  0.38666274933E+03  0.00000000000E+00 0.  1.
         21    1    1    2  505  504 -0.54398774346E+02 -0.17425056420E+03 -0.35698820697E+03  0.40095269757E+03  0.00000000000E+00 0.  1.
          2    1    1    2  501    0 -0.36864679425E+01  0.25522929225E+03  0.36403172288E+03  0.44460620433E+03  0.00000000000E+00 0. -1.
<scales pt_clust_3="32.27564" pt_clust_4="81.67565" pt_clust_5="14000.00000" pt_clust_6="244.27283"></scales>
<clustering>
<clus scale="   32.276">  1  3  2 -1</clus>
<clus scale="   81.676">  2  4  1 -1</clus>
<clus scale="  244.273">  1  6  2 -1</clus>
<clus scale="   81.676">  2  3  1 -1</clus>
</clustering>
</event>
<event>
 6    0  0.2117869E+002  0.1166550E+03  0.7546771E-02  0.1248719E+00
         21   -1    0    0  501  502  0.00000000000E+00  0.00000000000E+00  0.24203976022E+03  0.24203976022E+03  0.00000000000E+00 0. -1.
          2   -1    0    0  503    0 -0.00000000000E+00 -0.00000000000E+00 -0.19477746865E+04  0.19477746865E+04  0.00000000000E+00 0.  1.
         21    1    1    2  503  505 -0.21311056063E+02  0.58118431535E+02 -0.35668101782E+03  0.36201279213E+03  0.00000000000E+00 0.  1.
         21    1    1    2  504  502  0.50476257411E+02 -0.18876004068E+02  0.15319242433E+03  0.16239481199E+03  0.00000000000E+00 0. -1.
         21    1    1    2  505  504  0.54067497423E+02 -0.14677581626E+02  0.70622483893E+02  0.90145775892E+02  0.00000000000E+00 0. -1.
          2    1    1    2  501    0 -0.83232698771E+02 -0.24564845841E+02 -0.15728688166E+04  0.15752610667E+04  0.00000000000E+00 0.  1.
<scales pt_clust_3="61.90245" pt_clust_4="39.57734" pt_clust_5="39.57734" pt_clust_6="109.45317"></scales>
<clustering>
<clus scale="   39.577">  4  5 -1 -1</clus>
<clus scale="   61.902">  2  3  1 -1</clus>
<clus scale="  109.453">  2  6  1 -1</clus>
<clus scale="  116.655">  1  3  2 -1</clus>
</clustering>
</event>
<event>
 6    0  0.2117869E+002  0.9019550E+02  0.7546771E-02  0.1302379E+00
         21   -1    0    0  501  502  0.00000000000E+00  0.00000000000E+00  0.12841545721E+03  0.12841545721E+03  0.00000000000E+00 0. -1.
          2   -1    0    0  504    0 -0.00000000000E+00 -0.00000000000E+00 -0.21834641905E+03  0.21834641905E+03  0.00000000000E+00 0. -1.
         21    1    1    2  503  502  0.39055608926E+02 -0.91459239964E+01  0.43508272885E+02  0.59177346373E+02  0.00000000000E+00 0. -1.
         21    1    1    2  504  505 -0.28935302782E+00 -0.42460901756E+02 -0.45139606442E+02  0.61972542089E+02  0.00000000000E+00 0. -1.
         21    1    1    2  505  503  0.31894349830E+02 -0.56015072738E+02  0.78367323373E+01  0.64933445147E+02  0.00000000000E+00 0. -1.
          2    1    1    2  501    0 -0.70660605728E+02  0.10762189849E+03 -0.96136360623E+02  0.16067854266E+03  0.00000000000E+00 0. -1.
<scales pt_clust_3="40.11220" pt_clust_4="43.64111" pt_clust_5="90.19550" pt_clust_6="14000.00000"></scales>
<clustering>
<clus scale="   40.112">  1  3  2 -1</clus>
<clus scale="   43.641">  2  4  1 -1</clus>
<clus scale="   90.196">  1  5  2 -1</clus>
<clus scale="   40.112">  1  3  2 -1</clus>
</clustering>
</event>
<event>
 6    0  0.2117869E+002  0.7800844E+02  0.7546771E-02  0.1334800E+00
         21   -1    0    0  503  502  0.00000000000E+00  0.00000000000E+00  0.53138388797E+03  0.53138388797E+03  0.00000000000E+00 0.  1.
         -3   -1    0    0    0  501 -0.00000000000E+00 -0.00000000000E+00 -0.58045553117E+03  0.58045553117E+03  0.00000000000E+00 0. -1.
         21    1    1    2  503  504 -0.20801478274E+02  0.50725521130E+02 -0.53757309646E+02  0.76782995075E+02  0.00000000000E+00 0.  1.
         21    1    1    2  504  501 -0.15156332888E+02  0.50095126123E+02 -0.20452399287E+03  0.21111442335E+03  0.00000000000E+00 0. -1.
         21    1    1    2  505  502 -0.47883528221E+02 -0.44035295030E+01  0.50209871939E+03  0.50439602235E+03  0.00000000000E+00 0.  1.
         -3    1    1    2    0  505  0.83841339383E+02 -0.96417117750E+02 -0.29288906007E+03  0.31954597837E+03  0.00000000000E+00 0. -1.
<scales pt_clust_3="78.00844" pt_clust_4="53.75193" pt_clust_5="48.08558" pt_clust_6="14000.00000"></scales>
<clustering>
<clus scale="   48.086">  1  5  2 -1</clus>
<clus scale="   53.752">  2  4  1 -1</clus>
<clus scale="   78.008">  1  3  2 -1</clus>
<clus scale="   48.086">  1  3  2 -1</clus>
</clustering>
</event>
<event>
 6    0  0.2117869E+002  0.1375489E+03  0.7546771E-02  0.1216666E+00
          2   -1    0    0  504    0 -0.00000000000E+00  0.00000000000E+00  0.12920397791E+03  0.12920397791E+03  0.00000000000E+00 0.  1.
         21   -1    0    0  503  502  0.00000000000E+00 -0.00000000000E+00 -0.42886800969E+03  0.42886800969E+03  0.00000000000E+00 0.  1.
         21    1    1    2  503  501 -0.11654660717E+03  0.80806969340E+01 -0.27459207731E+03  0.29841115633E+03  0.00000000000E+00 0.  1.
         21    1    1    2  504  505  0.15686528301E+02 -0.25986486519E+02  0.11135969176E+02  0.32332251101E+02  0.00000000000E+00 0.  1.
         21    1    1    2  505  502 -0.24750464756E+02 -0.45413971589E+02 -0.65687176515E+02  0.83605140270E+02  0.00000000000E+00 0.  1.
          2    1    1    2  501    0  0.12561054362E+03  0.63319761173E+02  0.29479252865E+02  0.14372343989E+03  0.00000000000E+00 0.  1.
<scales pt_clust_3="14000.00000" pt_clust_4="30.35399" pt_clust_5="53.04194" pt_clust_6="137.54890"></scales>
<clustering>
<clus scale="   30.354">  1  4  2 -1</clus>
<clus scale="   53.042">  2  5  1 -1</clus>
<clus scale="  137.549">  1  6  2 -1</clus>
<clus scale="   53.042">  2  3  1 -1</clus>
</clustering>
</event>
<event>
 6    0  0.2117869E+002  0.6873245E+02  0.7546771E-02  0.1364457E+00
         21   -1    0    0  505  502  0.00000000000E+00  0.00000000000E+00  0.95120589674E+02  0.95120589674E+02  0.00000000000E+00 0.  1.
          2   -1    0    0  503    0 -0.00000000000E+00 -0.00000000000E+00 -0.13386234859E+04  0.13386234859E+04  0.00000000000E+00 0.  1.
         21    1    1    2  503  504 -0.86501436112E+02 -0.67964797650E+02 -0.60277032130E+03  0.61272650702E+03  0.00000000000E+00 0.  1.
         21    1    1    2  504  502  0.32053905024E+02  0.34610274452E+02  0.57138754641E+02  0.74095622049E+02  0.00000000000E+00 0.  1.
         21    1    1    2  505  501 -0.11360671371E+02  0.32172617285E+02  0.10345292022E+02  0.35653432149E+02  0.00000000000E+00 0.  1.
          2    1    1    2  501    0  0.65808202458E+02  0.11819059129E+01 -0.70821662157E+03  0.71126851433E+03  0.00000000000E+00 0.  1.
<scales pt_clust_3="68.73245" pt_clust_4="14000.00000" pt_clust_5="34.11953" pt_clust_6="65.59428"></scales>
<clustering>
<clus scale="   34.120">  1  5  2 -1</clus>
<clus scale="   65.594">  2  6  1 -1</clus>
<clus scale="   68.732">  2  3  1 -1</clus>
<clus scale="   34.120">  1  3  2 -1</clus>
</clustering>
</event>
<event>
 6    0  0.2117869E+002  0.1064631E+03  0.7546771E-02  0.1267263E+00
         21   -1    0    0  503  502  0.00000000000E+00  0.00000000000E+00  0.24044509728E+03  0.24044509728E+03  0.00000000000E+00 0. -1.
          2   -1    0    0  504    0 -0.00000000000E+00 -0.00000000000E+00 -0.93129218032E+03  0.93129218032E+03  0.00000000000E+00 0.  1.
         21    1    1    2  503  501  0.77417979720E+01  0.81472936694E+02  0.43931616654E+02  0.92885745899E+02  0.00000000000E+00 0. -1.
         21    1    1    2  504  505  0.30829397341E+02 -0.12809736552E+02 -0.16144741809E+02  0.37083605259E+02  0.00000000000E+00 0.  1.
         21    1    1    2  505  502  0.26410633568E+02  0.17887872887E+02  0.15662630858E+03  0.15984147804E+03  0.00000000000E+00 0. -1.
          2    1    1    2  501    0 -0.64981828881E+02 -0.86551073029E+02 -0.87526026647E+03  0.88192644840E+03  0.00000000000E+00 0.  1.
<scales pt_clust_3="106.46312" pt_clust_4="35.77794" pt_clust_5="31.89824" pt_clust_6="14000.00000"></scales>
<clustering>
<clus scale="   31.898">  1  5  2 -1</clus>
<clus scale="   35.778">  1  4  2 -1</clus>
<clus scale="  106.463">  1  3  2 -1</clus>
<clus scale="   31.898">  1  3  2 -1</clus>
</clustering>
</event>
<event>
 6    0  0.2117869E+002  0.8872429E+02  0.7546771E-02  0.1305971E+00
          2   -1    0    0  504    0 -0.00000000000E+00  0.00000000000E+00  0.42818721480E+03  0.42818721480E+03  0.00000000000E+00 0. -1.
         21   -1    0    0  505  502  0.00000000000E+00 -0.00000000000E+00 -0.58645386656E+03  0.58645386656E+03  0.00000000000E+00 0. -1.
         21    1    1    2  503  502  0.10248617151E+03 -0.37900391251E+02 -0.39895481688E+03  0.41364816078E+03  0.00000000000E+00 0. -1.
         21    1    1    2  504  503  0.30512644282E+02  0.55287426238E+01  0.17747695978E+03  0.18016564520E+03  0.00000000000E+00 0. -1.
         21    1    1    2  505  501 -0.15415194574E+02  0.33796972123E+02 -0.16230083918E+03  0.16649752535E+03  0.00000000000E+00 0. -1.
          2    1    1    2  501    0 -0.11758362122E+03 -0.14253234954E+01  0.22551204452E+03  0.25432975003E+03  0.00000000000E+00 0. -1.
<scales pt_clust_3="88.72429" pt_clust_4="31.00949" pt_clust_5="37.08316" pt_clust_6="14000.00000"></scales>
<clustering>
<clus scale="   31.009">  1  4  2 -1</clus>
<clus scale="   37.083">  2  5  1 -1</clus>
<clus scale="   88.724">  2  3  1 -1</clus>
<clus scale="   37.083">  2  3  1 -1</clus>
</clustering>
</event>
<event>
 6    0  0.2117869E+002  0.2514005E+03  0.7546771E-02  0.1112423E+00
         21   -1    0    0  501  502  0.00000000000E+00  0.00000000000E+00  0.81096957970E+02  0.81096957970E+02  0.00000000000E+00 0. -1.
          2   -1    0    0  504    0 -0.00000000000E+00 -0.00000000000E+00 -0.26001736083E+04  0.26001736083E+04  0.00000000000E+00 0.  1.
         21    1    1    2  503  502  0.70396893257E+02  0.13279738641E+03 -0.11465261188E+03  0.18903991596E+03  0.00000000000E+00 0. -1.
         21    1    1    2  504  505  0.15068151844E+02  0.31726743233E+02 -0.52089688532E+03  0.52207968796E+03  0.00000000000E+00 0.  1.
         21    1    1    2  505  503 -0.18383503000E+03  0.11484423018E+03 -0.37775772775E+03  0.43552889265E+03  0.00000000000E+00 0. -1.
          2    1    1    2  501    0  0.98369984898E+02 -0.27936835983E+03 -0.15057694254E+04  0.15346220697E+04  0.00000000000E+00 0.  1.
<scales pt_clust_3="152.86586" pt_clust_4="35.12315" pt_clust_5="251.40054" pt_clust_6="14000.00000"></scales>
<clustering>
<clus scale="   35.123">  2  4  1 -1</clus>
<clus scale="  152.866">  1  3  2 -1</clus>
<clus scale="  251.401">  1  5  2 -1</clus>
<clus scale="  152.866">  1  3  2 -1</clus>
</clustering>
</event>
<event>
 6    0  0.2117869E+002  0.9041959E+02  0.7546771E-02  0.1301839E+00
         21   -1    0    0  505  502  0.00000000000E+00  0.00000000000E+00  0.52924044516E+03  0.52924044516E+03  0.00000000000E+00 0.  1.
         -3   -1    0    0    0  501 -0.00000000000E+00 -0.00000000000E+00 -0.14894039324E+03  0.14894039324E+03  0.00000000000E+00 0.  1.
         21    1    1    2  503  501 -0.53621972509E+02  0.23160747821E+02  0.30129204592E+02  0.65722942301E+02  0.00000000000E+00 0.  1.
         21    1    1    2  504  502  0.56836596851E+02 -0.36955636045E+02  0.37320392066E+03  0.37931159246E+03  0.00000000000E+00 0.  1.
         21    1    1    2  505  503  0.59453558405E+02  0.47106770616E+02  0.78569527635E+02  0.10921054948E+03  0.00000000000E+00 0.  1.
         -3    1    1    2    0  504 -0.62668182747E+02 -0.33311882392E+02 -0.10160260097E+03  0.12393575417E+03  0.00000000000E+00 0.  1.
<scales pt_clust_3="58.41007" pt_clust_4="66.45425" pt_clust_5="90.41959" pt_clust_6="14000.00000"></scales>
<clustering>
<clus scale="   58.410">  2  3  1 -1</clus>
<clus scale="   66.454">  1  4  2 -1</clus>
<clus scale="   90.420">  1  5  2 -1</clus>
<clus scale="   66.454">  1  3  2 -1</clus>
</clustering>
</event>
<event>
 6    0  0.2117869E+002  0.1723302E+03  0.7546771E-02  0.1175439E+00
          1   -1    0    0  503    0 -0.00000000000E+00  0.00000000000E+00  0.11597135757E+03  0.11597135757E+03  0.00000000000E+00 0. -1.
         21   -1    0    0  501  502  0.00000000000E+00 -0.00000000000E+00 -0.94192644796E+03  0.94192644796E+03  0.00000000000E+00 0. -1.
         21    1    1    2  503  505  0.78616464394E+02  0.26021193728E+02 -0.12120282913E+03  0.14679161007E+03  0.00000000000E+00 0. -1.
         21    1    1    2  504  502  0.27413280158E+02  0.48649206181E+02 -0.56405395248E+03  0.56681133942E+03  0.00000000000E+00 0. -1.
         21    1    1    2  505  504  0.49698476292E+02 -0.37864744650E+02 -0.17044437970E+03  0.18153502143E+03  0.00000000000E+00 0. -1.
          1    1    1    2  501    0 -0.15572822084E+03 -0.36805655258E+02  0.29746070920E+02  0.16275983461E+03  0.00000000000E+00 0. -1.
<scales pt_clust_3="63.31713" pt_clust_4="55.84114" pt_clust_5="63.31713" pt_clust_6="153.50052"></scales>
<clustering>
<clus scale="   55.841">  2  4  1 -1</clus>
<clus scale="   63.317">  3  5 -1 -1</clus>
<clus scale="  153.501">  1  6  2 -1</clus>
<clus scale="   55.841">  2  3  1 -1</clus>
</clustering>
</event>
<event>
 6    0  0.2117869E+002  0.9300358E+02  0.7546771E-02  0.1295737E+00
         -3   -1    0    0    0  501 -0.00000000000E+00  0.00000000000E+00  0.19644969142E+04  0.19644969142E+04  0.00000000000E+00 0.  1.
         21   -1    0    0  505  502  0.00000000000E+00 -0.00000000000E+00 -0.47181269574E+03  0.47181269574E+03  0.00000000000E+00 0.  1.
         21    1    1    2  503  502 -0.66112362779E+02 -0.18695232255E+02 -0.33433346076E+03  0.34131981953E+03  0.00000000000E+00 0.  1.
         21    1    1    2  504  501  0.14999610854E+02  0.43630806121E+02  0.58764864668E+02  0.74712414551E+02  0.00000000000E+00 0.  1.
         21    1    1    2  505  504 -0.21709158780E+02  0.52334760247E+02 -0.11807410980E+03  0.13096453760E+03  0.00000000000E+00 0. -1.
         -3    1    1    2    0  503  0.72821910705E+02 -0.77270334113E+02  0.18863269243E+04  0.18893128382E+04  0.00000000000E+00 0.  1.
<scales pt_clust_3="14000.00000" pt_clust_4="46.13714" pt_clust_5="56.77620" pt_clust_6="93.00358"></scales>
<clustering>
<clus scale="   46.137">  1  4  2 -1</clus>
<clus scale="   56.776">  2  5  1 -1</clus>
<clus scale="   93.004">  1  6  2 -1</clus>
<clus scale="   56.776">  2  3  1 -1</clus>
</clustering>
</event>
<event>
 6    0  0.2117869E+002  0.5264419E+02  0.7546771E-02  0.1431580E+00
         21   -1    0    0  501  502  0.00000000000E+00  0.00000000000E+00  0.17086136474E+03  0.17086136474E+03  0.00000000000E+00 0.  1.
          2   -1    0    0  505    0 -0.00000000000E+00 -0.00000000000E+00 -0.23136324604E+04  0.23136324604E+04  0.00000000000E+00 0. -1.
         21    1    1    2  503  504  0.79327435895E+02  0.43126204722E+02  0.45000506227E+02  0.10088487092E+03  0.00000000000E+00 0.  1.
         21    1    1    2  504  502 -0.48617483146E+02 -0.16157710276E+01  0.89966311101E+02  0.10227515591E+03  0.00000000000E+00 0.  1.
         21    1    1    2  505  503 -0.90157239693E+01  0.36211750022E+02 -0.36690745732E+03  0.36880029333E+03  0.00000000000E+00 0. -1.
          2    1    1    2  501    0 -0.21694228780E+02 -0.77722183717E+02 -0.19108304557E+04  0.19125335050E+04  0.00000000000E+00 0. -1.
<scales pt_clust_3="14000.00000" pt_clust_4="48.66916" pt_clust_5="37.31721" pt_clust_6="52.64419"></scales>
<clustering>
<clus scale="   37.317">  2  5  1 -1</clus>
<clus scale="   48.669">  1  4  2 -1</clus>
<clus scale="   52.644">  2  6  1 -1</clus>
<clus scale="   48.669">  1  3  2 -1</clus>
</clustering>
</event>
<event>
 6    0  0.2117869E+002  0.1942527E+03  0.7546771E-02  0.1154681E+00
          2   -1    0    0  503    0 -0.00000000000E+00  0.00000000000E+00  0.33316669846E+04  0.33316669846E+04  0.00000000000E+00 0. -1.
         21   -1    0    0  505  502  0.00000000000E+00 -0.00000000000E+00 -0.15171595921E+02  0.15171595921E+02  0.00000000000E+00 0.  1.
         21    1    1    2  503  504 -0.65493254167E+02  0.12009358300E+03  0.70755345955E+03  0.72065507223E+03  0.00000000000E+00 0. -1.
         21    1    1    2  504  502 -0.36388639880E+02  0.28976543664E+02  0.10581641428E+03  0.11558930196E+03  0.00000000000E+00 0.  1.
         21    1    1    2  505  501  0.10180349855E+03 -0.10227070195E+03  0.17038364806E+04  0.17099362566E+04  0.00000000000E+00 0. -1.
          2    1    1    2  501    0  0.78395496572E-01 -0.46799424715E+02  0.79928903419E+03  0.80065794974E+03  0.00000000000E+00 0. -1.
<scales pt_clust_3="41.77620" pt_clust_4="41.77620" pt_clust_5="39.63603" pt_clust_6="193.50950"></scales>
<clustering>
<clus scale="   39.636">  5  6 -1 -1</clus>
<clus scale="   41.776">  3  4 -1 -1</clus>
<clus scale="  193.509">  1  5  2 -1</clus>
<clus scale="  194.253">  2  3  1 -1</clus>
</clustering>
</event>
<event>
 6    0  0.2117869E+002  0.1009634E+03  0.7546771E-02  0.1278283E+00
         -1   -1    0    0    0  501 -0.00000000000E+00  0.00000000000E+00  0.24882592428E+04  0.24882592428E+04  0.00000000000E+00 0.  1.
         21   -1    0    0  505  502  0.00000000000E+00 -0.00000000000E+00 -0.29155984722E+02  0.29155984722E+02  0.00000000000E+00 0. -1.
         21    1    1    2  503  501 -0.49172636088E+01 -0.41946550860E+02  0.55912851919E+03  0.56072131544E+03  0.00000000000E+00 0. -1.
         21    1    1    2  504  502  0.21807606490E+02  0.39439247419E+02  0.44983111282E+02  0.63675004817E+02  0.00000000000E+00 0.  1.
         21    1    1    2  505  503  0.55011349197E+02 -0.98664159138E+02  0.17401290752E+03  0.20746410972E+03  0.00000000000E+00 0. -1.
         -1    1    1    2    0  504 -0.71901692078E+02  0.10117146258E+03  0.16809787201E+04  0.16855547976E+04  0.00000000000E+00 0.  1.
<scales pt_clust_3="42.23379" pt_clust_4="43.96795" pt_clust_5="100.96336" pt_clust_6="14000.00000"></scales>
<clustering>
<clus scale="   42.234">  1  3  2 -1</clus>
<clus scale="   43.968">  2  4  1 -1</clus>
<clus scale="  100.963">  2  5  1 -1</clus>
<clus scale="   43.968">  2  3  1 -1</clus>
</clustering>
</event>
<event>
 6    0  0.2117869E+002  0.8315292E+02  0.7546771E-02  0.1320335E+00
         21   -1    0    0  504  502  0.00000000000E+00  0.00000000000E+00  0.26735850206E+04  0.26735850206E+04  0.00000000000E+00 0.  1.
         -2   -1    0    0    0  501 -0.00000000000E+00 -0.00000000000E+00 -0.54446610051E+02  0.54446610051E+02  0.00000000000E+00 0.  1.
         21    1    1    2  503  501 -0.13396379814E+02 -0.49401413897E+02 -0.20440126499E+01  0.51226366989E+02  0.00000000000E+00 0.  1.
         21    1    1    2  504  503 -0.31082633205E+01 -0.36762317364E+02  0.21886366854E+04  0.21889476170E+04  0.00000000000E+00 0.  1.
         21    1    1    2  505  502  0.25306945878E+02 -0.48604867879E+02  0.27472995163E+03  0.28014178734E+03  0.00000000000E+00 0. -1.
         -2    1    1    2    0  505 -0.88023027436E+01  0.13476859914E+03  0.15781578614E+03  0.20771585929E+03  0.00000000000E+00 0.  1.
<scales pt_clust_3="53.02767" pt_clust_4="36.89349" pt_clust_5="83.15292" pt_clust_6="14000.00000"></scales>
<clustering>
<clus scale="   36.893">  1  4  2 -1</clus>
<clus scale="   53.028">  2  3  1 -1</clus>
<clus scale="   83.153">  1  5  2 -1</clus>
<clus scale="   36.893">  1  3  2 -1</clus>
</clustering>
</event>
<event>
 6    0  0.2117869E+002  0.1124024E+03  0.7546771E-02  0.1256185E+00
         21   -1    0    0  505  502  0.00000000000E+00  0.00000000000E+00  0.31112963899E+03  0.31112963899E+03  0.00000000000E+00 0.  1.
         -4   -1    0    0    0  501 -0.00000000000E+00 -0.00000000000E+00 -0.96302211405E+03  0.96302211405E+03  0.00000000000E+00 0. -1.
         21    1    1    2  503  502  0.40488817153E+02 -0.78030661492E+02 -0.20575558656E+03  0.22374872033E+03  0.00000000000E+00 0.  1.
         21    1    1    2  504  503  0.35611147655E+02 -0.26221472860E+02 -0.22172028023E+03  0.22608759838E+03  0.00000000000E+00 0. -1.
         21    1    1    2  505  501 -0.80576608304E+02  0.10350648472E+02  0.29011073498E+03  0.30127058316E+03  0.00000000000E+00 0.  1.
         -4    1    1    2    0  504  0.44766434958E+01  0.93901485880E+02 -0.51452734325E+03  0.52304485117E+03  0.00000000000E+00 0. -1.
<scales pt_clust_3="38.57110" pt_clust_4="38.57110" pt_clust_5="81.23870" pt_clust_6="98.37129"></scales>
<clustering>
<clus scale="   38.571">  3  4 -1 -1</clus>
<clus scale="   81.239">  1  5  2 -1</clus>
<clus scale="   98.371">  2  6  1 -1</clus>
<clus scale="   81.239">  1  3  2 -1</clus>
</clustering>
</event>
<event>
 6    0  0.2117869E+002  0.8643690E+02  0.7546771E-02  0.1311717E+00
         21   -1    0    0  503  502  0.00000000000E+00  0.00000000000E+00  0.21644055730E+03  0.21644055730E+03  0.00000000000E+00 0.  1.
          2   -1    0    0  505    0 -0.00000000000E+00 -0.00000000000E+00 -0.55511730752E+03  0.55511730752E+03  0.00000000000E+00 0.  1.
         21    1    1    2  503  501  0.41525037989E+02  0.11292333420E+02  0.16215186673E+03  0.16776493513E+03  0.00000000000E+00 0.  1.
         21    1    1    2  504  502 -0.11640179723E+03 -0.24635145747E+02 -0.47678374091E+02  0.12817759617E+03  0.00000000000E+00 0.  1.
         21    1    1    2  505  504 -0.19111204996E+02  0.36612074622E+02 -0.79057489577E+02  0.89195116586E+02  0.00000000000E+00 0. -1.
          2    1    1    2  501    0  0.93987964239E+02 -0.23269262294E+02 -0.37409275329E+03  0.38642021693E+03  0.00000000000E+00 0.  1.
<scales pt_clust_3="42.98111" pt_clust_4="86.43690" pt_clust_5="41.29991" pt_clust_6="14000.00000"></scales>
<clustering>
<clus scale="   41.300">  2  5  1 -1</clus>
<clus scale="   42.981">  1  3  2 -1</clus>
<clus scale="   86.437">  1  4  2 -1</clus>
<clus scale="   42.981">  1  3  2 -1</clus>
</clustering>
</event>
<event>
 6    0  0.2117869E+002  0.7274418E+02  0.7546771E-02  0.1351002E+00
         21   -1    0    0  504  502  0.00000000000E+00  0.00000000000E+00  0.21353578129E+03  0.21353578129E+03  0.00000000000E+00 0. -1.
          1   -1    0    0  505    0 -0.00000000000E+00 -0.00000000000E+00 -0.92937768059E+03  0.92937768059E+03  0.00000000000E+00 0. -1.
         21    1    1    2  503  502 -0.75998751228E+02  0.45540656034E+01 -0.17647546802E+02  0.78153602667E+02  0.00000000000E+00 0. -1.
         21    1    1    2  504  501  0.60307064758E+02  0.43991772638E+02  0.17224960480E+03  0.18772891219E+03  0.00000000000E+00 0. -1.
         21    1    1    2  505  503  0.10259042935E+02  0.28368608298E+02 -0.23829379512E+03  0.24019566751E+03  0.00000000000E+00 0. -1.
          1    1    1    2  501    0  0.54326435361E+01 -0.76914446539E+02 -0.63215016216E+03  0.63683527951E+03  0.00000000000E+00 0. -1.
<scales pt_clust_3="72.74418" pt_clust_4="14000.00000" pt_clust_5="30.16664" pt_clust_6="52.96176"></scales>
<clustering>
<clus scale="   30.167">  2  5  1 -1</clus>
<clus scale="   52.962">  2  6  1 -1</clus>
<clus scale="   72.744">  2  3  1 -1</clus>
<clus scale="   72.744">  1  3  2 -1</clus>
</clustering>
</event>
<event>
 6    0  0.2117869E+002  0.1445999E+03  0.7546771E-02  0.1207270E+00
         21   -1    0    0  505  502  0.00000000000E+00  0.00000000000E+00  0.99812249751E+02  0.99812249751E+02  0.00000000000E+00 0. -1.
          2   -1    0    0  504    0 -0.00000000000E+00 -0.00000000000E+00 -0.12710535235E+04  0.12710535235E+04  0.00000000000E+00 0. -1.
         21    1    1    2  503  502 -0.69954531395E+02 -0.19673207929E+02 -0.63479858501E+02  0.96490227527E+02  0.00000000000E+00 0.  1.
         21    1    1    2  504  503  0.17205854092E+02 -0.27633493608E+02 -0.44193030240E+03  0.44312757030E+03  0.00000000000E+00 0. -1.
         21    1    1    2  505  501  0.19666431484E+03  0.66853242763E+02 -0.71887092125E+02  0.21980437397E+03  0.00000000000E+00 0. -1.
          2    1    1    2  501    0 -0.14391563754E+03 -0.19546541225E+02 -0.59394402071E+03  0.61144360144E+03  0.00000000000E+00 0. -1.
<scales pt_clust_3="71.85484" pt_clust_4="32.55229" pt_clust_5="144.59990" pt_clust_6="14000.00000"></scales>
<clustering>
<clus scale="   32.552">  2  4  1 -1</clus>
<clus scale="   71.855">  1  3  2 -1</clus>
<clus scale="  144.600">  1  5  2 -1</clus>
<clus scale="   71.855">  1  3  2 -1</clus>
</clustering>
</event>
<event>
 6    0  0.2117869E+002  0.9886690E+02  0.7546771E-02  0.1282697E+00
         -1   -1    0    0    0  501 -0.00000000000E+00  0.00000000000E+00  0.17009555186E+02  0.17009555186E+02  0.00000000000E+00 0.  1.
         21   -1    0    0  503  502  0.00000000000E+00 -0.00000000000E+00 -0.27984250730E+04  0.27984250730E+04  0.00000000000E+00 0.  1.
         21    1    1    2  503  504  0.29909110829E+02 -0.92816701200E+02 -0.17807119089E+04  0.17833800485E+04  0.00000000000E+00 0.  1.
         21    1    1    2  504  505 -0.59954407448E+02 -0.22242309321E+02 -0.54221513620E+03  0.54597298946E+03  0.00000000000E+00 0.  1.
         21    1    1    2  505  501  0.41963951875E+02  0.77145173089E+01 -0.62838382562E+02  0.75954916610E+02  0.00000000000E+00 0.  1.
         -1    1    1    2    0  502 -0.11918655256E+02  0.10734449321E+03 -0.39565009023E+03  0.41012667368E+03  0.00000000000E+00 0.  1.
<scales pt_clust_3="14000.00000" pt_clust_4="56.40720" pt_clust_5="42.66717" pt_clust_6="98.86690"></scales>
<clustering>
<clus scale="   42.667">  1  5  2 -1</clus>
<clus scale="   56.407">  1  4  2 -1</clus>
<clus scale="   98.867">  1  6  2 -1</clus>
<clus scale="   98.867">  2  3  1 -1</clus>
</clustering>
</event>
<event>
 6    0  0.2117869E+002  0.1429585E+03  0.7546771E-02  0.1209403E+00
         21   -1    0    0  504  502  0.00000000000E+00  0.00000000000E+00  0.17030928695E+03  0.17030928695E+03  0.00000000000E+00 0. -1.
          2   -1    0    0  502    0 -0.00000000000E+00 -0.00000000000E+00 -0.78782464004E+03  0.78782464004E+03  0.00000000000E+00 0.  1.
         21    1    1    2  503  505  0.38225843044E+02  0.13578897287E+03  0.79090913939E+02  0.16172579540E+03  0.00000000000E+00 0. -1.
         21    1    1    2  504  503  0.35926952605E+02 -0.24395587446E+02  0.31983346293E+02  0.53933524365E+02  0.00000000000E+00 0.  1.
         21    1    1    2  505  501 -0.54802034156E+02 -0.51879035813E+02 -0.30027711754E+03  0.30961434822E+03  0.00000000000E+00 0. -1.
          2    1    1    2  501    0 -0.19350761492E+02 -0.59514349609E+02 -0.42831249579E+03  0.43286025901E+03  0.00000000000E+00 0.  1.
<scales pt_clust_3="133.86020" pt_clust_4="43.42684" pt_clust_5="45.88126" pt_clust_6="45.88126"></scales>
<clustering>
<clus scale="   43.427">  1  4  2 -1</clus>
<clus scale="   45.881">  5  6 -1 -1</clus>
<clus scale="  133.860">  1  3  2 -1</clus>
<clus scale="   43.427">  1  3  2 -1</clus>
</clustering>
</event>
<event>
 6    0  0.2117869E+002  0.1121873E+03  0.7546771E-02  0.1256572E+00
         21   -1    0    0  501  502  0.00000000000E+00  0.00000000000E+00  0.70530598613E+03  0.70530598613E+03  0.00000000000E+00 0. -1.
          2   -1    0    0  504    0 -0.00000000000E+00 -0.00000000000E+00 -0.11053151854E+04  0.11053151854E+04  0.00000000000E+00 0. -1.
         21    1    1    2  503  502  0.80795289342E+02  0.34749828068E+02  0.66141171088E+03  0.66723375261E+03  0.00000000000E+00 0. -1.
         21    1    1    2  504  505  0.35334844731E+02  0.11577066333E+02 -0.28229610249E+03  0.28473438359E+03  0.00000000000E+00 0.  1.
         21    1    1    2  505  503 -0.58282716240E+02 -0.14265417326E+03 -0.13521346865E+03  0.20501163447E+03  0.00000000000E+00 0. -1.
          2    1    1    2  501    0 -0.57847417833E+02  0.96327278863E+02 -0.64391133906E+03  0.65364140090E+03  0.00000000000E+00 0. -1.
<scales pt_clust_3="88.08247" pt_clust_4="37.18306" pt_clust_5="112.18734" pt_clust_6="14000.00000"></scales>
<clustering>
<clus scale="   37.183">  2  4  1 -1</clus>
<clus scale="   88.082">  1  3  2 -1</clus>
<clus scale="  112.187">  1  5  2 -1</clus>
<clus scale="   88.082">  1  3  2 -1</clus>
</clustering>
</event>
<event>
 6    0  0.2117869E+002  0.1944963E+03  0.7546771E-02  0.1154467E+00
          2   -1    0    0  505    0 -0.00000000000E+00  0.00000000000E+00  0.43122088624E+04  0.43122088624E+04  0.00000000000E+00 0.  1.
         21   -1    0    0  504  502  0.00000000000E+00 -0.00000000000E+00 -0.79811388179E+03  0.79811388179E+03  0.00000000000E+00 0. -1.
         21    1    1    2  503  502  0.10110550677E+03 -0.14895112471E+03 -0.25106538179E+03  0.30893783676E+03  0.00000000000E+00 0.  1.
         21    1    1    2  504  501  0.50672943749E+02  0.26556993065E+02 -0.50980855432E+03  0.51300856052E+03  0.00000000000E+00 0. -1.
         21    1    1    2  505  503 -0.15665899415E+02 -0.26643996399E+02  0.51329512163E+02  0.59916957262E+02  0.00000000000E+00 0. -1.
          2    1    1    2  501    0 -0.13611255111E+03  0.14903812804E+03  0.42236394045E+04  0.42284593896E+04  0.00000000000E+00 0.  1.
<scales pt_clust_3="14000.00000" pt_clust_4="57.20046" pt_clust_5="30.90830" pt_clust_6="194.49635"></scales>
<clustering>
<clus scale="   30.908">  1  5  2 -1</clus>
<clus scale="   57.200">  2  4  1 -1</clus>
<clus scale="  194.496">  1  6  2 -1</clus>
<clus scale="   57.200">  2  3  1 -1</clus>
</clustering>
</event>
<event>
 6    0  0.2117869E+002  0.6257129E+02  0.7546771E-02  0.1387347E+00
          1   -1    0    0  505    0 -0.00000000000E+00  0.00000000000E+00  0.17581827463E+04  0.17581827463E+04  0.00000000000E+00 0. -1.
         21   -1    0    0  504  502  0.00000000000E+00 -0.00000000000E+00 -0.43970733316E+02  0.43970733316E+02  0.00000000000E+00 0. -1.
         21    1    1    2  503  502 -0.76435740637E+02  0.28488095116E+02  0.67371727297E+01  0.81849761798E+02  0.00000000000E+00 0. -1.
         21    1    1    2  504  501  0.46212411062E+02 -0.62689075482E+01  0.14366555799E+03  0.15104528689E+03  0.00000000000E+00 0.  1.
         21    1    1    2  505  503 -0.37495699552E+01  0.48827096500E+02  0.44655037116E+03  0.44922753545E+03  0.00000000000E+00 0. -1.
          1    1    1    2  501    0  0.33972899530E+02 -0.71046284067E+02  0.11172589111E+04  0.11200308955E+04  0.00000000000E+00 0. -1.
<scales pt_clust_3="40.30978" pt_clust_4="46.63567" pt_clust_5="14000.00000" pt_clust_6="62.57129"></scales>
<clustering>
<clus scale="   46.636">  2  4  1 -1</clus>
<clus scale="   40.310">  2  3  1 -1</clus>
<clus scale="   62.571">  2  6  1 -1</clus>
<clus scale="   46.636">  2  3  1 -1</clus>
</clustering>
</event>
<event>
 6    0  0.2117869E+002  0.2141584E+03  0.7546771E-02  0.1138315E+00
         21   -1    0    0  504  502  0.00000000000E+00  0.00000000000E+00  0.48626466382E+02  0.48626466382E+02  0.00000000000E+00 0. -1.
          2   -1    0    0  505    0 -0.00000000000E+00 -0.00000000000E+00 -0.91266520500E+03  0.91266520500E+03  0.00000000000E+00 0. -1.
         21    1    1    2  503  501 -0.79414615946E+01 -0.36487479373E+02 -0.22189947043E+03  0.22501950569E+03  0.00000000000E+00 0. -1.
         21    1    1    2  504  503 -0.46362096968E+02 -0.17744739955E+02 -0.14469329236E+03  0.15297211735E+03  0.00000000000E+00 0.  1.
         21    1    1    2  505  502  0.84199514990E+02  0.16412207472E+03 -0.24792306102E+03  0.30901692173E+03  0.00000000000E+00 0. -1.
          2    1    1    2  501    0 -0.29895956427E+02 -0.10988985539E+03 -0.24952291481E+03  0.27428312661E+03  0.00000000000E+00 0. -1.
<scales pt_clust_3="37.13672" pt_clust_4="45.51064" pt_clust_5="184.46033" pt_clust_6="45.51064"></scales>
<clustering>
<clus scale="   37.137">  3  6 -1 -1</clus>
<clus scale="   45.511">  3  4 -1 -1</clus>
<clus scale="  184.460">  1  5  2 -1</clus>
<clus scale="  184.460">  1  3  2 -1</clus>
</clustering>
</event>
<event>
 6    0  0.2117869E+002  0.1368864E+03  0.7546771E-02  0.1217581E+00
         21   -1    0    0  501  502  0.00000000000E+00  0.00000000000E+00  0.56753932440E+02  0.56753932440E+02  0.00000000000E+00 0.  1.
          2   -1    0    0  503    0 -0.00000000000E+00 -0.00000000000E+00 -0.21124623806E+04  0.21124623806E+04  0.00000000000E+00 0.  1.
         21    1    1    2  503  504  0.40514799540E+02 -0.55456321847E+02 -0.12550620966E+04  0.12569398231E+04  0.00000000000E+00 0.  1.
         21    1    1    2  504  505 -0.61125095882E+02  0.19643678665E+03 -0.65539399938E+03  0.68692429198E+03  0.00000000000E+00 0.  1.
         21    1    1    2  505  502  0.45388904882E+02 -0.46412647346E+02 -0.23118063408E+02  0.68911039579E+02  0.00000000000E+00 0.  1.
          2    1    1    2  501    0 -0.24778608540E+02 -0.94567817458E+02 -0.12213428884E+03  0.15644115843E+03  0.00000000000E+00 0.  1.
<scales pt_clust_3="70.46152" pt_clust_4="136.88643" pt_clust_5="64.91754" pt_clust_6="14000.00000"></scales>
<clustering>
<clus scale="   64.918">  1  5  2 -1</clus>
<clus scale="   70.462">  2  3  1 -1</clus>
<clus scale="  136.886">  2  4  1 -1</clus>
<clus scale="   64.918">  1  3  2 -1</clus>
</clustering>
</event>
<event>
 6    0  0.2117869E+002  0.1770751E+03  0.7546771E-02  0.1170664E+00
         21   -1    0    0  503  502  0.00000000000E+00  0.00000000000E+00  0.31908543594E+03  0.31908543594E+03  0.00000000000E+00 0. -1.
          1   -1    0    0  505    0 -0.00000000000E+00 -0.00000000000E+00 -0.29110155148E+04  0.29110155148E+04  0.00000000000E+00 0. -1.
         21    1    1    2  503  501  0.10418374900E+03  0.20883904702E+03  0.23388387060E+03  0.33040833229E+03  0.00000000000E+00 0. -1.
         21    1    1    2  504  502 -0.57323242428E+02 -0.37719033008E+02 -0.35092371490E+01  0.68709492203E+02  0.00000000000E+00 0.  1.
         21    1    1    2  505  504 -0.50193541758E+02 -0.15367465466E+02 -0.12183979394E+04  0.12195282241E+04  0.00000000000E+00 0.  1.
          1    1    1    2  501    0  0.33330351827E+01 -0.15575254855E+03 -0.16039067729E+04  0.16114549022E+04  0.00000000000E+00 0. -1.
<scales pt_clust_3="177.07506" pt_clust_4="69.69562" pt_clust_5="52.49334" pt_clust_6="14000.00000"></scales>
<clustering>
<clus scale="   52.493">  2  5  1 -1</clus>
<clus scale="   69.696">  1  4  2 -1</clus>
<clus scale="  177.075">  1  3  2 -1</clus>
<clus scale="   69.696">  1  3  2 -1</clus>
</clustering>
</event>
<event>
 6    0  0.2117869E+002  0.2484574E+03  0.7546771E-02  0.1114284E+00
          1   -1    0    0  503    0 -0.00000000000E+00  0.00000000000E+00  0.30850518732E+03  0.30850518732E+03  0.00000000000E+00 0. -1.
         21   -1    0    0  501  502  0.00000000000E+00 -0.00000000000E+00 -0.11480840526E+04  0.11480840526E+04  0.00000000000E+00 0. -1.
         21    1    1    2  503  504  0.12877846480E+03  0.12840451992E+03 -0.19721594642E+03  0.26826431602E+03  0.00000000000E+00 0. -1.
         21    1    1    2  504  505  0.27390249319E+02  0.38232151291E+02 -0.66542752780E+03  0.66708748894E+03  0.00000000000E+00 0. -1.
         21    1    1    2  505  502  0.25201975182E+02  0.29908873632E+02 -0.18078262690E+03  0.18496496550E+03  0.00000000000E+00 0. -1.
          1    1    1    2  501    0 -0.18137068930E+03 -0.19654554484E+03  0.20384723585E+03  0.33627246943E+03  0.00000000000E+00 0. -1.
<scales pt_clust_3="14000.00000" pt_clust_4="73.97551" pt_clust_5="39.11113" pt_clust_6="248.45745"></scales>
<clustering>
<clus scale="   39.111">  2  5  1 -1</clus>
<clus scale="   73.976">  2  4  1 -1</clus>
<clus scale="  248.457">  1  6  2 -1</clus>
<clus scale="   39.111">  2  3  1 -1</clus>
</clustering>
</event>
<event>
 6    0  0.2117869E+002  0.7632162E+02  0.7546771E-02  0.1339827E+00
         21   -1    0    0  501  502  0.00000000000E+00  0.00000000000E+00  0.43864446918E+02  0.43864446918E+02  0.00000000000E+00 0.  1.
          3   -1    0    0  504    0 -0.00000000000E+00 -0.00000000000E+00 -0.73098157059E+03  0.73098157059E+03  0.00000000000E+00 0.  1.
         21    1    1    2  503  505 -0.56341340193E+02  0.69142279210E+01 -0.33590630601E+03  0.34066875346E+03  0.00000000000E+00 0.  1.
         21    1    1    2  504  503 -0.10827410029E+01  0.36004484457E+02 -0.13691511609E+03  0.14157416517E+03  0.00000000000E+00 0.  1.
         21    1    1    2  505  502  0.41952087496E+02  0.61124496319E+02 -0.29145539820E+02  0.79659551762E+02  0.00000000000E+00 0.  1.
          3    1    1    2  501    0  0.15471993700E+02 -0.10404320870E+03 -0.18515016175E+03  0.21294354712E+03  0.00000000000E+00 0.  1.
<scales pt_clust_3="63.25022" pt_clust_4="36.02076" pt_clust_5="76.32162" pt_clust_6="14000.00000"></scales>
<clustering>
<clus scale="   36.021">  2  4  1 -1</clus>
<clus scale="   63.250">  2  3  1 -1</clus>
<clus scale="   76.322">  1  5  2 -1</clus>
<clus scale="   76.322">  1  3  2 -1</clus>
</clustering>
</event>
<event>
 6    0  0.2117869E+002  0.1275838E+03  0.7546771E-02  0.1231086E+00
         21   -1    0    0  501  502  0.00000000000E+00  0.00000000000E+00  0.14769519823E+03  0.14769519823E+03  0.00000000000E+00 0. -1.
          2   -1    0    0  505    0 -0.00000000000E+00 -0.00000000000E+00 -0.78349720627E+03  0.78349720627E+03  0.00000000000E+00 0.  1.
         21    1    1    2  503  504 -0.37898496835E+01  0.41015109741E+02 -0.10692325488E+03  0.11458265411E+03  0.00000000000E+00 0. -1.
         21    1    1    2  504  502 -0.12271405951E+03  0.39337416547E+02  0.10204110986E+03  0.16437323639E+03  0.00000000000E+00 0. -1.
         21    1    1    2  505  503  0.33346924996E+02 -0.51390998738E+01 -0.26708270501E+03  0.26920549598E+03  0.00000000000E+00 0. -1.
          2    1    1    2  501    0  0.93156984195E+02 -0.75213426414E+02 -0.36383715801E+03  0.38303101802E+03  0.00000000000E+00 0.  1.
<scales pt_clust_3="40.05327" pt_clust_4="14000.00000" pt_clust_5="33.74060" pt_clust_6="127.58382"></scales>
<clustering>
<clus scale="   33.741">  2  5  1 -1</clus>
<clus scale="   40.053">  2  3  1 -1</clus>
<clus scale="  127.584">  2  6  1 -1</clus>
<clus scale="  127.584">  1  3  2 -1</clus>
</clustering>
</event>
<event>
 6    0  0.2117869E+002  0.8611838E+02  0.7546771E-02  0.1312533E+00
         -1   -1    0    0    0  501 -0.00000000000E+00  0.00000000000E+00  0.90735870448E+03  0.90735870448E+03  0.00000000000E+00 0. -1.
         21   -1    0    0  504  502  0.00000000000E+00 -0.00000000000E+00 -0.92484815702E+02  0.92484815702E+02  0.00000000000E+00 0. -1.
         21    1    1    2  503  502  0.89535425707E+02 -0.24736490851E+02 -0.14632609218E+02  0.94035098175E+02  0.00000000000E+00 0. -1.
         21    1    1    2  504  505 -0.81379249789E+02 -0.33772446747E+02  0.19801789134E+02  0.90306540785E+02  0.00000000000E+00 0. -1.
         21    1    1    2  505  501 -0.38517104921E+02  0.11059140542E+02  0.29070780333E+03  0.29345680922E+03  0.00000000000E+00 0. -1.
         -1    1    1    2    0  503  0.30360929004E+02  0.47449797057E+02  0.51899690553E+03  0.52204507200E+03  0.00000000000E+00 0. -1.
<scales pt_clust_3="86.11838" pt_clust_4="14000.00000" pt_clust_5="40.07333" pt_clust_6="56.84931"></scales>
<clustering>
<clus scale="   40.073">  1  5  2 -1</clus>
<clus scale="   56.849">  1  6  2 -1</clus>
<clus scale="   86.118">  2  3  1 -1</clus>
<clus scale="   86.118">  2  3  1 -1</clus>
</clustering>
</event>
<event>
 6    0  0.2117869E+002  0.3485027E+03  0.7546771E-02  0.1063231E+00
          1   -1    0    0  503    0 -0.00000000000E+00  0.00000000000E+00  0.77838901279E+03  0.77838901279E+03  0.00000000000E+00 0. -1.
         21   -1    0    0  504  502  0.00000000000E+00 -0.00000000000E+00 -0.77299277892E+03  0.77299277892E+03  0.00000000000E+00 0.  1.
         21    1    1    2  503  505 -0.51848218321E+01 -0.30998407675E+02  0.47982285496E+03  0.48085107445E+03  0.00000000000E+00 0. -1.
         21    1    1    2  504  501  0.17211789679E+03 -0.33477900761E+03 -0.37290663149E+03  0.52986876691E+03  0.00000000000E+00 0.  1.
         21    1    1    2  505  502 -0.12390937953E+03  0.66042841474E+01 -0.12759565873E+03  0.17798259194E+03  0.00000000000E+00 0.  1.
          1    1    1    2  501    0 -0.43023695427E+02  0.35917313114E+03  0.26075669121E+02  0.36267935842E+03  0.00000000000E+00 0. -1.
<scales pt_clust_3="31.42903" pt_clust_4="14000.00000" pt_clust_5="124.41145" pt_clust_6="348.50272"></scales>
<clustering>
<clus scale="   31.429">  1  3  2 -1</clus>
<clus scale="  124.411">  2  5  1 -1</clus>
<clus scale="  348.503">  1  6  2 -1</clus>
<clus scale="  124.411">  2  3  1 -1</clus>
</clustering>
</event>
<event>
 6    0  0.2117869E+002  0.1126274E+03  0.7546771E-02  0.1255780E+00
         21   -1    0    0  505  502  0.00000000000E+00  0.00000000000E+00  0.17353886632E+04  0.17353886632E+04  0.00000000000E+00 0.  1.
         -1   -1    0    0    0  501 -0.00000000000E+00 -0.00000000000E+00 -0.14514985329E+03  0.14514985329E+03  0.00000000000E+00 0.  1.
         21    1    1    2  503  501  0.23660436507E+02  0.63297842011E+02  0.10102693013E+03  0.12154371094E+03  0.00000000000E+00 0.  1.
         21    1    1    2  504  502 -0.14464016721E+02  0.38011296255E+02  0.14332243050E+04  0.14338012326E+04  0.00000000000E+00 0.  1.
         21    1    1    2  505  503  0.42584757985E+02  0.12034940128E+02  0.15804437729E+03  0.16412290087E+03  0.00000000000E+00 0.  1.
         -1    1    1    2    0  504 -0.51781177772E+02 -0.11334407839E+03 -0.10205680243E+03  0.16107067207E+03  0.00000000000E+00 0.  1.
<scales pt_clust_3="14000.00000" pt_clust_4="40.67022" pt_clust_5="47.54095" pt_clust_6="112.62741"></scales>
<clustering>
<clus scale="   40.670">  1  4  2 -1</clus>
<clus scale="   47.541">  1  5  2 -1</clus>
<clus scale="  112.627">  2  6  1 -1</clus>
<clus scale="   40.670">  1  3  2 -1</clus>
</clustering>
</event>
<event>
 6    0  0.2117869E+002  0.7276306E+02  0.7546771E-02  0.1350941E+00
         21   -1    0    0  504  502  0.00000000000E+00  0.00000000000E+00  0.15572918469E+04  0.15572918469E+04  0.00000000000E+00 0.  1.
         -3   -1    0    0    0  501 -0.00000000000E+00 -0.00000000000E+00 -0.45602549121E+02  0.45602549121E+02  0.00000000000E+00 0.  1.
         21    1    1    2  503  502  0.41559455277E+02  0.69832864289E+02  0.76847323466E+03  0.77275800199E+03  0.00000000000E+00 0.  1.
         21    1    1    2  504  505 -0.38840250811E+02  0.17819048624E+01  0.64930525001E+03  0.65046832971E+03  0.00000000000E+00 0.  1.
         21    1    1    2  505  501 -0.34139853232E+02  0.17989183095E+02  0.72801580442E+02  0.82396664993E+02  0.00000000000E+00 0.  1.
         -3    1    1    2    0  503  0.31420648766E+02 -0.89603952247E+02  0.21109232701E+02  0.97271399355E+02  0.00000000000E+00 0.  1.
<scales pt_clust_3="72.76306" pt_clust_4="39.37959" pt_clust_5="38.58938" pt_clust_6="14000.00000"></scales>
<clustering>
<clus scale="   38.589">  2  5  1 -1</clus>
<clus scale="   39.380">  1  4  2 -1</clus>
<clus scale="   72.763">  1  3  2 -1</clus>
<clus scale="   39.380">  1  3  2 -1</clus>
</clustering>
</event>
<event>
 6    0  0.2117869E+002  0.9847651E+02  0.7546771E-02  0.1283533E+00
          1   -1    0    0  505    0 -0.00000000000E+00  0.00000000000E+00  0.20181455999E+03  0.20181455999E+03  0.00000000000E+00 0.  1.
         21   -1    0    0  501  502  0.00000000000E+00 -0.00000000000E+00 -0.17628422739E+03  0.17628422739E+03  0.00000000000E+00 0.  1.
         21    1    1    2  503  502  0.32193283180E+02 -0.50439782405E+01 -0.70366556434E+02  0.77545479964E+02  0.00000000000E+00 0.  1.
         21    1    1    2  504  503 -0.30534102967E+02  0.31309145884E+02 -0.32262168847E+02  0.54345575705E+02  0.00000000000E+00 0.  1.
         21    1    1    2  505  504 -0.27198080504E+02  0.77501997298E+02  0.37754711876E+01  0.82222559867E+02  0.00000000000E+00 0.  1.
          1    1    1    2  501    0  0.25538900291E+02 -0.10376716494E+03  0.12438358669E+03  0.16398517185E+03  0.00000000000E+00 0.  1.
<scales pt_clust_3="32.58603" pt_clust_4="33.72117" pt_clust_5="14000.00000" pt_clust_6="98.47651"></scales>
<clustering>
<clus scale="   32.586">  2  3  1 -1</clus>
<clus scale="   33.721">  2  4  1 -1</clus>
<clus scale="   98.477">  1  6  2 -1</clus>
<clus scale="   32.586">  2  3  1 -1</clus>
</clustering>
</event>
<event>
 6    0  0.2117869E+002  0.7687120E+02  0.7546771E-02  0.1338173E+00
         21   -1    0    0  505  502  0.00000000000E+00  0.00000000000E+00  0.24687194108E+03  0.24687194108E+03  0.00000000000E+00 0. -1.
          2   -1    0    0  504    0 -0.00000000000E+00 -0.00000000000E+00 -0.31245739732E+04  0.31245739732E+04  0.00000000000E+00 0. -1.
         21    1    1    2  503  501 -0.50964285214E+02 -0.76345168977E+02 -0.37599093714E+03  0.38703375564E+03  0.00000000000E+00 0. -1.
         21    1    1    2  504  502 -0.27096084785E+02  0.11322187897E+03  0.21880695072E+03  0.24785050609E+03  0.00000000000E+00 0. -1.
         21    1    1    2  505  503  0.11260951745E+02 -0.37754859079E+02 -0.43421145296E+02  0.58631342105E+02  0.00000000000E+00 0. -1.
          2    1    1    2  501    0  0.66799418254E+02  0.87814908566E+00 -0.26770969004E+04  0.26779303104E+04  0.00000000000E+00 0. -1.
<scales pt_clust_3="76.87120" pt_clust_4="14000.00000" pt_clust_5="39.39846" pt_clust_6="66.82397"></scales>
<clustering>
<clus scale="   39.398">  1  5  2 -1</clus>
<clus scale="   66.824">  2  6  1 -1</clus>
<clus scale="   76.871">  2  3  1 -1</clus>
<clus scale="   39.398">  1  3  2 -1</clus>
</clustering>
</event>
<event>
 6    0  0.2117869E+002  0.8666566E+02  0.7546771E-02  0.1311133E+00
         -3   -1    0    0    0  501 -0.00000000000E+00  0.00000000000E+00  0.12192138302E+03  0.12192138302E+03  0.00000000000E+00 0. -1.
         21   -1    0    0  505  502  0.00000000000E+00 -0.00000000000E+00 -0.89186386386E+03  0.89186386386E+03  0.00000000000E+00 0. -1.
         21    1    1    2  503  502 -0.91679296228E+02  0.16663914595E+02 -0.71882664225E+03  0.72484103155E+03  0.00000000000E+00 0. -1.
         21    1    1    2  504  501 -0.47797878882E+02 -0.30030654443E+02 -0.18127964604E+02  0.59288283266E+02  0.00000000000E+00 0. -1.
         21    1    1    2  505  504  0.59909545507E+02 -0.28918585275E+02 -0.98070143910E+02  0.11850397185E+03  0.00000000000E+00 0. -1.
         -3    1    1    2    0  503  0.79567629603E+02  0.42285325123E+02  0.65082269929E+02  0.11115196022E+03  0.00000000000E+00 0. -1.
<scales pt_clust_3="86.66566" pt_clust_4="56.44889" pt_clust_5="14000.00000" pt_clust_6="41.30504"></scales>
<clustering>
<clus scale="   56.449">  1  4  2 -1</clus>
<clus scale="   41.305">  1  6  2 -1</clus>
<clus scale="   86.666">  2  3  1 -1</clus>
<clus scale="   86.666">  2  3  1 -1</clus>
</clustering>
</event>
<event>
 6    0  0.2117869E+002  0.2384181E+03  0.7546771E-02  0.1120851E+00
          2   -1    0    0  503    0 -0.00000000000E+00  0.00000000000E+00  0.74761123522E+03  0.74761123522E+03  0.00000000000E+00 0. -1.
         21   -1    0    0  504  502  0.00000000000E+00 -0.00000000000E+00 -0.20897534279E+04  0.20897534279E+04  0.00000000000E+00 0.  1.
         21    1    1    2  503  505  0.89851932911E+01  0.31440245001E+02  0.11051402277E+03  0.11525004093E+03  0.00000000000E+00 0. -1.
         21    1    1    2  504  501 -0.26484680459E+03  0.28314715095E+01 -0.19760184620E+04  0.19936902491E+04  0.00000000000E+00 0.  1.
         21    1    1    2  505  502  0.27880482777E+02 -0.28646050257E+02 -0.76698231132E+02  0.86490092924E+02  0.00000000000E+00 0. -1.
          2    1    1    2  501    0  0.22798112853E+03 -0.56256662539E+01  0.60006047773E+03  0.64193428014E+03  0.00000000000E+00 0. -1.
<scales pt_clust_3="32.69897" pt_clust_4="238.41809" pt_clust_5="39.84911" pt_clust_6="14000.00000"></scales>
<clustering>
<clus scale="   32.699">  1  3  2 -1</clus>
<clus scale="   39.849">  2  5  1 -1</clus>
<clus scale="  238.418">  2  4  1 -1</clus>
<clus scale="   39.849">  2  3  1 -1</clus>
</clustering>
</event>
<event>
 6    0  0.2117869E+002  0.1041512E+03  0.7546771E-02  0.1271801E+00
         21   -1    0    0  504  502  0.00000000000E+00  0.00000000000E+00  0.50298649549E+02  0.50298649549E+02  0.00000000000E+00 0.  1.
          1   -1    0    0  505    0 -0.00000000000E+00 -0.00000000000E+00 -0.11039414918E+04  0.11039414918E+04  0.00000000000E+00 0.  1.
         21    1    1    2  503  502 -0.55454717273E+02 -0.18499121049E+02 -0.10755739425E+03  0.12241746691E+03  0.00000000000E+00 0.  1.
         21    1    1    2  504  501 -0.42130112835E+02  0.62378289315E+02 -0.16283127652E+02  0.77013879473E+02  0.00000000000E+00 0.  1.
         21    1    1    2  505  503 -0.50533371067E+02 -0.32436286311E+02 -0.40341315039E+03  0.40785770088E+03  0.00000000000E+00 0.  1.
          1    1    1    2  501    0  0.14811820117E+03 -0.11442881956E+02 -0.52638916996E+03  0.54695109408E+03  0.00000000000E+00 0.  1.
<scales pt_clust_3="58.45890" pt_clust_4="104.15116" pt_clust_5="62.98944" pt_clust_6="14000.00000"></scales>
<clustering>
<clus scale="   58.459">  1  3  2 -1</clus>
<clus scale="   62.989">  2  5  1 -1</clus>
<clus scale="  104.151">  1  4  2 -1</clus>
<clus scale="   58.459">  1  3  2 -1</clus>
</clustering>
</event>
<event>
 6    0  0.2117869E+002  0.6797460E+02  0.7546771E-02  0.1367119E+00
         21   -1    0    0  501  502  0.00000000000E+00  0.00000000000E+00  0.35757837200E+04  0.35757837200E+04  0.00000000000E+00 0. -1.
          4   -1    0    0  503    0 -0.00000000000E+00 -0.00000000000E+00 -0.11392406587E+03  0.11392406587E+03  0.00000000000E+00 0. -1.
         21    1    1    2  503  504 -0.32765746570E+02  0.12612829504E+02 -0.61877341973E+01  0.35650605477E+02  0.00000000000E+00 0. -1.
         21    1    1    2  504  505 -0.34621847452E+02 -0.95442245334E+01  0.51967875509E+02  0.63169807882E+02  0.00000000000E+00 0.  1.
         21    1    1    2  505  502 -0.32612581627E+02  0.59487864371E+02  0.34632032926E+04  0.34638676984E+04  0.00000000000E+00 0. -1.
          4    1    1    2  501    0  0.10000017565E+03 -0.62556469341E+02 -0.47123779749E+02  0.12701967408E+03  0.00000000000E+00 0. -1.
<scales pt_clust_3="35.10951" pt_clust_4="37.63469" pt_clust_5="14000.00000" pt_clust_6="67.97460"></scales>
<clustering>
<clus scale="   35.110">  2  3  1 -1</clus>
<clus scale="   37.635">  2  4  1 -1</clus>
<clus scale="   67.975">  2  6  1 -1</clus>
<clus scale="   67.975">  1  3  2 -1</clus>
</clustering>
</event>
<event>
 6    0  0.2117869E+002  0.2874951E+03  0.7546771E-02  0.1091664E+00
          2   -1    0    0  504    0 -0.00000000000E+00  0.00000000000E+00  0.19336577624E+04  0.19336577624E+04  0.00000000000E+00 0.  1.
         21   -1    0    0  503  502  0.00000000000E+00 -0.00000000000E+00 -0.20052418802E+03  0.20052418802E+03  0.00000000000E+00 0.  1.
         21    1    1    2  503  501 -0.27248706521E+03 -0.91919321789E+02 -0.17138341833E+02  0.28808346913E+03  0.00000000000E+00 0.  1.
         21    1    1    2  504  505  0.25675895493E+02 -0.43222405769E+02  0.72802413540E+03  0.72975788430E+03  0.00000000000E+00 0. -1.
         21    1    1    2  505  502  0.39036244531E+02 -0.77588132868E+02  0.51289348940E+02  0.10086795360E+03  0.00000000000E+00 0. -1.
          2    1    1    2  501    0  0.20777492519E+03  0.21272986043E+03  0.97095843186E+03  0.10154726434E+04  0.00000000000E+00 0.  1.
<scales pt_clust_3="287.49508" pt_clust_4="50.27353" pt_clust_5="90.02194" pt_clust_6="14000.00000"></scales>
<clustering>
<clus scale="   50.274">  1  4  2 -1</clus>
<clus scale="   90.022">  2  5  1 -1</clus>
<clus scale="  287.495">  2  3  1 -1</clus>
<clus scale="   90.022">  2  3  1 -1</clus>
</clustering>
</event>
<event>
 6    0  0.2117869E+002  0.7957075E+02  0.7546771E-02  0.1330274E+00
         21   -1    0    0  504  502  0.00000000000E+00  0.00000000000E+00  0.80879630378E+03  0.80879630378E+03  0.00000000000E+00 0.  1.
         -1   -1    0    0    0  501 -0.00000000000E+00 -0.00000000000E+00 -0.22458651178E+03  0.22458651178E+03  0.00000000000E+00 0.  1.
         21    1    1    2  503  502 -0.60177230648E+02 -0.48815285271E+02  0.69462215723E+03  0.69893073511E+03  0.00000000000E+00 0.  1.
         21    1    1    2  504  505  0.36937048658E+02 -0.26904576693E+02  0.61007831409E+02  0.76224387855E+02  0.00000000000E+00 0.  1.
         21    1    1    2  505  501 -0.52366459382E+02 -0.58802271152E+01  0.13833118753E+01  0.52713723933E+02  0.00000000000E+00 0.  1.
         -1    1    1    2    0  503  0.75606641371E+02  0.81600089079E+02 -0.17280350852E+03  0.20551396866E+03  0.00000000000E+00 0.  1.
<scales pt_clust_3="79.57075" pt_clust_4="45.69685" pt_clust_5="51.47627" pt_clust_6="14000.00000"></scales>
<clustering>
<clus scale="   45.697">  1  4  2 -1</clus>
<clus scale="   51.476">  2  5  1 -1</clus>
<clus scale="   79.571">  1  3  2 -1</clus>
<clus scale="   45.697">  1  3  2 -1</clus>
</clustering>
</event>
<event>
 6    0  0.2117869E+002  0.8710928E+02  0.7546771E-02  0.1310007E+00
          1   -1    0    0  503    0 -0.00000000000E+00  0.00000000000E+00  0.29325480891E+04  0.29325480891E+04  0.00000000000E+00 0. -1.
         21   -1    0    0  501  502  0.00000000000E+00 -0.00000000000E+00 -0.13373096488E+02  0.13373096488E+02  0.00000000000E+00 0. -1.
         21    1    1    2  503  504  0.98041308817E+01 -0.42050086483E+02  0.58531667472E+03  0.58690709696E+03  0.00000000000E+00 0.  1.
         21    1    1    2  504  505 -0.73111167039E+02 -0.23828939808E+02  0.28305291778E+03  0.29331214666E+03  0.00000000000E+00 0. -1.
         21    1    1    2  505  502 -0.20855447494E+02  0.42286333189E+02  0.79287721998E+02  0.92247636958E+02  0.00000000000E+00 0. -1.
          1    1    1    2  501    0  0.84162483652E+02  0.23592693101E+02  0.19715176781E+04  0.19734543050E+04  0.00000000000E+00 0. -1.
<scales pt_clust_3="43.17790" pt_clust_4="87.10928" pt_clust_5="45.61399" pt_clust_6="14000.00000"></scales>
<clustering>
<clus scale="   43.178">  1  3  2 -1</clus>
<clus scale="   45.614">  2  5  1 -1</clus>
<clus scale="   87.109">  2  4  1 -1</clus>
<clus scale="   45.614">  2  3  1 -1</clus>
</clustering>
</event>
<event>
 6    0  0.2117869E+002  0.2096538E+03  0.7546771E-02  0.1141840E+00
         21   -1    0    0  505  502  0.00000000000E+00  0.00000000000E+00  0.16253237965E+03  0.16253237965E+03  0.00000000000E+00 0.  1.
          2   -1    0    0  503    0 -0.00000000000E+00 -0.00000000000E+00 -0.17395398435E+04  0.17395398435E+04  0.00000000000E+00 0. -1.
         21    1    1    2  503  502  0.54515989977E+02 -0.46581072935E+02 -0.90397221871E+02  0.11538391240E+03  0.00000000000E+00 0.  1.
         21    1    1    2  504  501  0.11329718145E+03 -0.14624384691E+03 -0.15401754159E+02  0.18563600975E+03  0.00000000000E+00 0.  1.
         21    1    1    2  505  504 -0.24600781550E+02  0.36737571220E+02  0.49090629116E+02  0.66066159712E+02  0.00000000000E+00 0.  1.
          2    1    1    2  501    0 -0.14321238988E+03  0.15608734863E+03 -0.15202991169E+04  0.15349861413E+04  0.00000000000E+00 0. -1.
<scales pt_clust_3="66.65428" pt_clust_4="14000.00000" pt_clust_5="44.21366" pt_clust_6="209.65379"></scales>
<clustering>
<clus scale="   44.214">  1  5  2 -1</clus>
<clus scale="   66.654">  1  3  2 -1</clus>
<clus scale="  209.654">  2  6  1 -1</clus>
<clus scale="   44.214">  1  3  2 -1</clus>
</clustering>
</event>
<event>
 6    0  0.2117869E+002  0.2588711E+03  0.7546771E-02  0.1107823E+00
          2   -1    0    0  505    0 -0.00000000000E+00  0.00000000000E+00  0.49603942103E+03  0.49603942103E+03  0.00000000000E+00 0.  1.
         21   -1    0    0  501  502  0.00000000000E+00 -0.00000000000E+00 -0.14184137868E+04  0.14184137868E+04  0.00000000000E+00 0.  1.
         21    1    1    2  503  504  0.19071246219E+03  0.71319381462E+02 -0.10536172113E+04  0.10731108635E+04  0.00000000000E+00 0.  1.
         21    1    1    2  504  502  0.42857652639E+02 -0.32623551634E+02 -0.29369411248E+03  0.29859220722E+03  0.00000000000E+00 0.  1.
         21    1    1    2  505  503  0.43376666038E+02  0.11701737516E+02  0.11806929211E+03  0.12632823737E+03  0.00000000000E+00 0. -1.
          2    1    1    2  501    0 -0.27694678086E+03 -0.50397567344E+02  0.30686766588E+03  0.41642189975E+03  0.00000000000E+00 0.  1.
<scales pt_clust_3="52.05838" pt_clust_4="52.05838" pt_clust_5="44.92734" pt_clust_6="238.21230"></scales>
<clustering>
<clus scale="   44.927">  1  5  2 -1</clus>
<clus scale="   52.058">  3  4 -1 -1</clus>
<clus scale="  238.212">  1  6  2 -1</clus>
<clus scale="  258.871">  2  3  1 -1</clus>
</clustering>
</event>
<event>
 6    0  0.2117869E+002  0.2115593E+03  0.7546771E-02  0.1140337E+00
         21   -1    0    0  504  502  0.00000000000E+00  0.00000000000E+00  0.12276881648E+04  0.12276881648E+04  0.00000000000E+00 0.  1.
          2   -1    0    0  505    0 -0.00000000000E+00 -0.00000000000E+00 -0.16333602358E+04  0.16333602358E+04  0.00000000000E+00 0. -1.
         21    1    1    2  503  502  0.21837983585E+03  0.95106749435E+02  0.78890988345E+03  0.82408364303E+03  0.00000000000E+00 0.  1.
         21    1    1    2  504  501 -0.18226728751E+03 -0.27303498983E+02  0.39354875917E+03  0.43456584196E+03  0.00000000000E+00 0.  1.
         21    1    1    2  505  503 -0.68743113647E+02 -0.16846466620E+02 -0.18674644411E+03  0.19970892193E+03  0.00000000000E+00 0.  1.
          2    1    1    2  501    0  0.32630565309E+02 -0.50956783831E+02 -0.14013842695E+04  0.14026899937E+04  0.00000000000E+00 0. -1.
<scales pt_clust_3="14000.00000" pt_clust_4="211.55935" pt_clust_5="72.46263" pt_clust_6="60.50907"></scales>
<clustering>
<clus scale="   60.509">  2  6  1 -1</clus>
<clus scale="   72.463">  2  5  1 -1</clus>
<clus scale="  211.559">  2  4  1 -1</clus>
<clus scale="  211.559">  1  3  2 -1</clus>
</clustering>
</event>
<event>
 6    0  0.2117869E+002  0.8103043E+02  0.7546771E-02  0.1326152E+00
         21   -1    0    0  504  502  0.00000000000E+00  0.00000000000E+00  0.57875925615E+03  0.57875925615E+03  0.00000000000E+00 0. -1.
          2   -1    0    0  503    0 -0.00000000000E+00 -0.00000000000E+00 -0.29110974065E+03  0.29110974065E+03  0.00000000000E+00 0. -1.
         21    1    1    2  503  505 -0.37063031382E+02  0.61933914385E+01 -0.18440551566E+02  0.41857858698E+02  0.00000000000E+00 0.  1.
         21    1    1    2  504  501  0.20951343659E+02  0.45990703019E+02  0.12369066776E+03  0.13361693327E+03  0.00000000000E+00 0. -1.
         21    1    1    2  505  502 -0.53159356015E+01 -0.12439820545E+03  0.42369661247E+03  0.44161294377E+03  0.00000000000E+00 0. -1.
          2    1    1    2  501    0  0.21427623324E+02  0.72214110987E+02 -0.24129721316E+03  0.25278126106E+03  0.00000000000E+00 0. -1.
<scales pt_clust_3="37.57694" pt_clust_4="50.35784" pt_clust_5="81.03043" pt_clust_6="14000.00000"></scales>
<clustering>
<clus scale="   37.577">  2  3  1 -1</clus>
<clus scale="   50.358">  1  4  2 -1</clus>
<clus scale="   81.030">  1  5  2 -1</clus>
<clus scale="   50.358">  1  3  2 -1</clus>
</clustering>
</event>
<event>
 6    0  0.2117869E+002  0.8916552E+02  0.7546771E-02  0.1304885E+00
          2   -1    0    0  504    0 -0.00000000000E+00  0.00000000000E+00  0.18219037321E+04  0.18219037321E+04  0.00000000000E+00 0. -1.
         21   -1    0    0  505  502  0.00000000000E+00 -0.00000000000E+00 -0.75232232014E+02  0.75232232014E+02  0.00000000000E+00 0.  1.
         21    1    1    2  503  502  0.38055175429E+02 -0.71095365528E+02 -0.10066452988E+02  0.81265496075E+02  0.00000000000E+00 0.  1.
         21    1    1    2  504  503  0.32639150167E+02 -0.50256883378E+02  0.36693852557E+03  0.37179961000E+03  0.00000000000E+00 0. -1.
         21    1    1    2  505  501  0.11202916178E+02  0.14315352282E+03  0.17522890165E+03  0.22654713505E+03  0.00000000000E+00 0.  1.
          2    1    1    2  501    0 -0.81897241774E+02 -0.21801273915E+02  0.12145705259E+04  0.12175237230E+04  0.00000000000E+00 0. -1.
<scales pt_clust_3="82.10315" pt_clust_4="59.92552" pt_clust_5="14000.00000" pt_clust_6="89.16552"></scales>
<clustering>
<clus scale="   59.926">  1  4  2 -1</clus>
<clus scale="   82.103">  2  3  1 -1</clus>
<clus scale="   89.166">  1  6  2 -1</clus>
<clus scale="   82.103">  2  3  1 -1</clus>
</clustering>
</event>
<event>
 6    0  0.2117869E+002  0.1548856E+03  0.7546771E-02  0.1194595E+00
          2   -1    0    0  505    0 -0.00000000000E+00  0.00000000000E+00  0.12723049558E+03  0.12723049558E+03  0.00000000000E+00 0. -1.
         21   -1    0    0  504  502  0.00000000000E+00 -0.00000000000E+00 -0.92485778307E+03  0.92485778307E+03  0.00000000000E+00 0. -1.
         21    1    1    2  503  501 -0.19667686550E+03 -0.93060975571E+02 -0.29092840140E+03  0.36329253961E+03  0.00000000000E+00 0. -1.
         21    1    1    2  504  503  0.16418245021E+02  0.96526713949E+02 -0.34102000297E+03  0.35479798154E+03  0.00000000000E+00 0.  1.
         21    1    1    2  505  502  0.78563343478E+02 -0.10108008681E+03 -0.14177551481E+03  0.19102271982E+03  0.00000000000E+00 0. -1.
          2    1    1    2  501    0  0.10169527700E+03  0.97614348435E+02 -0.23903368307E+02  0.14297503768E+03  0.00000000000E+00 0. -1.
<scales pt_clust_3="154.88556" pt_clust_4="97.91305" pt_clust_5="110.91815" pt_clust_6="14000.00000"></scales>
<clustering>
<clus scale="   97.913">  2  4  1 -1</clus>
<clus scale="  110.918">  2  5  1 -1</clus>
<clus scale="  154.886">  2  3  1 -1</clus>
<clus scale="   97.913">  2  3  1 -1</clus>
</clustering>
</event>
<event>
 6    0  0.2117869E+002  0.1763099E+03  0.7546771E-02  0.1171423E+00
         21   -1    0    0  505  502  0.00000000000E+00  0.00000000000E+00  0.24784277937E+03  0.24784277937E+03  0.00000000000E+00 0. -1.
          1   -1    0    0  504    0 -0.00000000000E+00 -0.00000000000E+00 -0.48358583403E+04  0.48358583403E+04  0.00000000000E+00 0.  1.
         21    1    1    2  503  501  0.15832139895E+03 -0.29486984909E+02 -0.31098273535E+02  0.16401905457E+03  0.00000000000E+00 0. -1.
         21    1    1    2  504  502 -0.12520976731E+02 -0.44082997872E+02 -0.16114804287E+03  0.16753739070E+03  0.00000000000E+00 0. -1.
         21    1    1    2  505  503  0.16154772137E+02  0.68844290451E+02  0.16967780433E+03  0.18382347585E+03  0.00000000000E+00 0. -1.
          1    1    1    2  501    0 -0.16195519436E+03  0.47256923303E+01 -0.45654470489E+04  0.45683211986E+04  0.00000000000E+00 0.  1.
<scales pt_clust_3="14000.00000" pt_clust_4="45.82669" pt_clust_5="70.64500" pt_clust_6="176.30987"></scales>
<clustering>
<clus scale="   45.827">  2  4  1 -1</clus>
<clus scale="   70.645">  1  5  2 -1</clus>
<clus scale="  176.310">  2  6  1 -1</clus>
<clus scale="   70.645">  1  3  2 -1</clus>
</clustering>
</event>
<event>
 6    0  0.1033156E+003  0.7017253E+02  0.7546771E-02  0.1359507E+00
         21   -1    0    0  504  502  0.00000000000E+00  0.00000000000E+00  0.11848950005E+04  0.11848950005E+04  0.00000000000E+00 0.  1.
          2   -1    0    0  505    0 -0.00000000000E+00 -0.00000000000E+00 -0.10313061843E+04  0.10313061843E+04  0.00000000000E+00 0.  1.
         21    1    1    2  503  502  0.84970931504E+02 -0.32172506168E+02  0.63951863978E+02  0.11110792168E+03  0.00000000000E+00 0.  1.
         21    1    1    2  504  501 -0.40441728405E+02  0.56991590103E+02  0.10833964430E+04  0.10856479298E+04  0.00000000000E+00 0.  1.
         21    1    1    2  505  503 -0.38676615037E+02  0.21849511990E+02 -0.27932679440E+02  0.52473958356E+02  0.00000000000E+00 0.  1.
          2    1    1    2  501    0 -0.58525880626E+01 -0.46668595925E+02 -0.96582681130E+03  0.96697137499E+03  0.00000000000E+00 0.  1.
<scales pt_clust_3="14000.00000" pt_clust_4="70.17253" pt_clust_5="44.42164" pt_clust_6="50.41072"></scales>
<clustering>
<clus scale="   44.422">  2  5  1 -1</clus>
<clus scale="   50.411">  2  6  1 -1</clus>
<clus scale="   70.173">  1  4  2 -1</clus>
<clus scale="   70.173">  1  3  2 -1</clus>
</clustering>
</event>
<event>
 6    0  0.2117869E+002  0.2281955E+03  0.7546771E-02  0.1127916E+00
          1   -1    0    0  504    0 -0.00000000000E+00  0.00000000000E+00  0.22677476592E+04  0.22677476592E+04  0.00000000000E+00 0.  1.
         21   -1    0    0  505  502  0.00000000000E+00 -0.00000000000E+00 -0.32314750529E+03  0.32314750529E+03  0.00000000000E+00 0. -1.
         21    1    1    2  503  502 -0.41552066595E+02  0.48025430667E+02 -0.12319888184E+03  0.13860368219E+03  0.00000000000E+00 0. -1.
         21    1    1    2  504  503  0.17886501781E+00  0.99071807620E+02  0.49130487455E+03  0.50119430844E+03  0.00000000000E+00 0.  1.
         21    1    1    2  505  501  0.22571527201E+03 -0.18204239079E+03 -0.66434154723E+02  0.29749002164E+03  0.00000000000E+00 0. -1.
          1    1    1    2  501    0 -0.18434207043E+03  0.34945152498E+02  0.16429283160E+04  0.16536071523E+04  0.00000000000E+00 0.  1.
<scales pt_clust_3="63.50603" pt_clust_4="100.31100" pt_clust_5="14000.00000" pt_clust_6="228.19545"></scales>
<clustering>
<clus scale="   63.506">  2  3  1 -1</clus>
<clus scale="  100.311">  1  4  2 -1</clus>
<clus scale="  228.195">  1  6  2 -1</clus>
<clus scale="   63.506">  2  3  1 -1</clus>
</clustering>
</event>
<event>
 6    0  0.2117869E+002  0.1039969E+03  0.7546771E-02  0.1272109E+00
          2   -1    0    0  503    0 -0.00000000000E+00  0.00000000000E+00  0.11503241019E+04  0.11503241019E+04  0.00000000000E+00 0.  1.
         21   -1    0    0  505  502  0.00000000000E+00 -0.00000000000E+00 -0.22925986276E+02  0.22925986276E+02  0.00000000000E+00 0. -1.
         21    1    1    2  503  504  0.10053402889E+02  0.42751897388E+02  0.20198906939E+03  0.20670844151E+03  0.00000000000E+00 0. -1.
         21    1    1    2  504  502  0.65977981329E+02  0.52476730646E+02  0.10172625663E+03  0.13211787376E+03  0.00000000000E+00 0. -1.
         21    1    1    2  505  501 -0.66076161848E+02 -0.45667819920E+02  0.42235194181E+03  0.42992182044E+03  0.00000000000E+00 0.  1.
          2    1    1    2  501    0 -0.99552223698E+01 -0.49560808114E+02  0.40133084784E+03  0.40450195250E+03  0.00000000000E+00 0.  1.
<scales pt_clust_3="43.91806" pt_clust_4="88.62799" pt_clust_5="43.16427" pt_clust_6="43.16427"></scales>
<clustering>
<clus scale="   43.164">  5  6 -1 -1</clus>
<clus scale="   43.918">  1  3  2 -1</clus>
<clus scale="   88.628">  2  4  1 -1</clus>
<clus scale="   88.628">  2  3  1 -1</clus>
</clustering>
</event>
<event>
 6    0  0.2117869E+002  0.8143129E+02  0.7546771E-02  0.1325038E+00
          2   -1    0    0  503    0 -0.00000000000E+00  0.00000000000E+00  0.10690911750E+04  0.10690911750E+04  0.00000000000E+00 0.  1.
         21   -1    0    0  505  502  0.00000000000E+00 -0.00000000000E+00 -0.10149322250E+03  0.10149322250E+03  0.00000000000E+00 0.  1.
         21    1    1    2  503  504 -0.53566764416E+02  0.36681697928E+02  0.25844283165E+03  0.26647259230E+03  0.00000000000E+00 0. -1.
         21    1    1    2  504  502 -0.47967386927E+02 -0.42310294936E+01 -0.28646270277E+02  0.56030175976E+02  0.00000000000E+00 0.  1.
         21    1    1    2  505  501 -0.46628520959E+01 -0.63064900351E+02 -0.31662534093E+02  0.70720859095E+02  0.00000000000E+00 0.  1.
          2    1    1    2  501    0  0.10619700344E+03  0.30614231916E+02  0.76946392525E+03  0.77736077017E+03  0.00000000000E+00 0.  1.
<scales pt_clust_3="67.47844" pt_clust_4="48.15363" pt_clust_5="14000.00000" pt_clust_6="81.43129"></scales>
<clustering>
<clus scale="   48.154">  2  4  1 -1</clus>
<clus scale="   67.478">  1  3  2 -1</clus>
<clus scale="   81.431">  1  6  2 -1</clus>
<clus scale="   48.154">  2  3  1 -1</clus>
</clustering>
</event>
<event>
 6    0  0.2117869E+002  0.1245418E+03  0.7546771E-02  0.1235787E+00
          2   -1    0    0  504    0 -0.00000000000E+00  0.00000000000E+00  0.12688730344E+04  0.12688730344E+04  0.00000000000E+00 0.  1.
         21   -1    0    0  503  502  0.00000000000E+00 -0.00000000000E+00 -0.50381341963E+03  0.50381341963E+03  0.00000000000E+00 0. -1.
         21    1    1    2  503  501 -0.43789337235E+02 -0.63887709020E+02 -0.41078730380E+03  0.41802554274E+03  0.00000000000E+00 0. -1.
         21    1    1    2  504  505  0.57794146467E+02  0.42406114614E+01  0.12234188013E+03  0.13537238192E+03  0.00000000000E+00 0. -1.
         21    1    1    2  505  502 -0.67287527879E+02  0.27866694587E+01 -0.67633878303E+02  0.95444844958E+02  0.00000000000E+00 0. -1.
          2    1    1    2  501    0  0.53282718648E+02  0.56860428100E+02  0.11211389167E+04  0.11238436844E+04  0.00000000000E+00 0.  1.
<scales pt_clust_3="124.54183" pt_clust_4="57.94951" pt_clust_5="66.64305" pt_clust_6="14000.00000"></scales>
<clustering>
<clus scale="   57.950">  1  4  2 -1</clus>
<clus scale="   66.643">  2  5  1 -1</clus>
<clus scale="  124.542">  2  3  1 -1</clus>
<clus scale="   66.643">  2  3  1 -1</clus>
</clustering>
</event>
<event>
 6    0  0.2117869E+002  0.1105851E+03  0.7546771E-02  0.1259490E+00
         21   -1    0    0  505  502  0.00000000000E+00  0.00000000000E+00  0.45346418111E+02  0.45346418111E+02  0.00000000000E+00 0.  1.
          3   -1    0    0  503    0 -0.00000000000E+00 -0.00000000000E+00 -0.15295560094E+04  0.15295560094E+04  0.00000000000E+00 0.  1.
         21    1    1    2  503  504 -0.11962927076E+01  0.32951914574E+02 -0.13755119238E+03  0.14144818951E+03  0.00000000000E+00 0.  1.
         21    1    1    2  504  502  0.58583315106E+02  0.12704339352E+02 -0.93965204249E+02  0.11145790531E+03  0.00000000000E+00 0.  1.
         21    1    1    2  505  501  0.44507210781E+02  0.41613669970E+02  0.12036370540E+01  0.60942908382E+02  0.00000000000E+00 0.  1.
          3    1    1    2  501    0 -0.10189423318E+03 -0.87269923896E+02 -0.12538968317E+04  0.12610534243E+04  0.00000000000E+00 0.  1.
<scales pt_clust_3="32.97362" pt_clust_4="60.42226" pt_clust_5="110.58509" pt_clust_6="14000.00000"></scales>
<clustering>
<clus scale="   32.974">  2  3  1 -1</clus>
<clus scale="   60.422">  1  4  2 -1</clus>
<clus scale="  110.585">  1  5  2 -1</clus>
<clus scale="   60.422">  1  3  2 -1</clus>
</clustering>
</event>
<event>
 6    0  0.2117869E+002  0.6703818E+02  0.7546771E-02  0.1370465E+00
          2   -1    0    0  502    0 -0.00000000000E+00  0.00000000000E+00  0.20750879713E+04  0.20750879713E+04  0.00000000000E+00 0.  1.
         21   -1    0    0  503  502  0.00000000000E+00 -0.00000000000E+00 -0.38710629842E+02  0.38710629842E+02  0.00000000000E+00 0. -1.
         21    1    1    2  503  505  0.56029832401E+02  0.37545819329E+02  0.12472794248E+02  0.68590095964E+02  0.00000000000E+00 0. -1.
         21    1    1    2  504  501 -0.12119505195E+02 -0.68630263996E+02  0.49986371354E+03  0.50469865035E+03  0.00000000000E+00 0. -1.
         21    1    1    2  505  504 -0.73730295474E+02 -0.35681004754E+01  0.16568241632E+03  0.18138233345E+03  0.00000000000E+00 0. -1.
          2    1    1    2  501    0  0.29819968269E+02  0.34652545142E+02  0.13583584174E+04  0.13591275214E+04  0.00000000000E+00 0.  1.
<scales pt_clust_3="67.03818" pt_clust_4="45.19576" pt_clust_5="14000.00000" pt_clust_6="45.71684"></scales>
<clustering>
<clus scale="   45.717">  1  6  2 -1</clus>
<clus scale="   45.196">  1  4  2 -1</clus>
<clus scale="   67.038">  2  3  1 -1</clus>
<clus scale="   67.038">  2  3  1 -1</clus>
</clustering>
</event>
<event>
 6    0  0.2117869E+002  0.2368402E+03  0.7546771E-02  0.1121916E+00
          2   -1    0    0  503    0 -0.00000000000E+00  0.00000000000E+00  0.17702485975E+04  0.17702485975E+04  0.00000000000E+00 0.  1.
         21   -1    0    0  504  502  0.00000000000E+00 -0.00000000000E+00 -0.28234679445E+03  0.28234679445E+03  0.00000000000E+00 0.  1.
         21    1    1    2  503  505 -0.12049733217E+02 -0.53874594311E+02  0.75908244203E+02  0.93860159390E+02  0.00000000000E+00 0.  1.
         21    1    1    2  504  501 -0.10304850274E+03 -0.13828803455E+03 -0.12818203702E+02  0.17293605976E+03  0.00000000000E+00 0.  1.
         21    1    1    2  505  502  0.11263088887E+02 -0.28165516859E+02 -0.16990356583E+03  0.17259019437E+03  0.00000000000E+00 0.  1.
          2    1    1    2  501    0  0.10383514707E+03  0.22032814572E+03  0.15947153283E+04  0.16132089784E+04  0.00000000000E+00 0.  1.
<scales pt_clust_3="57.24450" pt_clust_4="14000.00000" pt_clust_5="30.33403" pt_clust_6="236.84020"></scales>
<clustering>
<clus scale="   30.334">  2  5  1 -1</clus>
<clus scale="   57.244">  2  3  1 -1</clus>
<clus scale="  236.840">  1  6  2 -1</clus>
<clus scale="   30.334">  2  3  1 -1</clus>
</clustering>
</event>
<event>
 6    0  0.2117869E+002  0.3267406E+03  0.7546771E-02  0.1072588E+00
         21   -1    0    0  505  502  0.00000000000E+00  0.00000000000E+00  0.11850074211E+03  0.11850074211E+03  0.00000000000E+00 0.  1.
          1   -1    0    0  503    0 -0.00000000000E+00 -0.00000000000E+00 -0.12444760732E+04  0.12444760732E+04  0.00000000000E+00 0.  1.
         21    1    1    2  503  502 -0.32078471042E+02 -0.60411846374E+01 -0.34577651416E+03  0.34731386664E+03  0.00000000000E+00 0.  1.
         21    1    1    2  504  501  0.69832850168E+02  0.40530953133E+02 -0.13092159943E+03  0.15381758782E+03  0.00000000000E+00 0. -1.
         21    1    1    2  505  504 -0.50084480582E+02 -0.28831551713E+03 -0.23271080881E+03  0.37388315441E+03  0.00000000000E+00 0.  1.
          1    1    1    2  501    0  0.12330101455E+02  0.25382574864E+03 -0.41656640871E+03  0.48796220647E+03  0.00000000000E+00 0.  1.
<scales pt_clust_3="32.64237" pt_clust_4="75.30082" pt_clust_5="296.67804" pt_clust_6="75.30082"></scales>
<clustering>
<clus scale="   32.642">  2  3  1 -1</clus>
<clus scale="   75.301">  4  6 -1 -1</clus>
<clus scale="  296.678">  1  5  2 -1</clus>
<clus scale="  296.678">  1  3  2 -1</clus>
</clustering>
</event>
<event>
 6    0  0.2117869E+002  0.8043894E+02  0.7546771E-02  0.1327810E+00
         21   -1    0    0  505  502  0.00000000000E+00  0.00000000000E+00  0.13777501785E+03  0.13777501785E+03  0.00000000000E+00 0. -1.
         -1   -1    0    0    0  501 -0.00000000000E+00 -0.00000000000E+00 -0.65435364347E+03  0.65435364347E+03  0.00000000000E+00 0. -1.
         21    1    1    2  503  501  0.71606071048E+01 -0.29597033342E+02 -0.17101999310E+03  0.17370980605E+03  0.00000000000E+00 0.  1.
         21    1    1    2  504  503 -0.28128297688E+02 -0.47534440979E+02 -0.89332396809E+02  0.10502857387E+03  0.00000000000E+00 0. -1.
         21    1    1    2  505  504 -0.58666044564E+02 -0.84411665841E+00  0.11320885372E+03  0.12750945800E+03  0.00000000000E+00 0. -1.
         -1    1    1    2    0  502  0.79633735148E+02  0.77975590980E+02 -0.36943508943E+03  0.38588082340E+03  0.00000000000E+00 0. -1.
<scales pt_clust_3="30.45092" pt_clust_4="14000.00000" pt_clust_5="58.57387" pt_clust_6="80.43894"></scales>
<clustering>
<clus scale="   30.451">  2  3  1 -1</clus>
<clus scale="   58.574">  1  5  2 -1</clus>
<clus scale="   80.439">  2  6  1 -1</clus>
<clus scale="   58.574">  1  3  2 -1</clus>
</clustering>
</event>
<event>
 6    0  0.2117869E+002  0.9836542E+02  0.7546771E-02  0.1283771E+00
         21   -1    0    0  504  502  0.00000000000E+00  0.00000000000E+00  0.31229651898E+03  0.31229651898E+03  0.00000000000E+00 0.  1.
          2   -1    0    0  503    0 -0.00000000000E+00 -0.00000000000E+00 -0.13909336885E+04  0.13909336885E+04  0.00000000000E+00 0. -1.
         21    1    1    2  503  502 -0.39605847455E+01  0.32302308322E+02 -0.32076794856E+03  0.32241464324E+03  0.00000000000E+00 0. -1.
         21    1    1    2  504  505 -0.54105984681E+02  0.85245731749E+01  0.24145940288E+03  0.24759396028E+03  0.00000000000E+00 0.  1.
         21    1    1    2  505  501 -0.27556083724E+02  0.50077423069E+02  0.50330934544E+02  0.76159628567E+02  0.00000000000E+00 0.  1.
          2    1    1    2  501    0  0.85622653150E+02 -0.90904304566E+02 -0.10496595583E+04  0.10570619754E+04  0.00000000000E+00 0. -1.
<scales pt_clust_3="32.54421" pt_clust_4="54.79912" pt_clust_5="98.36542" pt_clust_6="14000.00000"></scales>
<clustering>
<clus scale="   32.544">  2  3  1 -1</clus>
<clus scale="   54.799">  1  4  2 -1</clus>
<clus scale="   98.365">  1  5  2 -1</clus>
<clus scale="   54.799">  1  3  2 -1</clus>
</clustering>
</event>
<event>
 6    0  0.2117869E+002  0.1676349E+03  0.7546771E-02  0.1180337E+00
         -3   -1    0    0    0  501 -0.00000000000E+00  0.00000000000E+00  0.71719256399E+03  0.71719256399E+03  0.00000000000E+00 0.  1.
         21   -1    0    0  504  502  0.00000000000E+00 -0.00000000000E+00 -0.23602917654E+03  0.23602917654E+03  0.00000000000E+00 0.  1.
         21    1    1    2  503  501 -0.14488057484E+02 -0.54705425025E+02  0.10703466303E+03  0.12107438385E+03  0.00000000000E+00 0.  1.
         21    1    1    2  504  505  0.49123183186E+02 -0.10201954248E+03 -0.10682264052E+03  0.15566679383E+03  0.00000000000E+00 0.  1.
         21    1    1    2  505  503  0.12284382778E+03  0.32237889279E+02 -0.27403706285E+02  0.12992632776E+03  0.00000000000E+00 0.  1.
         -3    1    1    2    0  502 -0.15747895348E+03  0.12448707823E+03  0.50835507123E+03  0.54655423508E+03  0.00000000000E+00 0.  1.
<scales pt_clust_3="56.59141" pt_clust_4="114.98113" pt_clust_5="167.63487" pt_clust_6="14000.00000"></scales>
<clustering>
<clus scale="   56.591">  1  3  2 -1</clus>
<clus scale="  114.981">  2  4  1 -1</clus>
<clus scale="  167.635">  2  5  1 -1</clus>
<clus scale="  114.981">  2  3  1 -1</clus>
</clustering>
</event>
<event>
 6    0  0.2117869E+002  0.1363236E+03  0.7546771E-02  0.1218363E+00
         21   -1    0    0  504  502  0.00000000000E+00  0.00000000000E+00  0.17074299429E+03  0.17074299429E+03  0.00000000000E+00 0.  1.
          1   -1    0    0  505    0 -0.00000000000E+00 -0.00000000000E+00 -0.93909725834E+03  0.93909725834E+03  0.00000000000E+00 0.  1.
         21    1    1    2  503  502 -0.68567505488E+02  0.18267816357E+03  0.64691296668E+02  0.20556696748E+03  0.00000000000E+00 0.  1.
         21    1    1    2  504  501  0.20236590991E+01 -0.62602423420E+02 -0.79242786087E+01  0.63134402711E+02  0.00000000000E+00 0. -1.
         21    1    1    2  505  503  0.20034304205E+02 -0.38403741521E+02 -0.88347651283E+02  0.98394756949E+02  0.00000000000E+00 0. -1.
          1    1    1    2  501    0  0.46509542184E+02 -0.81671998626E+02 -0.73677363083E+03  0.74274412550E+03  0.00000000000E+00 0.  1.
<scales pt_clust_3="14000.00000" pt_clust_4="64.27968" pt_clust_5="43.31536" pt_clust_6="136.32361"></scales>
<clustering>
<clus scale="   43.315">  2  5  1 -1</clus>
<clus scale="   64.280">  1  4  2 -1</clus>
<clus scale="  136.324">  2  6  1 -1</clus>
<clus scale="   64.280">  1  3  2 -1</clus>
</clustering>
</event>
<event>
 6    0  0.2117869E+002  0.7335113E+02  0.7546771E-02  0.1349054E+00
          1   -1    0    0  503    0 -0.00000000000E+00  0.00000000000E+00  0.19856701712E+04  0.19856701712E+04  0.00000000000E+00 0. -1.
         21   -1    0    0  505  502  0.00000000000E+00 -0.00000000000E+00 -0.25197475107E+02  0.25197475107E+02  0.00000000000E+00 0.  1.
         21    1    1    2  503  504  0.38677745110E+02 -0.24622015988E+02  0.68317459132E+03  0.68471142379E+03  0.00000000000E+00 0.  1.
         21    1    1    2  504  502  0.29478480936E+02  0.28662009535E+02  0.21597792182E+02  0.46443043139E+02  0.00000000000E+00 0.  1.
         21    1    1    2  505  501  0.45301302850E+02 -0.31198368766E+02  0.73667404616E+02  0.91937113053E+02  0.00000000000E+00 0. -1.
          1    1    1    2  501    0 -0.11345752890E+03  0.27158375218E+02  0.11820329079E+04  0.11877760663E+04  0.00000000000E+00 0. -1.
<scales pt_clust_3="46.48217" pt_clust_4="41.11559" pt_clust_5="73.35113" pt_clust_6="14000.00000"></scales>
<clustering>
<clus scale="   41.116">  2  4  1 -1</clus>
<clus scale="   46.482">  1  3  2 -1</clus>
<clus scale="   73.351">  2  5  1 -1</clus>
<clus scale="   41.116">  2  3  1 -1</clus>
</clustering>
</event>
<event>
 6    0  0.2117869E+002  0.1195308E+03  0.7546771E-02  0.1243873E+00
         -1   -1    0    0    0  501 -0.00000000000E+00  0.00000000000E+00  0.15112856091E+04  0.15112856091E+04  0.00000000000E+00 0. -1.
         21   -1    0    0  504  502  0.00000000000E+00 -0.00000000000E+00 -0.34983214237E+02  0.34983214237E+02  0.00000000000E+00 0. -1.
         21    1    1    2  503  501 -0.11880321491E+03 -0.86295523034E+02  0.48300191849E+03  0.50482865849E+03  0.00000000000E+00 0. -1.
         21    1    1    2  504  503  0.37565059231E+02  0.50018533994E+00  0.40666127006E+02  0.55363505543E+02  0.00000000000E+00 0.  1.
         21    1    1    2  505  502 -0.36605510785E+02  0.96810855737E+02  0.21055839171E+03  0.23462127254E+03  0.00000000000E+00 0. -1.
         -1    1    1    2    0  505  0.11784366646E+03 -0.11015518043E+02  0.74207595762E+03  0.75145538672E+03  0.00000000000E+00 0. -1.
<scales pt_clust_3="14000.00000" pt_clust_4="37.56839" pt_clust_5="99.11931" pt_clust_6="119.53081"></scales>
<clustering>
<clus scale="   37.568">  2  4  1 -1</clus>
<clus scale="   99.119">  2  5  1 -1</clus>
<clus scale="  119.531">  1  6  2 -1</clus>
<clus scale="   37.568">  2  3  1 -1</clus>
</clustering>
</event>
<event>
 6    0  0.2117869E+002  0.1032457E+03  0.7546771E-02  0.1273615E+00
         21   -1    0    0  504  502  0.00000000000E+00  0.00000000000E+00  0.15419923185E+03  0.15419923185E+03  0.00000000000E+00 0.  1.
          2   -1    0    0  505    0 -0.00000000000E+00 -0.00000000000E+00 -0.17735515211E+04  0.17735515211E+04  0.00000000000E+00 0. -1.
         21    1    1    2  503  502 -0.56985258449E+02 -0.10105336789E+03  0.11692462153E+03  0.16471329625E+03  0.00000000000E+00 0.  1.
         21    1    1    2  504  501  0.31995130398E+02 -0.37364506230E+00 -0.21037319479E+02  0.38293560694E+02  0.00000000000E+00 0. -1.
         21    1    1    2  505  503  0.42332136304E+02  0.36844635100E+02 -0.19191407751E+03  0.19995136920E+03  0.00000000000E+00 0.  1.
          2    1    1    2  501    0 -0.17342008253E+02  0.64582377852E+02 -0.15233255138E+04  0.15247925268E+04  0.00000000000E+00 0. -1.
<scales pt_clust_3="14000.00000" pt_clust_4="31.99731" pt_clust_5="56.78325" pt_clust_6="103.24567"></scales>
<clustering>
<clus scale="   31.997">  1  4  2 -1</clus>
<clus scale="   56.783">  2  5  1 -1</clus>
<clus scale="  103.246">  2  6  1 -1</clus>
<clus scale="   31.997">  1  3  2 -1</clus>
</clustering>
</event>
<event>
 6    0  0.2117869E+002  0.2172946E+03  0.7546771E-02  0.1135916E+00
         -3   -1    0    0    0  501 -0.00000000000E+00  0.00000000000E+00  0.71074788742E+03  0.71074788742E+03  0.00000000000E+00 0.  1.
         21   -1    0    0  504  502  0.00000000000E+00 -0.00000000000E+00 -0.44045562556E+03  0.44045562556E+03  0.00000000000E+00 0.  1.
         21    1    1    2  503  502 -0.18019310510E+03  0.11480842528E+03 -0.25859120584E+03  0.33543992216E+03  0.00000000000E+00 0.  1.
         21    1    1    2  504  501  0.16755766167E+03 -0.15621841821E+03 -0.40088437236E+02  0.23256579063E+03  0.00000000000E+00 0. -1.
         21    1    1    2  505  503 -0.33807353958E+02  0.44650555787E+02  0.12725143610E+03  0.13903070633E+03  0.00000000000E+00 0. -1.
         -3    1    1    2    0  505  0.46442797382E+02 -0.32405628621E+01  0.44172046884E+03  0.44416709386E+03  0.00000000000E+00 0.  1.
<scales pt_clust_3="14000.00000" pt_clust_4="217.29456" pt_clust_5="44.35393" pt_clust_6="46.55572"></scales>
<clustering>
<clus scale="   46.556">  1  6  2 -1</clus>
<clus scale="   44.354">  1  5  2 -1</clus>
<clus scale="  217.295">  1  4  2 -1</clus>
<clus scale="  217.295">  2  3  1 -1</clus>
</clustering>
</event>
<event>
 6    0  0.2117869E+002  0.1928340E+03  0.7546771E-02  0.1155930E+00
         21   -1    0    0  505  502  0.00000000000E+00  0.00000000000E+00  0.22495283382E+03  0.22495283382E+03  0.00000000000E+00 0. -1.
          2   -1    0    0  503    0 -0.00000000000E+00 -0.00000000000E+00 -0.39707677320E+04  0.39707677320E+04  0.00000000000E+00 0. -1.
         21    1    1    2  503  504 -0.58944885872E+02  0.25425386984E+02 -0.94278701011E+02  0.11405885909E+03  0.00000000000E+00 0. -1.
         21    1    1    2  504  502 -0.32131475924E+02  0.30025168999E+02  0.19158641617E+03  0.19656881080E+03  0.00000000000E+00 0. -1.
         21    1    1    2  505  501  0.79172113652E+02  0.14502316108E+03 -0.35911288911E+03  0.39529989622E+03  0.00000000000E+00 0. -1.
          2    1    1    2  501    0  0.11904248144E+02 -0.20047371706E+03 -0.34840097243E+04  0.34897929998E+04  0.00000000000E+00 0. -1.
<scales pt_clust_3="77.60050" pt_clust_4="43.97661" pt_clust_5="14000.00000" pt_clust_6="192.83401"></scales>
<clustering>
<clus scale="   43.977">  1  4  2 -1</clus>
<clus scale="   77.601">  1  3  2 -1</clus>
<clus scale="  192.834">  2  6  1 -1</clus>
<clus scale="   43.977">  1  3  2 -1</clus>
</clustering>
</event>
<event>
 6    0  0.2117869E+002  0.1103116E+03  0.7546771E-02  0.1259994E+00
         21   -1    0    0  504  502  0.00000000000E+00  0.00000000000E+00  0.48850974539E+03  0.48850974539E+03  0.00000000000E+00 0.  1.
         -4   -1    0    0    0  501 -0.00000000000E+00 -0.00000000000E+00 -0.22164895904E+03  0.22164895904E+03  0.00000000000E+00 0.  1.
         21    1    1    2  503  502 -0.12212845138E+03  0.10696128566E+03  0.10439794173E+03  0.19301555767E+03  0.00000000000E+00 0.  1.
         21    1    1    2  504  505  0.24186103255E+02 -0.55673852055E+02  0.31489119678E+03  0.32068833967E+03  0.00000000000E+00 0.  1.
         21    1    1    2  505  501  0.40186488889E+02 -0.38050758813E+01 -0.21634177524E+02  0.45798145474E+02  0.00000000000E+00 0.  1.
         -4    1    1    2    0  503  0.57755859231E+02 -0.47482357728E+02 -0.13079417463E+03  0.15065666161E+03  0.00000000000E+00 0.  1.
<scales pt_clust_3="110.31158" pt_clust_4="61.00368" pt_clust_5="40.36623" pt_clust_6="14000.00000"></scales>
<clustering>
<clus scale="   40.366">  2  5  1 -1</clus>
<clus scale="   61.004">  1  4  2 -1</clus>
<clus scale="  110.312">  1  3  2 -1</clus>
<clus scale="   61.004">  1  3  2 -1</clus>
</clustering>
</event>
<event>
 6    0  0.2117869E+002  0.1121118E+03  0.7546771E-02  0.1256708E+00
          2   -1    0    0  503    0 -0.00000000000E+00  0.00000000000E+00  0.37522469940E+02  0.37522469940E+02  0.00000000000E+00 0.  1.
         21   -1    0    0  501  502  0.00000000000E+00 -0.00000000000E+00 -0.20649738218E+04  0.20649738218E+04  0.00000000000E+00 0. -1.
         21    1    1    2  503  505 -0.52233448335E+02 -0.40584674487E+02 -0.20478369928E+03  0.21520179465E+03  0.00000000000E+00 0.  1.
         21    1    1    2  504  502 -0.64011014263E+02  0.15548665662E+02 -0.95769085518E+03  0.95995361609E+03  0.00000000000E+00 0. -1.
         21    1    1    2  505  504 -0.38140231351E+02 -0.20453291456E+02 -0.68312795234E+03  0.68449748988E+03  0.00000000000E+00 0. -1.
          2    1    1    2  501    0  0.15438469395E+03  0.45489300281E+02 -0.18184884508E+03  0.24284339114E+03  0.00000000000E+00 0.  1.
<scales pt_clust_3="66.14718" pt_clust_4="31.12105" pt_clust_5="31.12105" pt_clust_6="105.33237"></scales>
<clustering>
<clus scale="   31.121">  4  5 -1 -1</clus>
<clus scale="   66.147">  1  3  2 -1</clus>
<clus scale="  105.332">  1  6  2 -1</clus>
<clus scale="  112.112">  2  3  1 -1</clus>
</clustering>
</event>
<event>
 6    0  0.2117869E+002  0.7981686E+02  0.7546771E-02  0.1329572E+00
         21   -1    0    0  503  502  0.00000000000E+00  0.00000000000E+00  0.26951380004E+03  0.26951380004E+03  0.00000000000E+00 0. -1.
          2   -1    0    0  504    0 -0.00000000000E+00 -0.00000000000E+00 -0.44379743993E+03  0.44379743993E+03  0.00000000000E+00 0.  1.
         21    1    1    2  503  501  0.23514025616E+02  0.24638923543E+02  0.26182039009E+02  0.42959109868E+02  0.00000000000E+00 0. -1.
         21    1    1    2  504  505  0.51130918936E+02 -0.41644519249E+02 -0.13681380592E+03  0.15187710277E+03  0.00000000000E+00 0.  1.
         21    1    1    2  505  502 -0.18598965149E+02 -0.61030994543E+02  0.21471517793E+03  0.22399399866E+03  0.00000000000E+00 0. -1.
          2    1    1    2  501    0 -0.56045979403E+02  0.78036590249E+02 -0.27836705090E+03  0.29448102868E+03  0.00000000000E+00 0.  1.
<scales pt_clust_3="34.05857" pt_clust_4="79.81686" pt_clust_5="38.17458" pt_clust_6="14000.00000"></scales>
<clustering>
<clus scale="   34.059">  1  3  2 -1</clus>
<clus scale="   38.175">  1  5  2 -1</clus>
<clus scale="   79.817">  2  4  1 -1</clus>
<clus scale="   34.059">  1  3  2 -1</clus>
</clustering>
</event>
<event>
 6    0  0.2117869E+002  0.9015497E+02  0.7546771E-02  0.1302477E+00
         -2   -1    0    0    0  501 -0.00000000000E+00  0.00000000000E+00  0.24889581972E+04  0.24889581972E+04  0.00000000000E+00 0. -1.
         21   -1    0    0  504  502  0.00000000000E+00 -0.00000000000E+00 -0.51665803890E+02  0.51665803890E+02  0.00000000000E+00 0. -1.
         21    1    1    2  503  502 -0.13239915717E+03 -0.35157680809E+02  0.73711023832E+02  0.15556000249E+03  0.00000000000E+00 0. -1.
         21    1    1    2  504  505 -0.71611999974E+01 -0.38671711256E+02  0.10208980626E+03  0.10940343952E+03  0.00000000000E+00 0.  1.
         21    1    1    2  505  501  0.84197822602E+02  0.33114138144E+01  0.28648039803E+03  0.29861556766E+03  0.00000000000E+00 0. -1.
         -2    1    1    2    0  503  0.55362534569E+02  0.70517978251E+02  0.19750111652E+04  0.19770449914E+04  0.00000000000E+00 0. -1.
<scales pt_clust_3="14000.00000" pt_clust_4="39.32918" pt_clust_5="83.30767" pt_clust_6="90.15497"></scales>
<clustering>
<clus scale="   39.329">  2  4  1 -1</clus>
<clus scale="   83.308">  2  5  1 -1</clus>
<clus scale="   90.155">  1  6  2 -1</clus>
<clus scale="   39.329">  2  3  1 -1</clus>
</clustering>
</event>
<event>
 6    0  0.2117869E+002  0.7195939E+02  0.7546771E-02  0.1353554E+00
          1   -1    0    0  503    0 -0.00000000000E+00  0.00000000000E+00  0.44259533493E+03  0.44259533493E+03  0.00000000000E+00 0. -1.
         21   -1    0    0  501  502  0.00000000000E+00 -0.00000000000E+00 -0.23927347183E+03  0.23927347183E+03  0.00000000000E+00 0. -1.
         21    1    1    2  503  504 -0.94920690007E+01  0.35979345060E+02  0.60206688151E+02  0.70777524278E+02  0.00000000000E+00 0. -1.
         21    1    1    2  504  505  0.29462301561E+02  0.97107994801E+02  0.30066954374E+02  0.10583955599E+03  0.00000000000E+00 0. -1.
         21    1    1    2  505  502  0.19244997468E+02 -0.56490764482E+02 -0.18533575244E+03  0.19470726111E+03  0.00000000000E+00 0. -1.
          1    1    1    2  501    0 -0.39215230028E+02 -0.76596575379E+02  0.29838397301E+03  0.31054446538E+03  0.00000000000E+00 0. -1.
<scales pt_clust_3="37.21038" pt_clust_4="71.95939" pt_clust_5="59.21774" pt_clust_6="14000.00000"></scales>
<clustering>
<clus scale="   37.210">  1  3  2 -1</clus>
<clus scale="   59.218">  2  5  1 -1</clus>
<clus scale="   71.959">  2  4  1 -1</clus>
<clus scale="   59.218">  2  3  1 -1</clus>
</clustering>
</event>
<event>
 6    0  0.2117869E+002  0.8759817E+02  0.7546771E-02  0.1308775E+00
          1   -1    0    0  505    0 -0.00000000000E+00  0.00000000000E+00  0.98423923845E+03  0.98423923845E+03  0.00000000000E+00 0.  1.
         21   -1    0    0  503  502  0.00000000000E+00 -0.00000000000E+00 -0.67953115046E+02  0.67953115046E+02  0.00000000000E+00 0. -1.
         21    1    1    2  503  501  0.49820227754E+02 -0.90824467877E+02  0.22015025882E+03  0.24330490237E+03  0.00000000000E+00 0. -1.
         21    1    1    2  504  502 -0.48503923296E+02  0.39083999589E+01 -0.38179156578E+02  0.61851064359E+02  0.00000000000E+00 0. -1.
         21    1    1    2  505  504 -0.40621275432E+02  0.27516985959E+01  0.15196676689E+03  0.15732627912E+03  0.00000000000E+00 0. -1.
          1    1    1    2  501    0  0.39304970974E+02  0.84164369322E+02  0.58234825427E+03  0.58971010764E+03  0.00000000000E+00 0.  1.
<scales pt_clust_3="14000.00000" pt_clust_4="49.24197" pt_clust_5="40.71437" pt_clust_6="87.59817"></scales>
<clustering>
<clus scale="   40.714">  1  5  2 -1</clus>
<clus scale="   49.242">  2  4  1 -1</clus>
<clus scale="   87.598">  1  6  2 -1</clus>
<clus scale="   49.242">  2  3  1 -1</clus>
</clustering>
</event>
<event>
 6    0  0.2117869E+002  0.4691886E+03  0.7546771E-02  0.1022149E+00
         21   -1    0    0  501  502  0.00000000000E+00  0.00000000000E+00  0.29017718880E+03  0.29017718880E+03  0.00000000000E+00 0.  1.
          2   -1    0    0  504    0 -0.00000000000E+00 -0.00000000000E+00 -0.68978777096E+03  0.68978777096E+03  0.00000000000E+00 0. -1.
         21    1    1    2  503  502 -0.53938153216E+02  0.51901744571E+02 -0.63308198642E+02  0.98035929521E+02  0.00000000000E+00 0.  1.
         21    1    1    2  504  505 -0.11493513371E+03 -0.82779775192E+02 -0.11068307099E+02  0.14207421850E+03  0.00000000000E+00 0.  1.
         21    1    1    2  505  503 -0.23923571693E+03  0.15470516089E+02 -0.43358316135E+02  0.24362472925E+03  0.00000000000E+00 0.  1.
          2    1    1    2  501    0  0.40810900385E+03  0.15407514533E+02 -0.28187576029E+03  0.49623008249E+03  0.00000000000E+00 0. -1.
<scales pt_clust_3="68.12615" pt_clust_4="121.53226" pt_clust_5="121.53226" pt_clust_6="408.39974"></scales>
<clustering>
<clus scale="   68.126">  3  5 -1 -1</clus>
<clus scale="  121.532">  3  4 -1 -1</clus>
<clus scale="  408.400">  2  6  1 -1</clus>
<clus scale="  469.189">  1  3  2 -1</clus>
</clustering>
</event>
<event>
 6    0  0.2117869E+002  0.7054531E+02  0.7546771E-02  0.1358248E+00
          1   -1    0    0  505    0 -0.00000000000E+00  0.00000000000E+00  0.12684648344E+04  0.12684648344E+04  0.00000000000E+00 0. -1.
         21   -1    0    0  503  502  0.00000000000E+00 -0.00000000000E+00 -0.38125786406E+02  0.38125786406E+02  0.00000000000E+00 0. -1.
         21    1    1    2  503  501 -0.64630702537E+00  0.37542234548E+02 -0.52535185333E+01  0.37913540386E+02  0.00000000000E+00 0. -1.
         21    1    1    2  504  502  0.62854133031E+02 -0.67137867548E+01  0.85010577361E+02  0.10593637352E+03  0.00000000000E+00 0. -1.
         21    1    1    2  505  504  0.49344616848E+02 -0.10433226375E+02  0.24914331835E+03  0.25419704267E+03  0.00000000000E+00 0. -1.
          1    1    1    2  501    0 -0.11155244285E+03 -0.20395221418E+02  0.90143867083E+03  0.90854366424E+03  0.00000000000E+00 0. -1.
<scales pt_clust_3="37.54780" pt_clust_4="70.54531" pt_clust_5="49.46953" pt_clust_6="14000.00000"></scales>
<clustering>
<clus scale="   37.548">  2  3  1 -1</clus>
<clus scale="   49.470">  1  5  2 -1</clus>
<clus scale="   70.545">  2  4  1 -1</clus>
<clus scale="   37.548">  2  3  1 -1</clus>
</clustering>
</event>
<event>
 6    0  0.2117869E+002  0.1635888E+03  0.7546771E-02  0.1184704E+00
         21   -1    0    0  504  502  0.00000000000E+00  0.00000000000E+00  0.35934375845E+03  0.35934375845E+03  0.00000000000E+00 0. -1.
          1   -1    0    0  505    0 -0.00000000000E+00 -0.00000000000E+00 -0.17631690637E+04  0.17631690637E+04  0.00000000000E+00 0. -1.
         21    1    1    2  503  502 -0.32502337629E+02  0.15229318322E+02  0.35514870220E+02  0.50493960972E+02  0.00000000000E+00 0.  1.
         21    1    1    2  504  501  0.16755555851E+02  0.11723767462E+03  0.27572769824E+03  0.30008529551E+03  0.00000000000E+00 0. -1.
         21    1    1    2  505  503 -0.91325709696E+02 -0.71911850074E+01 -0.61874671649E+02  0.11054670228E+03  0.00000000000E+00 0. -1.
          1    1    1    2  501    0  0.10707249147E+03 -0.12527580794E+03 -0.16531932021E+04  0.16613868634E+04  0.00000000000E+00 0. -1.
<scales pt_clust_3="35.89337" pt_clust_4="163.58876" pt_clust_5="94.01902" pt_clust_6="14000.00000"></scales>
<clustering>
<clus scale="   35.893">  1  3  2 -1</clus>
<clus scale="   94.019">  1  5  2 -1</clus>
<clus scale="  163.589">  1  4  2 -1</clus>
<clus scale="   35.893">  1  3  2 -1</clus>
</clustering>
</event>
<event>
 6    0  0.2117869E+002  0.7793833E+02  0.7546771E-02  0.1335006E+00
         21   -1    0    0  504  502  0.00000000000E+00  0.00000000000E+00  0.20378961720E+04  0.20378961720E+04  0.00000000000E+00 0. -1.
          1   -1    0    0  503    0 -0.00000000000E+00 -0.00000000000E+00 -0.39086181535E+03  0.39086181535E+03  0.00000000000E+00 0. -1.
         21    1    1    2  503  502 -0.35369030057E+02 -0.13272488604E+02  0.68980241789E+02  0.78647320349E+02  0.00000000000E+00 0. -1.
         21    1    1    2  504  505  0.18424358846E+01  0.83974554753E+02  0.19250545553E+04  0.19268861308E+04  0.00000000000E+00 0. -1.
         21    1    1    2  505  501 -0.21221909893E+02 -0.90734663834E+02 -0.25678493279E+02  0.96656782988E+02  0.00000000000E+00 0.  1.
          1    1    1    2  501    0  0.54748504065E+02  0.20032597685E+02 -0.32132194717E+03  0.32656775315E+03  0.00000000000E+00 0. -1.
<scales pt_clust_3="37.77734" pt_clust_4="14000.00000" pt_clust_5="77.93833" pt_clust_6="58.24795"></scales>
<clustering>
<clus scale="   37.777">  1  3  2 -1</clus>
<clus scale="   58.248">  2  6  1 -1</clus>
<clus scale="   77.938">  2  5  1 -1</clus>
<clus scale="   37.777">  1  3  2 -1</clus>
</clustering>
</event>
<event>
 6    0  0.2117869E+002  0.9634957E+02  0.7546771E-02  0.1288165E+00
          2   -1    0    0  505    0 -0.00000000000E+00  0.00000000000E+00  0.38980729593E+03  0.38980729593E+03  0.00000000000E+00 0. -1.
         21   -1    0    0  503  502  0.00000000000E+00 -0.00000000000E+00 -0.29103028866E+03  0.29103028866E+03  0.00000000000E+00 0. -1.
         21    1    1    2  503  501 -0.57086797417E+02 -0.34424503893E+01 -0.24997384564E+03  0.25643259622E+03  0.00000000000E+00 0. -1.
         21    1    1    2  504  502 -0.33741971603E+02 -0.70550983390E+02  0.58425299434E+02  0.97619042809E+02  0.00000000000E+00 0. -1.
         21    1    1    2  505  504  0.33214185757E+02 -0.18225792074E+02  0.47753642047E+02  0.60957132159E+02  0.00000000000E+00 0. -1.
          2    1    1    2  501    0  0.57614583263E+02  0.92219225853E+02  0.24257191142E+03  0.26582881340E+03  0.00000000000E+00 0. -1.
<scales pt_clust_3="56.88222" pt_clust_4="96.34957" pt_clust_5="37.88617" pt_clust_6="14000.00000"></scales>
<clustering>
<clus scale="   37.886">  1  5  2 -1</clus>
<clus scale="   56.882">  2  3  1 -1</clus>
<clus scale="   96.350">  2  4  1 -1</clus>
<clus scale="   56.882">  2  3  1 -1</clus>
</clustering>
</event>
<event>
 6    0  0.2117869E+002  0.9845460E+02  0.7546771E-02  0.1283580E+00
          2   -1    0    0  503    0 -0.00000000000E+00  0.00000000000E+00  0.44496826952E+03  0.44496826952E+03  0.00000000000E+00 0.  1.
         21   -1    0    0  505  502  0.00000000000E+00 -0.00000000000E+00 -0.46890996316E+03  0.46890996316E+03  0.00000000000E+00 0. -1.
         21    1    1    2  503  504 -0.85072879751E+02  0.27914182470E+02  0.14172209472E+03  0.16763576165E+03  0.00000000000E+00 0.  1.
         21    1    1    2  504  502 -0.50882162452E+02  0.17557687329E+02 -0.30722461784E+03  0.31190420428E+03  0.00000000000E+00 0. -1.
         21    1    1    2  505  501  0.78943135394E+02  0.66406355241E+02 -0.11146050423E+03  0.15187253420E+03  0.00000000000E+00 0. -1.
          2    1    1    2  501    0  0.57011906809E+02 -0.11187822504E+03  0.25302133370E+03  0.28246573254E+03  0.00000000000E+00 0.  1.
<scales pt_clust_3="98.45460" pt_clust_4="53.82627" pt_clust_5="88.93073" pt_clust_6="14000.00000"></scales>
<clustering>
<clus scale="   53.826">  2  4  1 -1</clus>
<clus scale="   88.931">  2  5  1 -1</clus>
<clus scale="   98.455">  1  3  2 -1</clus>
<clus scale="   53.826">  2  3  1 -1</clus>
</clustering>
</event>
<event>
 6    0  0.2117869E+002  0.1076010E+03  0.7546771E-02  0.1265078E+00
          3   -1    0    0  505    0 -0.00000000000E+00  0.00000000000E+00  0.10463603238E+04  0.10463603238E+04  0.00000000000E+00 0. -1.
         21   -1    0    0  504  502  0.00000000000E+00 -0.00000000000E+00 -0.73841177202E+03  0.73841177202E+03  0.00000000000E+00 0.  1.
         21    1    1    2  503  502 -0.70594653011E+02 -0.56588142461E+02  0.27451911923E+02  0.94548560905E+02  0.00000000000E+00 0. -1.
         21    1    1    2  504  501  0.10812976506E+03  0.17753342081E+02 -0.69706554453E+03  0.70562568024E+03  0.00000000000E+00 0.  1.
         21    1    1    2  505  503  0.33139946120E+02  0.11207457813E+02  0.17541920430E+03  0.17887358770E+03  0.00000000000E+00 0.  1.
          3    1    1    2  501    0 -0.70675058166E+02  0.27627342567E+02  0.80214298012E+03  0.80572426702E+03  0.00000000000E+00 0. -1.
<scales pt_clust_3="107.60095" pt_clust_4="14000.00000" pt_clust_5="34.98376" pt_clust_6="55.18511"></scales>
<clustering>
<clus scale="   34.984">  1  5  2 -1</clus>
<clus scale="   55.185">  1  6  2 -1</clus>
<clus scale="  107.601">  1  3  2 -1</clus>
<clus scale="  107.601">  2  3  1 -1</clus>
</clustering>
</event>
<event>
 6    0  0.2117869E+002  0.9809620E+02  0.7546771E-02  0.1284351E+00
          2   -1    0    0  503    0 -0.00000000000E+00  0.00000000000E+00  0.17911717794E+04  0.17911717794E+04  0.00000000000E+00 0. -1.
         21   -1    0    0  501  502  0.00000000000E+00 -0.00000000000E+00 -0.49232983105E+02  0.49232983105E+02  0.00000000000E+00 0. -1.
         21    1    1    2  503  504  0.33416957892E+02  0.19129415967E+02  0.10477507749E+04  0.10484580649E+04  0.00000000000E+00 0.  1.
         21    1    1    2  504  505  0.36843037110E+02 -0.90999921359E+02  0.62815830711E+03  0.63578396792E+03  0.00000000000E+00 0. -1.
         21    1    1    2  505  502 -0.40114351011E+02  0.82144434205E+02  0.10326098093E+02  0.91997269143E+02  0.00000000000E+00 0. -1.
          2    1    1    2  501    0 -0.30145643990E+02 -0.10273928814E+02  0.55703616169E+02  0.64165460484E+02  0.00000000000E+00 0. -1.
<scales pt_clust_3="38.25923" pt_clust_4="14000.00000" pt_clust_5="98.09620" pt_clust_6="31.84829"></scales>
<clustering>
<clus scale="   31.848">  2  6  1 -1</clus>
<clus scale="   38.259">  1  3  2 -1</clus>
<clus scale="   98.096">  2  5  1 -1</clus>
<clus scale="   31.848">  2  3  1 -1</clus>
</clustering>
</event>
<event>
 6    0  0.2117869E+002  0.8186492E+02  0.7546771E-02  0.1323841E+00
         21   -1    0    0  504  502  0.00000000000E+00  0.00000000000E+00  0.40745924869E+03  0.40745924869E+03  0.00000000000E+00 0. -1.
          2   -1    0    0  502    0 -0.00000000000E+00 -0.00000000000E+00 -0.23465050323E+04  0.23465050323E+04  0.00000000000E+00 0. -1.
         21    1    1    2  503  505 -0.74600660628E+01  0.99035019536E+02  0.28245110400E+03  0.29940309589E+03  0.00000000000E+00 0. -1.
         21    1    1    2  504  503  0.38941859846E+02 -0.22619470986E+02  0.10944405191E+03  0.11834740983E+03  0.00000000000E+00 0.  1.
         21    1    1    2  505  501 -0.53754840540E+02 -0.33719107210E+02 -0.42941182940E+03  0.43407497083E+03  0.00000000000E+00 0. -1.
          2    1    1    2  501    0  0.22273046757E+02 -0.42696441339E+02 -0.19015291101E+04  0.19021388044E+04  0.00000000000E+00 0. -1.
<scales pt_clust_3="81.86492" pt_clust_4="45.03453" pt_clust_5="14000.00000" pt_clust_6="48.19631"></scales>
<clustering>
<clus scale="   45.035">  1  4  2 -1</clus>
<clus scale="   48.196">  2  6  1 -1</clus>
<clus scale="   81.865">  1  3  2 -1</clus>
<clus scale="   45.035">  1  3  2 -1</clus>
</clustering>
</event>
<event>
 6    0  0.2117869E+002  0.1330414E+03  0.7546771E-02  0.1223011E+00
         21   -1    0    0  505  502  0.00000000000E+00  0.00000000000E+00  0.73724052120E+03  0.73724052120E+03  0.00000000000E+00 0.  1.
          2   -1    0    0  504    0 -0.00000000000E+00 -0.00000000000E+00 -0.67806348952E+03  0.67806348952E+03  0.00000000000E+00 0.  1.
         21    1    1    2  503  502  0.22912334496E+02  0.38824529789E+02  0.67109265947E+02  0.80845363265E+02  0.00000000000E+00 0.  1.
         21    1    1    2  504  503  0.59332618444E+02 -0.89625394101E+02 -0.26906870358E+03  0.28974305535E+03  0.00000000000E+00 0.  1.
         21    1    1    2  505  501 -0.15145324850E+03 -0.73191141061E+02  0.62862767867E+03  0.65074402648E+03  0.00000000000E+00 0.  1.
          2    1    1    2  501    0  0.69208295562E+02  0.12399200537E+03 -0.36749120935E+03  0.39397156562E+03  0.00000000000E+00 0.  1.
<scales pt_clust_3="45.08125" pt_clust_4="107.17964" pt_clust_5="133.04139" pt_clust_6="14000.00000"></scales>
<clustering>
<clus scale="   45.081">  1  3  2 -1</clus>
<clus scale="  107.180">  2  4  1 -1</clus>
<clus scale="  133.041">  1  5  2 -1</clus>
<clus scale="   45.081">  1  3  2 -1</clus>
</clustering>
</event>
<event>
 6    0  0.2117869E+002  0.1345783E+03  0.7546771E-02  0.1220816E+00
          1   -1    0    0  503    0 -0.00000000000E+00  0.00000000000E+00  0.49869052362E+02  0.49869052362E+02  0.00000000000E+00 0.  1.
         21   -1    0    0  501  502  0.00000000000E+00 -0.00000000000E+00 -0.13537903049E+04  0.13537903049E+04  0.00000000000E+00 0. -1.
         21    1    1    2  503  504  0.20647946942E+02 -0.23498825194E+02 -0.21883479769E+02  0.38176159906E+02  0.00000000000E+00 0. -1.
         21    1    1    2  504  505  0.11500479885E+03  0.42899022165E+02 -0.59157682615E+03  0.60417677140E+03  0.00000000000E+00 0. -1.
         21    1    1    2  505  502  0.20253331280E+02 -0.51964492034E+02 -0.53781263428E+03  0.54069671300E+03  0.00000000000E+00 0. -1.
          1    1    1    2  501    0 -0.15590607708E+03  0.32564295062E+02 -0.15264831229E+03  0.22060971290E+03  0.00000000000E+00 0.  1.
<scales pt_clust_3="31.28150" pt_clust_4="134.57825" pt_clust_5="56.78900" pt_clust_6="14000.00000"></scales>
<clustering>
<clus scale="   31.282">  1  3  2 -1</clus>
<clus scale="   56.789">  2  5  1 -1</clus>
<clus scale="  134.578">  2  4  1 -1</clus>
<clus scale="   56.789">  2  3  1 -1</clus>
</clustering>
</event>
<event>
 6    0  0.2117869E+002  0.1004716E+03  0.7546771E-02  0.1279307E+00
         -1   -1    0    0    0  501 -0.00000000000E+00  0.00000000000E+00  0.45807725951E+03  0.45807725951E+03  0.00000000000E+00 0.  1.
         21   -1    0    0  504  502  0.00000000000E+00 -0.00000000000E+00 -0.97564461402E+02  0.97564461402E+02  0.00000000000E+00 0.  1.
         21    1    1    2  503  502 -0.90420004971E+02  0.26291814579E+01 -0.82022820023E+01  0.90829330748E+02  0.00000000000E+00 0.  1.
         21    1    1    2  504  505  0.14643174131E+03  0.57945231387E+02  0.16467274001E+03  0.22785305793E+03  0.00000000000E+00 0.  1.
         21    1    1    2  505  501  0.10825364910E+02 -0.46850431749E+02  0.55093826979E+02  0.73126474356E+02  0.00000000000E+00 0.  1.
         -1    1    1    2    0  503 -0.66837101251E+02 -0.13723981096E+02  0.14894851311E+03  0.16383285788E+03  0.00000000000E+00 0.  1.
<scales pt_clust_3="100.47162" pt_clust_4="14000.00000" pt_clust_5="48.08484" pt_clust_6="70.39840"></scales>
<clustering>
<clus scale="   48.085">  1  5  2 -1</clus>
<clus scale="   70.398">  1  6  2 -1</clus>
<clus scale="  100.472">  2  3  1 -1</clus>
<clus scale="  100.472">  2  3  1 -1</clus>
</clustering>
</event>
<event>
 6    0  0.2117869E+002  0.1523878E+03  0.7546771E-02  0.1197569E+00
          2   -1    0    0  503    0 -0.00000000000E+00  0.00000000000E+00  0.33548310733E+03  0.33548310733E+03  0.00000000000E+00 0.  1.
         21   -1    0    0  504  502  0.00000000000E+00 -0.00000000000E+00 -0.22967229415E+03  0.22967229415E+03  0.00000000000E+00 0. -1.
         21    1    1    2  503  505 -0.22985426734E+01  0.32520137796E+02  0.57361458411E+02  0.65978629659E+02  0.00000000000E+00 0.  1.
         21    1    1    2  504  501 -0.38191691137E+02  0.48016201865E+02  0.51509807638E+01  0.61568608205E+02  0.00000000000E+00 0. -1.
         21    1    1    2  505  502  0.17594540773E+03 -0.10245875756E+03 -0.11036775226E+03  0.23159366192E+03  0.00000000000E+00 0. -1.
          2    1    1    2  501    0 -0.13545517392E+03  0.21922417897E+02  0.15366612626E+03  0.20601450169E+03  0.00000000000E+00 0.  1.
<scales pt_clust_3="32.60127" pt_clust_4="64.66695" pt_clust_5="152.38776" pt_clust_6="14000.00000"></scales>
<clustering>
<clus scale="   32.601">  1  3  2 -1</clus>
<clus scale="   64.667">  2  4  1 -1</clus>
<clus scale="  152.388">  2  5  1 -1</clus>
<clus scale="   64.667">  2  3  1 -1</clus>
</clustering>
</event>
<event>
 6    0  0.2117869E+002  0.1262051E+03  0.7546771E-02  0.1233198E+00
         21   -1    0    0  505  502  0.00000000000E+00  0.00000000000E+00  0.13163360260E+03  0.13163360260E+03  0.00000000000E+00 0.  1.
          4   -1    0    0  503    0 -0.00000000000E+00 -0.00000000000E+00 -0.15725271799E+03  0.15725271799E+03  0.00000000000E+00 0. -1.
         21    1    1    2  503  504 -0.15369958217E+01 -0.39676429274E+02 -0.10938170923E+02  0.41185251962E+02  0.00000000000E+00 0.  1.
         21    1    1    2  504  502  0.11307728171E+03  0.55080818517E+02 -0.36594951190E+01  0.12583226975E+03  0.00000000000E+00 0.  1.
         21    1    1    2  505  501 -0.36384432614E+02 -0.21541880272E+02 -0.18378399667E+02  0.46104719028E+02  0.00000000000E+00 0. -1.
          4    1    1    2  501    0 -0.75155853270E+02  0.61374910288E+01  0.73569503154E+01  0.75764079845E+02  0.00000000000E+00 0. -1.
<scales pt_clust_3="39.70619" pt_clust_4="117.79523" pt_clust_5="33.92113" pt_clust_6="33.92113"></scales>
<clustering>
<clus scale="   33.921">  5  6 -1 -1</clus>
<clus scale="   39.706">  2  3  1 -1</clus>
<clus scale="  117.795">  2  4  1 -1</clus>
<clus scale="  126.205">  1  3  2 -1</clus>
</clustering>
</event>
<event>
 6    0  0.2117869E+002  0.2140473E+03  0.7546771E-02  0.1138400E+00
         21   -1    0    0  505  502  0.00000000000E+00  0.00000000000E+00  0.14156623265E+04  0.14156623265E+04  0.00000000000E+00 0.  1.
          1   -1    0    0  503    0 -0.00000000000E+00 -0.00000000000E+00 -0.29712626537E+04  0.29712626537E+04  0.00000000000E+00 0.  1.
         21    1    1    2  503  504 -0.15183266068E+02 -0.28409126158E+02 -0.23715464144E+04  0.23717651666E+04  0.00000000000E+00 0.  1.
         21    1    1    2  504  502  0.41829161129E+02  0.69863298583E+02  0.86826745541E+03  0.87207736660E+03  0.00000000000E+00 0.  1.
         21    1    1    2  505  501 -0.24959330953E+03 -0.25013298148E+02  0.49331400582E+03  0.55342677346E+03  0.00000000000E+00 0.  1.
          1    1    1    2  501    0  0.22294741447E+03 -0.16440874277E+02 -0.54563537404E+03  0.58965567357E+03  0.00000000000E+00 0.  1.
<scales pt_clust_3="32.21195" pt_clust_4="81.32603" pt_clust_5="14000.00000" pt_clust_6="214.04733"></scales>
<clustering>
<clus scale="   32.212">  2  3  1 -1</clus>
<clus scale="   81.326">  1  4  2 -1</clus>
<clus scale="  214.047">  2  6  1 -1</clus>
<clus scale="   81.326">  1  3  2 -1</clus>
</clustering>
</event>
<event>
 6    0  0.2117869E+002  0.7290758E+02  0.7546771E-02  0.1350476E+00
         21   -1    0    0  504  502  0.00000000000E+00  0.00000000000E+00  0.20231759795E+04  0.20231759795E+04  0.00000000000E+00 0.  1.
         -1   -1    0    0    0  501 -0.00000000000E+00 -0.00000000000E+00 -0.70750797454E+02  0.70750797454E+02  0.00000000000E+00 0. -1.
         21    1    1    2  503  501  0.66116310778E+01  0.59767537101E+02  0.93094884416E+02  0.11082657471E+03  0.00000000000E+00 0.  1.
         21    1    1    2  504  505  0.25146018195E+02 -0.39781699140E+02  0.16355661450E+04  0.16362431117E+04  0.00000000000E+00 0.  1.
         21    1    1    2  505  503 -0.39226392421E+02  0.56031741170E+02  0.25523765984E+03  0.26424331379E+03  0.00000000000E+00 0.  1.
         -1    1    1    2    0  502  0.74687431482E+01 -0.76017579131E+02 -0.31473507203E+02  0.82613776797E+02  0.00000000000E+00 0. -1.
<scales pt_clust_3="14000.00000" pt_clust_4="47.06279" pt_clust_5="36.89804" pt_clust_6="72.90758"></scales>
<clustering>
<clus scale="   47.063">  1  4  2 -1</clus>
<clus scale="   36.898">  1  5  2 -1</clus>
<clus scale="   72.908">  2  6  1 -1</clus>
<clus scale="   47.063">  1  3  2 -1</clus>
</clustering>
</event>
<event>
 6    0  0.2117869E+002  0.8619199E+02  0.7546771E-02  0.1312344E+00
          4   -1    0    0  503    0 -0.00000000000E+00  0.00000000000E+00  0.15773720152E+03  0.15773720152E+03  0.00000000000E+00 0.  1.
         21   -1    0    0  501  502  0.00000000000E+00 -0.00000000000E+00 -0.41640998400E+03  0.41640998400E+03  0.00000000000E+00 0.  1.
         21    1    1    2  503  504  0.45632504125E+02  0.10239485462E+02 -0.13548552219E+01  0.46786837122E+02  0.00000000000E+00 0.  1.
         21    1    1    2  504  505  0.47686196101E+02  0.52173051461E+02 -0.11390985152E+03  0.13405765503E+03  0.00000000000E+00 0.  1.
         21    1    1    2  505  502 -0.58998911379E+02 -0.82507280337E+02 -0.25521539616E+03  0.27463288458E+03  0.00000000000E+00 0.  1.
          4    1    1    2  501    0 -0.34319788847E+02  0.20094743414E+02  0.11180732042E+03  0.11866980879E+03  0.00000000000E+00 0.  1.
<scales pt_clust_3="34.42123" pt_clust_4="86.19199" pt_clust_5="14000.00000" pt_clust_6="39.76992"></scales>
<clustering>
<clus scale="   39.770">  1  6  2 -1</clus>
<clus scale="   34.421">  1  3  2 -1</clus>
<clus scale="   86.192">  1  4  2 -1</clus>
<clus scale="   86.192">  2  3  1 -1</clus>
</clustering>
</event>
<event>
 6    0  0.2117869E+002  0.1381597E+03  0.7546771E-02  0.1215827E+00
          1   -1    0    0  504    0 -0.00000000000E+00  0.00000000000E+00  0.60819636548E+03  0.60819636548E+03  0.00000000000E+00 0. -1.
         21   -1    0    0  505  502  0.00000000000E+00 -0.00000000000E+00 -0.30029599818E+03  0.30029599818E+03  0.00000000000E+00 0.  1.
         21    1    1    2  503  502  0.14383691745E+03 -0.81598715918E+02 -0.20849505022E+03  0.26611575532E+03  0.00000000000E+00 0.  1.
         21    1    1    2  504  503 -0.24892263093E+02 -0.18165709283E+02  0.16054100858E+03  0.16347181161E+03  0.00000000000E+00 0. -1.
         21    1    1    2  505  501 -0.16346182644E+02  0.28905872407E+02 -0.46800911198E+02  0.57385298079E+02  0.00000000000E+00 0. -1.
          1    1    1    2  501    0 -0.10259847171E+03  0.70858552794E+02  0.40265532014E+03  0.42151949864E+03  0.00000000000E+00 0. -1.
<scales pt_clust_3="14000.00000" pt_clust_4="30.81587" pt_clust_5="33.16741" pt_clust_6="138.15967"></scales>
<clustering>
<clus scale="   30.816">  1  4  2 -1</clus>
<clus scale="   33.167">  2  5  1 -1</clus>
<clus scale="  138.160">  1  6  2 -1</clus>
<clus scale="   33.167">  2  3  1 -1</clus>
</clustering>
</event>
<event>
 6    0  0.2117869E+002  0.1849785E+03  0.7546771E-02  0.1163070E+00
          2   -1    0    0  504    0 -0.00000000000E+00  0.00000000000E+00  0.25638814291E+04  0.25638814291E+04  0.00000000000E+00 0.  1.
         21   -1    0    0  505  502  0.00000000000E+00 -0.00000000000E+00 -0.45989120679E+03  0.45989120679E+03  0.00000000000E+00 0.  1.
         21    1    1    2  503  502 -0.28811428255E+03  0.15632352019E+02 -0.31876664478E+03  0.42996090992E+03  0.00000000000E+00 0.  1.
         21    1    1    2  504  503 -0.48665018402E+02 -0.76136730779E+02  0.10769203256E+03  0.14057972708E+03  0.00000000000E+00 0. -1.
         21    1    1    2  505  501  0.12459174756E+03  0.58511150697E+02  0.95555864234E+01  0.13797814156E+03  0.00000000000E+00 0.  1.
          2    1    1    2  501    0  0.21218755339E+03  0.19932280625E+01  0.23055092481E+04  0.23152538573E+04  0.00000000000E+00 0.  1.
<scales pt_clust_3="184.97848" pt_clust_4="90.36086" pt_clust_5="135.34431" pt_clust_6="14000.00000"></scales>
<clustering>
<clus scale="   90.361">  1  4  2 -1</clus>
<clus scale="  135.344">  2  5  1 -1</clus>
<clus scale="  184.978">  2  3  1 -1</clus>
<clus scale="  135.344">  2  3  1 -1</clus>
</clustering>
</event>
<event>
 6    0  0.2117869E+002  0.8363200E+02  0.7546771E-02  0.1319049E+00
         21   -1    0    0  505  502  0.00000000000E+00  0.00000000000E+00  0.29938621773E+02  0.29938621773E+02  0.00000000000E+00 0. -1.
          1   -1    0    0  503    0 -0.00000000000E+00 -0.00000000000E+00 -0.25839161387E+04  0.25839161387E+04  0.00000000000E+00 0. -1.
         21    1    1    2  503  504 -0.35061905455E+02  0.58667828682E+01 -0.20152206495E+03  0.20463357255E+03  0.00000000000E+00 0. -1.
         21    1    1    2  504  502 -0.85206002077E+02  0.19009558337E+02 -0.46683895815E+02  0.98999051645E+02  0.00000000000E+00 0. -1.
         21    1    1    2  505  501  0.58013117161E+02  0.76523127597E+01 -0.56236227417E+03  0.56539844982E+03  0.00000000000E+00 0. -1.
          1    1    1    2  501    0  0.62254790371E+02 -0.32528653965E+02 -0.17434092820E+04  0.17448236865E+04  0.00000000000E+00 0. -1.
<scales pt_clust_3="35.54935" pt_clust_4="83.63200" pt_clust_5="14000.00000" pt_clust_6="46.19875"></scales>
<clustering>
<clus scale="   35.549">  2  3  1 -1</clus>
<clus scale="   46.199">  2  6  1 -1</clus>
<clus scale="   83.632">  1  4  2 -1</clus>
<clus scale="   83.632">  1  3  2 -1</clus>
</clustering>
</event>
<event>
 6    0  0.2117869E+002  0.1188894E+03  0.7546771E-02  0.1244941E+00
         21   -1    0    0  501  502  0.00000000000E+00  0.00000000000E+00  0.33354981476E+03  0.33354981476E+03  0.00000000000E+00 0. -1.
         -3   -1    0    0    0  501 -0.00000000000E+00 -0.00000000000E+00 -0.12570955362E+03  0.12570955362E+03  0.00000000000E+00 0. -1.
         21    1    1    2  503  505  0.30909983982E+02 -0.45494974791E+02 -0.37978498222E+02  0.66840004251E+02  0.00000000000E+00 0. -1.
         21    1    1    2  504  502 -0.49131595739E+02  0.12334405281E+02  0.86096746509E+02  0.99893448298E+02  0.00000000000E+00 0.  1.
         21    1    1    2  505  504  0.36318021094E+02  0.96280167289E+02  0.19314486346E+03  0.21884653881E+03  0.00000000000E+00 0. -1.
         -3    1    1    2    0  503 -0.18096409337E+02 -0.63119597778E+02 -0.33422850608E+02  0.73679377015E+02  0.00000000000E+00 0. -1.
<scales pt_clust_3="47.43536" pt_clust_4="50.65621" pt_clust_5="106.99745" pt_clust_6="47.43536"></scales>
<clustering>
<clus scale="   47.435">  3  6 -1 -1</clus>
<clus scale="   50.656">  1  4  2 -1</clus>
<clus scale="  106.997">  1  5  2 -1</clus>
<clus scale="   50.656">  1  3  2 -1</clus>
</clustering>
</event>
<event>
 6    0  0.2117869E+002  0.1418853E+03  0.7546771E-02  0.1210814E+00
         -4   -1    0    0    0  501 -0.00000000000E+00  0.00000000000E+00  0.28463564786E+03  0.28463564786E+03  0.00000000000E+00 0.  1.
         21   -1    0    0  505  502  0.00000000000E+00 -0.00000000000E+00 -0.81646963532E+03  0.81646963532E+03  0.00000000000E+00 0.  1.
         21    1    1    2  503  502  0.29182126427E+02  0.17949719590E+02 -0.35363940398E+03  0.35529511253E+03  0.00000000000E+00 0.  1.
         21    1    1    2  504  503  0.11232071351E+03 -0.25651580420E+01 -0.37815830574E+03  0.39449490100E+03  0.00000000000E+00 0.  1.
         21    1    1    2  505  501  0.70673872070E+02 -0.27677328707E+02  0.61119312045E+02  0.97449479334E+02  0.00000000000E+00 0. -1.
         -4    1    1    2    0  504 -0.21217671201E+03  0.12292767160E+02  0.13884441022E+03  0.25386579032E+03  0.00000000000E+00 0.  1.
<scales pt_clust_3="34.26060" pt_clust_4="141.88534" pt_clust_5="76.71870" pt_clust_6="14000.00000"></scales>
<clustering>
<clus scale="   34.261">  2  3  1 -1</clus>
<clus scale="   76.719">  1  5  2 -1</clus>
<clus scale="  141.885">  2  4  1 -1</clus>
<clus scale="   34.261">  2  3  1 -1</clus>
</clustering>
</event>
<event>
 6    0  0.2117869E+002  0.1068232E+03  0.7546771E-02  0.1266568E+00
          1   -1    0    0  505    0 -0.00000000000E+00  0.00000000000E+00  0.12716375772E+04  0.12716375772E+04  0.00000000000E+00 0. -1.
         21   -1    0    0  504  502  0.00000000000E+00 -0.00000000000E+00 -0.31435461706E+02  0.31435461706E+02  0.00000000000E+00 0. -1.
         21    1    1    2  503  502  0.27002264431E+02  0.96221213229E+02  0.24129656805E+03  0.26117365471E+03  0.00000000000E+00 0. -1.
         21    1    1    2  504  501  0.31704623455E+02 -0.24952949552E+02  0.34511659933E+02  0.53093196467E+02  0.00000000000E+00 0. -1.
         21    1    1    2  505  503  0.36303087998E+02  0.14000765739E+02  0.62477996708E+03  0.62599036966E+03  0.00000000000E+00 0. -1.
          1    1    1    2  501    0 -0.95009975884E+02 -0.85269029416E+02  0.33961392040E+03  0.36281581805E+03  0.00000000000E+00 0. -1.
<scales pt_clust_3="14000.00000" pt_clust_4="41.75468" pt_clust_5="38.90933" pt_clust_6="106.82321"></scales>
<clustering>
<clus scale="   38.909">  1  5  2 -1</clus>
<clus scale="   41.755">  2  4  1 -1</clus>
<clus scale="  106.823">  1  6  2 -1</clus>
<clus scale="   41.755">  2  3  1 -1</clus>
</clustering>
</event>
<event>
 6    0  0.2117869E+002  0.2020064E+03  0.7546771E-02  0.1148057E+00
         21   -1    0    0  503  502  0.00000000000E+00  0.00000000000E+00  0.37192770937E+03  0.37192770937E+03  0.00000000000E+00 0. -1.
          1   -1    0    0  505    0 -0.00000000000E+00 -0.00000000000E+00 -0.12807133040E+04  0.12807133040E+04  0.00000000000E+00 0. -1.
         21    1    1    2  503  504  0.15260661946E+03 -0.20909913419E+02 -0.11766738235E+03  0.19383399509E+03  0.00000000000E+00 0. -1.
         21    1    1    2  504  501  0.36134220723E+02 -0.34707558303E+02 -0.47413437383E+02  0.68980653484E+02  0.00000000000E+00 0. -1.
         21    1    1    2  505  502  0.36266327304E+01  0.30028420665E+02  0.31350115479E+03  0.31495687414E+03  0.00000000000E+00 0. -1.
          1    1    1    2  501    0 -0.19236747291E+03  0.25589051057E+02 -0.10572059297E+04  0.10748694907E+04  0.00000000000E+00 0. -1.
<scales pt_clust_3="30.65059" pt_clust_4="30.65059" pt_clust_5="30.24663" pt_clust_6="194.17296"></scales>
<clustering>
<clus scale="   30.247">  1  5  2 -1</clus>
<clus scale="   30.651">  3  4 -1 -1</clus>
<clus scale="  194.173">  2  6  1 -1</clus>
<clus scale="   30.247">  1  3  2 -1</clus>
</clustering>
</event>
<event>
 6    0  0.2117869E+002  0.1658248E+03  0.7546771E-02  0.1182273E+00
         21   -1    0    0  505  502  0.00000000000E+00  0.00000000000E+00  0.23025123018E+03  0.23025123018E+03  0.00000000000E+00 0. -1.
          2   -1    0    0  504    0 -0.00000000000E+00 -0.00000000000E+00 -0.41806478190E+03  0.41806478190E+03  0.00000000000E+00 0. -1.
         21    1    1    2  503  501  0.78947456765E+01  0.56514419362E+02  0.88632215195E+01  0.57747409472E+02  0.00000000000E+00 0. -1.
         21    1    1    2  504  502 -0.10976319771E+03  0.66842722856E+02  0.89054477587E+02  0.15635411459E+03  0.00000000000E+00 0. -1.
         21    1    1    2  505  503  0.16262346014E+02  0.29248734192E+02  0.47342504266E+02  0.57976418136E+02  0.00000000000E+00 0. -1.
          2    1    1    2  501    0  0.85606106019E+02 -0.15260587641E+03 -0.33307375509E+03  0.37623806989E+03  0.00000000000E+00 0. -1.
<scales pt_clust_3="62.95828" pt_clust_4="14000.00000" pt_clust_5="33.46569" pt_clust_6="165.82485"></scales>
<clustering>
<clus scale="   33.466">  1  5  2 -1</clus>
<clus scale="   62.958">  1  3  2 -1</clus>
<clus scale="  165.825">  2  6  1 -1</clus>
<clus scale="   33.466">  1  3  2 -1</clus>
</clustering>
</event>
<event>
 6    0  0.2117869E+002  0.9306496E+02  0.7546771E-02  0.1295595E+00
          1   -1    0    0  504    0 -0.00000000000E+00  0.00000000000E+00  0.20898907466E+04  0.20898907466E+04  0.00000000000E+00 0.  1.
         21   -1    0    0  503  502  0.00000000000E+00 -0.00000000000E+00 -0.43197644594E+03  0.43197644594E+03  0.00000000000E+00 0. -1.
         21    1    1    2  503  501 -0.85138756353E+02 -0.37550246934E+02 -0.41029714525E+03  0.42071650345E+03  0.00000000000E+00 0. -1.
         21    1    1    2  504  505  0.13437388619E+02 -0.43206827701E+02  0.41646284206E+02  0.61496393074E+02  0.00000000000E+00 0.  1.
         21    1    1    2  505  502  0.88098343709E+02 -0.23502404979E+02  0.14912132392E+04  0.14939981947E+04  0.00000000000E+00 0.  1.
          1    1    1    2  501    0 -0.16396975975E+02  0.10425947961E+03  0.53535192256E+03  0.54565610132E+03  0.00000000000E+00 0.  1.
<scales pt_clust_3="93.06496" pt_clust_4="45.24813" pt_clust_5="14000.00000" pt_clust_6="91.12129"></scales>
<clustering>
<clus scale="   45.248">  1  4  2 -1</clus>
<clus scale="   93.065">  2  3  1 -1</clus>
<clus scale="   91.121">  2  6  1 -1</clus>
<clus scale="   93.065">  2  3  1 -1</clus>
</clustering>
</event>
<event>
 6    0  0.2117869E+002  0.1089451E+03  0.7546771E-02  0.1262536E+00
         21   -1    0    0  503  502  0.00000000000E+00  0.00000000000E+00  0.24191823311E+03  0.24191823311E+03  0.00000000000E+00 0. -1.
         -4   -1    0    0    0  501 -0.00000000000E+00 -0.00000000000E+00 -0.48357079123E+03  0.48357079123E+03  0.00000000000E+00 0.  1.
         21    1    1    2  503  504  0.10609394610E+02 -0.45959963993E+02  0.13972757718E+03  0.14747431427E+03  0.00000000000E+00 0. -1.
         21    1    1    2  504  501 -0.42039582022E+02 -0.10050479100E+03 -0.20826618248E+03  0.23503902280E+03  0.00000000000E+00 0. -1.
         21    1    1    2  505  502 -0.29606676905E+02  0.55049213703E+02  0.59123958408E+02  0.86038443178E+02  0.00000000000E+00 0. -1.
         -4    1    1    2    0  505  0.61036864317E+02  0.91415541292E+02 -0.23223791122E+03  0.25693724410E+03  0.00000000000E+00 0.  1.
<scales pt_clust_3="47.16861" pt_clust_4="108.94507" pt_clust_5="30.33448" pt_clust_6="14000.00000"></scales>
<clustering>
<clus scale="   47.169">  1  3  2 -1</clus>
<clus scale="   30.334">  1  5  2 -1</clus>
<clus scale="  108.945">  1  4  2 -1</clus>
<clus scale="   47.169">  1  3  2 -1</clus>
</clustering>
</event>
<event>
 6    0  0.2117869E+002  0.1290074E+03  0.7546771E-02  0.1228936E+00
         21   -1    0    0  504  502  0.00000000000E+00  0.00000000000E+00  0.92743177261E+03  0.92743177261E+03  0.00000000000E+00 0.  1.
          4   -1    0    0  503    0 -0.00000000000E+00 -0.00000000000E+00 -0.27573574946E+03  0.27573574946E+03  0.00000000000E+00 0.  1.
         21    1    1    2  503  505  0.26777548293E+02  0.38472688118E+02 -0.21160425990E+03  0.21673381746E+03  0.00000000000E+00 0.  1.
         21    1    1    2  504  501  0.64566541973E+02 -0.72631949550E+02  0.52294587750E+02  0.11035833610E+03  0.00000000000E+00 0.  1.
         21    1    1    2  505  502 -0.14138025878E+03  0.47717654193E+01  0.80545457819E+03  0.81778250461E+03  0.00000000000E+00 0.  1.
          4    1    1    2  501    0  0.50036168512E+02  0.29387496012E+02  0.55511171049E+01  0.58292863906E+02  0.00000000000E+00 0.  1.
<scales pt_clust_3="46.87414" pt_clust_4="14000.00000" pt_clust_5="129.00740" pt_clust_6="76.72483"></scales>
<clustering>
<clus scale="   46.874">  2  3  1 -1</clus>
<clus scale="   76.725">  2  6  1 -1</clus>
<clus scale="  129.007">  1  5  2 -1</clus>
<clus scale="  129.007">  1  3  2 -1</clus>
</clustering>
</event>
<event>
 6    0  0.2117869E+002  0.7652138E+02  0.7546771E-02  0.1339224E+00
         21   -1    0    0  503  502  0.00000000000E+00  0.00000000000E+00  0.15254263343E+02  0.15254263343E+02  0.00000000000E+00 0.  1.
          2   -1    0    0  502    0 -0.00000000000E+00 -0.00000000000E+00 -0.32084710843E+04  0.32084710843E+04  0.00000000000E+00 0. -1.
         21    1    1    2  503  504  0.17889276417E+02  0.64296580182E+02 -0.15040559602E+03  0.16454762152E+03  0.00000000000E+00 0.  1.
         21    1    1    2  504  505  0.87821972963E+01 -0.10467297225E+03 -0.38686997086E+03  0.40087645536E+03  0.00000000000E+00 0.  1.
         21    1    1    2  505  501 -0.59009152443E+02  0.56539724944E+01 -0.10612955701E+04  0.10629498269E+04  0.00000000000E+00 0. -1.
          2    1    1    2  501    0  0.32337678729E+02  0.34722419572E+02 -0.15946456840E+04  0.15953514438E+04  0.00000000000E+00 0. -1.
<scales pt_clust_3="14000.00000" pt_clust_4="76.52138" pt_clust_5="47.28446" pt_clust_6="47.44862"></scales>
<clustering>
<clus scale="   47.449">  2  6  1 -1</clus>
<clus scale="   47.284">  2  5  1 -1</clus>
<clus scale="   76.521">  2  4  1 -1</clus>
<clus scale="   76.521">  1  3  2 -1</clus>
</clustering>
</event>
<event>
 6    0  0.2117869E+002  0.8556092E+02  0.7546771E-02  0.1313972E+00
         21   -1    0    0  505  502  0.00000000000E+00  0.00000000000E+00  0.10419947551E+03  0.10419947551E+03  0.00000000000E+00 0. -1.
         -1   -1    0    0    0  501 -0.00000000000E+00 -0.00000000000E+00 -0.32434043187E+03  0.32434043187E+03  0.00000000000E+00 0. -1.
         21    1    1    2  503  504  0.15255904239E+02 -0.11115777755E+03 -0.85699896945E+01  0.11252661395E+03  0.00000000000E+00 0. -1.
         21    1    1    2  504  501 -0.28725371512E+01 -0.34560453262E+02 -0.57318230954E+02  0.66992954846E+02  0.00000000000E+00 0. -1.
         21    1    1    2  505  503 -0.32598451341E+02  0.64165091820E+02  0.15704173460E+01  0.71988084075E+02  0.00000000000E+00 0. -1.
         -1    1    1    2    0  502  0.20215084253E+02  0.81553138991E+02 -0.15582315305E+03  0.17703225451E+03  0.00000000000E+00 0. -1.
<scales pt_clust_3="14000.00000" pt_clust_4="34.67963" pt_clust_5="85.56092" pt_clust_6="62.38763"></scales>
<clustering>
<clus scale="   34.680">  2  4  1 -1</clus>
<clus scale="   62.388">  2  6  1 -1</clus>
<clus scale="   85.561">  1  5  2 -1</clus>
<clus scale="   85.561">  1  3  2 -1</clus>
</clustering>
</event>
<event>
 6    0  0.2117869E+002  0.9446562E+02  0.7546771E-02  0.1292384E+00
         21   -1    0    0  504  502  0.00000000000E+00  0.00000000000E+00  0.74332031008E+02  0.74332031008E+02  0.00000000000E+00 0.  1.
         -1   -1    0    0    0  501 -0.00000000000E+00 -0.00000000000E+00 -0.12255890665E+04  0.12255890665E+04  0.00000000000E+00 0. -1.
         21    1    1    2  503  502 -0.44256467667E+02  0.32676566892E+02 -0.88380601397E+01  0.55718078406E+02  0.00000000000E+00 0.  1.
         21    1    1    2  504  505 -0.36588544832E+02 -0.44106250652E+02  0.22145417245E+02  0.61436979617E+02  0.00000000000E+00 0.  1.
         21    1    1    2  505  501  0.68372226921E+02 -0.83736259673E+02 -0.70964819866E+03  0.71783500086E+03  0.00000000000E+00 0. -1.
         -1    1    1    2    0  503  0.12472785579E+02  0.95165943433E+02 -0.45491619392E+03  0.46493103861E+03  0.00000000000E+00 0. -1.
<scales pt_clust_3="55.01266" pt_clust_4="74.94839" pt_clust_5="14000.00000" pt_clust_6="94.46562"></scales>
<clustering>
<clus scale="   55.013">  1  3  2 -1</clus>
<clus scale="   74.948">  1  4  2 -1</clus>
<clus scale="   94.466">  1  6  2 -1</clus>
<clus scale="   55.013">  1  3  2 -1</clus>
</clustering>
</event>
<event>
 6    0  0.2117869E+002  0.2298139E+03  0.7546771E-02  0.1126771E+00
         21   -1    0    0  505  502  0.00000000000E+00  0.00000000000E+00  0.16396831741E+04  0.16396831741E+04  0.00000000000E+00 0.  1.
          1   -1    0    0  503    0 -0.00000000000E+00 -0.00000000000E+00 -0.10040974499E+04  0.10040974499E+04  0.00000000000E+00 0. -1.
         21    1    1    2  503  502  0.46698203198E+02  0.89158053016E+02 -0.26570333694E+02  0.10409545250E+03  0.00000000000E+00 0.  1.
         21    1    1    2  504  501  0.19305962135E+03  0.95316875672E+01  0.13323816032E+04  0.13463296800E+04  0.00000000000E+00 0.  1.
         21    1    1    2  505  504  0.21860440148E+02  0.28565714016E+02  0.23746903805E+03  0.24017789843E+03  0.00000000000E+00 0.  1.
          1    1    1    2  501    0 -0.26161826469E+03 -0.12725545460E+03 -0.90769458347E+03  0.95317759311E+03  0.00000000000E+00 0. -1.
<scales pt_clust_3="100.64731" pt_clust_4="30.29901" pt_clust_5="30.29901" pt_clust_6="218.81771"></scales>
<clustering>
<clus scale="   30.299">  4  5 -1 -1</clus>
<clus scale="  100.647">  2  3  1 -1</clus>
<clus scale="  218.818">  2  6  1 -1</clus>
<clus scale="  229.814">  1  3  2 -1</clus>
</clustering>
</event>
<event>
 6    0  0.2117869E+002  0.1269448E+03  0.7546771E-02  0.1232061E+00
          2   -1    0    0  504    0 -0.00000000000E+00  0.00000000000E+00  0.37984953638E+03  0.37984953638E+03  0.00000000000E+00 0.  1.
         21   -1    0    0  501  502  0.00000000000E+00 -0.00000000000E+00 -0.21250827885E+03  0.21250827885E+03  0.00000000000E+00 0.  1.
         21    1    1    2  503  505  0.86428932505E+02  0.34200289146E+02 -0.12275614024E+03  0.15397626479E+03  0.00000000000E+00 0.  1.
         21    1    1    2  504  503  0.14907711040E+02  0.26819586877E+02  0.29133859784E+02  0.42312077172E+02  0.00000000000E+00 0.  1.
         21    1    1    2  505  502  0.13416520721E+01  0.61407558038E+02 -0.26726147916E+02  0.66984887825E+02  0.00000000000E+00 0. -1.
          2    1    1    2  501    0 -0.10267829562E+03 -0.12242743406E+03  0.28768968590E+03  0.32908458544E+03  0.00000000000E+00 0.  1.
<scales pt_clust_3="126.94485" pt_clust_4="30.68436" pt_clust_5="63.01524" pt_clust_6="14000.00000"></scales>
<clustering>
<clus scale="   30.684">  1  4  2 -1</clus>
<clus scale="   63.015">  2  5  1 -1</clus>
<clus scale="  126.945">  2  3  1 -1</clus>
<clus scale="   63.015">  2  3  1 -1</clus>
</clustering>
</event>
<event>
 6    0  0.2117869E+002  0.2166032E+03  0.7546771E-02  0.1136441E+00
          2   -1    0    0  503    0 -0.00000000000E+00  0.00000000000E+00  0.24724892424E+04  0.24724892424E+04  0.00000000000E+00 0. -1.
         21   -1    0    0  501  502  0.00000000000E+00 -0.00000000000E+00 -0.57097284968E+02  0.57097284968E+02  0.00000000000E+00 0. -1.
         21    1    1    2  503  504  0.78214405483E+02  0.57952492510E+02  0.48007100095E+03  0.48984094415E+03  0.00000000000E+00 0. -1.
         21    1    1    2  504  505  0.55966566717E+02  0.97346589331E+02  0.81672481784E+03  0.82440769229E+03  0.00000000000E+00 0. -1.
         21    1    1    2  505  502 -0.40404025149E+02  0.39568880422E+02 -0.17221003539E+02  0.59116364139E+02  0.00000000000E+00 0. -1.
          2    1    1    2  501    0 -0.93776947051E+02 -0.19486796226E+03  0.11358171422E+04  0.11562215268E+04  0.00000000000E+00 0. -1.
<scales pt_clust_3="54.67097" pt_clust_4="54.67097" pt_clust_5="56.55247" pt_clust_6="208.49272"></scales>
<clustering>
<clus scale="   54.671">  3  4 -1 -1</clus>
<clus scale="   56.552">  2  5  1 -1</clus>
<clus scale="  208.493">  2  6  1 -1</clus>
<clus scale="   56.552">  2  3  1 -1</clus>
</clustering>
</event>
<event>
 6    0  0.2117869E+002  0.9197875E+02  0.7546771E-02  0.1298129E+00
         -3   -1    0    0    0  501 -0.00000000000E+00  0.00000000000E+00  0.73824113052E+02  0.73824113052E+02  0.00000000000E+00 0.  1.
         21   -1    0    0  503  502  0.00000000000E+00 -0.00000000000E+00 -0.94619866240E+03  0.94619866240E+03  0.00000000000E+00 0. -1.
         21    1    1    2  503  504 -0.70532468429E+02 -0.47377919775E+02 -0.69607967750E+03  0.70124632892E+03  0.00000000000E+00 0. -1.
         21    1    1    2  504  501 -0.23100362684E+02 -0.41531462592E+02 -0.44706737950E+02  0.65247080849E+02  0.00000000000E+00 0.  1.
         21    1    1    2  505  502 -0.18099183136E+02  0.27313690346E+02 -0.12116673470E+03  0.12551890578E+03  0.00000000000E+00 0.  1.
         -3    1    1    2    0  505  0.11173201425E+03  0.61595692021E+02 -0.10421399192E+02  0.12801045990E+03  0.00000000000E+00 0.  1.
<scales pt_clust_3="91.97875" pt_clust_4="46.55716" pt_clust_5="32.76611" pt_clust_6="14000.00000"></scales>
<clustering>
<clus scale="   32.766">  2  5  1 -1</clus>
<clus scale="   46.557">  1  4  2 -1</clus>
<clus scale="   91.979">  2  3  1 -1</clus>
<clus scale="   32.766">  2  3  1 -1</clus>
</clustering>
</event>
<event>
 6    0  0.2117869E+002  0.7345213E+02  0.7546771E-02  0.1348732E+00
          1   -1    0    0  504    0 -0.00000000000E+00  0.00000000000E+00  0.22316608378E+04  0.22316608378E+04  0.00000000000E+00 0. -1.
         21   -1    0    0  505  502  0.00000000000E+00 -0.00000000000E+00 -0.19327565339E+03  0.19327565339E+03  0.00000000000E+00 0. -1.
         21    1    1    2  503  502  0.26834043457E+02  0.10175955672E+03 -0.16307989999E+03  0.19408793639E+03  0.00000000000E+00 0. -1.
         21    1    1    2  504  503 -0.52524723450E+02  0.20285696399E+02  0.20561594839E+03  0.21318600865E+03  0.00000000000E+00 0.  1.
         21    1    1    2  505  501 -0.13219123794E+02 -0.30669614541E+02  0.19205745151E+02  0.38525720458E+02  0.00000000000E+00 0. -1.
          1    1    1    2  501    0  0.38909803788E+02 -0.91375638575E+02  0.19766433909E+04  0.19791368257E+04  0.00000000000E+00 0. -1.
<scales pt_clust_3="73.45213" pt_clust_4="56.33654" pt_clust_5="33.39716" pt_clust_6="14000.00000"></scales>
<clustering>
<clus scale="   33.397">  2  5  1 -1</clus>
<clus scale="   56.337">  1  4  2 -1</clus>
<clus scale="   73.452">  2  3  1 -1</clus>
<clus scale="   33.397">  2  3  1 -1</clus>
</clustering>
</event>
<event>
 6    0  0.2117869E+002  0.1083656E+03  0.7546771E-02  0.1263627E+00
         -1   -1    0    0    0  501 -0.00000000000E+00  0.00000000000E+00  0.44571784954E+03  0.44571784954E+03  0.00000000000E+00 0.  1.
         21   -1    0    0  503  502  0.00000000000E+00 -0.00000000000E+00 -0.30575215069E+03  0.30575215069E+03  0.00000000000E+00 0. -1.
         21    1    1    2  503  505 -0.35331497479E+02 -0.32733841077E+02 -0.11846066942E+03  0.12787786855E+03  0.00000000000E+00 0. -1.
         21    1    1    2  504  502 -0.30530076252E+02  0.44539050559E+02 -0.15114012934E+03  0.16049657715E+03  0.00000000000E+00 0. -1.
         21    1    1    2  505  501 -0.46381913409E+02 -0.13439663295E+02  0.11687317793E+02  0.49683999820E+02  0.00000000000E+00 0.  1.
         -1    1    1    2    0  504  0.11224348714E+03  0.16344538127E+01  0.39787917981E+03  0.41341155471E+03  0.00000000000E+00 0.  1.
<scales pt_clust_3="48.16450" pt_clust_4="14000.00000" pt_clust_5="52.81675" pt_clust_6="108.36557"></scales>
<clustering>
<clus scale="   48.165">  2  3  1 -1</clus>
<clus scale="   52.817">  2  5  1 -1</clus>
<clus scale="  108.366">  1  6  2 -1</clus>
<clus scale="   48.165">  2  3  1 -1</clus>
</clustering>
</event>
<event>
 6    0  0.2117869E+002  0.1323500E+03  0.7546771E-02  0.1224010E+00
          2   -1    0    0  504    0 -0.00000000000E+00  0.00000000000E+00  0.27162520971E+04  0.27162520971E+04  0.00000000000E+00 0. -1.
         21   -1    0    0  503  502  0.00000000000E+00 -0.00000000000E+00 -0.11389698814E+02  0.11389698814E+02  0.00000000000E+00 0.  1.
         21    1    1    2  503  501 -0.44554353598E+02 -0.22951662083E+02  0.39064047013E+03  0.39384241280E+03  0.00000000000E+00 0.  1.
         21    1    1    2  504  505  0.35996499746E+02 -0.67052660119E+01  0.38623200064E+03  0.38796374432E+03  0.00000000000E+00 0.  1.
         21    1    1    2  505  502  0.72805883534E+02  0.91248472309E+02  0.44112660658E+03  0.45631092843E+03  0.00000000000E+00 0.  1.
          2    1    1    2  501    0 -0.64248029681E+02 -0.61591544213E+02  0.14868633210E+04  0.14895247104E+04  0.00000000000E+00 0. -1.
<scales pt_clust_3="42.31913" pt_clust_4="36.61569" pt_clust_5="120.21143" pt_clust_6="42.31913"></scales>
<clustering>
<clus scale="   36.616">  1  4  2 -1</clus>
<clus scale="   42.319">  3  6 -1 -1</clus>
<clus scale="  120.211">  2  5  1 -1</clus>
<clus scale="  120.211">  2  3  1 -1</clus>
</clustering>
</event>
<event>
 6    0  0.2117869E+002  0.1470988E+03  0.7546771E-02  0.1204084E+00
         21   -1    0    0  504  502  0.00000000000E+00  0.00000000000E+00  0.29112039356E+03  0.29112039356E+03  0.00000000000E+00 0.  1.
         -1   -1    0    0    0  501 -0.00000000000E+00 -0.00000000000E+00 -0.43900607134E+03  0.43900607134E+03  0.00000000000E+00 0. -1.
         21    1    1    2  503  501  0.20021792243E+01 -0.13030320656E+03 -0.13278923544E+03  0.18605352835E+03  0.00000000000E+00 0. -1.
         21    1    1    2  504  503  0.95564126866E+02  0.50436969878E+02  0.18257313001E+03  0.21215404327E+03  0.00000000000E+00 0.  1.
         21    1    1    2  505  502  0.36742412834E+02  0.59115940958E+02  0.22528679869E+02  0.73159010333E+02  0.00000000000E+00 0.  1.
         -1    1    1    2    0  505 -0.13430871893E+03  0.20750295725E+02 -0.22019825222E+03  0.25875988296E+03  0.00000000000E+00 0. -1.
<scales pt_clust_3="123.97808" pt_clust_4="147.09877" pt_clust_5="69.60387" pt_clust_6="14000.00000"></scales>
<clustering>
<clus scale="   69.604">  1  5  2 -1</clus>
<clus scale="  123.978">  2  3  1 -1</clus>
<clus scale="  147.099">  1  4  2 -1</clus>
<clus scale="   69.604">  1  3  2 -1</clus>
</clustering>
</event>
<event>
 6    0  0.2117869E+002  0.1052895E+03  0.7546771E-02  0.1269550E+00
         21   -1    0    0  503  502  0.00000000000E+00  0.00000000000E+00  0.30347968023E+03  0.30347968023E+03  0.00000000000E+00 0.  1.
          1   -1    0    0  505    0 -0.00000000000E+00 -0.00000000000E+00 -0.37834399246E+03  0.37834399246E+03  0.00000000000E+00 0. -1.
         21    1    1    2  503  504 -0.11739482534E+03  0.40312783937E+02  0.23991678431E+03  0.27012354388E+03  0.00000000000E+00 0.  1.
         21    1    1    2  504  501  0.59710630051E+02 -0.31251710115E+02  0.58969011624E+01  0.67652067001E+02  0.00000000000E+00 0.  1.
         21    1    1    2  505  502 -0.91001105980E+00  0.40899579045E+02 -0.16977300741E+03  0.17463240745E+03  0.00000000000E+00 0. -1.
          1    1    1    2  501    0  0.58594206344E+02 -0.49960652868E+02 -0.15090499028E+03  0.16941565437E+03  0.00000000000E+00 0. -1.
<scales pt_clust_3="105.28951" pt_clust_4="14000.00000" pt_clust_5="40.90970" pt_clust_6="60.67604"></scales>
<clustering>
<clus scale="   40.910">  2  5  1 -1</clus>
<clus scale="   60.676">  2  6  1 -1</clus>
<clus scale="  105.290">  1  3  2 -1</clus>
<clus scale="  105.290">  1  3  2 -1</clus>
</clustering>
</event>
<event>
 6    0  0.2117869E+002  0.7355867E+02  0.7546771E-02  0.1348393E+00
         21   -1    0    0  505  502  0.00000000000E+00  0.00000000000E+00  0.69090755404E+03  0.69090755404E+03  0.00000000000E+00 0.  1.
          2   -1    0    0  504    0 -0.00000000000E+00 -0.00000000000E+00 -0.20849340308E+04  0.20849340308E+04  0.00000000000E+00 0. -1.
         21    1    1    2  503  502 -0.81672202737E+02  0.11698883032E+02  0.52383484301E+02  0.97730455803E+02  0.00000000000E+00 0.  1.
         21    1    1    2  504  503 -0.43320822414E+02  0.27613479710E+01 -0.27909650107E+03  0.28245207666E+03  0.00000000000E+00 0.  1.
         21    1    1    2  505  501  0.23740158975E+02  0.32909943359E+02  0.61174633625E+03  0.61309072692E+03  0.00000000000E+00 0.  1.
          2    1    1    2  501    0  0.10125286618E+03 -0.47370174362E+02 -0.17790597963E+04  0.17825683255E+04  0.00000000000E+00 0. -1.
<scales pt_clust_3="14000.00000" pt_clust_4="42.95332" pt_clust_5="40.57905" pt_clust_6="73.55867"></scales>
<clustering>
<clus scale="   40.579">  1  5  2 -1</clus>
<clus scale="   42.953">  2  4  1 -1</clus>
<clus scale="   73.559">  2  6  1 -1</clus>
<clus scale="   40.579">  1  3  2 -1</clus>
</clustering>
</event>
<event>
 6    0  0.2117869E+002  0.9512933E+02  0.7546771E-02  0.1290885E+00
          2   -1    0    0  505    0 -0.00000000000E+00  0.00000000000E+00  0.17703186263E+04  0.17703186263E+04  0.00000000000E+00 0.  1.
         21   -1    0    0  503  502  0.00000000000E+00 -0.00000000000E+00 -0.13263215718E+03  0.13263215718E+03  0.00000000000E+00 0.  1.
         21    1    1    2  503  504 -0.78979473170E+01 -0.37280769723E+02  0.38795952114E+02  0.54381607768E+02  0.00000000000E+00 0.  1.
         21    1    1    2  504  501  0.13567321505E+03 -0.38761559563E+02  0.88794726256E+03  0.89908843884E+03  0.00000000000E+00 0.  1.
         21    1    1    2  505  502 -0.49605368354E+02  0.62259188707E+02 -0.10383898355E+03  0.13084125364E+03  0.00000000000E+00 0.  1.
          2    1    1    2  501    0 -0.78169899378E+02  0.13783140579E+02  0.81478223803E+03  0.81863948326E+03  0.00000000000E+00 0.  1.
<scales pt_clust_3="38.10818" pt_clust_4="95.12933" pt_clust_5="63.19104" pt_clust_6="14000.00000"></scales>
<clustering>
<clus scale="   38.108">  2  3  1 -1</clus>
<clus scale="   63.191">  2  5  1 -1</clus>
<clus scale="   95.129">  2  4  1 -1</clus>
<clus scale="   38.108">  2  3  1 -1</clus>
</clustering>
</event>
<event>
 6    0  0.2117869E+002  0.1196222E+03  0.7546771E-02  0.1243722E+00
         -4   -1    0    0    0  501 -0.00000000000E+00  0.00000000000E+00  0.16961568065E+03  0.16961568065E+03  0.00000000000E+00 0.  1.
         21   -1    0    0  503  502  0.00000000000E+00 -0.00000000000E+00 -0.17327038659E+04  0.17327038659E+04  0.00000000000E+00 0.  1.
         21    1    1    2  503  501 -0.70143078140E+02  0.63424325330E+02 -0.11128309406E+04  0.11168417072E+04  0.00000000000E+00 0.  1.
         21    1    1    2  504  505 -0.40106613024E+02 -0.29110243761E+01 -0.64750714906E+02  0.76221188340E+02  0.00000000000E+00 0.  1.
         21    1    1    2  505  502 -0.75074499110E+01 -0.35516411288E+02 -0.52428603862E+03  0.52554127104E+03  0.00000000000E+00 0.  1.
         -4    1    1    2    0  504  0.11775714107E+03 -0.24996889666E+02  0.13877950889E+03  0.18371538002E+03  0.00000000000E+00 0.  1.
<scales pt_clust_3="14000.00000" pt_clust_4="40.84989" pt_clust_5="36.30120" pt_clust_6="119.62219"></scales>
<clustering>
<clus scale="   36.301">  2  5  1 -1</clus>
<clus scale="   40.850">  2  4  1 -1</clus>
<clus scale="  119.622">  1  6  2 -1</clus>
<clus scale="   36.301">  2  3  1 -1</clus>
</clustering>
</event>
<event>
 6    0  0.2117869E+002  0.1350950E+03  0.7546771E-02  0.1220086E+00
         21   -1    0    0  504  502  0.00000000000E+00  0.00000000000E+00  0.27049190237E+03  0.27049190237E+03  0.00000000000E+00 0.  1.
          2   -1    0    0  503    0 -0.00000000000E+00 -0.00000000000E+00 -0.10279316029E+04  0.10279316029E+04  0.00000000000E+00 0.  1.
         21    1    1    2  503  505 -0.42393287888E+02 -0.55533050204E+02 -0.28481397080E+03  0.29325775094E+03  0.00000000000E+00 0.  1.
         21    1    1    2  504  501  0.11974339542E+03 -0.18020108872E+02  0.22318719325E+03  0.25392071263E+03  0.00000000000E+00 0.  1.
         21    1    1    2  505  502  0.30171352567E+01 -0.42332852401E+02 -0.11965639476E+01  0.42457099087E+02  0.00000000000E+00 0.  1.
          2    1    1    2  501    0 -0.80367242788E+02  0.11588601148E+03 -0.69461635902E+03  0.70878794261E+03  0.00000000000E+00 0.  1.
<scales pt_clust_3="70.40417" pt_clust_4="135.09502" pt_clust_5="42.44023" pt_clust_6="14000.00000"></scales>
<clustering>
<clus scale="   42.440">  1  5  2 -1</clus>
<clus scale="   70.404">  2  3  1 -1</clus>
<clus scale="  135.095">  1  4  2 -1</clus>
<clus scale="   42.440">  1  3  2 -1</clus>
</clustering>
</event>
<event>
 6    0  0.2500954E+002  0.6106518E+02  0.7546771E-02  0.1393415E+00
         21   -1    0    0  501  502  0.00000000000E+00  0.00000000000E+00  0.54769343769E+03  0.54769343769E+03  0.00000000000E+00 0. -1.
          2   -1    0    0  503    0 -0.00000000000E+00 -0.00000000000E+00 -0.12517313268E+04  0.12517313268E+04  0.00000000000E+00 0. -1.
         21    1    1    2  503  504  0.34883938580E+02 -0.15855969348E+02 -0.38984642140E+02  0.54663545966E+02  0.00000000000E+00 0.  1.
         21    1    1    2  504  505  0.11023547072E+02  0.60316285861E+02 -0.45407818060E+02  0.76298380528E+02  0.00000000000E+00 0. -1.
         21    1    1    2  505  502  0.55853702771E+02  0.24452529959E+02  0.51931943134E+03  0.52288644475E+03  0.00000000000E+00 0. -1.
          2    1    1    2  501    0 -0.10176118842E+03 -0.68912846472E+02 -0.11389648602E+04  0.11455763932E+04  0.00000000000E+00 0. -1.
<scales pt_clust_3="38.31842" pt_clust_4="60.87330" pt_clust_5="14000.00000" pt_clust_6="61.06518"></scales>
<clustering>
<clus scale="   38.318">  2  3  1 -1</clus>
<clus scale="   60.873">  2  4  1 -1</clus>
<clus scale="   61.065">  2  6  1 -1</clus>
<clus scale="   61.065">  1  3  2 -1</clus>
</clustering>
</event>
<event>
 6    0  0.2117869E+002  0.1163076E+03  0.7546771E-02  0.1249316E+00
          2   -1    0    0  504    0 -0.00000000000E+00  0.00000000000E+00  0.77519450127E+03  0.77519450127E+03  0.00000000000E+00 0.  1.
         21   -1    0    0  503  502  0.00000000000E+00 -0.00000000000E+00 -0.66539043182E+02  0.66539043182E+02  0.00000000000E+00 0.  1.
         21    1    1    2  503  501 -0.91548516555E+02  0.20482860486E+02  0.92429004476E+02  0.13169585918E+03  0.00000000000E+00 0.  1.
         21    1    1    2  504  505 -0.35636035619E+02 -0.69341978996E+01  0.39701502342E+03  0.39867146745E+03  0.00000000000E+00 0.  1.
         21    1    1    2  505  502 -0.22531502044E+02 -0.29027016341E+02 -0.91466861755E+01  0.37866847373E+02  0.00000000000E+00 0. -1.
          2    1    1    2  501    0  0.14971605422E+03  0.15478353755E+02  0.22835811636E+03  0.27349937045E+03  0.00000000000E+00 0.  1.
<scales pt_clust_3="14000.00000" pt_clust_4="36.30441" pt_clust_5="37.79650" pt_clust_6="116.30758"></scales>
<clustering>
<clus scale="   36.304">  1  4  2 -1</clus>
<clus scale="   37.797">  2  5  1 -1</clus>
<clus scale="  116.308">  1  6  2 -1</clus>
<clus scale="   37.797">  2  3  1 -1</clus>
</clustering>
</event>
<event>
 6    0  0.2117869E+002  0.6924481E+02  0.7546771E-02  0.1362680E+00
          2   -1    0    0  505    0 -0.00000000000E+00  0.00000000000E+00  0.11100686825E+04  0.11100686825E+04  0.00000000000E+00 0. -1.
         21   -1    0    0  503  502  0.00000000000E+00 -0.00000000000E+00 -0.32363116933E+03  0.32363116933E+03  0.00000000000E+00 0. -1.
         21    1    1    2  503  501  0.25976585381E+02  0.34878911151E+02 -0.80906182300E+01  0.44235500839E+02  0.00000000000E+00 0.  1.
         21    1    1    2  504  502 -0.48583070227E+02 -0.10016417746E+03 -0.28413629335E+03  0.30516652889E+03  0.00000000000E+00 0. -1.
         21    1    1    2  505  504 -0.32734571593E+02  0.19004478049E+02  0.41572019780E+03  0.41743982228E+03  0.00000000000E+00 0.  1.
          2    1    1    2  501    0  0.55341056439E+02  0.46280788257E+02  0.66294422693E+03  0.66685799981E+03  0.00000000000E+00 0. -1.
<scales pt_clust_3="43.38805" pt_clust_4="69.24481" pt_clust_5="37.85132" pt_clust_6="14000.00000"></scales>
<clustering>
<clus scale="   37.851">  1  5  2 -1</clus>
<clus scale="   43.388">  2  3  1 -1</clus>
<clus scale="   69.245">  2  4  1 -1</clus>
<clus scale="   43.388">  2  3  1 -1</clus>
</clustering>
</event>
<event>
 6    0  0.2117869E+002  0.7856691E+02  0.7546771E-02  0.1333168E+00
         21   -1    0    0  503  502  0.00000000000E+00  0.00000000000E+00  0.30511136835E+03  0.30511136835E+03  0.00000000000E+00 0.  1.
          2   -1    0    0  504    0 -0.00000000000E+00 -0.00000000000E+00 -0.65108018244E+03  0.65108018244E+03  0.00000000000E+00 0. -1.
         21    1    1    2  503  505  0.16187417655E+02 -0.31147443761E+02  0.23029625963E+03  0.23295613953E+03  0.00000000000E+00 0.  1.
         21    1    1    2  504  502 -0.61538805267E+02  0.55256896503E+02 -0.12419061156E+03  0.14921011080E+03  0.00000000000E+00 0. -1.
         21    1    1    2  505  501  0.30934562248E+02  0.55772058839E+02  0.40011956978E+02  0.75288952641E+02  0.00000000000E+00 0. -1.
          2    1    1    2  501    0  0.14416825364E+02 -0.79881511581E+02 -0.49208641913E+03  0.49873634782E+03  0.00000000000E+00 0. -1.
<scales pt_clust_3="35.10265" pt_clust_4="14000.00000" pt_clust_5="53.72040" pt_clust_6="78.56691"></scales>
<clustering>
<clus scale="   35.103">  1  3  2 -1</clus>
<clus scale="   53.720">  1  5  2 -1</clus>
<clus scale="   78.567">  2  6  1 -1</clus>
<clus scale="   35.103">  1  3  2 -1</clus>
</clustering>
</event>
<event>
 6    0  0.2117869E+002  0.9906753E+02  0.7546771E-02  0.1282269E+00
         21   -1    0    0  505  502  0.00000000000E+00  0.00000000000E+00  0.32544849205E+03  0.32544849205E+03  0.00000000000E+00 0. -1.
          2   -1    0    0  504    0 -0.00000000000E+00 -0.00000000000E+00 -0.18294977870E+04  0.18294977870E+04  0.00000000000E+00 0. -1.
         21    1    1    2  503  502 -0.72634243240E+02 -0.24220797580E+02  0.28641095279E+03  0.29646857204E+03  0.00000000000E+00 0. -1.
         21    1    1    2  504  503 -0.24533726292E+02 -0.28437931241E+02 -0.66330321515E+03  0.66436569364E+03  0.00000000000E+00 0. -1.
         21    1    1    2  505  501 -0.24251282326E+02  0.44503544864E+02  0.89839328345E+01  0.51472334793E+02  0.00000000000E+00 0.  1.
          2    1    1    2  501    0  0.12141925186E+03  0.81551839575E+01 -0.11361409654E+04  0.11426396786E+04  0.00000000000E+00 0. -1.
<scales pt_clust_3="14000.00000" pt_clust_4="37.55822" pt_clust_5="50.44517" pt_clust_6="99.06753"></scales>
<clustering>
<clus scale="   37.558">  2  4  1 -1</clus>
<clus scale="   50.445">  1  5  2 -1</clus>
<clus scale="   99.068">  2  6  1 -1</clus>
<clus scale="   50.445">  1  3  2 -1</clus>
</clustering>
</event>
<event>
 6    0  0.2117869E+002  0.1265079E+03  0.7546771E-02  0.1232731E+00
         21   -1    0    0  503  502  0.00000000000E+00  0.00000000000E+00  0.37602021894E+03  0.37602021894E+03  0.00000000000E+00 0. -1.
          2   -1    0    0  505    0 -0.00000000000E+00 -0.00000000000E+00 -0.10482532923E+04  0.10482532923E+04  0.00000000000E+00 0.  1.
         21    1    1    2  503  501 -0.10449621051E+03  0.71393574181E+02  0.35021808213E+03  0.37238314341E+03  0.00000000000E+00 0. -1.
         21    1    1    2  504  502  0.18210867530E+02 -0.31195079139E+02 -0.32864011243E+02  0.48834535870E+02  0.00000000000E+00 0.  1.
         21    1    1    2  505  504 -0.35065804666E+02 -0.42370604688E-01 -0.17212622681E+03  0.17566174999E+03  0.00000000000E+00 0.  1.
          2    1    1    2  501    0  0.12135114764E+03 -0.40156124437E+02 -0.81746091740E+03  0.82739408195E+03  0.00000000000E+00 0.  1.
<scales pt_clust_3="14000.00000" pt_clust_4="35.32575" pt_clust_5="35.06583" pt_clust_6="126.50792"></scales>
<clustering>
<clus scale="   35.066">  2  5  1 -1</clus>
<clus scale="   35.326">  2  4  1 -1</clus>
<clus scale="  126.508">  2  6  1 -1</clus>
<clus scale="  126.508">  1  3  2 -1</clus>
</clustering>
</event>
<event>
 6    0  0.2117869E+002  0.2302264E+03  0.7546771E-02  0.1126481E+00
         21   -1    0    0  501  502  0.00000000000E+00  0.00000000000E+00  0.47558939768E+03  0.47558939768E+03  0.00000000000E+00 0. -1.
          1   -1    0    0  504    0 -0.00000000000E+00 -0.00000000000E+00 -0.70854563994E+03  0.70854563994E+03  0.00000000000E+00 0. -1.
         21    1    1    2  503  505  0.17002133197E+03 -0.15400618156E+03  0.32286300418E+03  0.39606271820E+03  0.00000000000E+00 0. -1.
         21    1    1    2  504  503 -0.12222100199E+03 -0.55342105292E+02 -0.44090376709E+03  0.46086533150E+03  0.00000000000E+00 0. -1.
         21    1    1    2  505  502  0.40715500106E+02  0.27126051086E+02  0.47019663810E+02  0.67855901594E+02  0.00000000000E+00 0. -1.
          1    1    1    2  501    0 -0.88515830092E+02  0.18222223576E+03 -0.16193514316E+03  0.25935108632E+03  0.00000000000E+00 0. -1.
<scales pt_clust_3="230.22640" pt_clust_4="133.01453" pt_clust_5="48.92417" pt_clust_6="14000.00000"></scales>
<clustering>
<clus scale="   48.924">  1  5  2 -1</clus>
<clus scale="  133.015">  2  4  1 -1</clus>
<clus scale="  230.226">  1  3  2 -1</clus>
<clus scale="   48.924">  1  3  2 -1</clus>
</clustering>
</event>
<event>
 6    0  0.2117869E+002  0.2045611E+03  0.7546771E-02  0.1145947E+00
          2   -1    0    0  505    0 -0.00000000000E+00  0.00000000000E+00  0.68924691710E+03  0.68924691710E+03  0.00000000000E+00 0.  1.
         21   -1    0    0  503  502  0.00000000000E+00 -0.00000000000E+00 -0.46752886420E+03  0.46752886420E+03  0.00000000000E+00 0.  1.
         21    1    1    2  503  504  0.74940931278E+02  0.30566063829E+02 -0.37368434813E+03  0.38234855757E+03  0.00000000000E+00 0.  1.
         21    1    1    2  504  501  0.17884154855E+03 -0.10865667694E+02  0.17538031656E+03  0.25072019795E+03  0.00000000000E+00 0.  1.
         21    1    1    2  505  502 -0.30806931465E+02 -0.21704299663E+02 -0.10279127970E+02  0.39061542749E+02  0.00000000000E+00 0.  1.
          2    1    1    2  501    0 -0.22297554836E+03  0.20039035274E+01  0.43030121244E+03  0.48464548303E+03  0.00000000000E+00 0.  1.
<scales pt_clust_3="50.11244" pt_clust_4="204.56107" pt_clust_5="37.68479" pt_clust_6="14000.00000"></scales>
<clustering>
<clus scale="   37.685">  2  5  1 -1</clus>
<clus scale="   50.112">  2  3  1 -1</clus>
<clus scale="  204.561">  2  4  1 -1</clus>
<clus scale="   37.685">  2  3  1 -1</clus>
</clustering>
</event>
<event>
 6    0  0.2117869E+002  0.1922605E+03  0.7546771E-02  0.1156438E+00
          4   -1    0    0  505    0 -0.00000000000E+00  0.00000000000E+00  0.44759581192E+03  0.44759581192E+03  0.00000000000E+00 0. -1.
         21   -1    0    0  501  502  0.00000000000E+00 -0.00000000000E+00 -0.13812113011E+04  0.13812113011E+04  0.00000000000E+00 0. -1.
         21    1    1    2  503  504 -0.58507435752E+02 -0.15153167172E+03 -0.54048007655E+03  0.56436130335E+03  0.00000000000E+00 0. -1.
         21    1    1    2  504  502  0.15342489197E+03 -0.24225687793E+02 -0.78598179915E+03  0.80118254476E+03  0.00000000000E+00 0. -1.
         21    1    1    2  505  503 -0.31324383538E+02  0.16011728804E+02  0.81979892049E+00  0.35188983128E+02  0.00000000000E+00 0. -1.
          4    1    1    2  501    0 -0.63593072675E+02  0.15974563071E+03  0.39202658755E+03  0.42807428184E+03  0.00000000000E+00 0. -1.
<scales pt_clust_3="14000.00000" pt_clust_4="154.73425" pt_clust_5="35.17943" pt_clust_6="192.26053"></scales>
<clustering>
<clus scale="   35.179">  1  5  2 -1</clus>
<clus scale="  154.734">  2  4  1 -1</clus>
<clus scale="  192.261">  1  6  2 -1</clus>
<clus scale="  154.734">  2  3  1 -1</clus>
</clustering>
</event>
<event>
 6    0  0.2117869E+002  0.1118244E+03  0.7546771E-02  0.1257228E+00
          3   -1    0    0  503    0 -0.00000000000E+00  0.00000000000E+00  0.64136842301E+03  0.64136842301E+03  0.00000000000E+00 0.  1.
         21   -1    0    0  504  502  0.00000000000E+00 -0.00000000000E+00 -0.28209374473E+03  0.28209374473E+03  0.00000000000E+00 0. -1.
         21    1    1    2  503  505 -0.80175263260E+02  0.98938932068E+02  0.37275528572E+02  0.13268929930E+03  0.00000000000E+00 0. -1.
         21    1    1    2  504  501  0.76475977165E+02 -0.78280251740E+02 -0.43560974044E+02  0.11778765366E+03  0.00000000000E+00 0. -1.
         21    1    1    2  505  502 -0.81305568289E+02  0.49388880011E+02 -0.13237529561E+03  0.16301250195E+03  0.00000000000E+00 0. -1.
          3    1    1    2  501    0  0.85004854384E+02 -0.70047560340E+02  0.49793541937E+03  0.50997271284E+03  0.00000000000E+00 0.  1.
<scales pt_clust_3="111.82442" pt_clust_4="55.95554" pt_clust_5="95.13074" pt_clust_6="14000.00000"></scales>
<clustering>
<clus scale="   95.131">  2  5  1 -1</clus>
<clus scale="   55.956">  2  4  1 -1</clus>
<clus scale="  111.824">  2  3  1 -1</clus>
<clus scale="   95.131">  2  3  1 -1</clus>
</clustering>
</event>
<event>
 6    0  0.2117869E+002  0.9326260E+02  0.7546771E-02  0.1295138E+00
         21   -1    0    0  504  502  0.00000000000E+00  0.00000000000E+00  0.71942497228E+02  0.71942497228E+02  0.00000000000E+00 0.  1.
          3   -1    0    0  503    0 -0.00000000000E+00 -0.00000000000E+00 -0.45593729902E+03  0.45593729902E+03  0.00000000000E+00 0. -1.
         21    1    1    2  503  505  0.35442512822E+02  0.34265923501E+00 -0.10592390982E+03  0.11169674929E+03  0.00000000000E+00 0. -1.
         21    1    1    2  504  501 -0.52123364697E+02  0.65950688655E+02 -0.15817519091E+02  0.85536731242E+02  0.00000000000E+00 0.  1.
         21    1    1    2  505  502  0.54474027710E+02 -0.98814408854E+02 -0.71724286803E+02  0.13370146001E+03  0.00000000000E+00 0.  1.
          3    1    1    2  501    0 -0.37793175835E+02  0.32521060964E+02 -0.19052908608E+03  0.19694485571E+03  0.00000000000E+00 0. -1.
<scales pt_clust_3="35.44417" pt_clust_4="93.26260" pt_clust_5="14000.00000" pt_clust_6="37.34344"></scales>
<clustering>
<clus scale="   35.444">  2  3  1 -1</clus>
<clus scale="   37.343">  2  6  1 -1</clus>
<clus scale="   93.263">  1  4  2 -1</clus>
<clus scale="   93.263">  1  3  2 -1</clus>
</clustering>
</event>
<event>
 6    0  0.2117869E+002  0.1383956E+03  0.7546771E-02  0.1215504E+00
         21   -1    0    0  505  502  0.00000000000E+00  0.00000000000E+00  0.16906256510E+03  0.16906256510E+03  0.00000000000E+00 0.  1.
          2   -1    0    0  504    0 -0.00000000000E+00 -0.00000000000E+00 -0.24112586597E+04  0.24112586597E+04  0.00000000000E+00 0. -1.
         21    1    1    2  503  501  0.87944410039E+02 -0.10088605164E+03  0.94376605283E+02  0.16376555895E+03  0.00000000000E+00 0.  1.
         21    1    1    2  504  502  0.65196043295E+02  0.31060541002E+02 -0.42950365907E+03  0.43553263302E+03  0.00000000000E+00 0. -1.
         21    1    1    2  505  503  0.23890603157E+02  0.20026880986E+02  0.25160900808E+02  0.40061300661E+02  0.00000000000E+00 0.  1.
          2    1    1    2  501    0 -0.17703105649E+03  0.49798629649E+02 -0.19322299416E+04  0.19409617322E+04  0.00000000000E+00 0. -1.
<scales pt_clust_3="138.39562" pt_clust_4="72.88388" pt_clust_5="31.17430" pt_clust_6="14000.00000"></scales>
<clustering>
<clus scale="   31.174">  1  5  2 -1</clus>
<clus scale="   72.884">  2  4  1 -1</clus>
<clus scale="  138.396">  1  3  2 -1</clus>
<clus scale="   31.174">  1  3  2 -1</clus>
</clustering>
</event>
<event>
 6    0  0.2117869E+002  0.2889886E+03  0.7546771E-02  0.1090878E+00
          1   -1    0    0  504    0 -0.00000000000E+00  0.00000000000E+00  0.11422071539E+04  0.11422071539E+04  0.00000000000E+00 0. -1.
         21   -1    0    0  505  502  0.00000000000E+00 -0.00000000000E+00 -0.57553725751E+03  0.57553725751E+03  0.00000000000E+00 0.  1.
         21    1    1    2  503  502  0.29867558359E+02 -0.23794077942E+02 -0.79124534796E+02  0.87857391232E+02  0.00000000000E+00 0.  1.
         21    1    1    2  504  503 -0.27914274370E+02  0.39686588580E+02  0.26352912807E+03  0.26795864115E+03  0.00000000000E+00 0. -1.
         21    1    1    2  505  501 -0.14844732298E+03 -0.24176856844E+03 -0.42497807970E+03  0.51097457531E+03  0.00000000000E+00 0.  1.
          1    1    1    2  501    0  0.14649403899E+03  0.22587605780E+03  0.80724338281E+03  0.85095380370E+03  0.00000000000E+00 0. -1.
<scales pt_clust_3="38.18677" pt_clust_4="48.35551" pt_clust_5="14000.00000" pt_clust_6="288.98864"></scales>
<clustering>
<clus scale="   38.187">  2  3  1 -1</clus>
<clus scale="   48.356">  1  4  2 -1</clus>
<clus scale="  288.989">  1  6  2 -1</clus>
<clus scale="   38.187">  2  3  1 -1</clus>
</clustering>
</event>
<event>
 6    0  0.2117869E+002  0.1106932E+03  0.7546771E-02  0.1259292E+00
         21   -1    0    0  504  502  0.00000000000E+00  0.00000000000E+00  0.11598990030E+04  0.11598990030E+04  0.00000000000E+00 0.  1.
         -4   -1    0    0    0  501 -0.00000000000E+00 -0.00000000000E+00 -0.16864091418E+03  0.16864091418E+03  0.00000000000E+00 0.  1.
         21    1    1    2  503  502 -0.61445054842E+02 -0.84350372898E+02  0.81437154986E+03  0.82103075545E+03  0.00000000000E+00 0.  1.
         21    1    1    2  504  505  0.66871289540E+02 -0.27447520384E+02  0.19225097791E+03  0.20539127111E+03  0.00000000000E+00 0.  1.
         21    1    1    2  505  501  0.91776576370E+02 -0.35763108142E+02  0.53954946228E+02  0.11230795206E+03  0.00000000000E+00 0.  1.
         -4    1    1    2    0  503 -0.97202811068E+02  0.14756100142E+03 -0.69319385174E+02  0.18980993857E+03  0.00000000000E+00 0.  1.
<scales pt_clust_3="110.69318" pt_clust_4="72.28510" pt_clust_5="104.75001" pt_clust_6="14000.00000"></scales>
<clustering>
<clus scale="   72.285">  1  4  2 -1</clus>
<clus scale="  104.750">  2  5  1 -1</clus>
<clus scale="  110.693">  1  3  2 -1</clus>
<clus scale="   72.285">  1  3  2 -1</clus>
</clustering>
</event>
<event>
 6    0  0.2117869E+002  0.1095696E+03  0.7546771E-02  0.1261369E+00
          1   -1    0    0  505    0 -0.00000000000E+00  0.00000000000E+00  0.16233027249E+04  0.16233027249E+04  0.00000000000E+00 0.  1.
         21   -1    0    0  504  502  0.00000000000E+00 -0.00000000000E+00 -0.13441388799E+03  0.13441388799E+03  0.00000000000E+00 0.  1.
         21    1    1    2  503  502 -0.10561579380E+02 -0.12167444727E+03 -0.74841052833E+02  0.14323896560E+03  0.00000000000E+00 0.  1.
         21    1    1    2  504  501  0.41402714616E+02  0.15851336587E+02  0.52454511619E+00  0.44336495088E+02  0.00000000000E+00 0.  1.
         21    1    1    2  505  503  0.25685720948E+02  0.28431878861E+02  0.20439973333E+03  0.20796004179E+03  0.00000000000E+00 0. -1.
          1    1    1    2  501    0 -0.56526856184E+02  0.77391231824E+02  0.13588056113E+04  0.13621811104E+04  0.00000000000E+00 0.  1.
<scales pt_clust_3="14000.00000" pt_clust_4="44.87482" pt_clust_5="38.31616" pt_clust_6="109.56961"></scales>
<clustering>
<clus scale="   38.316">  1  5  2 -1</clus>
<clus scale="   44.875">  2  4  1 -1</clus>
<clus scale="  109.570">  1  6  2 -1</clus>
<clus scale="   44.875">  2  3  1 -1</clus>
</clustering>
</event>
<event>
 6    0  0.2117869E+002  0.1067351E+03  0.7546771E-02  0.1266738E+00
          2   -1    0    0  505    0 -0.00000000000E+00  0.00000000000E+00  0.16057347163E+04  0.16057347163E+04  0.00000000000E+00 0.  1.
         21   -1    0    0  504  502  0.00000000000E+00 -0.00000000000E+00 -0.15675624669E+03  0.15675624669E+03  0.00000000000E+00 0.  1.
         21    1    1    2  503  501  0.11977992524E+03 -0.40773615402E+02  0.47537725664E+03  0.49192809874E+03  0.00000000000E+00 0. -1.
         21    1    1    2  504  503  0.18212870079E+02 -0.26231479397E+02 -0.89535886263E+02  0.95060370696E+02  0.00000000000E+00 0.  1.
         21    1    1    2  505  502 -0.52986711999E+02  0.10653498595E+02 -0.40265000406E+02  0.67397024700E+02  0.00000000000E+00 0.  1.
          2    1    1    2  501    0 -0.85006083324E+02  0.56351596204E+02  0.11034020996E+04  0.11081054688E+04  0.00000000000E+00 0.  1.
<scales pt_clust_3="106.73512" pt_clust_4="31.93429" pt_clust_5="39.41706" pt_clust_6="14000.00000"></scales>
<clustering>
<clus scale="   31.934">  2  4  1 -1</clus>
<clus scale="   39.417">  2  5  1 -1</clus>
<clus scale="  106.735">  2  3  1 -1</clus>
<clus scale="   31.934">  2  3  1 -1</clus>
</clustering>
</event>
<event>
 6    0  0.2117869E+002  0.1431197E+03  0.7546771E-02  0.1209192E+00
         21   -1    0    0  503  502  0.00000000000E+00  0.00000000000E+00  0.50119165635E+02  0.50119165635E+02  0.00000000000E+00 0. -1.
          1   -1    0    0  505    0 -0.00000000000E+00 -0.00000000000E+00 -0.80034454285E+03  0.80034454285E+03  0.00000000000E+00 0.  1.
         21    1    1    2  503  504  0.31872668714E+02  0.47954895352E+02 -0.10017581127E+03  0.11554536842E+03  0.00000000000E+00 0.  1.
         21    1    1    2  504  501  0.80711498923E+02  0.41941630637E+02 -0.11307979516E+03  0.14512231570E+03  0.00000000000E+00 0. -1.
         21    1    1    2  505  502 -0.33396592397E+02  0.20520230771E+02 -0.35672050893E+01  0.39359080360E+02  0.00000000000E+00 0. -1.
          1    1    1    2  501    0 -0.79187575240E+02 -0.11041675676E+03 -0.53340256569E+03  0.55043694401E+03  0.00000000000E+00 0.  1.
<scales pt_clust_3="32.93133" pt_clust_4="32.93133" pt_clust_5="39.19709" pt_clust_6="137.00412"></scales>
<clustering>
<clus scale="   32.931">  3  4 -1 -1</clus>
<clus scale="   39.197">  1  5  2 -1</clus>
<clus scale="  137.004">  2  6  1 -1</clus>
<clus scale="   39.197">  1  3  2 -1</clus>
</clustering>
</event>
<event>
 6    0  0.2543520E+002  0.6197164E+02  0.7546771E-02  0.1389739E+00
         -3   -1    0    0    0  501 -0.00000000000E+00  0.00000000000E+00  0.11550871121E+04  0.11550871121E+04  0.00000000000E+00 0.  1.
         21   -1    0    0  503  502  0.00000000000E+00 -0.00000000000E+00 -0.15272333527E+04  0.15272333527E+04  0.00000000000E+00 0.  1.
         21    1    1    2  503  501  0.23952468358E+02  0.35511994296E+02  0.11715220062E+03  0.12473756688E+03  0.00000000000E+00 0.  1.
         21    1    1    2  504  505  0.72711992295E+02  0.90887913883E+01 -0.26213511707E+01  0.73324698666E+02  0.00000000000E+00 0.  1.
         21    1    1    2  505  502 -0.59443573038E+02  0.17162518055E+02 -0.14835203824E+04  0.14848100267E+04  0.00000000000E+00 0.  1.
         -3    1    1    2    0  504 -0.37220887615E+02 -0.61763303739E+02  0.99684329238E+03  0.99944817260E+03  0.00000000000E+00 0.  1.
<scales pt_clust_3="42.83483" pt_clust_4="14000.00000" pt_clust_5="61.97164" pt_clust_6="30.89383"></scales>
<clustering>
<clus scale="   42.835">  1  3  2 -1</clus>
<clus scale="   30.894">  1  6  2 -1</clus>
<clus scale="   61.972">  2  5  1 -1</clus>
<clus scale="   61.972">  2  3  1 -1</clus>
</clustering>
</event>
<event>
 6    0  0.2117869E+002  0.1794942E+03  0.7546771E-02  0.1168293E+00
          2   -1    0    0  503    0 -0.00000000000E+00  0.00000000000E+00  0.20341276798E+04  0.20341276798E+04  0.00000000000E+00 0. -1.
         21   -1    0    0  505  502  0.00000000000E+00 -0.00000000000E+00 -0.29747025955E+03  0.29747025955E+03  0.00000000000E+00 0. -1.
         21    1    1    2  503  502  0.21009094687E+03  0.12673267831E+03  0.13066395340E+04  0.13294759304E+04  0.00000000000E+00 0. -1.
         21    1    1    2  504  501 -0.11724397572E+03  0.86269390724E+02  0.90227690931E+02  0.17125885037E+03  0.00000000000E+00 0. -1.
         21    1    1    2  505  504 -0.42262797207E+02 -0.76680574422E+02 -0.22827172743E+03  0.24448729223E+03  0.00000000000E+00 0. -1.
          2    1    1    2  501    0 -0.50584173942E+02 -0.13632149462E+03  0.56806192275E+03  0.58637586634E+03  0.00000000000E+00 0. -1.
<scales pt_clust_3="14000.00000" pt_clust_4="149.52718" pt_clust_5="87.55601" pt_clust_6="179.49417"></scales>
<clustering>
<clus scale="   87.556">  2  5  1 -1</clus>
<clus scale="  149.527">  2  4  1 -1</clus>
<clus scale="  179.494">  1  6  2 -1</clus>
<clus scale="   87.556">  2  3  1 -1</clus>
</clustering>
</event>
<event>
 6    0  0.2117869E+002  0.1371692E+03  0.7546771E-02  0.1217190E+00
         -1   -1    0    0    0  501 -0.00000000000E+00  0.00000000000E+00  0.18359736063E+03  0.18359736063E+03  0.00000000000E+00 0. -1.
         21   -1    0    0  501  502  0.00000000000E+00 -0.00000000000E+00 -0.25201773287E+03  0.25201773287E+03  0.00000000000E+00 0. -1.
         21    1    1    2  503  505  0.21709363422E+02 -0.34930447044E+02  0.33634523415E+02  0.53129217539E+02  0.00000000000E+00 0. -1.
         21    1    1    2  504  502  0.96860707822E+01  0.14730170503E+03 -0.10007750768E+03  0.17834550685E+03  0.00000000000E+00 0. -1.
         21    1    1    2  505  504  0.70708869254E+01 -0.12635284416E+03 -0.54302828873E+02  0.13770924404E+03  0.00000000000E+00 0. -1.
         -1    1    1    2    0  503 -0.38466321130E+02  0.13981586181E+02  0.52325440900E+02  0.66431125075E+02  0.00000000000E+00 0. -1.
<scales pt_clust_3="31.16633" pt_clust_4="14000.00000" pt_clust_5="137.16921" pt_clust_6="40.92851"></scales>
<clustering>
<clus scale="   40.929">  1  6  2 -1</clus>
<clus scale="   31.166">  1  3  2 -1</clus>
<clus scale="  137.169">  1  5  2 -1</clus>
<clus scale="  137.169">  2  3  1 -1</clus>
</clustering>
</event>
<event>
 6    0  0.2117869E+002  0.6055293E+02  0.7546771E-02  0.1395526E+00
         21   -1    0    0  503  502  0.00000000000E+00  0.00000000000E+00  0.16023622883E+03  0.16023622883E+03  0.00000000000E+00 0. -1.
         -3   -1    0    0    0  501 -0.00000000000E+00 -0.00000000000E+00 -0.13082322276E+04  0.13082322276E+04  0.00000000000E+00 0. -1.
         21    1    1    2  503  505  0.29518270518E+02  0.32768182309E+02  0.97566728614E+02  0.10707169840E+03  0.00000000000E+00 0. -1.
         21    1    1    2  504  502  0.19459540434E+02 -0.67800850525E+02  0.28726919947E+02  0.76163409689E+02  0.00000000000E+00 0. -1.
         21    1    1    2  505  501 -0.39264134248E+02  0.86016515742E+02 -0.10799907946E+04  0.10841220548E+04  0.00000000000E+00 0. -1.
         -3    1    1    2    0  504 -0.97136767043E+01 -0.50983847526E+02 -0.19429885266E+03  0.20111129349E+03  0.00000000000E+00 0. -1.
<scales pt_clust_3="44.10308" pt_clust_4="60.55293" pt_clust_5="14000.00000" pt_clust_6="49.70112"></scales>
<clustering>
<clus scale="   44.103">  1  3  2 -1</clus>
<clus scale="   49.701">  2  6  1 -1</clus>
<clus scale="   60.553">  1  4  2 -1</clus>
<clus scale="   44.103">  1  3  2 -1</clus>
</clustering>
</event>
<event>
 6    0  0.2117869E+002  0.1565595E+03  0.7546771E-02  0.1192637E+00
         21   -1    0    0  503  502  0.00000000000E+00  0.00000000000E+00  0.23021185343E+03  0.23021185343E+03  0.00000000000E+00 0. -1.
          2   -1    0    0  504    0 -0.00000000000E+00 -0.00000000000E+00 -0.37862888934E+03  0.37862888934E+03  0.00000000000E+00 0. -1.
         21    1    1    2  503  505 -0.31185026810E+02 -0.53553020921E+02  0.11834350951E+03  0.13358749264E+03  0.00000000000E+00 0. -1.
         21    1    1    2  504  502 -0.39482529950E+02  0.17190270085E+03 -0.89874411693E+01  0.17660742575E+03  0.00000000000E+00 0. -1.
         21    1    1    2  505  501  0.46477589127E+02 -0.26352745499E+02 -0.11849548790E+03  0.12998389954E+03  0.00000000000E+00 0. -1.
          2    1    1    2  501    0  0.24189967633E+02 -0.91996934426E+02 -0.13927761634E+03  0.16866192484E+03  0.00000000000E+00 0. -1.
<scales pt_clust_3="61.97122" pt_clust_4="144.11481" pt_clust_5="45.84404" pt_clust_6="45.84404"></scales>
<clustering>
<clus scale="   45.844">  5  6 -1 -1</clus>
<clus scale="   61.971">  1  3  2 -1</clus>
<clus scale="  144.115">  1  4  2 -1</clus>
<clus scale="   61.971">  1  3  2 -1</clus>
</clustering>
</event>
<event>
 6    0  0.2117869E+002  0.7051970E+02  0.7546771E-02  0.1358335E+00
         21   -1    0    0  505  502  0.00000000000E+00  0.00000000000E+00  0.58089168037E+02  0.58089168037E+02  0.00000000000E+00 0.  1.
          2   -1    0    0  504    0 -0.00000000000E+00 -0.00000000000E+00 -0.79522014146E+03  0.79522014146E+03  0.00000000000E+00 0.  1.
         21    1    1    2  503  502  0.50080377480E+02  0.20773301560E+02 -0.54532646692E+01  0.54491397136E+02  0.00000000000E+00 0.  1.
         21    1    1    2  504  503  0.16539872817E+02 -0.49573908712E+02 -0.11636044767E+03  0.12755741295E+03  0.00000000000E+00 0.  1.
         21    1    1    2  505  501 -0.52206302142E+02 -0.77042424340E+02 -0.72333593104E+02  0.11786934217E+03  0.00000000000E+00 0.  1.
          2    1    1    2  501    0 -0.14413948156E+02  0.10584303149E+03 -0.54298366798E+03  0.55339115724E+03  0.00000000000E+00 0.  1.
<scales pt_clust_3="54.10219" pt_clust_4="52.26031" pt_clust_5="70.51970" pt_clust_6="14000.00000"></scales>
<clustering>
<clus scale="   52.260">  2  4  1 -1</clus>
<clus scale="   54.102">  1  3  2 -1</clus>
<clus scale="   70.520">  1  5  2 -1</clus>
<clus scale="   54.102">  1  3  2 -1</clus>
</clustering>
</event>
<event>
 6    0  0.2117869E+002  0.2033449E+03  0.7546771E-02  0.1146947E+00
         21   -1    0    0  504  502  0.00000000000E+00  0.00000000000E+00  0.40047915121E+03  0.40047915121E+03  0.00000000000E+00 0.  1.
          2   -1    0    0  505    0 -0.00000000000E+00 -0.00000000000E+00 -0.20730323425E+04  0.20730323425E+04  0.00000000000E+00 0. -1.
         21    1    1    2  503  502  0.25615223878E+03 -0.16539126372E+03  0.10170074322E+03  0.32142072229E+03  0.00000000000E+00 0.  1.
         21    1    1    2  504  501 -0.10799999000E+03  0.13159450356E+03  0.14527578104E+03  0.22379938285E+03  0.00000000000E+00 0.  1.
         21    1    1    2  505  503 -0.33371665740E+02  0.52367512920E+01 -0.11420415369E+03  0.11909525749E+03  0.00000000000E+00 0. -1.
          2    1    1    2  501    0 -0.11478058303E+03  0.28560008877E+02 -0.18053255618E+04  0.18091961310E+04  0.00000000000E+00 0. -1.
<scales pt_clust_3="203.34485" pt_clust_4="14000.00000" pt_clust_5="33.78005" pt_clust_6="149.38959"></scales>
<clustering>
<clus scale="   33.780">  2  5  1 -1</clus>
<clus scale="  149.390">  2  6  1 -1</clus>
<clus scale="  203.345">  2  3  1 -1</clus>
<clus scale="  203.345">  1  3  2 -1</clus>
</clustering>
</event>
<event>
 6    0  0.2117869E+002  0.1021540E+03  0.7546771E-02  0.1275830E+00
          2   -1    0    0  503    0 -0.00000000000E+00  0.00000000000E+00  0.22488454790E+04  0.22488454790E+04  0.00000000000E+00 0. -1.
         21   -1    0    0  501  502  0.00000000000E+00 -0.00000000000E+00 -0.43355070248E+02  0.43355070248E+02  0.00000000000E+00 0. -1.
         21    1    1    2  503  504  0.47692725673E+02 -0.16589117831E+00  0.30201943751E+03  0.30576194047E+03  0.00000000000E+00 0. -1.
         21    1    1    2  504  505  0.31939061208E+02 -0.96391933901E+02  0.59894032242E+03  0.60748746356E+03  0.00000000000E+00 0. -1.
         21    1    1    2  505  502 -0.86485078523E+02 -0.95648840581E+01  0.19042433245E+02  0.89071713119E+02  0.00000000000E+00 0. -1.
          2    1    1    2  501    0  0.68532916410E+01  0.10612270914E+03  0.12854882156E+04  0.12898794321E+04  0.00000000000E+00 0. -1.
<scales pt_clust_3="47.69301" pt_clust_4="14000.00000" pt_clust_5="85.69551" pt_clust_6="102.15400"></scales>
<clustering>
<clus scale="   47.693">  1  3  2 -1</clus>
<clus scale="   85.696">  2  5  1 -1</clus>
<clus scale="  102.154">  1  6  2 -1</clus>
<clus scale="   85.696">  2  3  1 -1</clus>
</clustering>
</event>
<event>
 6    0  0.2117869E+002  0.5827757E+02  0.7546771E-02  0.1405205E+00
          2   -1    0    0  504    0 -0.00000000000E+00  0.00000000000E+00  0.75829466708E+03  0.75829466708E+03  0.00000000000E+00 0. -1.
         21   -1    0    0  505  502  0.00000000000E+00 -0.00000000000E+00 -0.17396210426E+04  0.17396210426E+04  0.00000000000E+00 0. -1.
         21    1    1    2  503  502  0.61130522214E+01 -0.82296008792E+02 -0.15422704758E+04  0.15444766826E+04  0.00000000000E+00 0. -1.
         21    1    1    2  504  503 -0.15729342415E+02  0.90720075009E+02  0.13389007472E+03  0.16249337319E+03  0.00000000000E+00 0.  1.
         21    1    1    2  505  501 -0.18202253195E+02  0.25892850581E+02 -0.17976031620E+03  0.18252543114E+03  0.00000000000E+00 0.  1.
          2    1    1    2  501    0  0.27818543388E+02 -0.34316916798E+02  0.60681434176E+03  0.60842022279E+03  0.00000000000E+00 0. -1.
<scales pt_clust_3="14000.00000" pt_clust_4="58.27757" pt_clust_5="31.65062" pt_clust_6="44.15977"></scales>
<clustering>
<clus scale="   31.651">  2  5  1 -1</clus>
<clus scale="   44.160">  1  6  2 -1</clus>
<clus scale="   58.278">  1  4  2 -1</clus>
<clus scale="   31.651">  2  3  1 -1</clus>
</clustering>
</event>
<event>
 6    0  0.2117869E+002  0.1040725E+03  0.7546771E-02  0.1271958E+00
         21   -1    0    0  503  502  0.00000000000E+00  0.00000000000E+00  0.24413535143E+03  0.24413535143E+03  0.00000000000E+00 0.  1.
          1   -1    0    0  505    0 -0.00000000000E+00 -0.00000000000E+00 -0.21045342749E+03  0.21045342749E+03  0.00000000000E+00 0.  1.
         21    1    1    2  503  501  0.92446374947E+02  0.23592685531E+02  0.10965379594E+03  0.14535096152E+03  0.00000000000E+00 0.  1.
         21    1    1    2  504  502 -0.71776492205E+01  0.29269097010E+02  0.51830649738E+02  0.59955107708E+02  0.00000000000E+00 0. -1.
         21    1    1    2  505  504  0.39825923579E+02 -0.22954357809E+02 -0.11027722593E+03  0.11947415323E+03  0.00000000000E+00 0.  1.
          1    1    1    2  501    0 -0.12509464931E+03 -0.29907424732E+02 -0.17525295812E+02  0.12980855647E+03  0.00000000000E+00 0.  1.
<scales pt_clust_3="104.07251" pt_clust_4="30.13634" pt_clust_5="45.46161" pt_clust_6="14000.00000"></scales>
<clustering>
<clus scale="   30.136">  1  4  2 -1</clus>
<clus scale="   45.462">  2  5  1 -1</clus>
<clus scale="  104.073">  1  3  2 -1</clus>
<clus scale="   30.136">  1  3  2 -1</clus>
</clustering>
</event>
<event>
 6    0  0.2117869E+002  0.1047541E+03  0.7546771E-02  0.1270605E+00
          1   -1    0    0  505    0 -0.00000000000E+00  0.00000000000E+00  0.35566694520E+04  0.35566694520E+04  0.00000000000E+00 0. -1.
         21   -1    0    0  503  502  0.00000000000E+00 -0.00000000000E+00 -0.50682045312E+02  0.50682045312E+02  0.00000000000E+00 0. -1.
         21    1    1    2  503  501  0.58483321251E+02  0.77482199424E+01 -0.18751021555E+02  0.61902621803E+02  0.00000000000E+00 0. -1.
         21    1    1    2  504  502  0.48588061898E+02  0.32188499547E+02  0.10504583607E+03  0.12013129042E+03  0.00000000000E+00 0.  1.
         21    1    1    2  505  504  0.17987169071E+02  0.39465302611E+02  0.11344207216E+04  0.11352494977E+04  0.00000000000E+00 0.  1.
          1    1    1    2  501    0 -0.12505855222E+03 -0.79402022100E+02  0.22852718706E+04  0.22900680874E+04  0.00000000000E+00 0. -1.
<scales pt_clust_3="59.20029" pt_clust_4="104.75414" pt_clust_5="43.37105" pt_clust_6="14000.00000"></scales>
<clustering>
<clus scale="   43.371">  1  5  2 -1</clus>
<clus scale="   59.200">  2  3  1 -1</clus>
<clus scale="  104.754">  2  4  1 -1</clus>
<clus scale="   59.200">  2  3  1 -1</clus>
</clustering>
</event>
<event>
 6    0  0.2117869E+002  0.7291055E+02  0.7546771E-02  0.1350466E+00
          2   -1    0    0  504    0 -0.00000000000E+00  0.00000000000E+00  0.69118102660E+03  0.69118102660E+03  0.00000000000E+00 0. -1.
         21   -1    0    0  501  502  0.00000000000E+00 -0.00000000000E+00 -0.55527893637E+02  0.55527893637E+02  0.00000000000E+00 0.  1.
         21    1    1    2  503  502  0.23072593355E+02  0.23176200814E+02  0.48375504047E+00  0.32706495796E+02  0.00000000000E+00 0.  1.
         21    1    1    2  504  505 -0.46599465396E+02  0.27860623710E+02  0.17478394438E+03  0.18302227117E+03  0.00000000000E+00 0. -1.
         21    1    1    2  505  503 -0.77498228901E+02 -0.52616308992E+02  0.45816541348E+02  0.10427658853E+03  0.00000000000E+00 0.  1.
          2    1    1    2  501    0  0.10102510094E+03  0.15794844679E+01  0.41456889219E+03  0.42670356474E+03  0.00000000000E+00 0. -1.
<scales pt_clust_3="32.70292" pt_clust_4="53.56905" pt_clust_5="14000.00000" pt_clust_6="72.91055"></scales>
<clustering>
<clus scale="   32.703">  2  3  1 -1</clus>
<clus scale="   53.569">  1  4  2 -1</clus>
<clus scale="   72.911">  1  6  2 -1</clus>
<clus scale="   32.703">  2  3  1 -1</clus>
</clustering>
</event>
<event>
 6    0  0.2117869E+002  0.9092661E+02  0.7546771E-02  0.1300623E+00
          1   -1    0    0  504    0 -0.00000000000E+00  0.00000000000E+00  0.45472168285E+03  0.45472168285E+03  0.00000000000E+00 0. -1.
         21   -1    0    0  505  502  0.00000000000E+00 -0.00000000000E+00 -0.69046094323E+03  0.69046094323E+03  0.00000000000E+00 0.  1.
         21    1    1    2  503  502  0.43466924049E+02 -0.79861168626E+02 -0.64834288501E+03  0.65468746459E+03  0.00000000000E+00 0.  1.
         21    1    1    2  504  503  0.21506423120E+02  0.33512408247E+02 -0.23589298037E+01  0.39889501022E+02  0.00000000000E+00 0. -1.
         21    1    1    2  505  501 -0.11679885767E+03  0.39773703799E+02  0.28841162520E+03  0.31369600925E+03  0.00000000000E+00 0. -1.
          1    1    1    2  501    0  0.51825510503E+02  0.65750565800E+01  0.12655092924E+03  0.13690965123E+03  0.00000000000E+00 0. -1.
<scales pt_clust_3="90.92661" pt_clust_4="39.81969" pt_clust_5="14000.00000" pt_clust_6="60.66811"></scales>
<clustering>
<clus scale="   39.820">  1  4  2 -1</clus>
<clus scale="   60.668">  1  6  2 -1</clus>
<clus scale="   90.927">  2  3  1 -1</clus>
<clus scale="   90.927">  2  3  1 -1</clus>
</clustering>
</event>
<event>
 6    0  0.2117869E+002  0.7919043E+02  0.7546771E-02  0.1331365E+00
         21   -1    0    0  503  502  0.00000000000E+00  0.00000000000E+00  0.97326066309E+03  0.97326066309E+03  0.00000000000E+00 0. -1.
          2   -1    0    0  505    0 -0.00000000000E+00 -0.00000000000E+00 -0.10097776526E+04  0.10097776526E+04  0.00000000000E+00 0.  1.
         21    1    1    2  503  501  0.40294563619E+02  0.79670548847E+02  0.88877974990E+03  0.89325275933E+03  0.00000000000E+00 0. -1.
         21    1    1    2  504  502  0.24094393565E+02 -0.34016208449E+02  0.68368057794E+02  0.80073925625E+02  0.00000000000E+00 0. -1.
         21    1    1    2  505  504 -0.19004625798E+02  0.60573587468E+02 -0.38066840638E+03  0.38592586194E+03  0.00000000000E+00 0. -1.
          2    1    1    2  501    0 -0.45384331386E+02 -0.10622792787E+03 -0.61299639081E+03  0.62378576879E+03  0.00000000000E+00 0.  1.
<scales pt_clust_3="79.19043" pt_clust_4="41.68504" pt_clust_5="63.36894" pt_clust_6="14000.00000"></scales>
<clustering>
<clus scale="   41.685">  1  4  2 -1</clus>
<clus scale="   63.369">  2  5  1 -1</clus>
<clus scale="   79.190">  1  3  2 -1</clus>
<clus scale="   41.685">  1  3  2 -1</clus>
</clustering>
</event>
<event>
 6    0  0.2117869E+002  0.1247822E+03  0.7546771E-02  0.1235410E+00
         -2   -1    0    0    0  501 -0.00000000000E+00  0.00000000000E+00  0.57075005414E+03  0.57075005414E+03  0.00000000000E+00 0. -1.
         21   -1    0    0  504  502  0.00000000000E+00 -0.00000000000E+00 -0.21520298788E+03  0.21520298788E+03  0.00000000000E+00 0.  1.
         21    1    1    2  503  502  0.26954255883E+02  0.22293088920E+02 -0.72981507087E+02  0.80930921782E+02  0.00000000000E+00 0.  1.
         21    1    1    2  504  501 -0.10444328855E+03 -0.68514592876E+02 -0.85637871256E+02  0.15144799422E+03  0.00000000000E+00 0.  1.
         21    1    1    2  505  503 -0.44049708739E+02  0.16072013751E+02  0.35537177516E+02  0.58835171895E+02  0.00000000000E+00 0.  1.
         -2    1    1    2    0  505  0.12153874141E+03  0.30149490204E+02  0.47862926709E+03  0.49473895413E+03  0.00000000000E+00 0. -1.
<scales pt_clust_3="34.97876" pt_clust_4="124.78218" pt_clust_5="45.47154" pt_clust_6="14000.00000"></scales>
<clustering>
<clus scale="   34.979">  2  3  1 -1</clus>
<clus scale="   45.472">  2  5  1 -1</clus>
<clus scale="  124.782">  2  4  1 -1</clus>
<clus scale="   34.979">  2  3  1 -1</clus>
</clustering>
</event>
<event>
 6    0  0.2117869E+002  0.9153298E+02  0.7546771E-02  0.1299181E+00
         21   -1    0    0  504  502  0.00000000000E+00  0.00000000000E+00  0.14843247889E+03  0.14843247889E+03  0.00000000000E+00 0.  1.
         -1   -1    0    0    0  501 -0.00000000000E+00 -0.00000000000E+00 -0.65791574079E+03  0.65791574079E+03  0.00000000000E+00 0.  1.
         21    1    1    2  503  501  0.21240502687E+02 -0.27132161489E+02 -0.19970919533E+03  0.20266000059E+03  0.00000000000E+00 0.  1.
         21    1    1    2  504  503  0.48148480675E+02 -0.97575363098E+02  0.21320653047E+02  0.11087740041E+03  0.00000000000E+00 0.  1.
         21    1    1    2  505  502  0.37011855556E+02  0.73919323584E+02  0.48145925425E+02  0.95665949981E+02  0.00000000000E+00 0.  1.
         -1    1    1    2    0  505 -0.10640083892E+03  0.50788201003E+02 -0.37924064504E+03  0.39714486870E+03  0.00000000000E+00 0.  1.
<scales pt_clust_3="34.45741" pt_clust_4="14000.00000" pt_clust_5="81.91631" pt_clust_6="91.53298"></scales>
<clustering>
<clus scale="   34.457">  2  3  1 -1</clus>
<clus scale="   81.916">  1  5  2 -1</clus>
<clus scale="   91.533">  2  6  1 -1</clus>
<clus scale="   81.916">  1  3  2 -1</clus>
</clustering>
</event>
<event>
 6    0  0.2117869E+002  0.1563570E+03  0.7546771E-02  0.1192872E+00
         21   -1    0    0  501  502  0.00000000000E+00  0.00000000000E+00  0.53851313045E+03  0.53851313045E+03  0.00000000000E+00 0. -1.
          2   -1    0    0  505    0 -0.00000000000E+00 -0.00000000000E+00 -0.20021812243E+04  0.20021812243E+04  0.00000000000E+00 0.  1.
         21    1    1    2  503  502  0.13545308038E+03  0.63365816083E+01  0.49784930755E+03  0.51598606791E+03  0.00000000000E+00 0. -1.
         21    1    1    2  504  503 -0.20567390480E+03 -0.11384836416E+03 -0.55191287265E+03  0.59989251048E+03  0.00000000000E+00 0.  1.
         21    1    1    2  505  504 -0.41742033822E+02 -0.12322914688E+02 -0.27649201138E+03  0.27989655941E+03  0.00000000000E+00 0. -1.
          2    1    1    2  501    0  0.11196285824E+03  0.11983469724E+03 -0.11331125174E+04  0.11449192169E+04  0.00000000000E+00 0.  1.
<scales pt_clust_3="135.37887" pt_clust_4="156.35701" pt_clust_5="43.52300" pt_clust_6="14000.00000"></scales>
<clustering>
<clus scale="   43.523">  2  5  1 -1</clus>
<clus scale="  135.379">  1  3  2 -1</clus>
<clus scale="  156.357">  1  4  2 -1</clus>
<clus scale="  135.379">  1  3  2 -1</clus>
</clustering>
</event>
<event>
 6    0  0.2117869E+002  0.1085054E+03  0.7546771E-02  0.1263363E+00
          2   -1    0    0  504    0 -0.00000000000E+00  0.00000000000E+00  0.14598048940E+04  0.14598048940E+04  0.00000000000E+00 0. -1.
         21   -1    0    0  503  502  0.00000000000E+00 -0.00000000000E+00 -0.95842735956E+02  0.95842735956E+02  0.00000000000E+00 0. -1.
         21    1    1    2  503  501 -0.73130743722E+00  0.56729311059E+02 -0.24202418891E+02  0.61680682746E+02  0.00000000000E+00 0. -1.
         21    1    1    2  504  505 -0.35050125827E+02  0.33922656604E+02  0.20243469687E+03  0.20822839491E+03  0.00000000000E+00 0. -1.
         21    1    1    2  505  502 -0.51758380640E+02 -0.14728473044E+03  0.80584677972E+02  0.17568611815E+03  0.00000000000E+00 0. -1.
          2    1    1    2  501    0  0.87539813905E+02  0.56632762779E+02  0.11051452021E+04  0.11100524342E+04  0.00000000000E+00 0. -1.
<scales pt_clust_3="57.24980" pt_clust_4="48.77764" pt_clust_5="14000.00000" pt_clust_6="108.50544"></scales>
<clustering>
<clus scale="   48.778">  1  4  2 -1</clus>
<clus scale="   57.250">  2  3  1 -1</clus>
<clus scale="  108.505">  1  6  2 -1</clus>
<clus scale="   57.250">  2  3  1 -1</clus>
</clustering>
</event>
<event>
 6    0  0.2117869E+002  0.9001136E+02  0.7546771E-02  0.1302824E+00
          1   -1    0    0  503    0 -0.00000000000E+00  0.00000000000E+00  0.13322368184E+04  0.13322368184E+04  0.00000000000E+00 0. -1.
         21   -1    0    0  505  502  0.00000000000E+00 -0.00000000000E+00 -0.58888698461E+03  0.58888698461E+03  0.00000000000E+00 0.  1.
         21    1    1    2  503  504 -0.24203236828E+02 -0.89802319938E+02 -0.24704607899E+03  0.26397351852E+03  0.00000000000E+00 0.  1.
         21    1    1    2  504  502  0.44752839954E+02  0.25178493487E+02 -0.30283732691E+03  0.30715992543E+03  0.00000000000E+00 0.  1.
         21    1    1    2  505  501  0.44088168311E+02  0.15920409271E+01 -0.86697287994E+01  0.44960709256E+02  0.00000000000E+00 0.  1.
          1    1    1    2  501    0 -0.64637771438E+02  0.63031785524E+02  0.13019029685E+04  0.13050296498E+04  0.00000000000E+00 0. -1.
<scales pt_clust_3="90.01136" pt_clust_4="73.44843" pt_clust_5="44.11690" pt_clust_6="14000.00000"></scales>
<clustering>
<clus scale="   44.117">  2  5  1 -1</clus>
<clus scale="   73.448">  2  4  1 -1</clus>
<clus scale="   90.011">  2  3  1 -1</clus>
<clus scale="   44.117">  2  3  1 -1</clus>
</clustering>
</event>
<event>
 6    0  0.2117869E+002  0.1060806E+03  0.7546771E-02  0.1268005E+00
         21   -1    0    0  501  502  0.00000000000E+00  0.00000000000E+00  0.12885714339E+03  0.12885714339E+03  0.00000000000E+00 0.  1.
          2   -1    0    0  503    0 -0.00000000000E+00 -0.00000000000E+00 -0.15900914820E+04  0.15900914820E+04  0.00000000000E+00 0. -1.
         21    1    1    2  503  504 -0.29967408454E+02  0.16341448290E+02 -0.18188503885E+03  0.18506014119E+03  0.00000000000E+00 0. -1.
         21    1    1    2  504  505 -0.96600460486E+02 -0.76575239139E+00 -0.12215058446E+02  0.97372701491E+02  0.00000000000E+00 0.  1.
         21    1    1    2  505  502 -0.30868487378E+01 -0.36237145689E+02  0.77435835512E+02  0.85550967174E+02  0.00000000000E+00 0.  1.
          2    1    1    2  501    0  0.12965471768E+03  0.20661449791E+02 -0.13445700768E+04  0.13509648155E+04  0.00000000000E+00 0. -1.
<scales pt_clust_3="34.13339" pt_clust_4="106.08063" pt_clust_5="36.32886" pt_clust_6="14000.00000"></scales>
<clustering>
<clus scale="   34.133">  2  3  1 -1</clus>
<clus scale="   36.329">  1  5  2 -1</clus>
<clus scale="  106.081">  1  4  2 -1</clus>
<clus scale="   36.329">  1  3  2 -1</clus>
</clustering>
</event>
<event>
 6    0  0.2117869E+002  0.7580032E+02  0.7546771E-02  0.1341410E+00
          2   -1    0    0  505    0 -0.00000000000E+00  0.00000000000E+00  0.38979968866E+04  0.38979968866E+04  0.00000000000E+00 0.  1.
         21   -1    0    0  501  502  0.00000000000E+00 -0.00000000000E+00 -0.22919089248E+03  0.22919089248E+03  0.00000000000E+00 0.  1.
         21    1    1    2  503  504 -0.39561514541E+02 -0.30929549063E+02  0.19468604807E+02  0.53858861956E+02  0.00000000000E+00 0.  1.
         21    1    1    2  504  502  0.80881175983E+02  0.16103259877E+02 -0.20303470586E+03  0.21914417946E+03  0.00000000000E+00 0.  1.
         21    1    1    2  505  503  0.26446466366E+02  0.38206929777E+02  0.15632683347E+04  0.15639587818E+04  0.00000000000E+00 0.  1.
          2    1    1    2  501    0 -0.67766127807E+02 -0.23380640590E+02  0.22891037604E+04  0.22902259558E+04  0.00000000000E+00 0.  1.
<scales pt_clust_3="14000.00000" pt_clust_4="75.80032" pt_clust_5="46.46703" pt_clust_6="44.13717"></scales>
<clustering>
<clus scale="   46.467">  1  5  2 -1</clus>
<clus scale="   44.137">  1  6  2 -1</clus>
<clus scale="   75.800">  2  4  1 -1</clus>
<clus scale="   75.800">  2  3  1 -1</clus>
</clustering>
</event>
<event>
 6    0  0.2117869E+002  0.8961139E+02  0.7546771E-02  0.1303796E+00
         21   -1    0    0  503  502  0.00000000000E+00  0.00000000000E+00  0.84384492259E+03  0.84384492259E+03  0.00000000000E+00 0.  1.
          1   -1    0    0  504    0 -0.00000000000E+00 -0.00000000000E+00 -0.19915055994E+04  0.19915055994E+04  0.00000000000E+00 0. -1.
         21    1    1    2  503  501 -0.65512043218E+02 -0.10459669039E+02 -0.17297063650E+03  0.18525677740E+03  0.00000000000E+00 0. -1.
         21    1    1    2  504  505  0.66921658834E+02  0.63655041562E+02 -0.41123738047E+03  0.42148150117E+03  0.00000000000E+00 0.  1.
         21    1    1    2  505  502  0.54261108299E+02 -0.72319543925E+02  0.82950182741E+03  0.83441456482E+03  0.00000000000E+00 0.  1.
          1    1    1    2  501    0 -0.55670723915E+02  0.19124171402E+02 -0.13929544872E+04  0.13941976786E+04  0.00000000000E+00 0. -1.
<scales pt_clust_3="89.61139" pt_clust_4="81.95999" pt_clust_5="14000.00000" pt_clust_6="58.86394"></scales>
<clustering>
<clus scale="   58.864">  2  6  1 -1</clus>
<clus scale="   81.960">  2  4  1 -1</clus>
<clus scale="   89.611">  2  3  1 -1</clus>
<clus scale="   89.611">  1  3  2 -1</clus>
</clustering>
</event>
<event>
 6    0  0.2117869E+002  0.7768889E+02  0.7546771E-02  0.1335741E+00
         21   -1    0    0  503  502  0.00000000000E+00  0.00000000000E+00  0.49065461077E+03  0.49065461077E+03  0.00000000000E+00 0.  1.
         -4   -1    0    0    0  501 -0.00000000000E+00 -0.00000000000E+00 -0.17289042825E+03  0.17289042825E+03  0.00000000000E+00 0.  1.
         21    1    1    2  503  505 -0.35738536780E+02 -0.70584577565E+02  0.35551820684E+03  0.36421507519E+03  0.00000000000E+00 0.  1.
         21    1    1    2  504  502 -0.31247683575E+02  0.28756698315E+02  0.95916654077E+02  0.10489694922E+03  0.00000000000E+00 0.  1.
         21    1    1    2  505  501 -0.20645281106E+02  0.44459549908E+02 -0.25690227282E+02  0.55343174717E+02  0.00000000000E+00 0.  1.
         -4    1    1    2    0  504  0.87631501461E+02 -0.26316706581E+01 -0.10798045111E+03  0.13908983989E+03  0.00000000000E+00 0.  1.
<scales pt_clust_3="77.68889" pt_clust_4="42.46605" pt_clust_5="50.51385" pt_clust_6="14000.00000"></scales>
<clustering>
<clus scale="   42.466">  1  4  2 -1</clus>
<clus scale="   50.514">  2  5  1 -1</clus>
<clus scale="   77.689">  1  3  2 -1</clus>
<clus scale="   42.466">  1  3  2 -1</clus>
</clustering>
</event>
<event>
 6    0  0.2117869E+002  0.9695691E+02  0.7546771E-02  0.1286828E+00
         21   -1    0    0  504  502  0.00000000000E+00  0.00000000000E+00  0.11453289473E+04  0.11453289473E+04  0.00000000000E+00 0.  1.
          2   -1    0    0  505    0 -0.00000000000E+00 -0.00000000000E+00 -0.16765201553E+04  0.16765201553E+04  0.00000000000E+00 0.  1.
         21    1    1    2  503  502 -0.71278873770E+02  0.21594801582E+02  0.51643717388E+03  0.52177999949E+03  0.00000000000E+00 0.  1.
         21    1    1    2  504  501 -0.23907805650E+02 -0.41745880144E+02  0.61076936363E+03  0.61266101331E+03  0.00000000000E+00 0.  1.
         21    1    1    2  505  503 -0.26142697507E+02  0.22583640553E+02 -0.14151301960E+04  0.14155518122E+04  0.00000000000E+00 0.  1.
          2    1    1    2  501    0  0.12132937693E+03 -0.24325619907E+01 -0.24326754948E+03  0.27185627764E+03  0.00000000000E+00 0.  1.
<scales pt_clust_3="14000.00000" pt_clust_4="48.08343" pt_clust_5="34.54651" pt_clust_6="96.95691"></scales>
<clustering>
<clus scale="   34.547">  2  5  1 -1</clus>
<clus scale="   48.083">  1  4  2 -1</clus>
<clus scale="   96.957">  2  6  1 -1</clus>
<clus scale="   48.083">  1  3  2 -1</clus>
</clustering>
</event>
<event>
 6    0  0.2117869E+002  0.7173960E+02  0.7546771E-02  0.1354275E+00
         21   -1    0    0  503  502  0.00000000000E+00  0.00000000000E+00  0.77210110691E+02  0.77210110691E+02  0.00000000000E+00 0. -1.
          1   -1    0    0  504    0 -0.00000000000E+00 -0.00000000000E+00 -0.60588257024E+03  0.60588257024E+03  0.00000000000E+00 0. -1.
         21    1    1    2  503  505 -0.11757944359E+02  0.28879638910E+02  0.57223561503E+01  0.31702179090E+02  0.00000000000E+00 0.  1.
         21    1    1    2  504  502  0.51438408537E+02 -0.39053877311E+02 -0.18222710459E+03  0.19333347577E+03  0.00000000000E+00 0. -1.
         21    1    1    2  505  501 -0.71038002047E+01 -0.89758084551E+02  0.52001630115E+00  0.90040258421E+02  0.00000000000E+00 0. -1.
          1    1    1    2  501    0 -0.32576663973E+02  0.99932322952E+02 -0.35268772741E+03  0.36801676765E+03  0.00000000000E+00 0. -1.
<scales pt_clust_3="31.18145" pt_clust_4="62.05572" pt_clust_5="14000.00000" pt_clust_6="71.73960"></scales>
<clustering>
<clus scale="   31.181">  1  3  2 -1</clus>
<clus scale="   62.056">  2  4  1 -1</clus>
<clus scale="   71.740">  2  6  1 -1</clus>
<clus scale="   31.181">  1  3  2 -1</clus>
</clustering>
</event>
<event>
 6    0  0.2117869E+002  0.8296467E+02  0.7546771E-02  0.1320843E+00
          1   -1    0    0  505    0 -0.00000000000E+00  0.00000000000E+00  0.68700300265E+03  0.68700300265E+03  0.00000000000E+00 0.  1.
         21   -1    0    0  501  502  0.00000000000E+00 -0.00000000000E+00 -0.17879748382E+03  0.17879748382E+03  0.00000000000E+00 0. -1.
         21    1    1    2  503  502 -0.49627521004E+02  0.20726140612E+02 -0.14635061629E+03  0.15591974421E+03  0.00000000000E+00 0. -1.
         21    1    1    2  504  503  0.64427289999E+02 -0.44797719801E+02  0.92213929242E+02  0.12108311254E+03  0.00000000000E+00 0. -1.
         21    1    1    2  505  504 -0.42995876531E+02 -0.60593144769E+02  0.15623256930E+03  0.17299939394E+03  0.00000000000E+00 0. -1.
          1    1    1    2  501    0  0.28196107536E+02  0.84664723958E+02  0.40610963657E+03  0.41579823578E+03  0.00000000000E+00 0.  1.
<scales pt_clust_3="53.78163" pt_clust_4="51.37552" pt_clust_5="82.96467" pt_clust_6="14000.00000"></scales>
<clustering>
<clus scale="   53.782">  2  3  1 -1</clus>
<clus scale="   51.376">  2  4  1 -1</clus>
<clus scale="   82.965">  2  5  1 -1</clus>
<clus scale="   53.782">  2  3  1 -1</clus>
</clustering>
</event>
<event>
 6    0  0.2117869E+002  0.1064450E+03  0.7546771E-02  0.1267298E+00
         21   -1    0    0  505  502  0.00000000000E+00  0.00000000000E+00  0.15166849884E+03  0.15166849884E+03  0.00000000000E+00 0.  1.
          2   -1    0    0  504    0 -0.00000000000E+00 -0.00000000000E+00 -0.18828993743E+04  0.18828993743E+04  0.00000000000E+00 0. -1.
         21    1    1    2  503  502 -0.79636485270E+02 -0.97056534090E+02  0.10755044544E+03  0.16531496880E+03  0.00000000000E+00 0.  1.
         21    1    1    2  504  503 -0.22081161430E+02  0.44405030193E+02 -0.30244522634E+03  0.30648409311E+03  0.00000000000E+00 0. -1.
         21    1    1    2  505  501 -0.84461118013E+01  0.37591915911E+02 -0.22022720061E+02  0.44378926815E+02  0.00000000000E+00 0. -1.
          2    1    1    2  501    0  0.11016375850E+03  0.15059587986E+02 -0.15143133745E+04  0.15183898844E+04  0.00000000000E+00 0. -1.
<scales pt_clust_3="106.44499" pt_clust_4="50.13024" pt_clust_5="38.52907" pt_clust_6="14000.00000"></scales>
<clustering>
<clus scale="   38.529">  1  5  2 -1</clus>
<clus scale="   50.130">  2  4  1 -1</clus>
<clus scale="  106.445">  1  3  2 -1</clus>
<clus scale="   38.529">  1  3  2 -1</clus>
</clustering>
</event>
<event>
 6    0  0.2117869E+002  0.8105341E+02  0.7546771E-02  0.1326088E+00
         21   -1    0    0  504  502  0.00000000000E+00  0.00000000000E+00  0.42052299760E+02  0.42052299760E+02  0.00000000000E+00 0. -1.
          2   -1    0    0  503    0 -0.00000000000E+00 -0.00000000000E+00 -0.39980857957E+04  0.39980857957E+04  0.00000000000E+00 0. -1.
         21    1    1    2  503  502 -0.14667561042E+01 -0.40923355078E+02 -0.54718680780E+03  0.54871693522E+03  0.00000000000E+00 0.  1.
         21    1    1    2  504  505  0.24603837163E+02  0.46146154942E+02  0.57741851855E+00  0.52298659937E+02  0.00000000000E+00 0. -1.
         21    1    1    2  505  501 -0.93239536929E+02 -0.70491446643E+00 -0.13571197160E+03  0.16465675627E+03  0.00000000000E+00 0. -1.
          2    1    1    2  501    0  0.70102455871E+02 -0.45178853972E+01 -0.32737121351E+04  0.32744657441E+04  0.00000000000E+00 0. -1.
<scales pt_clust_3="40.94963" pt_clust_4="52.01980" pt_clust_5="14000.00000" pt_clust_6="81.05341"></scales>
<clustering>
<clus scale="   40.950">  2  3  1 -1</clus>
<clus scale="   52.020">  1  4  2 -1</clus>
<clus scale="   81.053">  2  6  1 -1</clus>
<clus scale="   52.020">  1  3  2 -1</clus>
</clustering>
</event>
<event>
 6    0  0.2117869E+002  0.3230538E+03  0.7546771E-02  0.1074252E+00
         21   -1    0    0  501  502  0.00000000000E+00  0.00000000000E+00  0.18612968431E+03  0.18612968431E+03  0.00000000000E+00 0.  1.
          1   -1    0    0  504    0 -0.00000000000E+00 -0.00000000000E+00 -0.65682692157E+03  0.65682692157E+03  0.00000000000E+00 0.  1.
         21    1    1    2  503  502 -0.32715505185E+02  0.27054822255E+01 -0.33345502350E+01  0.32996107935E+02  0.00000000000E+00 0.  1.
         21    1    1    2  504  505  0.17290305536E+03  0.98857481274E+02 -0.13832394342E+03  0.24249078638E+03  0.00000000000E+00 0.  1.
         21    1    1    2  505  503  0.74085444887E+02  0.84916103261E+02  0.23109351583E+02  0.11503668922E+03  0.00000000000E+00 0.  1.
          1    1    1    2  501    0 -0.21427299506E+03 -0.18647906676E+03 -0.35214809520E+03  0.45243302234E+03  0.00000000000E+00 0.  1.
<scales pt_clust_3="32.82718" pt_clust_4="104.44782" pt_clust_5="104.44782" pt_clust_6="290.84065"></scales>
<clustering>
<clus scale="   32.827">  1  3  2 -1</clus>
<clus scale="  104.448">  4  5 -1 -1</clus>
<clus scale="  290.841">  2  6  1 -1</clus>
<clus scale="   32.827">  1  3  2 -1</clus>
</clustering>
</event>
<event>
 6    0  0.2117869E+002  0.1219709E+03  0.7546771E-02  0.1239881E+00
         21   -1    0    0  501  502  0.00000000000E+00  0.00000000000E+00  0.20723545118E+03  0.20723545118E+03  0.00000000000E+00 0. -1.
          2   -1    0    0  503    0 -0.00000000000E+00 -0.00000000000E+00 -0.64883491860E+03  0.64883491860E+03  0.00000000000E+00 0. -1.
         21    1    1    2  503  504  0.18721215010E+02 -0.26694080099E+02 -0.13115189842E+03  0.13514391685E+03  0.00000000000E+00 0.  1.
         21    1    1    2  504  505 -0.53856469143E+02 -0.62109638635E+02  0.98445797653E+02  0.12825638992E+03  0.00000000000E+00 0. -1.
         21    1    1    2  505  502 -0.36073303324E+02 -0.83122404449E+00  0.81479743402E+02  0.89111855165E+02  0.00000000000E+00 0. -1.
          2    1    1    2  501    0  0.71208557456E+02  0.89634942778E+02 -0.49037311006E+03  0.50355820785E+03  0.00000000000E+00 0. -1.
<scales pt_clust_3="32.60457" pt_clust_4="35.10947" pt_clust_5="35.10947" pt_clust_6="109.77280"></scales>
<clustering>
<clus scale="   32.605">  2  3  1 -1</clus>
<clus scale="   35.109">  4  5 -1 -1</clus>
<clus scale="  109.773">  2  6  1 -1</clus>
<clus scale="  121.971">  1  3  2 -1</clus>
</clustering>
</event>
<event>
 6    0  0.2117869E+002  0.1808772E+03  0.7546771E-02  0.1166957E+00
         21   -1    0    0  505  502  0.00000000000E+00  0.00000000000E+00  0.44074210031E+03  0.44074210031E+03  0.00000000000E+00 0.  1.
          2   -1    0    0  504    0 -0.00000000000E+00 -0.00000000000E+00 -0.80381600537E+03  0.80381600537E+03  0.00000000000E+00 0.  1.
         21    1    1    2  503  502  0.23018962026E+02  0.41877344142E+02  0.57387601642E+02  0.74678788069E+02  0.00000000000E+00 0.  1.
         21    1    1    2  504  503 -0.92386109786E+01 -0.69855741997E+02 -0.27041624683E+03  0.27944610066E+03  0.00000000000E+00 0.  1.
         21    1    1    2  505  501 -0.18824013101E+03  0.34115237574E+02  0.32899710005E+03  0.38057494426E+03  0.00000000000E+00 0.  1.
          2    1    1    2  501    0  0.17445977996E+03 -0.61368397185E+01 -0.47904235993E+03  0.50985827269E+03  0.00000000000E+00 0.  1.
<scales pt_clust_3="47.78687" pt_clust_4="69.92773" pt_clust_5="180.87716" pt_clust_6="14000.00000"></scales>
<clustering>
<clus scale="   47.787">  1  3  2 -1</clus>
<clus scale="   69.928">  2  4  1 -1</clus>
<clus scale="  180.877">  1  5  2 -1</clus>
<clus scale="   47.787">  1  3  2 -1</clus>
</clustering>
</event>
<event>
 6    0  0.2117869E+002  0.1137540E+03  0.7546771E-02  0.1253772E+00
         21   -1    0    0  505  502  0.00000000000E+00  0.00000000000E+00  0.15179558005E+03  0.15179558005E+03  0.00000000000E+00 0. -1.
          2   -1    0    0  503    0 -0.00000000000E+00 -0.00000000000E+00 -0.50376140861E+03  0.50376140861E+03  0.00000000000E+00 0.  1.
         21    1    1    2  503  504 -0.35426012264E+02  0.13588162605E+02 -0.22048767066E+03  0.22372852616E+03  0.00000000000E+00 0.  1.
         21    1    1    2  504  502 -0.47065744870E+02  0.53177733803E+02  0.18090793241E+01  0.71037514600E+02  0.00000000000E+00 0. -1.
         21    1    1    2  505  501  0.15450584783E+03 -0.10211772253E+03  0.21503088866E+02  0.18644696055E+03  0.00000000000E+00 0. -1.
          2    1    1    2  501    0 -0.72014090700E+02  0.35351826120E+02 -0.15479032610E+03  0.17434398735E+03  0.00000000000E+00 0.  1.
<scales pt_clust_3="37.94259" pt_clust_4="75.18131" pt_clust_5="14000.00000" pt_clust_6="113.75405"></scales>
<clustering>
<clus scale="   37.943">  2  3  1 -1</clus>
<clus scale="   75.181">  1  4  2 -1</clus>
<clus scale="  113.754">  2  6  1 -1</clus>
<clus scale="   75.181">  1  3  2 -1</clus>
</clustering>
</event>
<event>
 6    0  0.2117869E+002  0.1170216E+03  0.7546771E-02  0.1248093E+00
          2   -1    0    0  503    0 -0.00000000000E+00  0.00000000000E+00  0.26821229684E+04  0.26821229684E+04  0.00000000000E+00 0. -1.
         21   -1    0    0  501  502  0.00000000000E+00 -0.00000000000E+00 -0.18734513668E+04  0.18734513668E+04  0.00000000000E+00 0.  1.
         21    1    1    2  503  505  0.18627749317E+02 -0.31852433365E+02  0.66351910008E+02  0.75921976513E+02  0.00000000000E+00 0. -1.
         21    1    1    2  504  502  0.11298166404E+03  0.15102349909E+02 -0.15489996413E+04  0.15531879558E+04  0.00000000000E+00 0.  1.
         21    1    1    2  505  504 -0.13518826473E+03 -0.43163812064E+02 -0.30135400802E+03  0.33309641208E+03  0.00000000000E+00 0.  1.
          2    1    1    2  501    0  0.35788513764E+01  0.59913895520E+02  0.25926733409E+04  0.25933679908E+04  0.00000000000E+00 0. -1.
<scales pt_clust_3="36.89947" pt_clust_4="117.02160" pt_clust_5="14000.00000" pt_clust_6="35.87828"></scales>
<clustering>
<clus scale="   36.899">  1  3  2 -1</clus>
<clus scale="   35.878">  1  6  2 -1</clus>
<clus scale="  117.022">  2  4  1 -1</clus>
<clus scale="  117.022">  2  3  1 -1</clus>
</clustering>
</event>
<event>
 6    0  0.2117869E+002  0.9801025E+02  0.7546771E-02  0.1284537E+00
          1   -1    0    0  504    0 -0.00000000000E+00  0.00000000000E+00  0.39995389148E+03  0.39995389148E+03  0.00000000000E+00 0.  1.
         21   -1    0    0  503  502  0.00000000000E+00 -0.00000000000E+00 -0.18056334212E+04  0.18056334212E+04  0.00000000000E+00 0.  1.
         21    1    1    2  503  501 -0.21096753342E+02  0.54577637627E+02 -0.16976416258E+04  0.16986497230E+04  0.00000000000E+00 0.  1.
         21    1    1    2  504  505 -0.42820962475E+02  0.31873019432E+02  0.41071051094E+02  0.67352471617E+02  0.00000000000E+00 0.  1.
         21    1    1    2  505  502 -0.11543551066E+02  0.37641568843E+02 -0.73937289019E+02  0.83766723606E+02  0.00000000000E+00 0.  1.
          1    1    1    2  501    0  0.75461266883E+02 -0.12409222590E+03  0.32482833400E+03  0.35581839455E+03  0.00000000000E+00 0.  1.
<scales pt_clust_3="14000.00000" pt_clust_4="53.62273" pt_clust_5="39.37183" pt_clust_6="98.01025"></scales>
<clustering>
<clus scale="   39.372">  2  5  1 -1</clus>
<clus scale="   53.623">  1  4  2 -1</clus>
<clus scale="   98.010">  1  6  2 -1</clus>
<clus scale="   39.372">  2  3  1 -1</clus>
</clustering>
</event>
<event>
 6    0  0.2117869E+002  0.1014140E+03  0.7546771E-02  0.1277350E+00
          1   -1    0    0  505    0 -0.00000000000E+00  0.00000000000E+00  0.25632665012E+04  0.25632665012E+04  0.00000000000E+00 0.  1.
         21   -1    0    0  503  502  0.00000000000E+00 -0.00000000000E+00 -0.11490278265E+03  0.11490278265E+03  0.00000000000E+00 0. -1.
         21    1    1    2  503  501 -0.92680858968E+02  0.13865722229E+02 -0.68262260127E+02  0.11593850107E+03  0.00000000000E+00 0. -1.
         21    1    1    2  504  502  0.42201561565E+01 -0.66715091230E+02  0.39069535650E+02  0.77428300587E+02  0.00000000000E+00 0. -1.
         21    1    1    2  505  504  0.25698593354E+02 -0.17133365827E+02  0.85637969263E+02  0.91037529099E+02  0.00000000000E+00 0. -1.
          1    1    1    2  501    0  0.62762109458E+02  0.69982734829E+02  0.23919184737E+04  0.23937649531E+04  0.00000000000E+00 0.  1.
<scales pt_clust_3="101.41401" pt_clust_4="67.29154" pt_clust_5="30.88640" pt_clust_6="14000.00000"></scales>
<clustering>
<clus scale="   30.886">  1  5  2 -1</clus>
<clus scale="   67.292">  2  4  1 -1</clus>
<clus scale="  101.414">  2  3  1 -1</clus>
<clus scale="   67.292">  2  3  1 -1</clus>
</clustering>
</event>
<event>
 6    0  0.2117869E+002  0.1024504E+03  0.7546771E-02  0.1275226E+00
          1   -1    0    0  504    0 -0.00000000000E+00  0.00000000000E+00  0.30007613988E+04  0.30007613988E+04  0.00000000000E+00 0. -1.
         21   -1    0    0  503  502  0.00000000000E+00 -0.00000000000E+00 -0.19113632465E+03  0.19113632465E+03  0.00000000000E+00 0. -1.
         21    1    1    2  503  501  0.11133641050E+03  0.50098990369E+02 -0.97731420846E+02  0.15638777369E+03  0.00000000000E+00 0. -1.
         21    1    1    2  504  505 -0.28436682101E+02  0.24037310520E+02  0.10974336665E+03  0.11588806544E+03  0.00000000000E+00 0.  1.
         21    1    1    2  505  502 -0.10849248147E+02 -0.31424799692E+02 -0.55814478607E+02  0.64965223336E+02  0.00000000000E+00 0. -1.
          1    1    1    2  501    0 -0.72050480249E+02 -0.42711501197E+02  0.28534276070E+04  0.28546566610E+04  0.00000000000E+00 0. -1.
<scales pt_clust_3="102.45035" pt_clust_4="36.96007" pt_clust_5="33.24491" pt_clust_6="14000.00000"></scales>
<clustering>
<clus scale="   33.245">  2  5  1 -1</clus>
<clus scale="   36.960">  1  4  2 -1</clus>
<clus scale="  102.450">  2  3  1 -1</clus>
<clus scale="   33.245">  2  3  1 -1</clus>
</clustering>
</event>
<event>
 6    0  0.2117869E+002  0.1260305E+03  0.7546771E-02  0.1233467E+00
          1   -1    0    0  504    0 -0.00000000000E+00  0.00000000000E+00  0.16687479762E+04  0.16687479762E+04  0.00000000000E+00 0.  1.
         21   -1    0    0  503  502  0.00000000000E+00 -0.00000000000E+00 -0.79237463353E+02  0.79237463353E+02  0.00000000000E+00 0.  1.
         21    1    1    2  503  505 -0.16559126798E+02 -0.27790732604E+02 -0.27221934928E+01  0.32464439567E+02  0.00000000000E+00 0. -1.
         21    1    1    2  504  502 -0.32978766147E+02  0.86095714835E+01 -0.44748198416E+02  0.56250555546E+02  0.00000000000E+00 0.  1.
         21    1    1    2  505  501 -0.92314301330E+02  0.29150047561E+02  0.31182337232E+03  0.32650493262E+03  0.00000000000E+00 0.  1.
          1    1    1    2  501    0  0.14185219428E+03 -0.99688864404E+01  0.13251575324E+04  0.13327655118E+04  0.00000000000E+00 0.  1.
<scales pt_clust_3="32.35011" pt_clust_4="48.64948" pt_clust_5="126.03053" pt_clust_6="14000.00000"></scales>
<clustering>
<clus scale="   32.350">  2  3  1 -1</clus>
<clus scale="   48.649">  2  4  1 -1</clus>
<clus scale="  126.031">  2  5  1 -1</clus>
<clus scale="   32.350">  2  3  1 -1</clus>
</clustering>
</event>
<event>
 6    0  0.2117869E+002  0.1144033E+03  0.7546771E-02  0.1252626E+00
          1   -1    0    0  504    0 -0.00000000000E+00  0.00000000000E+00  0.30457774490E+04  0.30457774490E+04  0.00000000000E+00 0. -1.
         21   -1    0    0  505  502  0.00000000000E+00 -0.00000000000E+00 -0.89069606403E+02  0.89069606403E+02  0.00000000000E+00 0.  1.
         21    1    1    2  503  502  0.31614734201E+02 -0.93065068490E+02 -0.39641214172E+02  0.10598124482E+03  0.00000000000E+00 0.  1.
         21    1    1    2  504  503 -0.16982254591E+02 -0.25128889123E+02  0.89368878822E+02  0.94375073729E+02  0.00000000000E+00 0. -1.
         21    1    1    2  505  501 -0.21788218593E+02 -0.21433481975E+02  0.72753860791E+01  0.31417381521E+02  0.00000000000E+00 0.  1.
          1    1    1    2  501    0  0.71557389835E+01  0.13962743959E+03  0.28997047919E+04  0.29030733554E+04  0.00000000000E+00 0. -1.
<scales pt_clust_3="114.40333" pt_clust_4="30.32916" pt_clust_5="30.75812" pt_clust_6="14000.00000"></scales>
<clustering>
<clus scale="   30.329">  1  4  2 -1</clus>
<clus scale="   30.758">  2  5  1 -1</clus>
<clus scale="  114.403">  2  3  1 -1</clus>
<clus scale="   30.758">  2  3  1 -1</clus>
</clustering>
</event>
<event>
 6    0  0.2117869E+002  0.7333504E+02  0.7546771E-02  0.1349106E+00
          2   -1    0    0  503    0 -0.00000000000E+00  0.00000000000E+00  0.16281229330E+04  0.16281229330E+04  0.00000000000E+00 0.  1.
         21   -1    0    0  504  502  0.00000000000E+00 -0.00000000000E+00 -0.91013341720E+02  0.91013341720E+02  0.00000000000E+00 0. -1.
         21    1    1    2  503  505 -0.12357244705E+02 -0.29306470638E+02  0.14302706738E+03  0.14652069042E+03  0.00000000000E+00 0. -1.
         21    1    1    2  504  501 -0.80082052970E+02 -0.55630942348E+02  0.64560221137E+02  0.11694425641E+03  0.00000000000E+00 0. -1.
         21    1    1    2  505  502  0.49797958460E+02 -0.71068580366E+01 -0.50879237797E+02  0.71547473308E+02  0.00000000000E+00 0. -1.
          2    1    1    2  501    0  0.42641339214E+02  0.92044271022E+02  0.13804015405E+04  0.13841238546E+04  0.00000000000E+00 0.  1.
<scales pt_clust_3="31.80520" pt_clust_4="73.33504" pt_clust_5="50.24660" pt_clust_6="14000.00000"></scales>
<clustering>
<clus scale="   31.805">  1  3  2 -1</clus>
<clus scale="   50.247">  2  5  1 -1</clus>
<clus scale="   73.335">  2  4  1 -1</clus>
<clus scale="   50.247">  2  3  1 -1</clus>
</clustering>
</event>
<event>
 6    0  0.2117869E+002  0.7335446E+02  0.7546771E-02  0.1349044E+00
         21   -1    0    0  503  502  0.00000000000E+00  0.00000000000E+00  0.18276284939E+03  0.18276284939E+03  0.00000000000E+00 0.  1.
          2   -1    0    0  504    0 -0.00000000000E+00 -0.00000000000E+00 -0.13555068367E+04  0.13555068367E+04  0.00000000000E+00 0. -1.
         21    1    1    2  503  501  0.12545495812E+02  0.52264102057E+02 -0.61488923782E+03  0.61723391078E+03  0.00000000000E+00 0. -1.
         21    1    1    2  504  505 -0.11370900804E+03 -0.49925446885E+02 -0.18267125046E+03  0.22088701751E+03  0.00000000000E+00 0.  1.
         21    1    1    2  505  502  0.62542850077E+02 -0.43477801664E+01  0.15570539493E+03  0.16785315397E+03  0.00000000000E+00 0.  1.
          2    1    1    2  501    0  0.38620662152E+02  0.20091249948E+01 -0.53088889393E+03  0.53229560380E+03  0.00000000000E+00 0. -1.
<scales pt_clust_3="73.35446" pt_clust_4="14000.00000" pt_clust_5="62.97680" pt_clust_6="38.67289"></scales>
<clustering>
<clus scale="   38.673">  2  6  1 -1</clus>
<clus scale="   62.977">  1  5  2 -1</clus>
<clus scale="   73.354">  2  3  1 -1</clus>
<clus scale="   62.977">  1  3  2 -1</clus>
</clustering>
</event>
<event>
 6    0  0.2117869E+002  0.8846646E+02  0.7546771E-02  0.1306608E+00
         21   -1    0    0  503  502  0.00000000000E+00  0.00000000000E+00  0.94863876724E+02  0.94863876724E+02  0.00000000000E+00 0.  1.
          2   -1    0    0  505    0 -0.00000000000E+00 -0.00000000000E+00 -0.43201309602E+03  0.43201309602E+03  0.00000000000E+00 0.  1.
         21    1    1    2  503  501  0.58455121712E+01 -0.61645005327E+02  0.28139609533E+02  0.68015544686E+02  0.00000000000E+00 0.  1.
         21    1    1    2  504  502  0.15178148201E+00  0.30898069985E+02  0.15994424815E+02  0.34792749123E+02  0.00000000000E+00 0.  1.
         21    1    1    2  505  504 -0.57105318954E+01 -0.76939478282E+02 -0.17867639596E+03  0.19462155062E+03  0.00000000000E+00 0. -1.
          2    1    1    2  501    0 -0.28676175780E+00  0.10768641362E+03 -0.20260685768E+03  0.22944712831E+03  0.00000000000E+00 0.  1.
<scales pt_clust_3="40.69906" pt_clust_4="30.89844" pt_clust_5="14000.00000" pt_clust_6="88.46646"></scales>
<clustering>
<clus scale="   30.898">  1  4  2 -1</clus>
<clus scale="   40.699">  1  3  2 -1</clus>
<clus scale="   88.466">  1  6  2 -1</clus>
<clus scale="   30.898">  1  3  2 -1</clus>
</clustering>
</event>
<event>
 6    0  0.2117869E+002  0.8111090E+02  0.7546771E-02  0.1325928E+00
          2   -1    0    0  504    0 -0.00000000000E+00  0.00000000000E+00  0.53100899815E+03  0.53100899815E+03  0.00000000000E+00 0.  1.
         21   -1    0    0  503  502  0.00000000000E+00 -0.00000000000E+00 -0.51890392746E+03  0.51890392746E+03  0.00000000000E+00 0.  1.
         21    1    1    2  503  501  0.34898558275E+02 -0.34665551077E+02 -0.42178363716E+03  0.42464225694E+03  0.00000000000E+00 0.  1.
         21    1    1    2  504  505 -0.86776127334E+01 -0.28905238800E+02  0.40292706335E+03  0.40405572904E+03  0.00000000000E+00 0.  1.
         21    1    1    2  505  502 -0.78190038682E+02  0.10007848744E+03 -0.32853178210E+02  0.13118199997E+03  0.00000000000E+00 0.  1.
          2    1    1    2  501    0  0.51969093141E+02 -0.36507697568E+02  0.63814822720E+02  0.90032939652E+02  0.00000000000E+00 0.  1.
<scales pt_clust_3="49.34975" pt_clust_4="30.17969" pt_clust_5="14000.00000" pt_clust_6="81.11090"></scales>
<clustering>
<clus scale="   30.180">  1  4  2 -1</clus>
<clus scale="   49.350">  2  3  1 -1</clus>
<clus scale="   81.111">  1  6  2 -1</clus>
<clus scale="   49.350">  2  3  1 -1</clus>
</clustering>
</event>
<event>
 6    0  0.2117869E+002  0.2347972E+03  0.7546771E-02  0.1123308E+00
         21   -1    0    0  505  502  0.00000000000E+00  0.00000000000E+00  0.91902986989E+02  0.91902986989E+02  0.00000000000E+00 0. -1.
          2   -1    0    0  504    0 -0.00000000000E+00 -0.00000000000E+00 -0.10556896894E+04  0.10556896894E+04  0.00000000000E+00 0. -1.
         21    1    1    2  503  501 -0.11993715189E+03 -0.22667300567E+03 -0.32669646272E+03  0.41532655905E+03  0.00000000000E+00 0. -1.
         21    1    1    2  504  502 -0.13555842570E+01  0.30694477809E+02 -0.21036387172E+03  0.21259573632E+03  0.00000000000E+00 0.  1.
         21    1    1    2  505  503  0.50819190980E+02 -0.65233921427E+01 -0.11738145401E+02  0.52563569840E+02  0.00000000000E+00 0. -1.
          2    1    1    2  501    0  0.70473545171E+02  0.20250192000E+03 -0.41498822257E+03  0.46710681118E+03  0.00000000000E+00 0. -1.
<scales pt_clust_3="234.79717" pt_clust_4="30.72440" pt_clust_5="51.04915" pt_clust_6="14000.00000"></scales>
<clustering>
<clus scale="   30.724">  2  4  1 -1</clus>
<clus scale="   51.049">  1  5  2 -1</clus>
<clus scale="  234.797">  1  3  2 -1</clus>
<clus scale="   51.049">  1  3  2 -1</clus>
</clustering>
</event>
<event>
 6    0  0.2117869E+002  0.7470723E+02  0.7546771E-02  0.1344780E+00
          2   -1    0    0  504    0 -0.00000000000E+00  0.00000000000E+00  0.11334093442E+04  0.11334093442E+04  0.00000000000E+00 0. -1.
         21   -1    0    0  505  502  0.00000000000E+00 -0.00000000000E+00 -0.48770122130E+03  0.48770122130E+03  0.00000000000E+00 0.  1.
         21    1    1    2  503  501  0.80459407247E+02  0.65667791561E+02 -0.30676621176E+03  0.32386954741E+03  0.00000000000E+00 0.  1.
         21    1    1    2  504  502  0.17546161073E+02  0.29615775635E+02  0.74012212792E+01  0.35209941938E+02  0.00000000000E+00 0.  1.
         21    1    1    2  505  503 -0.43690067220E+02 -0.44159620800E+02 -0.15107502704E+03  0.16334796564E+03  0.00000000000E+00 0.  1.
          2    1    1    2  501    0 -0.54315501101E+02 -0.51123946396E+02  0.10961481404E+04  0.10986831105E+04  0.00000000000E+00 0. -1.
<scales pt_clust_3="14000.00000" pt_clust_4="34.42328" pt_clust_5="51.11483" pt_clust_6="74.70723"></scales>
<clustering>
<clus scale="   34.423">  2  4  1 -1</clus>
<clus scale="   51.115">  2  5  1 -1</clus>
<clus scale="   74.707">  1  6  2 -1</clus>
<clus scale="   34.423">  2  3  1 -1</clus>
</clustering>
</event>
<event>
 6    0  0.2117869E+002  0.2566028E+03  0.7546771E-02  0.1109202E+00
         21   -1    0    0  505  502  0.00000000000E+00  0.00000000000E+00  0.41391203671E+03  0.41391203671E+03  0.00000000000E+00 0. -1.
         -2   -1    0    0    0  501 -0.00000000000E+00 -0.00000000000E+00 -0.60164752463E+03  0.60164752463E+03  0.00000000000E+00 0.  1.
         21    1    1    2  503  504 -0.71580385434E+02 -0.27908601661E+02  0.88154780013E+02  0.11693548163E+03  0.00000000000E+00 0.  1.
         21    1    1    2  504  501 -0.22456537362E+03  0.68800946840E+02 -0.33877207221E+03  0.41222529547E+03  0.00000000000E+00 0. -1.
         21    1    1    2  505  503 -0.38187061783E+02  0.23304579702E+02  0.13168393812E+03  0.13907557184E+03  0.00000000000E+00 0. -1.
         -2    1    1    2    0  502  0.33433282083E+03 -0.64196924880E+02 -0.68802133837E+02  0.34732321240E+03  0.00000000000E+00 0.  1.
<scales pt_clust_3="87.79357" pt_clust_4="256.60280" pt_clust_5="44.73651" pt_clust_6="14000.00000"></scales>
<clustering>
<clus scale="   44.737">  1  5  2 -1</clus>
<clus scale="   87.794">  1  3  2 -1</clus>
<clus scale="  256.603">  2  4  1 -1</clus>
<clus scale="   44.737">  1  3  2 -1</clus>
</clustering>
</event>
<event>
 6    0  0.2117869E+002  0.1885835E+03  0.7546771E-02  0.1159745E+00
          2   -1    0    0  505    0 -0.00000000000E+00  0.00000000000E+00  0.75921291817E+03  0.75921291817E+03  0.00000000000E+00 0.  1.
         21   -1    0    0  501  502  0.00000000000E+00 -0.00000000000E+00 -0.35722078826E+03  0.35722078826E+03  0.00000000000E+00 0. -1.
         21    1    1    2  503  502 -0.64927493303E+01 -0.41633345692E+02 -0.12213783703E+02  0.43871035772E+02  0.00000000000E+00 0.  1.
         21    1    1    2  504  503 -0.16274487498E+03  0.12230067542E+03 -0.26025335221E+03  0.33041664135E+03  0.00000000000E+00 0. -1.
         21    1    1    2  505  504 -0.20288683159E+02 -0.45056588221E+02  0.41985774025E+03  0.42275554266E+03  0.00000000000E+00 0.  1.
          2    1    1    2  501    0  0.18952630747E+03 -0.35610741509E+02  0.25460152558E+03  0.31939048665E+03  0.00000000000E+00 0.  1.
<scales pt_clust_3="42.13658" pt_clust_4="14000.00000" pt_clust_5="49.59268" pt_clust_6="188.58348"></scales>
<clustering>
<clus scale="   42.137">  2  3  1 -1</clus>
<clus scale="   49.593">  1  5  2 -1</clus>
<clus scale="  188.583">  1  6  2 -1</clus>
<clus scale="   42.137">  2  3  1 -1</clus>
</clustering>
</event>
<event>
 6    0  0.2117869E+002  0.1294888E+03  0.7546771E-02  0.1228216E+00
          2   -1    0    0  505    0 -0.00000000000E+00  0.00000000000E+00  0.22808485424E+04  0.22808485424E+04  0.00000000000E+00 0.  1.
         21   -1    0    0  503  502  0.00000000000E+00 -0.00000000000E+00 -0.13822470997E+03  0.13822470997E+03  0.00000000000E+00 0.  1.
         21    1    1    2  503  501  0.10057727996E+03 -0.22594232304E+02  0.89772672358E+02  0.13669462784E+03  0.00000000000E+00 0.  1.
         21    1    1    2  504  502 -0.45694843194E+01  0.30258025716E+02 -0.10128677483E+03  0.10580850184E+03  0.00000000000E+00 0.  1.
         21    1    1    2  505  504  0.56677401485E+01  0.82972653886E+02  0.18625840279E+03  0.20398229624E+03  0.00000000000E+00 0.  1.
          2    1    1    2  501    0 -0.10167553579E+03 -0.90636447298E+02  0.19678795321E+04  0.19725878265E+04  0.00000000000E+00 0.  1.
<scales pt_clust_3="129.48884" pt_clust_4="30.60112" pt_clust_5="90.81684" pt_clust_6="14000.00000"></scales>
<clustering>
<clus scale="   30.601">  2  4  1 -1</clus>
<clus scale="   90.817">  2  5  1 -1</clus>
<clus scale="  129.489">  2  3  1 -1</clus>
<clus scale="   30.601">  2  3  1 -1</clus>
</clustering>
</event>
<event>
 6    0  0.4737162E+002  0.1749132E+03  0.7546771E-02  0.1172819E+00
          2   -1    0    0  505    0 -0.00000000000E+00  0.00000000000E+00  0.19137716193E+04  0.19137716193E+04  0.00000000000E+00 0.  1.
         21   -1    0    0  504  502  0.00000000000E+00 -0.00000000000E+00 -0.94776421954E+03  0.94776421954E+03  0.00000000000E+00 0. -1.
         21    1    1    2  503  502 -0.25715829629E+02 -0.46504304728E+02 -0.38616363257E+02  0.65690012657E+02  0.00000000000E+00 0. -1.
         21    1    1    2  504  501 -0.85788005970E+02 -0.88884398202E+02 -0.88576678982E+03  0.89433932272E+03  0.00000000000E+00 0. -1.
         21    1    1    2  505  503  0.31968257724E+02 -0.10827882743E+02  0.18869810913E+03  0.19169295485E+03  0.00000000000E+00 0.  1.
          2    1    1    2  501    0  0.79535577874E+02  0.14621658567E+03  0.17016924437E+04  0.17098135486E+04  0.00000000000E+00 0.  1.
<scales pt_clust_3="53.09445" pt_clust_4="174.91322" pt_clust_5="33.75222" pt_clust_6="14000.00000"></scales>
<clustering>
<clus scale="   33.752">  1  5  2 -1</clus>
<clus scale="   53.094">  2  3  1 -1</clus>
<clus scale="  174.913">  2  4  1 -1</clus>
<clus scale="   53.094">  2  3  1 -1</clus>
</clustering>
</event>
<event>
 6    0  0.2117869E+002  0.7744210E+02  0.7546771E-02  0.1336471E+00
          4   -1    0    0  503    0 -0.00000000000E+00  0.00000000000E+00  0.12751524732E+03  0.12751524732E+03  0.00000000000E+00 0.  1.
         21   -1    0    0  505  502  0.00000000000E+00 -0.00000000000E+00 -0.26896023244E+04  0.26896023244E+04  0.00000000000E+00 0.  1.
         21    1    1    2  503  504  0.33320424025E+02 -0.23908190089E+02 -0.42714745127E+02  0.59214877031E+02  0.00000000000E+00 0. -1.
         21    1    1    2  504  502  0.11561744816E+03 -0.49024848477E+01 -0.22100093160E+04  0.22130369644E+04  0.00000000000E+00 0.  1.
         21    1    1    2  505  501 -0.60828065379E+02 -0.46778327990E+02 -0.39386945545E+03  0.40127473561E+03  0.00000000000E+00 0.  1.
          4    1    1    2  501    0 -0.88109806809E+02  0.75589002927E+02  0.84506439573E+02  0.14359099466E+03  0.00000000000E+00 0.  1.
<scales pt_clust_3="41.01039" pt_clust_4="77.44210" pt_clust_5="76.37723" pt_clust_6="14000.00000"></scales>
<clustering>
<clus scale="   41.010">  1  3  2 -1</clus>
<clus scale="   76.377">  2  5  1 -1</clus>
<clus scale="   77.442">  2  4  1 -1</clus>
<clus scale="   76.377">  2  3  1 -1</clus>
</clustering>
</event>
<event>
 6    0  0.2117869E+002  0.1017432E+03  0.7546771E-02  0.1276672E+00
         21   -1    0    0  505  502  0.00000000000E+00  0.00000000000E+00  0.68357097486E+03  0.68357097486E+03  0.00000000000E+00 0. -1.
          2   -1    0    0  504    0 -0.00000000000E+00 -0.00000000000E+00 -0.18107360157E+04  0.18107360157E+04  0.00000000000E+00 0. -1.
         21    1    1    2  503  502 -0.12680601649E+03 -0.38548843066E+02  0.45780975863E+03  0.47660838664E+03  0.00000000000E+00 0. -1.
         21    1    1    2  504  503 -0.22043378012E+02 -0.28631572883E+02 -0.76124939376E+02  0.84265555685E+02  0.00000000000E+00 0. -1.
         21    1    1    2  505  501  0.28396412532E+02  0.14972553400E+02  0.20855836688E+03  0.21101451608E+03  0.00000000000E+00 0. -1.
          2    1    1    2  501    0  0.12045298197E+03  0.52207862549E+02 -0.17174082270E+04  0.17224185322E+04  0.00000000000E+00 0. -1.
<scales pt_clust_3="14000.00000" pt_clust_4="35.88360" pt_clust_5="32.10193" pt_clust_6="101.74319"></scales>
<clustering>
<clus scale="   32.102">  1  5  2 -1</clus>
<clus scale="   35.884">  2  4  1 -1</clus>
<clus scale="  101.743">  2  6  1 -1</clus>
<clus scale="   32.102">  1  3  2 -1</clus>
</clustering>
</event>
<event>
 6    0  0.2117869E+002  0.8358381E+02  0.7546771E-02  0.1319178E+00
         -1   -1    0    0    0  501 -0.00000000000E+00  0.00000000000E+00  0.95604138924E+03  0.95604138924E+03  0.00000000000E+00 0.  1.
         21   -1    0    0  504  502  0.00000000000E+00 -0.00000000000E+00 -0.49747875174E+03  0.49747875174E+03  0.00000000000E+00 0. -1.
         21    1    1    2  503  502 -0.77698865770E+01  0.54051861721E+02 -0.14122685573E+03  0.15141664265E+03  0.00000000000E+00 0. -1.
         21    1    1    2  504  505 -0.72537462978E+02 -0.30711684767E+02 -0.34025663149E+03  0.34925558892E+03  0.00000000000E+00 0. -1.
         21    1    1    2  505  501 -0.29093938128E+02 -0.83618594683E+01  0.76517723770E+02  0.82288152127E+02  0.00000000000E+00 0.  1.
         -1    1    1    2    0  503  0.10940128768E+03 -0.14978317486E+02  0.86352840095E+03  0.87055975728E+03  0.00000000000E+00 0.  1.
<scales pt_clust_3="54.58370" pt_clust_4="83.58381" pt_clust_5="30.27173" pt_clust_6="14000.00000"></scales>
<clustering>
<clus scale="   30.272">  1  5  2 -1</clus>
<clus scale="   54.584">  2  3  1 -1</clus>
<clus scale="   83.584">  2  4  1 -1</clus>
<clus scale="   54.584">  2  3  1 -1</clus>
</clustering>
</event>
<event>
 6    0  0.2117869E+002  0.9128697E+02  0.7546771E-02  0.1299765E+00
         21   -1    0    0  504  502  0.00000000000E+00  0.00000000000E+00  0.60283781877E+03  0.60283781877E+03  0.00000000000E+00 0.  1.
          1   -1    0    0  505    0 -0.00000000000E+00 -0.00000000000E+00 -0.37213684219E+03  0.37213684219E+03  0.00000000000E+00 0. -1.
         21    1    1    2  503  502 -0.14515758360E+03 -0.19773573788E+02  0.38163654218E+03  0.40878866009E+03  0.00000000000E+00 0.  1.
         21    1    1    2  504  501  0.58178861716E+02  0.45337465181E+02  0.18551822201E+03  0.19964287214E+03  0.00000000000E+00 0.  1.
         21    1    1    2  505  503  0.14384258994E+02 -0.28157243256E+02 -0.11619885113E+02  0.33686183884E+02  0.00000000000E+00 0.  1.
          1    1    1    2  501    0  0.72594462887E+02  0.25933518631E+01 -0.32483390249E+03  0.33285694484E+03  0.00000000000E+00 0. -1.
<scales pt_clust_3="14000.00000" pt_clust_4="73.64036" pt_clust_5="31.61862" pt_clust_6="91.28697"></scales>
<clustering>
<clus scale="   31.619">  2  5  1 -1</clus>
<clus scale="   73.640">  1  4  2 -1</clus>
<clus scale="   91.287">  2  6  1 -1</clus>
<clus scale="   73.640">  1  3  2 -1</clus>
</clustering>
</event>
<event>
 6    0  0.2117869E+002  0.9342733E+02  0.7546771E-02  0.1294758E+00
         21   -1    0    0  503  502  0.00000000000E+00  0.00000000000E+00  0.28469178913E+02  0.28469178913E+02  0.00000000000E+00 0.  1.
          2   -1    0    0  505    0 -0.00000000000E+00 -0.00000000000E+00 -0.29766554085E+04  0.29766554085E+04  0.00000000000E+00 0. -1.
         21    1    1    2  503  501 -0.87586334524E+02  0.58519643821E+01 -0.23021732805E+03  0.24638512459E+03  0.00000000000E+00 0.  1.
         21    1    1    2  504  502  0.72262604633E+02 -0.80689777684E+02 -0.13936796002E+03  0.17651105498E+03  0.00000000000E+00 0.  1.
         21    1    1    2  505  504 -0.29357635532E+02 -0.16888719036E+02 -0.52142445570E+03  0.52252326513E+03  0.00000000000E+00 0.  1.
          2    1    1    2  501    0  0.44681365423E+02  0.91726532338E+02 -0.20571764858E+04  0.20597051427E+04  0.00000000000E+00 0. -1.
<scales pt_clust_3="14000.00000" pt_clust_4="93.42733" pt_clust_5="33.86886" pt_clust_6="80.11674"></scales>
<clustering>
<clus scale="   33.869">  2  5  1 -1</clus>
<clus scale="   80.117">  2  6  1 -1</clus>
<clus scale="   93.427">  1  4  2 -1</clus>
<clus scale="   93.427">  1  3  2 -1</clus>
</clustering>
</event>
<event>
 6    0  0.2117869E+002  0.7155735E+02  0.7546771E-02  0.1354876E+00
         -1   -1    0    0    0  501 -0.00000000000E+00  0.00000000000E+00  0.49806568914E+03  0.49806568914E+03  0.00000000000E+00 0. -1.
         21   -1    0    0  503  502  0.00000000000E+00 -0.00000000000E+00 -0.99679573572E+02  0.99679573572E+02  0.00000000000E+00 0. -1.
         21    1    1    2  503  505 -0.75373265882E+01  0.37913654451E+02  0.18378617413E+02  0.42802220316E+02  0.00000000000E+00 0. -1.
         21    1    1    2  504  502  0.74959569034E+02 -0.37490798151E+02 -0.53565001059E+02  0.99467111521E+02  0.00000000000E+00 0. -1.
         21    1    1    2  505  501  0.22359910173E+02 -0.36151702000E+02  0.11690265818E+03  0.12439108742E+03  0.00000000000E+00 0. -1.
         -1    1    1    2    0  504 -0.89782152619E+02  0.35728845701E+02  0.31666984104E+03  0.33108484346E+03  0.00000000000E+00 0. -1.
<scales pt_clust_3="38.65561" pt_clust_4="71.55735" pt_clust_5="40.96187" pt_clust_6="14000.00000"></scales>
<clustering>
<clus scale="   38.656">  2  3  1 -1</clus>
<clus scale="   40.962">  1  5  2 -1</clus>
<clus scale="   71.557">  2  4  1 -1</clus>
<clus scale="   38.656">  2  3  1 -1</clus>
</clustering>
</event>
<event>
 6    0  0.2117869E+002  0.1418976E+03  0.7546771E-02  0.1210798E+00
          1   -1    0    0  504    0 -0.00000000000E+00  0.00000000000E+00  0.78203324074E+03  0.78203324074E+03  0.00000000000E+00 0. -1.
         21   -1    0    0  505  502  0.00000000000E+00 -0.00000000000E+00 -0.18877238942E+03  0.18877238942E+03  0.00000000000E+00 0. -1.
         21    1    1    2  503  502  0.41741072278E+01 -0.37261234053E+02 -0.86708030826E+02  0.94467482998E+02  0.00000000000E+00 0. -1.
         21    1    1    2  504  503 -0.39731995357E+02  0.14860114233E+03  0.24308499372E+03  0.28766516148E+03  0.00000000000E+00 0. -1.
         21    1    1    2  505  501 -0.73712246016E+02 -0.16439629223E+02 -0.43366854501E+02  0.87088694392E+02  0.00000000000E+00 0. -1.
          1    1    1    2  501    0  0.10927013415E+03 -0.94900279057E+02  0.48025074294E+03  0.50158429129E+03  0.00000000000E+00 0. -1.
<scales pt_clust_3="37.49430" pt_clust_4="14000.00000" pt_clust_5="82.03227" pt_clust_6="141.89763"></scales>
<clustering>
<clus scale="   37.494">  2  3  1 -1</clus>
<clus scale="   82.032">  2  5  1 -1</clus>
<clus scale="  141.898">  1  6  2 -1</clus>
<clus scale="   37.494">  2  3  1 -1</clus>
</clustering>
</event>
<event>
 6    0  0.2117869E+002  0.7626056E+02  0.7546771E-02  0.1340011E+00
          1   -1    0    0  505    0 -0.00000000000E+00  0.00000000000E+00  0.16881899780E+04  0.16881899780E+04  0.00000000000E+00 0. -1.
         21   -1    0    0  504  502  0.00000000000E+00 -0.00000000000E+00 -0.45726574506E+03  0.45726574506E+03  0.00000000000E+00 0. -1.
         21    1    1    2  503  501 -0.11046970381E+02 -0.45620547023E+02  0.23998243732E+03  0.24452983476E+03  0.00000000000E+00 0. -1.
         21    1    1    2  504  503  0.23097208006E+02 -0.72616237981E+02 -0.44727979557E+03  0.45372438171E+03  0.00000000000E+00 0. -1.
         21    1    1    2  505  502  0.27142057240E+02  0.10269890272E+03  0.72564200556E+03  0.73337580825E+03  0.00000000000E+00 0. -1.
          1    1    1    2  501    0 -0.39192294864E+02  0.15537882286E+02  0.71257958566E+03  0.71382569838E+03  0.00000000000E+00 0. -1.
<scales pt_clust_3="46.64660" pt_clust_4="76.26056" pt_clust_5="14000.00000" pt_clust_6="42.15995"></scales>
<clustering>
<clus scale="   42.160">  1  6  2 -1</clus>
<clus scale="   46.647">  1  3  2 -1</clus>
<clus scale="   76.261">  2  4  1 -1</clus>
<clus scale="   76.261">  2  3  1 -1</clus>
</clustering>
</event>
<event>
 6    0  0.2117869E+002  0.1103389E+03  0.7546771E-02  0.1259944E+00
         21   -1    0    0  504  502  0.00000000000E+00  0.00000000000E+00  0.11024264593E+04  0.11024264593E+04  0.00000000000E+00 0. -1.
          2   -1    0    0  505    0 -0.00000000000E+00 -0.00000000000E+00 -0.54804081631E+03  0.54804081631E+03  0.00000000000E+00 0. -1.
         21    1    1    2  503  502 -0.55031279334E+01  0.33885179170E+02  0.26929535802E+03  0.27147463903E+03  0.00000000000E+00 0. -1.
         21    1    1    2  504  501 -0.37010315602E+02 -0.13486768335E+03  0.81179736801E+03  0.82375604531E+03  0.00000000000E+00 0. -1.
         21    1    1    2  505  503  0.43621216833E+01 -0.30677662504E+02 -0.46734640157E+02  0.56073823420E+02  0.00000000000E+00 0.  1.
          2    1    1    2  501    0  0.38151321852E+02  0.13166016669E+03 -0.47997244289E+03  0.49916276783E+03  0.00000000000E+00 0. -1.
<scales pt_clust_3="34.26117" pt_clust_4="14000.00000" pt_clust_5="30.98624" pt_clust_6="110.33894"></scales>
<clustering>
<clus scale="   30.986">  2  5  1 -1</clus>
<clus scale="   34.261">  1  3  2 -1</clus>
<clus scale="  110.339">  2  6  1 -1</clus>
<clus scale="   34.261">  1  3  2 -1</clus>
</clustering>
</event>
<event>
 6    0  0.2117869E+002  0.1262000E+03  0.7546771E-02  0.1233206E+00
          1   -1    0    0  503    0 -0.00000000000E+00  0.00000000000E+00  0.15675480145E+04  0.15675480145E+04  0.00000000000E+00 0.  1.
         21   -1    0    0  505  502  0.00000000000E+00 -0.00000000000E+00 -0.33792439664E+02  0.33792439664E+02  0.00000000000E+00 0. -1.
         21    1    1    2  503  504 -0.30424429235E+02 -0.37738861006E+02  0.25245968136E+03  0.25707150414E+03  0.00000000000E+00 0. -1.
         21    1    1    2  504  502 -0.94691781871E+01 -0.51698208189E+02  0.12719243855E+03  0.13762371340E+03  0.00000000000E+00 0.  1.
         21    1    1    2  505  501 -0.50240373575E+02 -0.35107044666E+01  0.53813110589E+01  0.50649567535E+02  0.00000000000E+00 0. -1.
          1    1    1    2  501    0  0.90133980997E+02  0.92947773662E+02  0.11487221439E+04  0.11559956691E+04  0.00000000000E+00 0.  1.
<scales pt_clust_3="43.56853" pt_clust_4="43.56853" pt_clust_5="50.36288" pt_clust_6="117.76394"></scales>
<clustering>
<clus scale="   43.569">  3  4 -1 -1</clus>
<clus scale="   50.363">  2  5  1 -1</clus>
<clus scale="  117.764">  1  6  2 -1</clus>
<clus scale="   50.363">  2  3  1 -1</clus>
</clustering>
</event>
<event>
 6    0  0.2117869E+002  0.8393451E+02  0.7546771E-02  0.1318243E+00
          2   -1    0    0  505    0 -0.00000000000E+00  0.00000000000E+00  0.87533042993E+03  0.87533042993E+03  0.00000000000E+00 0.  1.
         21   -1    0    0  504  502  0.00000000000E+00 -0.00000000000E+00 -0.37098019497E+03  0.37098019497E+03  0.00000000000E+00 0.  1.
         21    1    1    2  503  502  0.19195278828E+02  0.24398051546E+02 -0.57347325336E+02  0.65210730495E+02  0.00000000000E+00 0. -1.
         21    1    1    2  504  501  0.27725111255E+02  0.46488819735E+02 -0.29018042176E+03  0.29518565231E+03  0.00000000000E+00 0.  1.
         21    1    1    2  505  503  0.65998062378E+02  0.10259938180E+02  0.93568655349E+02  0.11496131451E+03  0.00000000000E+00 0. -1.
          2    1    1    2  501    0 -0.11291845246E+03 -0.81146809462E+02  0.75830932671E+03  0.77095292759E+03  0.00000000000E+00 0.  1.
<scales pt_clust_3="31.04390" pt_clust_4="83.93451" pt_clust_5="67.57928" pt_clust_6="14000.00000"></scales>
<clustering>
<clus scale="   31.044">  2  3  1 -1</clus>
<clus scale="   67.579">  1  5  2 -1</clus>
<clus scale="   83.935">  2  4  1 -1</clus>
<clus scale="   31.044">  2  3  1 -1</clus>
</clustering>
</event>
<event>
 6    0  0.2117869E+002  0.6977807E+02  0.7546771E-02  0.1360849E+00
         21   -1    0    0  505  502  0.00000000000E+00  0.00000000000E+00  0.18330718574E+03  0.18330718574E+03  0.00000000000E+00 0. -1.
          2   -1    0    0  503    0 -0.00000000000E+00 -0.00000000000E+00 -0.17893063010E+03  0.17893063010E+03  0.00000000000E+00 0. -1.
         21    1    1    2  503  504 -0.34574721925E+02  0.10255548280E+02 -0.16490117166E+02  0.39654906769E+02  0.00000000000E+00 0.  1.
         21    1    1    2  504  502  0.40148504213E+02  0.47719387503E+02  0.12728072999E+02  0.63647829314E+02  0.00000000000E+00 0. -1.
         21    1    1    2  505  501 -0.77644495565E+02 -0.14474095442E+02  0.10449465050E+03  0.13098587372E+03  0.00000000000E+00 0. -1.
          2    1    1    2  501    0  0.72070713277E+02 -0.43500840340E+02 -0.96356050691E+02  0.12794920604E+03  0.00000000000E+00 0. -1.
<scales pt_clust_3="36.06366" pt_clust_4="14000.00000" pt_clust_5="69.77807" pt_clust_6="58.62598"></scales>
<clustering>
<clus scale="   36.064">  2  3  1 -1</clus>
<clus scale="   58.626">  2  6  1 -1</clus>
<clus scale="   69.778">  1  5  2 -1</clus>
<clus scale="   69.778">  1  3  2 -1</clus>
</clustering>
</event>
<event>
 6    0  0.2117869E+002  0.7296165E+02  0.7546771E-02  0.1350302E+00
          2   -1    0    0  504    0 -0.00000000000E+00  0.00000000000E+00  0.24832003725E+04  0.24832003725E+04  0.00000000000E+00 0. -1.
         21   -1    0    0  503  502  0.00000000000E+00 -0.00000000000E+00 -0.48044354935E+02  0.48044354935E+02  0.00000000000E+00 0. -1.
         21    1    1    2  503  501  0.48504693041E+02 -0.64691850654E+02  0.11211319325E+04  0.11240438385E+04  0.00000000000E+00 0. -1.
         21    1    1    2  504  505 -0.16277360889E+02 -0.33367355202E+02  0.18454487937E+03  0.18824225183E+03  0.00000000000E+00 0. -1.
         21    1    1    2  505  502 -0.56335516776E+02  0.15906472048E+02 -0.23299764763E+02  0.63004645396E+02  0.00000000000E+00 0. -1.
          2    1    1    2  501    0  0.24108184624E+02  0.82152733809E+02  0.11527789704E+04  0.11559539917E+04  0.00000000000E+00 0. -1.
<scales pt_clust_3="14000.00000" pt_clust_4="37.12591" pt_clust_5="58.59596" pt_clust_6="72.96165"></scales>
<clustering>
<clus scale="   37.126">  1  4  2 -1</clus>
<clus scale="   58.596">  2  5  1 -1</clus>
<clus scale="   72.962">  1  6  2 -1</clus>
<clus scale="   58.596">  2  3  1 -1</clus>
</clustering>
</event>
<event>
 6    0  0.2117869E+002  0.1290611E+03  0.7546771E-02  0.1228856E+00
          1   -1    0    0  505    0 -0.00000000000E+00  0.00000000000E+00  0.29668802483E+04  0.29668802483E+04  0.00000000000E+00 0.  1.
         21   -1    0    0  503  502  0.00000000000E+00 -0.00000000000E+00 -0.42196528278E+03  0.42196528278E+03  0.00000000000E+00 0. -1.
         21    1    1    2  503  501  0.43597402661E+02 -0.12970975383E+03 -0.36089281837E+03  0.38596499855E+03  0.00000000000E+00 0. -1.
         21    1    1    2  504  502  0.47200292123E+02  0.40305750448E+02 -0.97216716625E+01  0.62824612976E+02  0.00000000000E+00 0.  1.
         21    1    1    2  505  504  0.92456771444E+02 -0.65977884667E+02  0.50673662807E+03  0.51931045250E+03  0.00000000000E+00 0. -1.
          1    1    1    2  501    0 -0.18325446623E+03  0.15538188805E+03  0.24087928275E+04  0.24207454671E+04  0.00000000000E+00 0.  1.
<scales pt_clust_3="14000.00000" pt_clust_4="62.06787" pt_clust_5="113.83292" pt_clust_6="129.06107"></scales>
<clustering>
<clus scale="   62.068">  2  4  1 -1</clus>
<clus scale="  113.833">  1  5  2 -1</clus>
<clus scale="  129.061">  1  6  2 -1</clus>
<clus scale="   62.068">  2  3  1 -1</clus>
</clustering>
</event>
<event>
 6    0  0.2117869E+002  0.8526962E+02  0.7546771E-02  0.1314729E+00
         21   -1    0    0  505  502  0.00000000000E+00  0.00000000000E+00  0.10145583942E+04  0.10145583942E+04  0.00000000000E+00 0. -1.
         -1   -1    0    0    0  501 -0.00000000000E+00 -0.00000000000E+00 -0.37476593693E+03  0.37476593693E+03  0.00000000000E+00 0. -1.
         21    1    1    2  503  502 -0.57460186669E+02  0.26690357316E+02  0.65648299317E+03  0.65953314439E+03  0.00000000000E+00 0. -1.
         21    1    1    2  504  503  0.13988836737E+03 -0.29666431939E+02  0.32495985985E+03  0.35503205915E+03  0.00000000000E+00 0. -1.
         21    1    1    2  505  501  0.18530334806E+01 -0.39164089651E+02 -0.30559993154E+02  0.49710892497E+02  0.00000000000E+00 0. -1.
         -1    1    1    2    0  504 -0.84281214184E+02  0.42140164274E+02 -0.31109040263E+03  0.32504823507E+03  0.00000000000E+00 0. -1.
<scales pt_clust_3="63.27386" pt_clust_4="14000.00000" pt_clust_5="39.20790" pt_clust_6="85.26962"></scales>
<clustering>
<clus scale="   39.208">  2  5  1 -1</clus>
<clus scale="   63.274">  1  3  2 -1</clus>
<clus scale="   85.270">  2  6  1 -1</clus>
<clus scale="   63.274">  1  3  2 -1</clus>
</clustering>
</event>
<event>
 6    0  0.2117869E+002  0.1066032E+03  0.7546771E-02  0.1266993E+00
         21   -1    0    0  504  502  0.00000000000E+00  0.00000000000E+00  0.15409538942E+03  0.15409538942E+03  0.00000000000E+00 0.  1.
          2   -1    0    0  505    0 -0.00000000000E+00 -0.00000000000E+00 -0.14250060053E+04  0.14250060053E+04  0.00000000000E+00 0. -1.
         21    1    1    2  503  502  0.71636882887E+02 -0.54820795327E+02 -0.23550311232E+02  0.93229714947E+02  0.00000000000E+00 0.  1.
         21    1    1    2  504  501 -0.62319328698E+02  0.98983037830E+02  0.86238232169E+02  0.14532161985E+03  0.00000000000E+00 0.  1.
         21    1    1    2  505  503 -0.27856409671E+02  0.32058142535E+02 -0.21202170086E+03  0.21623345185E+03  0.00000000000E+00 0. -1.
          2    1    1    2  501    0  0.18538855483E+02 -0.76220385037E+02 -0.11215768359E+04  0.11243166081E+04  0.00000000000E+00 0. -1.
<scales pt_clust_3="14000.00000" pt_clust_4="106.60321" pt_clust_5="42.47004" pt_clust_6="47.05906"></scales>
<clustering>
<clus scale="   42.470">  2  5  1 -1</clus>
<clus scale="   47.059">  2  6  1 -1</clus>
<clus scale="  106.603">  1  4  2 -1</clus>
<clus scale="  106.603">  1  3  2 -1</clus>
</clustering>
</event>
<event>
 6    0  0.2117869E+002  0.2861780E+03  0.7546771E-02  0.1092362E+00
         21   -1    0    0  505  502  0.00000000000E+00  0.00000000000E+00  0.91325777059E+03  0.91325777059E+03  0.00000000000E+00 0. -1.
          3   -1    0    0  504    0 -0.00000000000E+00 -0.00000000000E+00 -0.15740186996E+04  0.15740186996E+04  0.00000000000E+00 0.  1.
         21    1    1    2  503  502  0.20383659732E+03 -0.19280676155E+03  0.32790431579E+03  0.43156117298E+03  0.00000000000E+00 0. -1.
         21    1    1    2  504  503 -0.13748725342E+03 -0.60757249644E+02 -0.81916133899E+02  0.17118540017E+03  0.00000000000E+00 0. -1.
         21    1    1    2  505  501 -0.29300780594E+03  0.90095099294E+02  0.42486419643E+03  0.52390866252E+03  0.00000000000E+00 0. -1.
          3    1    1    2  501    0  0.22665846205E+03  0.16346891190E+03 -0.13316133074E+04  0.13606212346E+04  0.00000000000E+00 0.  1.
<scales pt_clust_3="286.17795" pt_clust_4="150.31363" pt_clust_5="14000.00000" pt_clust_6="145.61157"></scales>
<clustering>
<clus scale="  150.314">  2  4  1 -1</clus>
<clus scale="  145.612">  2  6  1 -1</clus>
<clus scale="  286.178">  2  3  1 -1</clus>
<clus scale="  286.178">  1  3  2 -1</clus>
</clustering>
</event>
<event>
 6    0  0.2117869E+002  0.8253497E+02  0.7546771E-02  0.1322008E+00
          2   -1    0    0  503    0 -0.00000000000E+00  0.00000000000E+00  0.18742666118E+04  0.18742666118E+04  0.00000000000E+00 0.  1.
         21   -1    0    0  505  502  0.00000000000E+00 -0.00000000000E+00 -0.89683864294E+02  0.89683864294E+02  0.00000000000E+00 0.  1.
         21    1    1    2  503  502  0.34167643798E+02  0.77717311474E+01  0.92933458985E+03  0.92999495030E+03  0.00000000000E+00 0.  1.
         21    1    1    2  504  501 -0.27316360187E+02  0.10036602827E+03  0.95229215551E+02  0.14102526958E+03  0.00000000000E+00 0. -1.
         21    1    1    2  505  504 -0.37737491966E+02 -0.73484786263E+02 -0.39848384551E+02  0.91717096897E+02  0.00000000000E+00 0.  1.
          2    1    1    2  501    0  0.30886208355E+02 -0.34652973158E+02  0.79986732670E+03  0.80121315936E+03  0.00000000000E+00 0.  1.
<scales pt_clust_3="35.04037" pt_clust_4="82.53497" pt_clust_5="14000.00000" pt_clust_6="66.09770"></scales>
<clustering>
<clus scale="   35.040">  1  3  2 -1</clus>
<clus scale="   66.098">  1  6  2 -1</clus>
<clus scale="   82.535">  1  4  2 -1</clus>
<clus scale="   82.535">  2  3  1 -1</clus>
</clustering>
</event>
<event>
 6    0  0.2117869E+002  0.1230946E+03  0.7546771E-02  0.1238077E+00
         21   -1    0    0  501  502  0.00000000000E+00  0.00000000000E+00  0.49142726739E+03  0.49142726739E+03  0.00000000000E+00 0. -1.
          2   -1    0    0  503    0 -0.00000000000E+00 -0.00000000000E+00 -0.76617798588E+03  0.76617798588E+03  0.00000000000E+00 0.  1.
         21    1    1    2  503  504 -0.18018549656E+02  0.35280627508E+02 -0.77291854897E+02  0.86852873542E+02  0.00000000000E+00 0.  1.
         21    1    1    2  504  505  0.60405355173E+02 -0.72305175821E+02  0.18355091265E+03  0.20631961351E+03  0.00000000000E+00 0. -1.
         21    1    1    2  505  502  0.16758369445E+02 -0.26641187126E+02  0.28804438846E+03  0.28975880577E+03  0.00000000000E+00 0. -1.
          2    1    1    2  501    0 -0.59145174962E+02  0.63665735439E+02 -0.66905416471E+03  0.67467396044E+03  0.00000000000E+00 0.  1.
<scales pt_clust_3="38.87563" pt_clust_4="14000.00000" pt_clust_5="31.47373" pt_clust_6="123.09461"></scales>
<clustering>
<clus scale="   31.474">  1  5  2 -1</clus>
<clus scale="   38.876">  2  3  1 -1</clus>
<clus scale="  123.095">  2  6  1 -1</clus>
<clus scale="   31.474">  1  3  2 -1</clus>
</clustering>
</event>
<event>
 6    0  0.2117869E+002  0.1176032E+03  0.7546771E-02  0.1247104E+00
          2   -1    0    0  503    0 -0.00000000000E+00  0.00000000000E+00  0.16533685382E+04  0.16533685382E+04  0.00000000000E+00 0.  1.
         21   -1    0    0  505  502  0.00000000000E+00 -0.00000000000E+00 -0.65891064579E+02  0.65891064579E+02  0.00000000000E+00 0.  1.
         21    1    1    2  503  502 -0.14406209478E+02 -0.10938308089E+03  0.10320947999E+04  0.10379748904E+04  0.00000000000E+00 0.  1.
         21    1    1    2  504  501  0.50437395499E+02  0.15957666875E+01  0.69255201517E+02  0.85689907650E+02  0.00000000000E+00 0.  1.
         21    1    1    2  505  504 -0.71033912861E+01 -0.38594045649E+02 -0.35578822999E+02  0.52969908187E+02  0.00000000000E+00 0.  1.
          2    1    1    2  501    0 -0.28927794735E+02  0.14638135986E+03  0.52170629520E+03  0.54262489647E+03  0.00000000000E+00 0.  1.
<scales pt_clust_3="117.60318" pt_clust_4="49.49542" pt_clust_5="39.24231" pt_clust_6="14000.00000"></scales>
<clustering>
<clus scale="   39.242">  2  5  1 -1</clus>
<clus scale="   49.495">  2  4  1 -1</clus>
<clus scale="  117.603">  1  3  2 -1</clus>
<clus scale="   39.242">  2  3  1 -1</clus>
</clustering>
</event>
<event>
 6    0  0.2117869E+002  0.7327238E+02  0.7546771E-02  0.1349306E+00
          2   -1    0    0  503    0 -0.00000000000E+00  0.00000000000E+00  0.20460224782E+04  0.20460224782E+04  0.00000000000E+00 0.  1.
         21   -1    0    0  505  502  0.00000000000E+00 -0.00000000000E+00 -0.56421747855E+03  0.56421747855E+03  0.00000000000E+00 0.  1.
         21    1    1    2  503  504 -0.24117862065E+02  0.29598826603E+02  0.13399302823E+03  0.13932657112E+03  0.00000000000E+00 0.  1.
         21    1    1    2  504  502  0.68415120330E+02  0.29965772546E+02 -0.47154972047E+03  0.47742823030E+03  0.00000000000E+00 0.  1.
         21    1    1    2  505  501 -0.79474330995E+02  0.32409201691E+02 -0.64305355742E+02  0.10724599955E+03  0.00000000000E+00 0. -1.
          2    1    1    2  501    0  0.35177072730E+02 -0.91973800840E+02  0.18836670476E+04  0.18862391558E+04  0.00000000000E+00 0.  1.
<scales pt_clust_3="38.18065" pt_clust_4="73.27238" pt_clust_5="14000.00000" pt_clust_6="63.77465"></scales>
<clustering>
<clus scale="   38.181">  1  3  2 -1</clus>
<clus scale="   63.775">  1  6  2 -1</clus>
<clus scale="   73.272">  2  4  1 -1</clus>
<clus scale="   73.272">  2  3  1 -1</clus>
</clustering>
</event>
<event>
 6    0  0.2117869E+002  0.6696697E+02  0.7546771E-02  0.1370722E+00
          3   -1    0    0  503    0 -0.00000000000E+00  0.00000000000E+00  0.13215049968E+03  0.13215049968E+03  0.00000000000E+00 0.  1.
         21   -1    0    0  501  502  0.00000000000E+00 -0.00000000000E+00 -0.68297017804E+03  0.68297017804E+03  0.00000000000E+00 0.  1.
         21    1    1    2  503  504 -0.38885851688E+01  0.10285587380E+03  0.60872284497E+02  0.11958213449E+03  0.00000000000E+00 0.  1.
         21    1    1    2  504  505  0.53416940383E+02 -0.44908255616E+02 -0.53098751757E+03  0.53555379259E+03  0.00000000000E+00 0.  1.
         21    1    1    2  505  502 -0.54366318979E+02 -0.19221214255E+02 -0.10076916190E+03  0.11610157496E+03  0.00000000000E+00 0.  1.
          3    1    1    2  501    0  0.48379637647E+01 -0.38726403926E+02  0.20064716616E+02  0.43883175675E+02  0.00000000000E+00 0.  1.
<scales pt_clust_3="66.96697" pt_clust_4="14000.00000" pt_clust_5="58.37588" pt_clust_6="39.02743"></scales>
<clustering>
<clus scale="   39.027">  1  6  2 -1</clus>
<clus scale="   58.376">  2  5  1 -1</clus>
<clus scale="   66.967">  1  3  2 -1</clus>
<clus scale="   58.376">  2  3  1 -1</clus>
</clustering>
</event>
<event>
 6    0  0.2117869E+002  0.7121574E+02  0.7546771E-02  0.1356007E+00
         21   -1    0    0  503  502  0.00000000000E+00  0.00000000000E+00  0.34675298713E+03  0.34675298713E+03  0.00000000000E+00 0. -1.
          4   -1    0    0  504    0 -0.00000000000E+00 -0.00000000000E+00 -0.16931911958E+03  0.16931911958E+03  0.00000000000E+00 0. -1.
         21    1    1    2  503  505 -0.30799101092E+02  0.31144898773E+02  0.22998952550E+03  0.23412341017E+03  0.00000000000E+00 0. -1.
         21    1    1    2  504  502 -0.52828888375E+02  0.17747629266E+02 -0.74598120385E+01  0.56227382894E+02  0.00000000000E+00 0. -1.
         21    1    1    2  505  501  0.35920867326E+01  0.47342185210E+02  0.49681030831E+02  0.68719650843E+02  0.00000000000E+00 0. -1.
          4    1    1    2  501    0  0.80035902735E+02 -0.96234713248E+02 -0.94776876744E+02  0.15700166281E+03  0.00000000000E+00 0. -1.
<scales pt_clust_3="43.80170" pt_clust_4="64.18271" pt_clust_5="71.21574" pt_clust_6="14000.00000"></scales>
<clustering>
<clus scale="   43.802">  1  3  2 -1</clus>
<clus scale="   64.183">  2  4  1 -1</clus>
<clus scale="   71.216">  1  5  2 -1</clus>
<clus scale="   43.802">  1  3  2 -1</clus>
</clustering>
</event>
<event>
 6    0  0.2117869E+002  0.8738011E+02  0.7546771E-02  0.1309323E+00
         21   -1    0    0  504  502  0.00000000000E+00  0.00000000000E+00  0.10589084899E+03  0.10589084899E+03  0.00000000000E+00 0.  1.
         -1   -1    0    0    0  501 -0.00000000000E+00 -0.00000000000E+00 -0.24569422714E+04  0.24569422714E+04  0.00000000000E+00 0. -1.
         21    1    1    2  503  502  0.78091050804E+02  0.43132733589E+02  0.48983428063E+02  0.10177436390E+03  0.00000000000E+00 0.  1.
         21    1    1    2  504  505 -0.36702708656E+02 -0.91227418957E+02 -0.55282230840E+02  0.11280804864E+03  0.00000000000E+00 0.  1.
         21    1    1    2  505  501 -0.33627758686E+02 -0.42729832234E+01 -0.20055000451E+03  0.20339466279E+03  0.00000000000E+00 0.  1.
         -1    1    1    2    0  503 -0.77605834624E+01  0.52367668591E+02 -0.21442026151E+04  0.21448560450E+04  0.00000000000E+00 0. -1.
<scales pt_clust_3="87.38011" pt_clust_4="14000.00000" pt_clust_5="33.89815" pt_clust_6="62.55117"></scales>
<clustering>
<clus scale="   33.898">  2  5  1 -1</clus>
<clus scale="   62.551">  2  6  1 -1</clus>
<clus scale="   87.380">  1  3  2 -1</clus>
<clus scale="   87.380">  1  3  2 -1</clus>
</clustering>
</event>
<event>
 6    0  0.2117869E+002  0.4033034E+03  0.7546771E-02  0.1042642E+00
         21   -1    0    0  501  502  0.00000000000E+00  0.00000000000E+00  0.19475791328E+04  0.19475791328E+04  0.00000000000E+00 0.  1.
          1   -1    0    0  504    0 -0.00000000000E+00 -0.00000000000E+00 -0.62060680026E+03  0.62060680026E+03  0.00000000000E+00 0.  1.
         21    1    1    2  503  502 -0.11228652401E+03 -0.34172703043E+02  0.16467346222E+03  0.20222113210E+03  0.00000000000E+00 0. -1.
         21    1    1    2  504  505  0.17515734169E+03  0.16546685914E+03 -0.31701281076E+02  0.24303157623E+03  0.00000000000E+00 0.  1.
         21    1    1    2  505  503 -0.30280705948E+03  0.12413740605E+03  0.15730330278E+04  0.16067156305E+04  0.00000000000E+00 0.  1.
          1    1    1    2  501    0  0.23993624180E+03 -0.25543156215E+03 -0.37903287645E+03  0.51621759415E+03  0.00000000000E+00 0.  1.
<scales pt_clust_3="117.37136" pt_clust_4="234.68143" pt_clust_5="403.30341" pt_clust_6="14000.00000"></scales>
<clustering>
<clus scale="  117.371">  1  3  2 -1</clus>
<clus scale="  234.681">  2  4  1 -1</clus>
<clus scale="  403.303">  1  5  2 -1</clus>
<clus scale="  117.371">  1  3  2 -1</clus>
</clustering>
</event>
<event>
 6    0  0.2117869E+002  0.7483451E+02  0.7546771E-02  0.1344384E+00
          2   -1    0    0  503    0 -0.00000000000E+00  0.00000000000E+00  0.36771822250E+04  0.36771822250E+04  0.00000000000E+00 0. -1.
         21   -1    0    0  504  502  0.00000000000E+00 -0.00000000000E+00 -0.68858564335E+02  0.68858564335E+02  0.00000000000E+00 0. -1.
         21    1    1    2  503  505  0.66300567916E+02 -0.21323977592E+02  0.22886563425E+04  0.22897157753E+04  0.00000000000E+00 0. -1.
         21    1    1    2  504  501 -0.24949338234E+02  0.48494463607E+02 -0.48897698298E+02  0.73247302869E+02  0.00000000000E+00 0. -1.
         21    1    1    2  505  502  0.52306175768E+02 -0.40039336579E+02  0.19734273538E+03  0.20804624415E+03  0.00000000000E+00 0. -1.
          2    1    1    2  501    0 -0.93657405450E+02  0.12868850564E+02  0.11712222811E+04  0.11750314671E+04  0.00000000000E+00 0. -1.
<scales pt_clust_3="74.83451" pt_clust_4="54.53607" pt_clust_5="35.79121" pt_clust_6="14000.00000"></scales>
<clustering>
<clus scale="   54.536">  2  4  1 -1</clus>
<clus scale="   35.791">  2  5  1 -1</clus>
<clus scale="   74.835">  1  3  2 -1</clus>
<clus scale="   54.536">  2  3  1 -1</clus>
</clustering>
</event>
<event>
 6    0  0.2117869E+002  0.8146316E+02  0.7546771E-02  0.1324950E+00
          2   -1    0    0  504    0 -0.00000000000E+00  0.00000000000E+00  0.24377223352E+03  0.24377223352E+03  0.00000000000E+00 0.  1.
         21   -1    0    0  505  502  0.00000000000E+00 -0.00000000000E+00 -0.14516529922E+03  0.14516529922E+03  0.00000000000E+00 0.  1.
         21    1    1    2  503  502 -0.84175881110E+01  0.28952973235E+02 -0.13019472481E+02  0.32842611231E+02  0.00000000000E+00 0.  1.
         21    1    1    2  504  503  0.58770671550E+02 -0.20164793056E+02  0.34085866539E+02  0.70869295263E+02  0.00000000000E+00 0.  1.
         21    1    1    2  505  501  0.26532551194E+02 -0.71503017241E+02 -0.72577471616E+02  0.10528127627E+03  0.00000000000E+00 0.  1.
          2    1    1    2  501    0 -0.76885634633E+02  0.62714837062E+02  0.15011801186E+03  0.17994434997E+03  0.00000000000E+00 0.  1.
<scales pt_clust_3="30.15179" pt_clust_4="81.46316" pt_clust_5="54.41119" pt_clust_6="14000.00000"></scales>
<clustering>
<clus scale="   30.152">  2  3  1 -1</clus>
<clus scale="   54.411">  2  5  1 -1</clus>
<clus scale="   81.463">  2  4  1 -1</clus>
<clus scale="   30.152">  2  3  1 -1</clus>
</clustering>
</event>
<event>
 6    0  0.2117869E+002  0.1398441E+03  0.7546771E-02  0.1213539E+00
         21   -1    0    0  505  502  0.00000000000E+00  0.00000000000E+00  0.64366961426E+03  0.64366961426E+03  0.00000000000E+00 0.  1.
         -3   -1    0    0    0  501 -0.00000000000E+00 -0.00000000000E+00 -0.74991186051E+03  0.74991186051E+03  0.00000000000E+00 0.  1.
         21    1    1    2  503  501 -0.20659817257E+02 -0.27329968908E+02 -0.97604113161E+02  0.10344234218E+03  0.00000000000E+00 0.  1.
         21    1    1    2  504  502 -0.12879277403E+02  0.19367457446E+03  0.34000284860E+03  0.39150690114E+03  0.00000000000E+00 0.  1.
         21    1    1    2  505  503 -0.44790935847E+02 -0.66775483332E+02  0.26247928454E+03  0.27451879339E+03  0.00000000000E+00 0.  1.
         -3    1    1    2    0  504  0.78330030506E+02 -0.99569122222E+02 -0.61112026623E+03  0.62411343807E+03  0.00000000000E+00 0.  1.
<scales pt_clust_3="34.26011" pt_clust_4="14000.00000" pt_clust_5="80.72351" pt_clust_6="139.84410"></scales>
<clustering>
<clus scale="   34.260">  2  3  1 -1</clus>
<clus scale="   80.724">  1  5  2 -1</clus>
<clus scale="  139.844">  2  6  1 -1</clus>
<clus scale="   80.724">  1  3  2 -1</clus>
</clustering>
</event>
<event>
 6    0  0.2117869E+002  0.1021433E+03  0.7546771E-02  0.1275852E+00
         21   -1    0    0  505  502  0.00000000000E+00  0.00000000000E+00  0.13601760351E+04  0.13601760351E+04  0.00000000000E+00 0. -1.
         -1   -1    0    0    0  501 -0.00000000000E+00 -0.00000000000E+00 -0.29658429021E+03  0.29658429021E+03  0.00000000000E+00 0. -1.
         21    1    1    2  503  501  0.20722404633E+02 -0.25434495117E+02 -0.21932973572E+02  0.39463741907E+02  0.00000000000E+00 0.  1.
         21    1    1    2  504  502 -0.41201739298E+02  0.16827733609E+03  0.27433489610E+03  0.32446029092E+03  0.00000000000E+00 0. -1.
         21    1    1    2  505  503  0.19636103656E+02 -0.70098193809E+02  0.10452238749E+04  0.10477558313E+04  0.00000000000E+00 0. -1.
         -1    1    1    2    0  504  0.84323100844E+00 -0.72744647165E+02 -0.23403405252E+03  0.24508046121E+03  0.00000000000E+00 0. -1.
<scales pt_clust_3="32.80749" pt_clust_4="14000.00000" pt_clust_5="72.93977" pt_clust_6="102.14330"></scales>
<clustering>
<clus scale="   32.807">  2  3  1 -1</clus>
<clus scale="   72.940">  1  5  2 -1</clus>
<clus scale="  102.143">  2  6  1 -1</clus>
<clus scale="   72.940">  1  3  2 -1</clus>
</clustering>
</event>
<event>
 6    0  0.2117869E+002  0.3907630E+03  0.7546771E-02  0.1047026E+00
         21   -1    0    0  503  502  0.00000000000E+00  0.00000000000E+00  0.12355592837E+03  0.12355592837E+03  0.00000000000E+00 0. -1.
          2   -1    0    0  504    0 -0.00000000000E+00 -0.00000000000E+00 -0.32279685682E+04  0.32279685682E+04  0.00000000000E+00 0. -1.
         21    1    1    2  503  505 -0.24293577452E+03 -0.10653695208E+03 -0.23787543670E+04  0.23934995825E+04  0.00000000000E+00 0. -1.
         21    1    1    2  504  502  0.33433170748E+03  0.15187256295E+03 -0.19459131922E+03  0.41558241964E+03  0.00000000000E+00 0. -1.
         21    1    1    2  505  501 -0.48608592307E+02 -0.10881744197E+01 -0.21361516845E+03  0.21907856938E+03  0.00000000000E+00 0. -1.
          2    1    1    2  501    0 -0.42787340651E+02 -0.44247436455E+02 -0.31745178514E+03  0.32336392508E+03  0.00000000000E+00 0. -1.
<scales pt_clust_3="59.11221" pt_clust_4="367.20970" pt_clust_5="37.74117" pt_clust_6="59.11221"></scales>
<clustering>
<clus scale="   37.741">  5  6 -1 -1</clus>
<clus scale="   59.112">  3  5 -1 -1</clus>
<clus scale="  367.210">  1  4  2 -1</clus>
<clus scale="  367.210">  1  3  2 -1</clus>
</clustering>
</event>
<event>
 6    0  0.2117869E+002  0.1048696E+03  0.7546771E-02  0.1270377E+00
         21   -1    0    0  503  502  0.00000000000E+00  0.00000000000E+00  0.25028423277E+03  0.25028423277E+03  0.00000000000E+00 0. -1.
          3   -1    0    0  505    0 -0.00000000000E+00 -0.00000000000E+00 -0.54506521068E+03  0.54506521068E+03  0.00000000000E+00 0.  1.
         21    1    1    2  503  504 -0.43504011313E+02 -0.28634127563E+02  0.30909267377E+02  0.60563149451E+02  0.00000000000E+00 0.  1.
         21    1    1    2  504  501 -0.12151262740E+03  0.38882288878E+02 -0.21045472933E+02  0.12930608236E+03  0.00000000000E+00 0. -1.
         21    1    1    2  505  502  0.69114431740E+02  0.25691632003E+02  0.13512964140E+03  0.15393792455E+03  0.00000000000E+00 0. -1.
          3    1    1    2  501    0  0.95902206969E+02 -0.35939793318E+02 -0.43977441375E+03  0.45154228709E+03  0.00000000000E+00 0.  1.
<scales pt_clust_3="52.08178" pt_clust_4="14000.00000" pt_clust_5="38.76077" pt_clust_6="104.86958"></scales>
<clustering>
<clus scale="   52.082">  1  3  2 -1</clus>
<clus scale="   38.761">  1  5  2 -1</clus>
<clus scale="  104.870">  2  6  1 -1</clus>
<clus scale="   52.082">  1  3  2 -1</clus>
</clustering>
</event>
<event>
 6    0  0.2117869E+002  0.9471563E+02  0.7546771E-02  0.1291818E+00
         21   -1    0    0  503  502  0.00000000000E+00  0.00000000000E+00  0.25060619643E+03  0.25060619643E+03  0.00000000000E+00 0. -1.
         -2   -1    0    0    0  501 -0.00000000000E+00 -0.00000000000E+00 -0.12603811407E+04  0.12603811407E+04  0.00000000000E+00 0.  1.
         21    1    1    2  503  501  0.10929014759E+03  0.52113884968E+02  0.82865508856E+02  0.14672043459E+03  0.00000000000E+00 0. -1.
         21    1    1    2  504  502 -0.32157787033E+02  0.48501347217E+01  0.13109797899E+03  0.13507156314E+03  0.00000000000E+00 0. -1.
         21    1    1    2  505  504 -0.60626421105E+02 -0.20256879361E+02 -0.46282605475E+03  0.46721928583E+03  0.00000000000E+00 0.  1.
         -2    1    1    2    0  505 -0.16505939455E+02 -0.36707140328E+02 -0.76091237736E+03  0.76197605356E+03  0.00000000000E+00 0.  1.
<scales pt_clust_3="14000.00000" pt_clust_4="32.52149" pt_clust_5="94.71563" pt_clust_6="40.28740"></scales>
<clustering>
<clus scale="   32.521">  1  4  2 -1</clus>
<clus scale="   40.287">  2  6  1 -1</clus>
<clus scale="   94.716">  2  5  1 -1</clus>
<clus scale="   32.521">  1  3  2 -1</clus>
</clustering>
</event>
<event>
 6    0  0.2117869E+002  0.7231236E+02  0.7546771E-02  0.1352402E+00
         21   -1    0    0  501  502  0.00000000000E+00  0.00000000000E+00  0.29578397315E+04  0.29578397315E+04  0.00000000000E+00 0.  1.
          2   -1    0    0  504    0 -0.00000000000E+00 -0.00000000000E+00 -0.11374016509E+02  0.11374016509E+02  0.00000000000E+00 0. -1.
         21    1    1    2  503  505  0.39047602221E+02 -0.71651425250E+02  0.74381897363E+03  0.74828156967E+03  0.00000000000E+00 0.  1.
         21    1    1    2  504  503 -0.12795873382E+01  0.40057377158E+02  0.22960119997E+03  0.23307282518E+03  0.00000000000E+00 0. -1.
         21    1    1    2  505  502  0.43933395753E+02  0.54531684486E+02  0.17106526889E+04  0.17120854155E+04  0.00000000000E+00 0.  1.
          2    1    1    2  501    0 -0.81701410636E+02 -0.22937636394E+02  0.26239285254E+03  0.27577393772E+03  0.00000000000E+00 0. -1.
<scales pt_clust_3="71.05615" pt_clust_4="40.07781" pt_clust_5="72.31236" pt_clust_6="14000.00000"></scales>
<clustering>
<clus scale="   40.078">  2  4  1 -1</clus>
<clus scale="   72.312">  1  5  2 -1</clus>
<clus scale="   71.056">  1  3  2 -1</clus>
<clus scale="   72.312">  1  3  2 -1</clus>
</clustering>
</event>
<event>
 6    0  0.2117869E+002  0.1113386E+03  0.7546771E-02  0.1258111E+00
          1   -1    0    0  505    0 -0.00000000000E+00  0.00000000000E+00  0.17014261235E+04  0.17014261235E+04  0.00000000000E+00 0.  1.
         21   -1    0    0  501  502  0.00000000000E+00 -0.00000000000E+00 -0.98195828346E+02  0.98195828346E+02  0.00000000000E+00 0. -1.
         21    1    1    2  503  502 -0.35542676010E+02  0.41998749211E+01 -0.77622304879E+02  0.85475978977E+02  0.00000000000E+00 0. -1.
         21    1    1    2  504  503  0.39320459551E+02 -0.55471590068E+02  0.13702504434E+03  0.15296750838E+03  0.00000000000E+00 0.  1.
         21    1    1    2  505  504  0.33765016233E+01 -0.90189436400E+02  0.56844114003E+03  0.57556134762E+03  0.00000000000E+00 0.  1.
          1    1    1    2  501    0 -0.71542851640E+01  0.14146115155E+03  0.97538641570E+03  0.98561711690E+03  0.00000000000E+00 0.  1.
<scales pt_clust_3="35.78995" pt_clust_4="57.92543" pt_clust_5="14000.00000" pt_clust_6="111.33862"></scales>
<clustering>
<clus scale="   35.790">  2  3  1 -1</clus>
<clus scale="   57.925">  2  4  1 -1</clus>
<clus scale="  111.339">  2  6  1 -1</clus>
<clus scale="   35.790">  2  3  1 -1</clus>
</clustering>
</event>
<event>
 6    0  0.2117869E+002  0.1156929E+03  0.7546771E-02  0.1250376E+00
         21   -1    0    0  505  502  0.00000000000E+00  0.00000000000E+00  0.70571152855E+02  0.70571152855E+02  0.00000000000E+00 0.  1.
          2   -1    0    0  504    0 -0.00000000000E+00 -0.00000000000E+00 -0.15975840170E+04  0.15975840170E+04  0.00000000000E+00 0. -1.
         21    1    1    2  503  502  0.31818359498E+01 -0.63455124785E+02 -0.85307922612E+02  0.10636784571E+03  0.00000000000E+00 0.  1.
         21    1    1    2  504  503  0.12071370650E+02 -0.29174538859E+02 -0.14498994190E+03  0.14838785314E+03  0.00000000000E+00 0.  1.
         21    1    1    2  505  501 -0.88471748975E+02 -0.17694114892E+02  0.18026683925E+02  0.92007029089E+02  0.00000000000E+00 0.  1.
          2    1    1    2  501    0  0.73218542375E+02  0.11032377854E+03 -0.13147416835E+04  0.13213924419E+04  0.00000000000E+00 0. -1.
<scales pt_clust_3="65.50321" pt_clust_4="31.57328" pt_clust_5="115.69293" pt_clust_6="14000.00000"></scales>
<clustering>
<clus scale="   31.573">  2  4  1 -1</clus>
<clus scale="   65.503">  1  3  2 -1</clus>
<clus scale="  115.693">  1  5  2 -1</clus>
<clus scale="   65.503">  1  3  2 -1</clus>
</clustering>
</event>
<event>
 6    0  0.2117869E+002  0.9286870E+02  0.7546771E-02  0.1296050E+00
         21   -1    0    0  504  502  0.00000000000E+00  0.00000000000E+00  0.12747383394E+03  0.12747383394E+03  0.00000000000E+00 0. -1.
          2   -1    0    0  505    0 -0.00000000000E+00 -0.00000000000E+00 -0.93569863148E+03  0.93569863148E+03  0.00000000000E+00 0. -1.
         21    1    1    2  503  502 -0.19680510834E+02 -0.13470533533E+03 -0.83595355020E+01  0.13639183152E+03  0.00000000000E+00 0. -1.
         21    1    1    2  504  501  0.13772362781E+02  0.39114819191E+02  0.48905887271E+02  0.64120455915E+02  0.00000000000E+00 0. -1.
         21    1    1    2  505  503 -0.61729254988E+01  0.31982227861E+02 -0.69566359306E+03  0.69642573374E+03  0.00000000000E+00 0. -1.
          2    1    1    2  501    0  0.12081073552E+02  0.63608288273E+02 -0.15310755625E+03  0.16623444425E+03  0.00000000000E+00 0. -1.
<scales pt_clust_3="92.86870" pt_clust_4="42.36435" pt_clust_5="32.57250" pt_clust_6="14000.00000"></scales>
<clustering>
<clus scale="   32.573">  2  5  1 -1</clus>
<clus scale="   42.364">  1  4  2 -1</clus>
<clus scale="   92.869">  1  3  2 -1</clus>
<clus scale="   42.364">  1  3  2 -1</clus>
</clustering>
</event>
<event>
 6    0  0.2117869E+002  0.1698065E+03  0.7546771E-02  0.1178050E+00
         21   -1    0    0  503  502  0.00000000000E+00  0.00000000000E+00  0.11004321428E+04  0.11004321428E+04  0.00000000000E+00 0.  1.
         -3   -1    0    0    0  501 -0.00000000000E+00 -0.00000000000E+00 -0.14211831840E+03  0.14211831840E+03  0.00000000000E+00 0.  1.
         21    1    1    2  503  505 -0.17540877091E+03  0.47190464563E+02  0.50207683628E+03  0.53392539403E+03  0.00000000000E+00 0.  1.
         21    1    1    2  504  502  0.37100217493E+02 -0.58366376679E+02  0.27896852614E+03  0.28741346287E+03  0.00000000000E+00 0. -1.
         21    1    1    2  505  501 -0.10957853789E+03 -0.49606254615E+02  0.21464137093E+02  0.12218406461E+03  0.00000000000E+00 0.  1.
         -3    1    1    2    0  504  0.24788709131E+03  0.60782166732E+02  0.15580432486E+03  0.29902753966E+03  0.00000000000E+00 0.  1.
<scales pt_clust_3="169.80650" pt_clust_4="69.15967" pt_clust_5="119.58059" pt_clust_6="14000.00000"></scales>
<clustering>
<clus scale="   69.160">  1  4  2 -1</clus>
<clus scale="  119.581">  2  5  1 -1</clus>
<clus scale="  169.806">  1  3  2 -1</clus>
<clus scale="   69.160">  1  3  2 -1</clus>
</clustering>
</event>
<event>
 6    0  0.2117869E+002  0.1130159E+03  0.7546771E-02  0.1255085E+00
          1   -1    0    0  504    0 -0.00000000000E+00  0.00000000000E+00  0.84005704089E+02  0.84005704089E+02  0.00000000000E+00 0.  1.
         21   -1    0    0  505  502  0.00000000000E+00 -0.00000000000E+00 -0.11190582668E+04  0.11190582668E+04  0.00000000000E+00 0.  1.
         21    1    1    2  503  502 -0.22927149870E+02  0.23162270423E+02 -0.64822423059E+03  0.64904298633E+03  0.00000000000E+00 0.  1.
         21    1    1    2  504  503  0.69502406984E+02  0.64924616833E+02 -0.56495207866E+02  0.11062322975E+03  0.00000000000E+00 0.  1.
         21    1    1    2  505  501  0.20078540440E+02  0.85797200306E+02 -0.19252375915E+03  0.21173026520E+03  0.00000000000E+00 0.  1.
          1    1    1    2  501    0 -0.66653797553E+02 -0.17388408756E+03 -0.13780936512E+03  0.23166748963E+03  0.00000000000E+00 0.  1.
<scales pt_clust_3="32.59057" pt_clust_4="95.11803" pt_clust_5="113.01588" pt_clust_6="14000.00000"></scales>
<clustering>
<clus scale="   32.591">  2  3  1 -1</clus>
<clus scale="   95.118">  1  4  2 -1</clus>
<clus scale="  113.016">  2  5  1 -1</clus>
<clus scale="   32.591">  2  3  1 -1</clus>
</clustering>
</event>
<event>
 6    0  0.2117869E+002  0.9393325E+02  0.7546771E-02  0.1293597E+00
          1   -1    0    0  505    0 -0.00000000000E+00  0.00000000000E+00  0.16256266289E+04  0.16256266289E+04  0.00000000000E+00 0.  1.
         21   -1    0    0  504  502  0.00000000000E+00 -0.00000000000E+00 -0.28125049482E+03  0.28125049482E+03  0.00000000000E+00 0.  1.
         21    1    1    2  503  501 -0.12214178968E+03 -0.13236217890E+02  0.11928189708E+03  0.17123663516E+03  0.00000000000E+00 0.  1.
         21    1    1    2  504  503  0.12627067718E+02  0.28189377925E+02 -0.24307786690E+03  0.24503251466E+03  0.00000000000E+00 0.  1.
         21    1    1    2  505  502  0.25698313442E+02  0.25987345504E+02  0.24669506390E+02  0.44094557324E+02  0.00000000000E+00 0. -1.
          1    1    1    2  501    0  0.83816408523E+02 -0.40940505538E+02  0.14435025975E+04  0.14465134166E+04  0.00000000000E+00 0.  1.
<scales pt_clust_3="14000.00000" pt_clust_4="30.88825" pt_clust_5="44.19100" pt_clust_6="93.93325"></scales>
<clustering>
<clus scale="   30.888">  2  4  1 -1</clus>
<clus scale="   44.191">  2  5  1 -1</clus>
<clus scale="   93.933">  1  6  2 -1</clus>
<clus scale="   30.888">  2  3  1 -1</clus>
</clustering>
</event>
<event>
 6    0  0.2117869E+002  0.1079103E+03  0.7546771E-02  0.1264489E+00
         -2   -1    0    0    0  501 -0.00000000000E+00  0.00000000000E+00  0.41012681864E+03  0.41012681864E+03  0.00000000000E+00 0. -1.
         21   -1    0    0  504  502  0.00000000000E+00 -0.00000000000E+00 -0.17194429226E+03  0.17194429226E+03  0.00000000000E+00 0. -1.
         21    1    1    2  503  502  0.23103270080E+02 -0.39184785498E+02 -0.13570849200E+02  0.47469742477E+02  0.00000000000E+00 0.  1.
         21    1    1    2  504  505  0.69035676794E+02  0.91019445007E+02 -0.96409430762E+02  0.14948325117E+03  0.00000000000E+00 0. -1.
         21    1    1    2  505  501  0.26131669650E+02 -0.16102364970E+02  0.13761870596E+03  0.14100020761E+03  0.00000000000E+00 0. -1.
         -2    1    1    2    0  503 -0.11827061652E+03 -0.35732294539E+02  0.21054410038E+03  0.24411790965E+03  0.00000000000E+00 0. -1.
<scales pt_clust_3="47.19586" pt_clust_4="14000.00000" pt_clust_5="30.69447" pt_clust_6="107.91035"></scales>
<clustering>
<clus scale="   30.694">  1  5  2 -1</clus>
<clus scale="   47.196">  2  3  1 -1</clus>
<clus scale="  107.910">  1  6  2 -1</clus>
<clus scale="   47.196">  2  3  1 -1</clus>
</clustering>
</event>
<event>
 6    0  0.2117869E+002  0.2000488E+03  0.7546771E-02  0.1149698E+00
         21   -1    0    0  503  502  0.00000000000E+00  0.00000000000E+00  0.10089714186E+03  0.10089714186E+03  0.00000000000E+00 0. -1.
          1   -1    0    0  505    0 -0.00000000000E+00 -0.00000000000E+00 -0.20682687887E+04  0.20682687887E+04  0.00000000000E+00 0. -1.
         21    1    1    2  503  501 -0.58314951389E+02  0.13480080568E+02  0.54225795787E+02  0.80763748404E+02  0.00000000000E+00 0.  1.
         21    1    1    2  504  502 -0.29934973751E+02 -0.16755057757E+02 -0.16020793144E+02  0.37861595673E+02  0.00000000000E+00 0. -1.
         21    1    1    2  505  504 -0.11265547967E+03  0.46479969984E+01 -0.16994264377E+03  0.20394450998E+03  0.00000000000E+00 0.  1.
          1    1    1    2  501    0  0.20090540481E+03 -0.13730198094E+01 -0.18356340057E+04  0.18465960765E+04  0.00000000000E+00 0. -1.
<scales pt_clust_3="59.85270" pt_clust_4="32.20643" pt_clust_5="32.20643" pt_clust_6="191.33827"></scales>
<clustering>
<clus scale="   32.206">  4  5 -1 -1</clus>
<clus scale="   59.853">  1  3  2 -1</clus>
<clus scale="  191.338">  2  6  1 -1</clus>
<clus scale="   59.853">  1  3  2 -1</clus>
</clustering>
</event>
<event>
 6    0  0.2117869E+002  0.1793183E+03  0.7546771E-02  0.1168464E+00
          1   -1    0    0  504    0 -0.00000000000E+00  0.00000000000E+00  0.18017997105E+04  0.18017997105E+04  0.00000000000E+00 0. -1.
         21   -1    0    0  503  502  0.00000000000E+00 -0.00000000000E+00 -0.11031989116E+03  0.11031989116E+03  0.00000000000E+00 0.  1.
         21    1    1    2  503  505  0.86527403392E+02  0.18046851895E+03  0.64923535802E+01  0.20024492134E+03  0.00000000000E+00 0.  1.
         21    1    1    2  504  502 -0.30527381167E+02 -0.40376593766E+01  0.61584124283E+02  0.68853671347E+02  0.00000000000E+00 0.  1.
         21    1    1    2  505  501 -0.23573021844E+02 -0.10826377974E+03  0.34424049128E+03  0.36163275460E+03  0.00000000000E+00 0. -1.
          1    1    1    2  501    0 -0.32427000380E+02 -0.68167079832E+02  0.12791628502E+04  0.12813882544E+04  0.00000000000E+00 0. -1.
<scales pt_clust_3="179.31826" pt_clust_4="30.79324" pt_clust_5="14000.00000" pt_clust_6="89.88366"></scales>
<clustering>
<clus scale="   30.793">  1  4  2 -1</clus>
<clus scale="   89.884">  1  6  2 -1</clus>
<clus scale="  179.318">  2  3  1 -1</clus>
<clus scale="  179.318">  2  3  1 -1</clus>
</clustering>
</event>
<event>
 6    0  0.5637622E+002  0.1380145E+03  0.7546771E-02  0.1216026E+00
         21   -1    0    0  504  502  0.00000000000E+00  0.00000000000E+00  0.11437341656E+04  0.11437341656E+04  0.00000000000E+00 0. -1.
          1   -1    0    0  503    0 -0.00000000000E+00 -0.00000000000E+00 -0.37178522057E+04  0.37178522057E+04  0.00000000000E+00 0.  1.
         21    1    1    2  503  505 -0.43085890956E+00 -0.35020790821E+02 -0.13828002972E+04  0.13832437613E+04  0.00000000000E+00 0.  1.
         21    1    1    2  504  501  0.25949786111E+02 -0.41243294793E+02  0.35882818365E+01  0.48859763928E+02  0.00000000000E+00 0. -1.
         21    1    1    2  505  502  0.11066340517E+03  0.21499675367E+02  0.11121064844E+04  0.11178056441E+04  0.00000000000E+00 0. -1.
          1    1    1    2  501    0 -0.13618233237E+03  0.54764410246E+02 -0.23070125092E+04  0.23116772019E+04  0.00000000000E+00 0.  1.
<scales pt_clust_3="35.02344" pt_clust_4="49.01332" pt_clust_5="138.01455" pt_clust_6="14000.00000"></scales>
<clustering>
<clus scale="   35.023">  2  3  1 -1</clus>
<clus scale="   49.013">  1  4  2 -1</clus>
<clus scale="  138.015">  1  5  2 -1</clus>
<clus scale="   49.013">  1  3  2 -1</clus>
</clustering>
</event>
<event>
 6    0  0.2117869E+002  0.1102636E+03  0.7546771E-02  0.1260083E+00
         21   -1    0    0  503  502  0.00000000000E+00  0.00000000000E+00  0.34608226425E+02  0.34608226425E+02  0.00000000000E+00 0. -1.
          1   -1    0    0  504    0 -0.00000000000E+00 -0.00000000000E+00 -0.23213476683E+04  0.23213476683E+04  0.00000000000E+00 0.  1.
         21    1    1    2  503  501 -0.69367007756E+02 -0.13375375360E+03 -0.21454631038E+03  0.26216782347E+03  0.00000000000E+00 0. -1.
         21    1    1    2  504  505 -0.99547948448E+01  0.33700616568E+02 -0.47124815146E+03  0.47255650429E+03  0.00000000000E+00 0.  1.
         21    1    1    2  505  502  0.30153086226E+01  0.82848933243E+02 -0.18043411617E+03  0.19856864834E+03  0.00000000000E+00 0. -1.
          1    1    1    2  501    0  0.76306493978E+02  0.17204203785E+02 -0.14205108639E+04  0.14226629186E+04  0.00000000000E+00 0.  1.
<scales pt_clust_3="110.26359" pt_clust_4="35.14014" pt_clust_5="14000.00000" pt_clust_6="81.06663"></scales>
<clustering>
<clus scale="   35.140">  2  4  1 -1</clus>
<clus scale="   81.067">  2  6  1 -1</clus>
<clus scale="  110.264">  2  3  1 -1</clus>
<clus scale="  110.264">  1  3  2 -1</clus>
</clustering>
</event>
<event>
 6    0  0.2117869E+002  0.1069006E+03  0.7546771E-02  0.1266420E+00
         -1   -1    0    0    0  501 -0.00000000000E+00  0.00000000000E+00  0.59045348630E+02  0.59045348630E+02  0.00000000000E+00 0.  1.
         21   -1    0    0  505  502  0.00000000000E+00 -0.00000000000E+00 -0.17421542191E+04  0.17421542191E+04  0.00000000000E+00 0.  1.
         21    1    1    2  503  502 -0.14084306282E+03  0.30045960165E+02 -0.14083096579E+04  0.14156537785E+04  0.00000000000E+00 0.  1.
         21    1    1    2  504  501  0.27597243892E+02  0.22705472281E+02  0.26400593757E+02  0.44431269312E+02  0.00000000000E+00 0.  1.
         21    1    1    2  505  504  0.31594242965E+02 -0.27415941720E+02 -0.21744731256E+03  0.22143433291E+03  0.00000000000E+00 0. -1.
         -1    1    1    2    0  503  0.81651575961E+02 -0.25335490727E+02 -0.83752493733E+02  0.11968018697E+03  0.00000000000E+00 0.  1.
<scales pt_clust_3="106.90061" pt_clust_4="35.73718" pt_clust_5="42.43826" pt_clust_6="14000.00000"></scales>
<clustering>
<clus scale="   35.737">  1  4  2 -1</clus>
<clus scale="   42.438">  2  5  1 -1</clus>
<clus scale="  106.901">  2  3  1 -1</clus>
<clus scale="   42.438">  2  3  1 -1</clus>
</clustering>
</event>
<event>
 6    0  0.2117869E+002  0.8506538E+02  0.7546771E-02  0.1315262E+00
         21   -1    0    0  504  502  0.00000000000E+00  0.00000000000E+00  0.19591718790E+03  0.19591718790E+03  0.00000000000E+00 0. -1.
         -1   -1    0    0    0  501 -0.00000000000E+00 -0.00000000000E+00 -0.15086653450E+04  0.15086653450E+04  0.00000000000E+00 0. -1.
         21    1    1    2  503  501  0.48893338584E+02  0.80194738603E+02 -0.41397636806E+03  0.42449757122E+03  0.00000000000E+00 0. -1.
         21    1    1    2  504  503 -0.39599826982E+02 -0.26534267888E+02  0.17763604899E+03  0.18392057952E+03  0.00000000000E+00 0. -1.
         21    1    1    2  505  502  0.76304784660E+02 -0.57710228627E+02 -0.29626467060E+03  0.31132883852E+03  0.00000000000E+00 0. -1.
         -1    1    1    2    0  505 -0.85598296262E+02  0.40497579119E+01 -0.78014316746E+03  0.78483554367E+03  0.00000000000E+00 0. -1.
<scales pt_clust_3="79.19390" pt_clust_4="47.66774" pt_clust_5="14000.00000" pt_clust_6="85.06538"></scales>
<clustering>
<clus scale="   47.668">  1  4  2 -1</clus>
<clus scale="   79.194">  1  3  2 -1</clus>
<clus scale="   85.065">  2  6  1 -1</clus>
<clus scale="   47.668">  1  3  2 -1</clus>
</clustering>
</event>
<event>
 6    0  0.2117869E+002  0.1003745E+03  0.7546771E-02  0.1279510E+00
         21   -1    0    0  501  502  0.00000000000E+00  0.00000000000E+00  0.26014829720E+03  0.26014829720E+03  0.00000000000E+00 0. -1.
          3   -1    0    0  504    0 -0.00000000000E+00 -0.00000000000E+00 -0.49072730380E+03  0.49072730380E+03  0.00000000000E+00 0. -1.
         21    1    1    2  503  502  0.16636181630E+02  0.29782692607E+02  0.15110514119E+03  0.15490815025E+03  0.00000000000E+00 0. -1.
         21    1    1    2  504  505  0.89938778702E+02  0.48610478427E+02 -0.60000223417E+02  0.11854108713E+03  0.00000000000E+00 0. -1.
         21    1    1    2  505  503 -0.65910508795E+01 -0.63507837797E+02  0.56934081312E+02  0.85546344330E+02  0.00000000000E+00 0. -1.
          3    1    1    2  501    0 -0.99983909452E+02 -0.14885333237E+02 -0.37861800568E+03  0.39188001929E+03  0.00000000000E+00 0. -1.
<scales pt_clust_3="34.11409" pt_clust_4="100.37447" pt_clust_5="43.93290" pt_clust_6="14000.00000"></scales>
<clustering>
<clus scale="   34.114">  1  3  2 -1</clus>
<clus scale="   43.933">  1  5  2 -1</clus>
<clus scale="  100.374">  1  4  2 -1</clus>
<clus scale="   34.114">  1  3  2 -1</clus>
</clustering>
</event>
<event>
 6    0  0.2117869E+002  0.1502496E+03  0.7546771E-02  0.1200167E+00
         21   -1    0    0  501  502  0.00000000000E+00  0.00000000000E+00  0.57666723683E+02  0.57666723683E+02  0.00000000000E+00 0.  1.
          2   -1    0    0  505    0 -0.00000000000E+00 -0.00000000000E+00 -0.17925260302E+04  0.17925260302E+04  0.00000000000E+00 0. -1.
         21    1    1    2  503  502  0.19508321665E+02  0.26528860953E+02  0.20795046370E+02  0.38945975802E+02  0.00000000000E+00 0.  1.
         21    1    1    2  504  503  0.30722082370E+02  0.22332476106E+02 -0.81003693314E+02  0.89466106234E+02  0.00000000000E+00 0.  1.
         21    1    1    2  505  504  0.87640606246E+02 -0.11726828706E+03 -0.25678662285E+03  0.29558771404E+03  0.00000000000E+00 0.  1.
          2    1    1    2  501    0 -0.13787101028E+03  0.68406950001E+02 -0.14178640367E+04  0.14261929578E+04  0.00000000000E+00 0. -1.
<scales pt_clust_3="32.92955" pt_clust_4="42.78489" pt_clust_5="150.24960" pt_clust_6="14000.00000"></scales>
<clustering>
<clus scale="   32.930">  1  3  2 -1</clus>
<clus scale="   42.785">  1  4  2 -1</clus>
<clus scale="  150.250">  1  5  2 -1</clus>
<clus scale="   32.930">  1  3  2 -1</clus>
</clustering>
</event>
<event>
 6    0  0.2117869E+002  0.2014117E+03  0.7546771E-02  0.1148553E+00
         21   -1    0    0  505  502  0.00000000000E+00  0.00000000000E+00  0.14573826533E+03  0.14573826533E+03  0.00000000000E+00 0.  1.
          2   -1    0    0  504    0 -0.00000000000E+00 -0.00000000000E+00 -0.20265269830E+04  0.20265269830E+04  0.00000000000E+00 0.  1.
         21    1    1    2  503  502  0.22264273056E+03  0.59433600722E+02  0.19420093385E+02  0.23125587212E+03  0.00000000000E+00 0.  1.
         21    1    1    2  504  503  0.35380931172E+02 -0.56346141408E+02 -0.71579343524E+03  0.71887894661E+03  0.00000000000E+00 0.  1.
         21    1    1    2  505  501 -0.11535404481E+03 -0.40614130936E+02 -0.27691468661E+03  0.30271737140E+03  0.00000000000E+00 0.  1.
          2    1    1    2  501    0 -0.14266961692E+03  0.37526671623E+02 -0.90750068922E+03  0.91941305821E+03  0.00000000000E+00 0.  1.
<scales pt_clust_3="14000.00000" pt_clust_4="66.53343" pt_clust_5="201.41169" pt_clust_6="117.99695"></scales>
<clustering>
<clus scale="   66.533">  2  4  1 -1</clus>
<clus scale="  117.997">  2  6  1 -1</clus>
<clus scale="  201.412">  2  5  1 -1</clus>
<clus scale="  201.412">  1  3  2 -1</clus>
</clustering>
</event>
<event>
 6    0  0.2117869E+002  0.2039491E+03  0.7546771E-02  0.1146449E+00
         21   -1    0    0  501  502  0.00000000000E+00  0.00000000000E+00  0.60342138277E+03  0.60342138277E+03  0.00000000000E+00 0.  1.
          1   -1    0    0  503    0 -0.00000000000E+00 -0.00000000000E+00 -0.84348558779E+03  0.84348558779E+03  0.00000000000E+00 0. -1.
         21    1    1    2  503  504  0.17874491406E+03  0.69609268068E+02 -0.28391496089E+03  0.34264106514E+03  0.00000000000E+00 0. -1.
         21    1    1    2  504  505 -0.14415549179E+01  0.36718820613E+02  0.94781989477E+02  0.10165616261E+03  0.00000000000E+00 0.  1.
         21    1    1    2  505  502  0.13254919885E+03  0.91706973993E+02  0.39381681441E+03  0.42552454983E+03  0.00000000000E+00 0.  1.
          1    1    1    2  501    0 -0.30985255799E+03 -0.19803506267E+03 -0.44474804801E+03  0.57708519298E+03  0.00000000000E+00 0. -1.
<scales pt_clust_3="191.82074" pt_clust_4="35.43752" pt_clust_5="35.43752" pt_clust_6="189.96557"></scales>
<clustering>
<clus scale="   35.438">  4  5 -1 -1</clus>
<clus scale="  191.821">  2  3  1 -1</clus>
<clus scale="  189.966">  2  6  1 -1</clus>
<clus scale="  203.949">  1  3  2 -1</clus>
</clustering>
</event>
<event>
 6    0  0.2117869E+002  0.9477616E+02  0.7546771E-02  0.1291681E+00
         21   -1    0    0  504  502  0.00000000000E+00  0.00000000000E+00  0.16453362599E+03  0.16453362599E+03  0.00000000000E+00 0.  1.
         -1   -1    0    0    0  501 -0.00000000000E+00 -0.00000000000E+00 -0.28182345172E+03  0.28182345172E+03  0.00000000000E+00 0.  1.
         21    1    1    2  503  502  0.28318217637E+02 -0.10829910075E+02  0.63200456591E+02  0.70096405869E+02  0.00000000000E+00 0.  1.
         21    1    1    2  504  501 -0.55930447224E+02  0.50858171381E+02 -0.72425396342E+02  0.10469100514E+03  0.00000000000E+00 0.  1.
         21    1    1    2  505  503 -0.37258017139E+02  0.68668908048E+02  0.30520528494E+02  0.83875392298E+02  0.00000000000E+00 0.  1.
         -1    1    1    2    0  505  0.64870246726E+02 -0.10869716935E+03 -0.13858541448E+03  0.18769427440E+03  0.00000000000E+00 0.  1.
<scales pt_clust_3="30.31845" pt_clust_4="94.77616" pt_clust_5="65.69078" pt_clust_6="14000.00000"></scales>
<clustering>
<clus scale="   30.318">  1  3  2 -1</clus>
<clus scale="   65.691">  1  5  2 -1</clus>
<clus scale="   94.776">  2  4  1 -1</clus>
<clus scale="   30.318">  1  3  2 -1</clus>
</clustering>
</event>
<event>
 6    0  0.2117869E+002  0.2207217E+03  0.7546771E-02  0.1133346E+00
          3   -1    0    0  503    0 -0.00000000000E+00  0.00000000000E+00  0.18508472943E+03  0.18508472943E+03  0.00000000000E+00 0. -1.
         21   -1    0    0  501  502  0.00000000000E+00 -0.00000000000E+00 -0.16782309818E+04  0.16782309818E+04  0.00000000000E+00 0.  1.
         21    1    1    2  503  504  0.22602717498E+02  0.57333926758E+02  0.29437923880E+02  0.68298267607E+02  0.00000000000E+00 0. -1.
         21    1    1    2  504  505  0.84606785263E+01  0.52976447948E+02 -0.19528909058E+03  0.20252386530E+03  0.00000000000E+00 0.  1.
         21    1    1    2  505  502  0.59100658307E+02  0.13582561111E+03 -0.13220377315E+04  0.13303102074E+04  0.00000000000E+00 0.  1.
          3    1    1    2  501    0 -0.90164054331E+02 -0.24613598582E+03 -0.52573541798E+01  0.26218337091E+03  0.00000000000E+00 0. -1.
<scales pt_clust_3="61.62842" pt_clust_4="50.66962" pt_clust_5="50.66962" pt_clust_6="204.03240"></scales>
<clustering>
<clus scale="   50.670">  4  5 -1 -1</clus>
<clus scale="   61.628">  1  3  2 -1</clus>
<clus scale="  204.032">  1  6  2 -1</clus>
<clus scale="  220.722">  2  3  1 -1</clus>
</clustering>
</event>
<event>
 6    0  0.2117869E+002  0.1625680E+03  0.7546771E-02  0.1185828E+00
          2   -1    0    0  503    0 -0.00000000000E+00  0.00000000000E+00  0.10251694512E+04  0.10251694512E+04  0.00000000000E+00 0. -1.
         21   -1    0    0  505  502  0.00000000000E+00 -0.00000000000E+00 -0.19026242942E+03  0.19026242942E+03  0.00000000000E+00 0. -1.
         21    1    1    2  503  502  0.10836897031E+02 -0.57962783180E+02  0.21517504077E+03  0.22310854027E+03  0.00000000000E+00 0. -1.
         21    1    1    2  504  501  0.95436175496E+02 -0.15479536751E+02  0.16673455226E+01  0.96697775013E+02  0.00000000000E+00 0. -1.
         21    1    1    2  505  504  0.86308158127E+02  0.39195412461E+02 -0.10798584608E+03  0.14368827882E+03  0.00000000000E+00 0. -1.
          2    1    1    2  501    0 -0.19258123065E+03  0.34246907470E+02  0.72605048155E+03  0.75193728650E+03  0.00000000000E+00 0. -1.
<scales pt_clust_3="58.96713" pt_clust_4="162.56805" pt_clust_5="94.48747" pt_clust_6="14000.00000"></scales>
<clustering>
<clus scale="   58.967">  1  3  2 -1</clus>
<clus scale="   94.487">  2  5  1 -1</clus>
<clus scale="  162.568">  2  4  1 -1</clus>
<clus scale="   94.487">  2  3  1 -1</clus>
</clustering>
</event>
<event>
 6    0  0.2117869E+002  0.1109289E+03  0.7546771E-02  0.1258859E+00
         21   -1    0    0  504  502  0.00000000000E+00  0.00000000000E+00  0.35294974779E+02  0.35294974779E+02  0.00000000000E+00 0. -1.
          2   -1    0    0  505    0 -0.00000000000E+00 -0.00000000000E+00 -0.43520525077E+04  0.43520525077E+04  0.00000000000E+00 0.  1.
         21    1    1    2  503  502  0.42251854180E+02 -0.64152406740E+02 -0.24271454497E+02  0.80559629937E+02  0.00000000000E+00 0. -1.
         21    1    1    2  504  501 -0.20923209692E+02  0.30942665934E+02 -0.87222855951E+02  0.94884434336E+02  0.00000000000E+00 0. -1.
         21    1    1    2  505  503  0.28795506058E+02 -0.80669618541E+02 -0.84335751771E+03  0.84769609602E+03  0.00000000000E+00 0. -1.
          2    1    1    2  501    0 -0.50124150545E+02  0.11387935935E+03 -0.33619057048E+04  0.33642073222E+04  0.00000000000E+00 0.  1.
<scales pt_clust_3="43.40941" pt_clust_4="37.35277" pt_clust_5="14000.00000" pt_clust_6="110.92887"></scales>
<clustering>
<clus scale="   37.353">  1  4  2 -1</clus>
<clus scale="   43.409">  1  3  2 -1</clus>
<clus scale="  110.929">  2  6  1 -1</clus>
<clus scale="   37.353">  1  3  2 -1</clus>
</clustering>
</event>
<event>
 6    0  0.2117869E+002  0.9762061E+02  0.7546771E-02  0.1285381E+00
          2   -1    0    0  503    0 -0.00000000000E+00  0.00000000000E+00  0.15480339121E+04  0.15480339121E+04  0.00000000000E+00 0.  1.
         21   -1    0    0  501  502  0.00000000000E+00 -0.00000000000E+00 -0.13346547933E+04  0.13346547933E+04  0.00000000000E+00 0. -1.
         21    1    1    2  503  505  0.34617231435E+02 -0.12599072329E+02  0.63260059326E+02  0.73204674999E+02  0.00000000000E+00 0.  1.
         21    1    1    2  504  502  0.57108513542E+02  0.81097852761E+02 -0.97093847829E+03  0.97599168678E+03  0.00000000000E+00 0. -1.
         21    1    1    2  505  504 -0.10480936139E+03 -0.32687856537E+02 -0.34750474232E+03  0.36443523997E+03  0.00000000000E+00 0. -1.
          2    1    1    2  501    0  0.13083616409E+02 -0.35810923895E+02  0.14685622800E+04  0.14690571036E+04  0.00000000000E+00 0.  1.
<scales pt_clust_3="36.83869" pt_clust_4="14000.00000" pt_clust_5="97.62061" pt_clust_6="67.71545"></scales>
<clustering>
<clus scale="   36.839">  1  3  2 -1</clus>
<clus scale="   67.715">  1  6  2 -1</clus>
<clus scale="   97.621">  1  5  2 -1</clus>
<clus scale="   97.621">  2  3  1 -1</clus>
</clustering>
</event>
<event>
 6    0  0.2117869E+002  0.8247503E+02  0.7546771E-02  0.1322171E+00
          2   -1    0    0  505    0 -0.00000000000E+00  0.00000000000E+00  0.16274736351E+04  0.16274736351E+04  0.00000000000E+00 0. -1.
         21   -1    0    0  504  502  0.00000000000E+00 -0.00000000000E+00 -0.13561327078E+03  0.13561327078E+03  0.00000000000E+00 0. -1.
         21    1    1    2  503  502 -0.13818469283E+02  0.29732697884E+02 -0.80840571002E+02  0.87236353298E+02  0.00000000000E+00 0. -1.
         21    1    1    2  504  501 -0.71675441882E+02  0.10189608239E+02  0.51002622182E+03  0.51513876191E+03  0.00000000000E+00 0. -1.
         21    1    1    2  505  503  0.81876663744E+02  0.21881461615E+02 -0.10815844582E+02  0.85437514725E+02  0.00000000000E+00 0. -1.
          2    1    1    2  501    0  0.36172474207E+01 -0.61803767738E+02  0.10734905580E+04  0.10752742759E+04  0.00000000000E+00 0. -1.
<scales pt_clust_3="32.78694" pt_clust_4="14000.00000" pt_clust_5="82.47503" pt_clust_6="61.38265"></scales>
<clustering>
<clus scale="   32.787">  2  3  1 -1</clus>
<clus scale="   61.383">  1  6  2 -1</clus>
<clus scale="   82.475">  2  5  1 -1</clus>
<clus scale="   32.787">  2  3  1 -1</clus>
</clustering>
</event>
<event>
 6    0  0.2117869E+002  0.1485128E+03  0.7546771E-02  0.1202313E+00
         21   -1    0    0  505  502  0.00000000000E+00  0.00000000000E+00  0.41868626659E+03  0.41868626659E+03  0.00000000000E+00 0. -1.
          1   -1    0    0  504    0 -0.00000000000E+00 -0.00000000000E+00 -0.30213758683E+04  0.30213758683E+04  0.00000000000E+00 0.  1.
         21    1    1    2  503  501  0.18453833297E+03  0.37866676060E+02 -0.93360081559E+03  0.95241732679E+03  0.00000000000E+00 0.  1.
         21    1    1    2  504  502  0.25063827025E+02  0.51155873594E+02 -0.75478123410E+02  0.94562497544E+02  0.00000000000E+00 0. -1.
         21    1    1    2  505  503 -0.85535813759E+02 -0.24443937631E+02  0.39229607126E+03  0.40225624799E+03  0.00000000000E+00 0. -1.
          1    1    1    2  501    0 -0.12406634624E+03 -0.64578612024E+02 -0.19859067339E+04  0.19908260625E+04  0.00000000000E+00 0.  1.
<scales pt_clust_3="148.51275" pt_clust_4="56.96594" pt_clust_5="88.89532" pt_clust_6="14000.00000"></scales>
<clustering>
<clus scale="   56.966">  2  4  1 -1</clus>
<clus scale="   88.895">  1  5  2 -1</clus>
<clus scale="  148.513">  1  3  2 -1</clus>
<clus scale="   88.895">  1  3  2 -1</clus>
</clustering>
</event>
<event>
 6    0  0.2117869E+002  0.1652252E+03  0.7546771E-02  0.1182921E+00
          2   -1    0    0  505    0 -0.00000000000E+00  0.00000000000E+00  0.65059472254E+03  0.65059472254E+03  0.00000000000E+00 0.  1.
         21   -1    0    0  504  502  0.00000000000E+00 -0.00000000000E+00 -0.74244087435E+03  0.74244087435E+03  0.00000000000E+00 0. -1.
         21    1    1    2  503  502  0.49247176823E+02  0.35821102462E+02 -0.64312413658E+03  0.64600084432E+03  0.00000000000E+00 0. -1.
         21    1    1    2  504  501 -0.75155240815E+02 -0.55647662762E+01 -0.11463762475E+02  0.76227912838E+02  0.00000000000E+00 0.  1.
         21    1    1    2  505  503  0.17556801042E+03  0.29305508914E+02  0.16923227914E+03  0.24560639943E+03  0.00000000000E+00 0. -1.
          2    1    1    2  501    0 -0.14965994643E+03 -0.59561845099E+02  0.39350946810E+03  0.42520044031E+03  0.00000000000E+00 0.  1.
<scales pt_clust_3="60.89693" pt_clust_4="54.11911" pt_clust_5="165.22515" pt_clust_6="14000.00000"></scales>
<clustering>
<clus scale="   60.897">  2  3  1 -1</clus>
<clus scale="   54.119">  2  4  1 -1</clus>
<clus scale="  165.225">  2  5  1 -1</clus>
<clus scale="   60.897">  2  3  1 -1</clus>
</clustering>
</event>
<event>
 6    0  0.2117869E+002  0.5559643E+02  0.7546771E-02  0.1417299E+00
          2   -1    0    0  505    0 -0.00000000000E+00  0.00000000000E+00  0.81004417019E+03  0.81004417019E+03  0.00000000000E+00 0.  1.
         21   -1    0    0  503  502  0.00000000000E+00 -0.00000000000E+00 -0.53669084030E+02  0.53669084030E+02  0.00000000000E+00 0.  1.
         21    1    1    2  503  501  0.51713598469E+02 -0.60509984435E+01 -0.20176813198E+00  0.52066799010E+02  0.00000000000E+00 0.  1.
         21    1    1    2  504  502 -0.63555133781E+02 -0.22619247777E+02  0.34312544363E+02  0.75685111486E+02  0.00000000000E+00 0.  1.
         21    1    1    2  505  504 -0.38731517219E+02 -0.33627627153E+02  0.16054424895E+03  0.16853902694E+03  0.00000000000E+00 0.  1.
          2    1    1    2  501    0  0.50573052530E+02  0.62297873374E+02  0.56172006098E+03  0.56742231678E+03  0.00000000000E+00 0.  1.
<scales pt_clust_3="55.59643" pt_clust_4="14000.00000" pt_clust_5="51.29276" pt_clust_6="36.88257"></scales>
<clustering>
<clus scale="   51.293">  1  5  2 -1</clus>
<clus scale="   36.883">  1  6  2 -1</clus>
<clus scale="   55.596">  2  3  1 -1</clus>
<clus scale="   55.596">  2  3  1 -1</clus>
</clustering>
</event>
<event>
 6    0  0.2117869E+002  0.1585133E+03  0.7546771E-02  0.1190386E+00
         21   -1    0    0  505  502  0.00000000000E+00  0.00000000000E+00  0.39540533591E+03  0.39540533591E+03  0.00000000000E+00 0.  1.
          1   -1    0    0  504    0 -0.00000000000E+00 -0.00000000000E+00 -0.52884834591E+03  0.52884834591E+03  0.00000000000E+00 0.  1.
         21    1    1    2  503  502  0.31428323591E+02 -0.60132161336E+01  0.16089761554E+03  0.16404859335E+03  0.00000000000E+00 0.  1.
         21    1    1    2  504  503  0.37985947059E+02 -0.10830898752E+03 -0.97782896566E+02  0.15078217339E+03  0.00000000000E+00 0.  1.
         21    1    1    2  505  501  0.59247424118E+02  0.14603900471E+03  0.16269428447E+03  0.22651065838E+03  0.00000000000E+00 0.  1.
          1    1    1    2  501    0 -0.12866169477E+03 -0.31716801055E+02 -0.35925201344E+03  0.38291225670E+03  0.00000000000E+00 0.  1.
<scales pt_clust_3="31.99841" pt_clust_4="116.64837" pt_clust_5="158.51331" pt_clust_6="14000.00000"></scales>
<clustering>
<clus scale="   31.998">  1  3  2 -1</clus>
<clus scale="  116.648">  2  4  1 -1</clus>
<clus scale="  158.513">  1  5  2 -1</clus>
<clus scale="   31.998">  1  3  2 -1</clus>
</clustering>
</event>
<event>
 6    0  0.2117869E+002  0.6836910E+02  0.7546771E-02  0.1365728E+00
          2   -1    0    0  504    0 -0.00000000000E+00  0.00000000000E+00  0.50564285438E+03  0.50564285438E+03  0.00000000000E+00 0.  1.
         21   -1    0    0  501  502  0.00000000000E+00 -0.00000000000E+00 -0.13153272768E+03  0.13153272768E+03  0.00000000000E+00 0.  1.
         21    1    1    2  503  502  0.48051967985E+01  0.49509166832E+02 -0.43952758674E+02  0.66378403956E+02  0.00000000000E+00 0.  1.
         21    1    1    2  504  505 -0.17189198344E+02  0.67095839155E+02  0.60753502003E+02  0.92132014942E+02  0.00000000000E+00 0.  1.
         21    1    1    2  505  503  0.43296662701E+02 -0.52696542016E+02 -0.37289863709E+02  0.77730691988E+02  0.00000000000E+00 0.  1.
          2    1    1    2  501    0 -0.30912661156E+02 -0.63908463971E+02  0.39459924708E+03  0.40093447118E+03  0.00000000000E+00 0.  1.
<scales pt_clust_3="49.74181" pt_clust_4="14000.00000" pt_clust_5="49.38209" pt_clust_6="68.36910"></scales>
<clustering>
<clus scale="   49.742">  2  3  1 -1</clus>
<clus scale="   49.382">  2  5  1 -1</clus>
<clus scale="   68.369">  1  6  2 -1</clus>
<clus scale="   49.742">  2  3  1 -1</clus>
</clustering>
</event>
<event>
 6    0  0.2117869E+002  0.7377208E+02  0.7546771E-02  0.1347716E+00
         21   -1    0    0  504  502  0.00000000000E+00  0.00000000000E+00  0.78222375834E+02  0.78222375834E+02  0.00000000000E+00 0.  1.
          2   -1    0    0  505    0 -0.00000000000E+00 -0.00000000000E+00 -0.15807890501E+04  0.15807890501E+04  0.00000000000E+00 0.  1.
         21    1    1    2  503  502 -0.29185150318E+02 -0.10161418890E+03 -0.26905741547E+02  0.10909232472E+03  0.00000000000E+00 0.  1.
         21    1    1    2  504  501  0.22888898273E+02  0.56402235822E+02  0.56055877916E+01  0.61127215579E+02  0.00000000000E+00 0.  1.
         21    1    1    2  505  503 -0.14559978131E+02 -0.34318946514E+02 -0.13605402520E+03  0.14106906403E+03  0.00000000000E+00 0.  1.
          2    1    1    2  501    0  0.20856230176E+02  0.79530899595E+02 -0.13452124953E+04  0.13477228216E+04  0.00000000000E+00 0.  1.
<scales pt_clust_3="73.77208" pt_clust_4="14000.00000" pt_clust_5="37.27979" pt_clust_6="48.04281"></scales>
<clustering>
<clus scale="   37.280">  2  5  1 -1</clus>
<clus scale="   48.043">  2  6  1 -1</clus>
<clus scale="   73.772">  2  3  1 -1</clus>
<clus scale="   73.772">  1  3  2 -1</clus>
</clustering>
</event>
<event>
 6    0  0.2117869E+002  0.1130653E+03  0.7546771E-02  0.1254996E+00
         21   -1    0    0  505  502  0.00000000000E+00  0.00000000000E+00  0.57820037871E+03  0.57820037871E+03  0.00000000000E+00 0. -1.
         -2   -1    0    0    0  501 -0.00000000000E+00 -0.00000000000E+00 -0.32650671256E+03  0.32650671256E+03  0.00000000000E+00 0.  1.
         21    1    1    2  503  502 -0.32737580558E+02 -0.38397309985E+01  0.64186219958E+02  0.72155135281E+02  0.00000000000E+00 0. -1.
         21    1    1    2  504  501 -0.15577409458E+02 -0.27262573308E+02 -0.73470713865E+02  0.79898994891E+02  0.00000000000E+00 0. -1.
         21    1    1    2  505  504 -0.79486802363E+02 -0.13964975112E+02  0.48454576319E+03  0.49122069267E+03  0.00000000000E+00 0. -1.
         -2    1    1    2    0  503  0.12780179238E+03  0.45067279419E+02 -0.22356760313E+03  0.26143226843E+03  0.00000000000E+00 0.  1.
<scales pt_clust_3="33.26184" pt_clust_4="31.39910" pt_clust_5="113.06532" pt_clust_6="14000.00000"></scales>
<clustering>
<clus scale="   31.399">  2  4  1 -1</clus>
<clus scale="   33.262">  1  3  2 -1</clus>
<clus scale="  113.065">  1  5  2 -1</clus>
<clus scale="   33.262">  1  3  2 -1</clus>
</clustering>
</event>
<event>
 6    0  0.2117869E+002  0.8366169E+02  0.7546771E-02  0.1318970E+00
         -2   -1    0    0    0  501 -0.00000000000E+00  0.00000000000E+00  0.35978655249E+03  0.35978655249E+03  0.00000000000E+00 0. -1.
         21   -1    0    0  505  502  0.00000000000E+00 -0.00000000000E+00 -0.19634677166E+03  0.19634677166E+03  0.00000000000E+00 0. -1.
         21    1    1    2  503  501  0.27009065732E+02  0.16561062948E+02  0.30140268768E+02  0.43728643234E+02  0.00000000000E+00 0. -1.
         21    1    1    2  504  503 -0.66764146910E+01 -0.43178775571E+02  0.93550548286E+02  0.10325059931E+03  0.00000000000E+00 0. -1.
         21    1    1    2  505  504  0.75515457894E+02 -0.32864764303E+02 -0.15988721297E+03  0.17985159990E+03  0.00000000000E+00 0. -1.
         -2    1    1    2    0  502 -0.95848108935E+02  0.59482476926E+02  0.19963617675E+03  0.22930248170E+03  0.00000000000E+00 0. -1.
<scales pt_clust_3="31.68215" pt_clust_4="38.16292" pt_clust_5="83.66169" pt_clust_6="14000.00000"></scales>
<clustering>
<clus scale="   31.682">  1  3  2 -1</clus>
<clus scale="   38.163">  1  4  2 -1</clus>
<clus scale="   83.662">  2  5  1 -1</clus>
<clus scale="   83.662">  2  3  1 -1</clus>
</clustering>
</event>
<event>
 6    0  0.2117869E+002  0.9181699E+02  0.7546771E-02  0.1298510E+00
         -2   -1    0    0    0  501 -0.00000000000E+00  0.00000000000E+00  0.36617335115E+03  0.36617335115E+03  0.00000000000E+00 0.  1.
         21   -1    0    0  504  502  0.00000000000E+00 -0.00000000000E+00 -0.35167718214E+03  0.35167718214E+03  0.00000000000E+00 0.  1.
         21    1    1    2  503  501  0.27986448568E+02  0.28864888353E+02  0.96163112607E+01  0.41338801692E+02  0.00000000000E+00 0.  1.
         21    1    1    2  504  503 -0.11574444114E+03  0.38235620162E+01 -0.10234437701E+03  0.15455020798E+03  0.00000000000E+00 0.  1.
         21    1    1    2  505  502  0.77762534701E+02  0.38203216204E+02 -0.19393566981E+03  0.21240890179E+03  0.00000000000E+00 0.  1.
         -2    1    1    2    0  505  0.99954578699E+01 -0.70891666574E+02  0.30115990457E+03  0.30955262184E+03  0.00000000000E+00 0.  1.
<scales pt_clust_3="40.20476" pt_clust_4="91.81699" pt_clust_5="14000.00000" pt_clust_6="57.07373"></scales>
<clustering>
<clus scale="   40.205">  1  3  2 -1</clus>
<clus scale="   57.074">  1  6  2 -1</clus>
<clus scale="   91.817">  1  4  2 -1</clus>
<clus scale="   91.817">  2  3  1 -1</clus>
</clustering>
</event>
<event>
 6    0  0.2117869E+002  0.1176689E+03  0.7546771E-02  0.1246993E+00
         21   -1    0    0  505  502  0.00000000000E+00  0.00000000000E+00  0.10132871888E+03  0.10132871888E+03  0.00000000000E+00 0. -1.
          2   -1    0    0  503    0 -0.00000000000E+00 -0.00000000000E+00 -0.14925489963E+04  0.14925489963E+04  0.00000000000E+00 0.  1.
         21    1    1    2  503  504 -0.41307841276E+02 -0.16057844070E+02 -0.66512945253E+03  0.66660436597E+03  0.00000000000E+00 0.  1.
         21    1    1    2  504  502 -0.80019453014E+02  0.23342709249E+02  0.64363021094E+02  0.10531188641E+03  0.00000000000E+00 0. -1.
         21    1    1    2  505  501 -0.29119397851E+02  0.20495456337E+02 -0.30880365008E+02  0.47133852004E+02  0.00000000000E+00 0.  1.
          2    1    1    2  501    0  0.15044669214E+03 -0.27780321516E+02 -0.75957348101E+03  0.77482761082E+03  0.00000000000E+00 0.  1.
<scales pt_clust_3="44.47582" pt_clust_4="117.66895" pt_clust_5="35.60903" pt_clust_6="14000.00000"></scales>
<clustering>
<clus scale="   35.609">  1  5  2 -1</clus>
<clus scale="   44.476">  2  3  1 -1</clus>
<clus scale="  117.669">  1  4  2 -1</clus>
<clus scale="   35.609">  1  3  2 -1</clus>
</clustering>
</event>
<event>
 6    0  0.2117869E+002  0.8292837E+02  0.7546771E-02  0.1320941E+00
          1   -1    0    0  503    0 -0.00000000000E+00  0.00000000000E+00  0.77782658350E+03  0.77782658350E+03  0.00000000000E+00 0. -1.
         21   -1    0    0  505  502  0.00000000000E+00 -0.00000000000E+00 -0.38102392442E+02  0.38102392442E+02  0.00000000000E+00 0. -1.
         21    1    1    2  503  504 -0.13780257727E+02 -0.48150136344E+02  0.32177167656E+03  0.32564603939E+03  0.00000000000E+00 0. -1.
         21    1    1    2  504  502  0.97459925646E+02  0.67320403079E+02  0.11374957443E+03  0.16422374816E+03  0.00000000000E+00 0. -1.
         21    1    1    2  505  501 -0.24417749576E+02 -0.18299304517E+02  0.21792904073E+02  0.37496955984E+02  0.00000000000E+00 0. -1.
          1    1    1    2  501    0 -0.59261918342E+02 -0.87096221796E+00  0.28241003599E+03  0.28856223241E+03  0.00000000000E+00 0. -1.
<scales pt_clust_3="51.65361" pt_clust_4="14000.00000" pt_clust_5="30.51378" pt_clust_6="82.92837"></scales>
<clustering>
<clus scale="   30.514">  2  5  1 -1</clus>
<clus scale="   51.654">  1  3  2 -1</clus>
<clus scale="   82.928">  1  6  2 -1</clus>
<clus scale="   30.514">  2  3  1 -1</clus>
</clustering>
</event>
<event>
 6    0  0.2117869E+002  0.1118193E+03  0.7546771E-02  0.1257238E+00
          2   -1    0    0  505    0 -0.00000000000E+00  0.00000000000E+00  0.35621062104E+04  0.35621062104E+04  0.00000000000E+00 0. -1.
         21   -1    0    0  504  502  0.00000000000E+00 -0.00000000000E+00 -0.11465352520E+02  0.11465352520E+02  0.00000000000E+00 0. -1.
         21    1    1    2  503  501 -0.22446333341E+01 -0.42180504768E+02  0.20190794835E+03  0.20627906575E+03  0.00000000000E+00 0.  1.
         21    1    1    2  504  503  0.31677172997E+02 -0.60702318223E+02  0.16520108088E+03  0.17882844251E+03  0.00000000000E+00 0. -1.
         21    1    1    2  505  502 -0.75330830629E+02  0.14033522530E+02  0.12475657341E+04  0.12499167712E+04  0.00000000000E+00 0. -1.
          2    1    1    2  501    0  0.45898290966E+02  0.88849300461E+02  0.19359660945E+04  0.19385472835E+04  0.00000000000E+00 0. -1.
<scales pt_clust_3="35.88683" pt_clust_4="35.88683" pt_clust_5="76.62685" pt_clust_6="102.05852"></scales>
<clustering>
<clus scale="   35.887">  3  4 -1 -1</clus>
<clus scale="   76.627">  1  5  2 -1</clus>
<clus scale="  102.059">  1  6  2 -1</clus>
<clus scale="  111.819">  2  3  1 -1</clus>
</clustering>
</event>
<event>
 6    0  0.2117869E+002  0.1258805E+03  0.7546771E-02  0.1233700E+00
          2   -1    0    0  503    0 -0.00000000000E+00  0.00000000000E+00  0.24063831909E+04  0.24063831909E+04  0.00000000000E+00 0.  1.
         21   -1    0    0  504  502  0.00000000000E+00 -0.00000000000E+00 -0.27017439972E+03  0.27017439972E+03  0.00000000000E+00 0. -1.
         21    1    1    2  503  502 -0.22884054632E+02 -0.88069554779E+02 -0.20884160185E+03  0.22780417270E+03  0.00000000000E+00 0. -1.
         21    1    1    2  504  505  0.96816151412E+01  0.34179419093E+02 -0.12933816336E+02  0.37805422446E+02  0.00000000000E+00 0. -1.
         21    1    1    2  505  501 -0.44733947833E+02  0.16243453731E+03  0.26289933538E+03  0.31225336754E+03  0.00000000000E+00 0. -1.
          2    1    1    2  501    0  0.57936387325E+02 -0.10854440162E+03  0.20950848739E+04  0.20986946279E+04  0.00000000000E+00 0.  1.
<scales pt_clust_3="59.32434" pt_clust_4="35.52417" pt_clust_5="125.88046" pt_clust_6="14000.00000"></scales>
<clustering>
<clus scale="   35.524">  2  4  1 -1</clus>
<clus scale="   59.324">  2  3  1 -1</clus>
<clus scale="  125.880">  2  5  1 -1</clus>
<clus scale="   35.524">  2  3  1 -1</clus>
</clustering>
</event>
<event>
 6    0  0.2117869E+002  0.1102863E+03  0.7546771E-02  0.1260041E+00
         21   -1    0    0  501  502  0.00000000000E+00  0.00000000000E+00  0.19162004214E+03  0.19162004214E+03  0.00000000000E+00 0.  1.
          1   -1    0    0  504    0 -0.00000000000E+00 -0.00000000000E+00 -0.54676879440E+03  0.54676879440E+03  0.00000000000E+00 0. -1.
         21    1    1    2  503  502  0.56333378833E+02 -0.24020401394E+02 -0.25661806057E+02  0.66399981506E+02  0.00000000000E+00 0. -1.
         21    1    1    2  504  505 -0.22001523394E+02  0.21981099198E+02 -0.32959842986E+02  0.45316520203E+02  0.00000000000E+00 0.  1.
         21    1    1    2  505  503 -0.96910294158E+02  0.11801825220E+03  0.11717746726E+03  0.19248499110E+03  0.00000000000E+00 0.  1.
          1    1    1    2  501    0  0.62578438719E+02 -0.11597895000E+03 -0.41370457047E+03  0.43418734374E+03  0.00000000000E+00 0. -1.
<scales pt_clust_3="58.63319" pt_clust_4="31.10041" pt_clust_5="14000.00000" pt_clust_6="110.28630"></scales>
<clustering>
<clus scale="   31.100">  2  4  1 -1</clus>
<clus scale="   58.633">  1  3  2 -1</clus>
<clus scale="  110.286">  2  6  1 -1</clus>
<clus scale="   58.633">  1  3  2 -1</clus>
</clustering>
</event>
<event>
 6    0  0.2117869E+002  0.9064514E+02  0.7546771E-02  0.1301297E+00
         21   -1    0    0  501  502  0.00000000000E+00  0.00000000000E+00  0.20936864901E+03  0.20936864901E+03  0.00000000000E+00 0.  1.
          1   -1    0    0  503    0 -0.00000000000E+00 -0.00000000000E+00 -0.56373150514E+03  0.56373150514E+03  0.00000000000E+00 0. -1.
         21    1    1    2  503  505 -0.26256863702E+02 -0.23033365477E+02 -0.81411700248E+02  0.88587943615E+02  0.00000000000E+00 0. -1.
         21    1    1    2  504  502  0.42068832648E+01  0.93878544378E+02  0.16586741713E+03  0.19063808388E+03  0.00000000000E+00 0.  1.
         21    1    1    2  505  504  0.59336822089E+02 -0.69402554646E+02 -0.51639240513E+02  0.10490083035E+03  0.00000000000E+00 0.  1.
          1    1    1    2  501    0 -0.37286841652E+02 -0.14426242552E+01 -0.38717933250E+03  0.38897329631E+03  0.00000000000E+00 0. -1.
<scales pt_clust_3="34.92791" pt_clust_4="90.64514" pt_clust_5="14000.00000" pt_clust_6="61.92908"></scales>
<clustering>
<clus scale="   34.928">  2  3  1 -1</clus>
<clus scale="   61.929">  2  6  1 -1</clus>
<clus scale="   90.645">  1  4  2 -1</clus>
<clus scale="   90.645">  1  3  2 -1</clus>
</clustering>
</event>
<event>
 6    0  0.2117869E+002  0.8189013E+02  0.7546771E-02  0.1323772E+00
          2   -1    0    0  504    0 -0.00000000000E+00  0.00000000000E+00  0.25857309018E+04  0.25857309018E+04  0.00000000000E+00 0. -1.
         21   -1    0    0  503  502  0.00000000000E+00 -0.00000000000E+00 -0.63947789294E+02  0.63947789294E+02  0.00000000000E+00 0.  1.
         21    1    1    2  503  501 -0.61800937483E+02  0.28202539306E+02  0.65047209173E+03  0.65400969505E+03  0.00000000000E+00 0. -1.
         21    1    1    2  504  505  0.19895065411E+02  0.26729307561E+02  0.14665296509E+03  0.15039069679E+03  0.00000000000E+00 0.  1.
         21    1    1    2  505  502  0.31551251904E+01  0.52924968686E+02 -0.46436541995E+02  0.70479497429E+02  0.00000000000E+00 0.  1.
          2    1    1    2  501    0  0.38750746881E+02 -0.10785681555E+03  0.17710945977E+04  0.17747988019E+04  0.00000000000E+00 0. -1.
<scales pt_clust_3="14000.00000" pt_clust_4="33.32071" pt_clust_5="53.15646" pt_clust_6="81.89013"></scales>
<clustering>
<clus scale="   33.321">  1  4  2 -1</clus>
<clus scale="   53.156">  2  5  1 -1</clus>
<clus scale="   81.890">  1  6  2 -1</clus>
<clus scale="   53.156">  2  3  1 -1</clus>
</clustering>
</event>
<event>
 6    0  0.2117869E+002  0.2507935E+03  0.7546771E-02  0.1112804E+00
         21   -1    0    0  503  502  0.00000000000E+00  0.00000000000E+00  0.34142734338E+03  0.34142734338E+03  0.00000000000E+00 0. -1.
          2   -1    0    0  505    0 -0.00000000000E+00 -0.00000000000E+00 -0.11700491015E+04  0.11700491015E+04  0.00000000000E+00 0. -1.
         21    1    1    2  503  504 -0.88526188186E+02  0.27582618783E+02  0.21751387348E+03  0.23645289597E+03  0.00000000000E+00 0. -1.
         21    1    1    2  504  501  0.11710710424E+03 -0.27097184801E+03 -0.20383281764E+03  0.35873058669E+03  0.00000000000E+00 0. -1.
         21    1    1    2  505  502  0.72365391799E+02  0.47301216582E+02 -0.64599822261E+02  0.10792262069E+03  0.00000000000E+00 0.  1.
          2    1    1    2  501    0 -0.10094630785E+03  0.19608801265E+03 -0.77770299170E+03  0.80837034153E+03  0.00000000000E+00 0. -1.
<scales pt_clust_3="92.24483" pt_clust_4="250.79349" pt_clust_5="86.45320" pt_clust_6="14000.00000"></scales>
<clustering>
<clus scale="   86.453">  2  5  1 -1</clus>
<clus scale="   92.245">  1  3  2 -1</clus>
<clus scale="  250.793">  1  4  2 -1</clus>
<clus scale="   92.245">  1  3  2 -1</clus>
</clustering>
</event>
<event>
 6    0  0.2117869E+002  0.8554643E+02  0.7546771E-02  0.1314010E+00
         21   -1    0    0  503  502  0.00000000000E+00  0.00000000000E+00  0.31125431795E+04  0.31125431795E+04  0.00000000000E+00 0.  1.
          2   -1    0    0  505    0 -0.00000000000E+00 -0.00000000000E+00 -0.23005637243E+03  0.23005637243E+03  0.00000000000E+00 0. -1.
         21    1    1    2  503  501 -0.65981369525E+02 -0.51123378216E+02  0.81116003438E+03  0.81544327963E+03  0.00000000000E+00 0.  1.
         21    1    1    2  504  502  0.86356511626E+02  0.20254276149E+02  0.21989585021E+04  0.22007467316E+04  0.00000000000E+00 0.  1.
         21    1    1    2  505  504  0.60975261390E+02 -0.38518467777E+02  0.70760884832E+02  0.10103839708E+03  0.00000000000E+00 0.  1.
          2    1    1    2  501    0 -0.81350403491E+02  0.69387569844E+02 -0.19839261422E+03  0.22537114362E+03  0.00000000000E+00 0. -1.
<scales pt_clust_3="14000.00000" pt_clust_4="85.54643" pt_clust_5="72.12250" pt_clust_6="37.91799"></scales>
<clustering>
<clus scale="   72.122">  2  5  1 -1</clus>
<clus scale="   37.918">  2  6  1 -1</clus>
<clus scale="   85.546">  1  4  2 -1</clus>
<clus scale="   85.546">  1  3  2 -1</clus>
</clustering>
</event>
<event>
 6    0  0.2117869E+002  0.6635983E+02  0.7546771E-02  0.1372928E+00
         -1   -1    0    0    0  501 -0.00000000000E+00  0.00000000000E+00  0.47145584836E+03  0.47145584836E+03  0.00000000000E+00 0.  1.
         21   -1    0    0  503  502  0.00000000000E+00 -0.00000000000E+00 -0.42251519869E+03  0.42251519869E+03  0.00000000000E+00 0. -1.
         21    1    1    2  503  504 -0.78313991796E+02 -0.11033182269E+02 -0.32276862812E+03  0.33231671598E+03  0.00000000000E+00 0. -1.
         21    1    1    2  504  501  0.19393133653E+02  0.41129951293E+02  0.16031686277E+02  0.48215987921E+02  0.00000000000E+00 0. -1.
         21    1    1    2  505  502  0.22961572693E+02  0.47987937871E+02 -0.65041223203E+02  0.84026404882E+02  0.00000000000E+00 0.  1.
         -1    1    1    2    0  505  0.35959285450E+02 -0.78084706895E+02  0.42071881472E+03  0.42941193826E+03  0.00000000000E+00 0.  1.
<scales pt_clust_3="66.35983" pt_clust_4="45.47270" pt_clust_5="54.18097" pt_clust_6="14000.00000"></scales>
<clustering>
<clus scale="   45.473">  1  4  2 -1</clus>
<clus scale="   54.181">  2  5  1 -1</clus>
<clus scale="   66.360">  2  3  1 -1</clus>
<clus scale="   54.181">  2  3  1 -1</clus>
</clustering>
</event>
<event>
 6    0  0.2117869E+002  0.1128801E+03  0.7546771E-02  0.1255328E+00
          2   -1    0    0  504    0 -0.00000000000E+00  0.00000000000E+00  0.31695912413E+03  0.31695912413E+03  0.00000000000E+00 0.  1.
         21   -1    0    0  501  502  0.00000000000E+00 -0.00000000000E+00 -0.99806250384E+03  0.99806250384E+03  0.00000000000E+00 0.  1.
         21    1    1    2  503  502  0.27618274059E+02  0.24267299396E+02 -0.76879545881E+03  0.76967404034E+03  0.00000000000E+00 0.  1.
         21    1    1    2  504  505 -0.12843070261E+02 -0.35314341473E+02  0.31227788079E+02  0.48859205025E+02  0.00000000000E+00 0.  1.
         21    1    1    2  505  503  0.86043059826E+02 -0.43537324725E+02 -0.19642858723E+03  0.21882206623E+03  0.00000000000E+00 0.  1.
          2    1    1    2  501    0 -0.10081826362E+03  0.54584366802E+02  0.25289287826E+03  0.27766631638E+03  0.00000000000E+00 0.  1.
<scales pt_clust_3="36.76508" pt_clust_4="36.34132" pt_clust_5="14000.00000" pt_clust_6="112.88008"></scales>
<clustering>
<clus scale="   36.765">  2  3  1 -1</clus>
<clus scale="   36.341">  1  4  2 -1</clus>
<clus scale="  112.880">  1  6  2 -1</clus>
<clus scale="   36.765">  2  3  1 -1</clus>
</clustering>
</event>
<event>
 6    0  0.2117869E+002  0.8003697E+02  0.7546771E-02  0.1328947E+00
          2   -1    0    0  505    0 -0.00000000000E+00  0.00000000000E+00  0.15281489345E+04  0.15281489345E+04  0.00000000000E+00 0.  1.
         21   -1    0    0  503  502  0.00000000000E+00 -0.00000000000E+00 -0.17051974636E+03  0.17051974636E+03  0.00000000000E+00 0.  1.
         21    1    1    2  503  504 -0.56212064975E+01  0.96604656645E+02 -0.84850856077E+02  0.12870013763E+03  0.00000000000E+00 0.  1.
         21    1    1    2  504  501  0.48436350585E+02 -0.78871641602E+02  0.26129854292E+03  0.27720704255E+03  0.00000000000E+00 0. -1.
         21    1    1    2  505  502  0.34134481111E+02 -0.20884249402E+02 -0.47249960877E+02  0.61918280635E+02  0.00000000000E+00 0.  1.
          2    1    1    2  501    0 -0.76949625198E+02  0.31512343589E+01  0.12284314621E+04  0.12308432200E+04  0.00000000000E+00 0.  1.
<scales pt_clust_3="80.03697" pt_clust_4="14000.00000" pt_clust_5="40.01643" pt_clust_6="76.65076"></scales>
<clustering>
<clus scale="   40.016">  2  5  1 -1</clus>
<clus scale="   76.651">  1  6  2 -1</clus>
<clus scale="   80.037">  2  3  1 -1</clus>
<clus scale="   40.016">  2  3  1 -1</clus>
</clustering>
</event>
<event>
 6    0  0.2117869E+002  0.1631329E+03  0.7546771E-02  0.1185204E+00
         -4   -1    0    0    0  501 -0.00000000000E+00  0.00000000000E+00  0.10597513087E+04  0.10597513087E+04  0.00000000000E+00 0.  1.
         21   -1    0    0  504  502  0.00000000000E+00 -0.00000000000E+00 -0.83908677101E+03  0.83908677101E+03  0.00000000000E+00 0.  1.
         21    1    1    2  503  502 -0.12373322383E+03  0.22399824874E+02  0.34599981454E+03  0.36814064500E+03  0.00000000000E+00 0.  1.
         21    1    1    2  504  505  0.12225569363E+03 -0.57868937877E+02 -0.81183414994E+03  0.82302488153E+03  0.00000000000E+00 0.  1.
         21    1    1    2  505  501  0.70216115128E+02  0.46294339705E+02  0.21158309037E+03  0.22768590831E+03  0.00000000000E+00 0.  1.
         -4    1    1    2    0  503 -0.68738584928E+02 -0.10825226702E+02  0.47491578275E+03  0.47998664491E+03  0.00000000000E+00 0.  1.
<scales pt_clust_3="67.51958" pt_clust_4="135.55163" pt_clust_5="84.10392" pt_clust_6="67.51958"></scales>
<clustering>
<clus scale="   67.520">  3  6 -1 -1</clus>
<clus scale="   84.104">  1  5  2 -1</clus>
<clus scale="  135.552">  2  4  1 -1</clus>
<clus scale="  135.552">  2  3  1 -1</clus>
</clustering>
</event>
<event>
 6    0  0.2117869E+002  0.2238869E+03  0.7546771E-02  0.1131018E+00
         21   -1    0    0  503  502  0.00000000000E+00  0.00000000000E+00  0.14224420235E+04  0.14224420235E+04  0.00000000000E+00 0. -1.
          2   -1    0    0  504    0 -0.00000000000E+00 -0.00000000000E+00 -0.39949660414E+03  0.39949660414E+03  0.00000000000E+00 0. -1.
         21    1    1    2  503  505  0.73768192508E+02 -0.15706598866E+03  0.50963786569E+03  0.53836997052E+03  0.00000000000E+00 0. -1.
         21    1    1    2  504  502  0.11779725884E+02  0.48235345232E+02  0.75449439892E+03  0.75612645006E+03  0.00000000000E+00 0. -1.
         21    1    1    2  505  501  0.39580882363E+02 -0.15074410454E+03 -0.68131660292E+01  0.15600272604E+03  0.00000000000E+00 0. -1.
          2    1    1    2  501    0 -0.12512880075E+03  0.25957474796E+03 -0.23437367922E+03  0.37143948103E+03  0.00000000000E+00 0. -1.
<scales pt_clust_3="145.24497" pt_clust_4="49.65290" pt_clust_5="14000.00000" pt_clust_6="223.88688"></scales>
<clustering>
<clus scale="   49.653">  1  4  2 -1</clus>
<clus scale="  145.245">  1  3  2 -1</clus>
<clus scale="  223.887">  2  6  1 -1</clus>
<clus scale="   49.653">  1  3  2 -1</clus>
</clustering>
</event>
<event>
 6    0  0.2117869E+002  0.1861745E+03  0.7546771E-02  0.1161958E+00
          3   -1    0    0  503    0 -0.00000000000E+00  0.00000000000E+00  0.59633112372E+03  0.59633112372E+03  0.00000000000E+00 0.  1.
         21   -1    0    0  501  502  0.00000000000E+00 -0.00000000000E+00 -0.26475839921E+03  0.26475839921E+03  0.00000000000E+00 0. -1.
         21    1    1    2  503  505  0.29662952815E+02  0.18212983757E+02  0.78161040600E+02  0.85561392080E+02  0.00000000000E+00 0.  1.
         21    1    1    2  504  502  0.44209653401E+02  0.18180130476E+03 -0.19468250912E+03  0.27001386487E+03  0.00000000000E+00 0. -1.
         21    1    1    2  505  504  0.18043242313E+02 -0.41911631168E+02  0.51633991365E+02  0.68907274541E+02  0.00000000000E+00 0. -1.
          3    1    1    2  501    0 -0.91915848529E+02 -0.15810265734E+03  0.39646020166E+03  0.43660699144E+03  0.00000000000E+00 0.  1.
<scales pt_clust_3="34.80810" pt_clust_4="186.17450" pt_clust_5="45.22525" pt_clust_6="14000.00000"></scales>
<clustering>
<clus scale="   34.808">  1  3  2 -1</clus>
<clus scale="   45.225">  1  5  2 -1</clus>
<clus scale="  186.174">  2  4  1 -1</clus>
<clus scale="  186.174">  2  3  1 -1</clus>
</clustering>
</event>
<event>
 6    0  0.2117869E+002  0.6881451E+02  0.7546771E-02  0.1364171E+00
          3   -1    0    0  505    0 -0.00000000000E+00  0.00000000000E+00  0.16083199155E+03  0.16083199155E+03  0.00000000000E+00 0. -1.
         21   -1    0    0  503  502  0.00000000000E+00 -0.00000000000E+00 -0.22331892293E+03  0.22331892293E+03  0.00000000000E+00 0. -1.
         21    1    1    2  503  501 -0.19087234224E+02 -0.48011051967E+02 -0.95667694987E+02  0.10872760222E+03  0.00000000000E+00 0. -1.
         21    1    1    2  504  502  0.18161395716E+01  0.96720522193E+02 -0.60279585584E+02  0.11398151699E+03  0.00000000000E+00 0. -1.
         21    1    1    2  505  504  0.25131290357E+02  0.33313553558E+02  0.58676224847E+02  0.72001902530E+02  0.00000000000E+00 0.  1.
          3    1    1    2  501    0 -0.78601957048E+01 -0.82023023784E+02  0.34784124345E+02  0.89439892742E+02  0.00000000000E+00 0. -1.
<scales pt_clust_3="48.92015" pt_clust_4="14000.00000" pt_clust_5="41.72978" pt_clust_6="68.81451"></scales>
<clustering>
<clus scale="   41.730">  1  5  2 -1</clus>
<clus scale="   48.920">  2  3  1 -1</clus>
<clus scale="   68.815">  1  6  2 -1</clus>
<clus scale="   48.920">  2  3  1 -1</clus>
</clustering>
</event>
<event>
 6    0  0.2117869E+002  0.1136952E+03  0.7546771E-02  0.1253876E+00
         21   -1    0    0  501  502  0.00000000000E+00  0.00000000000E+00  0.22792792316E+03  0.22792792316E+03  0.00000000000E+00 0.  1.
          1   -1    0    0  504    0 -0.00000000000E+00 -0.00000000000E+00 -0.12375628684E+04  0.12375628684E+04  0.00000000000E+00 0. -1.
         21    1    1    2  503  502  0.64999076138E+02 -0.90774075217E+02  0.18749743524E+03  0.21822030348E+03  0.00000000000E+00 0.  1.
         21    1    1    2  504  505  0.19358112123E+02 -0.40261056140E+02 -0.28873862429E+03  0.29217406165E+03  0.00000000000E+00 0. -1.
         21    1    1    2  505  503 -0.47111000177E+02  0.15023017111E+03 -0.25049934978E+03  0.29586901644E+03  0.00000000000E+00 0. -1.
          1    1    1    2  501    0 -0.37246188085E+02 -0.19195039750E+02 -0.65789440642E+03  0.65922740999E+03  0.00000000000E+00 0. -1.
<scales pt_clust_3="113.69517" pt_clust_4="49.89479" pt_clust_5="14000.00000" pt_clust_6="41.90141"></scales>
<clustering>
<clus scale="   41.901">  2  6  1 -1</clus>
<clus scale="   49.895">  2  4  1 -1</clus>
<clus scale="  113.695">  1  3  2 -1</clus>
<clus scale="  113.695">  1  3  2 -1</clus>
</clustering>
</event>
<event>
 6    0  0.2117869E+002  0.8126728E+02  0.7546771E-02  0.1325493E+00
          2   -1    0    0  505    0 -0.00000000000E+00  0.00000000000E+00  0.81917366270E+02  0.81917366270E+02  0.00000000000E+00 0.  1.
         21   -1    0    0  501  502  0.00000000000E+00 -0.00000000000E+00 -0.53262766605E+03  0.53262766605E+03  0.00000000000E+00 0.  1.
         21    1    1    2  503  502 -0.60526860798E+02  0.26365533635E+02 -0.22465307464E+03  0.23415304010E+03  0.00000000000E+00 0. -1.
         21    1    1    2  504  503  0.12862394728E+03 -0.37205011482E+02 -0.26088122943E+03  0.29323599465E+03  0.00000000000E+00 0.  1.
         21    1    1    2  505  504 -0.30987756533E+02  0.37047012903E+00 -0.53770208678E+01  0.31452991216E+02  0.00000000000E+00 0.  1.
          2    1    1    2  501    0 -0.37109329947E+02  0.10469007719E+02  0.40201025163E+02  0.55703006345E+02  0.00000000000E+00 0.  1.
<scales pt_clust_3="14000.00000" pt_clust_4="81.26728" pt_clust_5="30.98997" pt_clust_6="59.65456"></scales>
<clustering>
<clus scale="   30.990">  1  5  2 -1</clus>
<clus scale="   59.655">  1  6  2 -1</clus>
<clus scale="   81.267">  1  4  2 -1</clus>
<clus scale="   81.267">  2  3  1 -1</clus>
</clustering>
</event>
<event>
 6    0  0.2117869E+002  0.1362042E+03  0.7546771E-02  0.1218530E+00
         21   -1    0    0  504  502  0.00000000000E+00  0.00000000000E+00  0.10562319501E+03  0.10562319501E+03  0.00000000000E+00 0. -1.
         -3   -1    0    0    0  501 -0.00000000000E+00 -0.00000000000E+00 -0.29856488811E+04  0.29856488811E+04  0.00000000000E+00 0.  1.
         21    1    1    2  503  502 -0.70944359168E+02 -0.30904599067E+02 -0.17092310978E+03  0.18762437421E+03  0.00000000000E+00 0. -1.
         21    1    1    2  504  505  0.28388887600E+02  0.13335684622E+03  0.42983723686E+02  0.14296005692E+03  0.00000000000E+00 0. -1.
         21    1    1    2  505  501  0.20863028366E+02 -0.13974224584E+03 -0.12462856497E+04  0.12542691425E+04  0.00000000000E+00 0. -1.
         -3    1    1    2    0  503  0.21692443202E+02  0.37289998687E+02 -0.15058006503E+04  0.15064185024E+04  0.00000000000E+00 0.  1.
<scales pt_clust_3="73.23453" pt_clust_4="14000.00000" pt_clust_5="136.20422" pt_clust_6="43.14054"></scales>
<clustering>
<clus scale="   43.141">  2  6  1 -1</clus>
<clus scale="   73.235">  2  3  1 -1</clus>
<clus scale="  136.204">  2  5  1 -1</clus>
<clus scale="  136.204">  1  3  2 -1</clus>
</clustering>
</event>
<event>
 6    0  0.2117869E+002  0.1726975E+03  0.7546771E-02  0.1175064E+00
         -1   -1    0    0    0  501 -0.00000000000E+00  0.00000000000E+00  0.64333936567E+02  0.64333936567E+02  0.00000000000E+00 0.  1.
         21   -1    0    0  503  502  0.00000000000E+00 -0.00000000000E+00 -0.84755937701E+03  0.84755937701E+03  0.00000000000E+00 0. -1.
         21    1    1    2  503  505 -0.81908288369E+01 -0.14335863167E+03 -0.46572639751E+03  0.48736009715E+03  0.00000000000E+00 0. -1.
         21    1    1    2  504  502  0.40167079396E+02  0.76473872719E+02 -0.19031168014E+03  0.20899804562E+03  0.00000000000E+00 0. -1.
         21    1    1    2  505  501 -0.50617388186E+00 -0.30255827875E+02  0.20090244275E+02  0.36322021522E+02  0.00000000000E+00 0. -1.
         -1    1    1    2    0  504 -0.31470076677E+02  0.97140586826E+02 -0.14727760707E+03  0.17921314929E+03  0.00000000000E+00 0.  1.
<scales pt_clust_3="152.64552" pt_clust_4="76.08318" pt_clust_5="30.26006" pt_clust_6="76.08318"></scales>
<clustering>
<clus scale="   30.260">  1  5  2 -1</clus>
<clus scale="   76.083">  4  6 -1 -1</clus>
<clus scale="  152.646">  2  3  1 -1</clus>
<clus scale="  152.646">  2  3  1 -1</clus>
</clustering>
</event>
<event>
 6    0  0.2117869E+002  0.1210388E+03  0.7546771E-02  0.1241393E+00
          1   -1    0    0  505    0 -0.00000000000E+00  0.00000000000E+00  0.49645631196E+03  0.49645631196E+03  0.00000000000E+00 0.  1.
         21   -1    0    0  504  502  0.00000000000E+00 -0.00000000000E+00 -0.20418900602E+03  0.20418900602E+03  0.00000000000E+00 0.  1.
         21    1    1    2  503  501 -0.54938783822E+02 -0.36477401878E+02 -0.67292994115E+02  0.94218988918E+02  0.00000000000E+00 0.  1.
         21    1    1    2  504  503 -0.37191480033E+02 -0.34759737798E+02 -0.10670321132E+03  0.11822445121E+03  0.00000000000E+00 0.  1.
         21    1    1    2  505  502  0.33525158395E+02 -0.16946598443E+02  0.15233643611E+03  0.15689969155E+03  0.00000000000E+00 0. -1.
          1    1    1    2  501    0  0.58605105460E+02  0.88183738119E+02  0.31392707527E+03  0.33130218629E+03  0.00000000000E+00 0.  1.
<scales pt_clust_3="31.61521" pt_clust_4="31.61521" pt_clust_5="37.56492" pt_clust_6="115.56629"></scales>
<clustering>
<clus scale="   31.615">  3  4 -1 -1</clus>
<clus scale="   37.565">  1  5  2 -1</clus>
<clus scale="  115.566">  1  6  2 -1</clus>
<clus scale="  121.039">  2  3  1 -1</clus>
</clustering>
</event>
<event>
 6    0  0.2117869E+002  0.1491713E+03  0.7546771E-02  0.1201495E+00
         -4   -1    0    0    0  501 -0.00000000000E+00  0.00000000000E+00  0.42685424473E+03  0.42685424473E+03  0.00000000000E+00 0.  1.
         21   -1    0    0  503  502  0.00000000000E+00 -0.00000000000E+00 -0.17809329094E+03  0.17809329094E+03  0.00000000000E+00 0. -1.
         21    1    1    2  503  505  0.24164914500E+02  0.33050961493E+02 -0.27258150266E+02  0.49186541902E+02  0.00000000000E+00 0.  1.
         21    1    1    2  504  502  0.46803539973E+02 -0.12461571758E+02 -0.74029693371E+02  0.88466138298E+02  0.00000000000E+00 0. -1.
         21    1    1    2  505  501  0.10918341963E+03 -0.18205189201E+02  0.60167875918E+02  0.12598659186E+03  0.00000000000E+00 0. -1.
         -4    1    1    2    0  504 -0.18015187410E+03 -0.23842005332E+01  0.28988092151E+03  0.34130826361E+03  0.00000000000E+00 0.  1.
<scales pt_clust_3="40.94275" pt_clust_4="61.21227" pt_clust_5="149.17132" pt_clust_6="14000.00000"></scales>
<clustering>
<clus scale="   40.943">  2  3  1 -1</clus>
<clus scale="   61.212">  2  4  1 -1</clus>
<clus scale="  149.171">  2  5  1 -1</clus>
<clus scale="   40.943">  2  3  1 -1</clus>
</clustering>
</event>
<event>
 6    0  0.2117869E+002  0.1513054E+03  0.7546771E-02  0.1198878E+00
         21   -1    0    0  501  502  0.00000000000E+00  0.00000000000E+00  0.26945346142E+03  0.26945346142E+03  0.00000000000E+00 0. -1.
          2   -1    0    0  504    0 -0.00000000000E+00 -0.00000000000E+00 -0.30517927322E+04  0.30517927322E+04  0.00000000000E+00 0. -1.
         21    1    1    2  503  502  0.49828384479E+02 -0.32039560818E+02  0.17125799009E+03  0.18121451522E+03  0.00000000000E+00 0. -1.
         21    1    1    2  504  505  0.23970250298E+02  0.58756079007E+02 -0.35210988903E+03  0.35778236914E+03  0.00000000000E+00 0. -1.
         21    1    1    2  505  503 -0.26332225246E+02 -0.12065733012E+03  0.46654970608E+02  0.13201614931E+03  0.00000000000E+00 0.  1.
          2    1    1    2  501    0 -0.47466409531E+02  0.93940811928E+02 -0.26481423425E+04  0.26502331600E+04  0.00000000000E+00 0. -1.
<scales pt_clust_3="59.24020" pt_clust_4="63.15239" pt_clust_5="14000.00000" pt_clust_6="151.30542"></scales>
<clustering>
<clus scale="   59.240">  1  3  2 -1</clus>
<clus scale="   63.152">  2  4  1 -1</clus>
<clus scale="  151.305">  2  6  1 -1</clus>
<clus scale="   59.240">  1  3  2 -1</clus>
</clustering>
</event>
<event>
 6    0  0.2117869E+002  0.1588377E+03  0.7546771E-02  0.1190015E+00
          2   -1    0    0  503    0 -0.00000000000E+00  0.00000000000E+00  0.12148819078E+04  0.12148819078E+04  0.00000000000E+00 0.  1.
         21   -1    0    0  501  502  0.00000000000E+00 -0.00000000000E+00 -0.31643227168E+03  0.31643227168E+03  0.00000000000E+00 0. -1.
         21    1    1    2  503  505  0.52510444366E+02 -0.21386517516E+02  0.27321545651E+03  0.27903658465E+03  0.00000000000E+00 0.  1.
         21    1    1    2  504  502  0.10757794487E+03  0.20608611949E+02 -0.15259153807E+03  0.18783478539E+03  0.00000000000E+00 0. -1.
         21    1    1    2  505  504  0.11896742690E+01 -0.13830995294E+03 -0.93835851865E+02  0.16714133391E+03  0.00000000000E+00 0. -1.
          2    1    1    2  501    0 -0.16127806351E+03  0.13908785851E+03  0.87166156955E+03  0.89730147553E+03  0.00000000000E+00 0.  1.
<scales pt_clust_3="56.69859" pt_clust_4="110.42822" pt_clust_5="158.83771" pt_clust_6="14000.00000"></scales>
<clustering>
<clus scale="   56.699">  1  3  2 -1</clus>
<clus scale="  110.428">  2  4  1 -1</clus>
<clus scale="  158.838">  2  5  1 -1</clus>
<clus scale="  110.428">  2  3  1 -1</clus>
</clustering>
</event>
<event>
 6    0  0.2117869E+002  0.6120808E+02  0.7546771E-02  0.1392831E+00
         21   -1    0    0  503  502  0.00000000000E+00  0.00000000000E+00  0.17193882748E+04  0.17193882748E+04  0.00000000000E+00 0. -1.
          4   -1    0    0  504    0 -0.00000000000E+00 -0.00000000000E+00 -0.46334287186E+03  0.46334287186E+03  0.00000000000E+00 0. -1.
         21    1    1    2  503  501 -0.28963903703E+02  0.44751527329E+02  0.18601122597E+03  0.19349879354E+03  0.00000000000E+00 0. -1.
         21    1    1    2  504  505  0.37277316103E+02 -0.22188239466E+01  0.22166789878E+02  0.43426812559E+02  0.00000000000E+00 0. -1.
         21    1    1    2  505  502  0.28443598007E+02 -0.10489879657E+03  0.14919285932E+04  0.14958822558E+04  0.00000000000E+00 0. -1.
          4    1    1    2  501    0 -0.36757010408E+02  0.62366093184E+02 -0.44406120615E+03  0.44992328479E+03  0.00000000000E+00 0. -1.
<scales pt_clust_3="53.12441" pt_clust_4="37.34329" pt_clust_5="14000.00000" pt_clust_6="61.20808"></scales>
<clustering>
<clus scale="   37.343">  2  4  1 -1</clus>
<clus scale="   53.124">  1  3  2 -1</clus>
<clus scale="   61.208">  2  6  1 -1</clus>
<clus scale="   53.124">  1  3  2 -1</clus>
</clustering>
</event>
<event>
 6    0  0.2117869E+002  0.1054759E+03  0.7546771E-02  0.1269185E+00
          1   -1    0    0  503    0 -0.00000000000E+00  0.00000000000E+00  0.30129288194E+04  0.30129288194E+04  0.00000000000E+00 0.  1.
         21   -1    0    0  504  502  0.00000000000E+00 -0.00000000000E+00 -0.49530470938E+02  0.49530470938E+02  0.00000000000E+00 0. -1.
         21    1    1    2  503  502  0.35636774485E+02 -0.23026596421E+01  0.38606741744E+03  0.38771553070E+03  0.00000000000E+00 0.  1.
         21    1    1    2  504  505  0.20193652825E+02  0.67686930913E+02 -0.20973101377E+01  0.70666137156E+02  0.00000000000E+00 0. -1.
         21    1    1    2  505  501 -0.90085217321E+02  0.22190844798E+02  0.17728389025E+03  0.20009337249E+03  0.00000000000E+00 0. -1.
          1    1    1    2  501    0  0.34254790011E+02 -0.87575116069E+02  0.24021443509E+04  0.24039842500E+04  0.00000000000E+00 0.  1.
<scales pt_clust_3="35.71109" pt_clust_4="70.74067" pt_clust_5="105.47595" pt_clust_6="14000.00000"></scales>
<clustering>
<clus scale="   35.711">  1  3  2 -1</clus>
<clus scale="   70.741">  2  4  1 -1</clus>
<clus scale="  105.476">  2  5  1 -1</clus>
<clus scale="   70.741">  2  3  1 -1</clus>
</clustering>
</event>
<event>
 6    0  0.2117869E+002  0.8299303E+02  0.7546771E-02  0.1320766E+00
         21   -1    0    0  505  502  0.00000000000E+00  0.00000000000E+00  0.43843665212E+02  0.43843665212E+02  0.00000000000E+00 0. -1.
         -1   -1    0    0    0  501 -0.00000000000E+00 -0.00000000000E+00 -0.19172762686E+04  0.19172762686E+04  0.00000000000E+00 0. -1.
         21    1    1    2  503  501  0.32952642531E+02 -0.24266973690E+02 -0.55846247062E+03  0.55995990370E+03  0.00000000000E+00 0. -1.
         21    1    1    2  504  502 -0.71525242473E+02 -0.28207444549E+02 -0.19492283640E+02  0.79318783149E+02  0.00000000000E+00 0. -1.
         21    1    1    2  505  503  0.10802558741E+03  0.78204821395E+02 -0.36816139761E+03  0.39157162348E+03  0.00000000000E+00 0. -1.
         -1    1    1    2    0  504 -0.69452987472E+02 -0.25730403156E+02 -0.92731645154E+03  0.93026962351E+03  0.00000000000E+00 0. -1.
<scales pt_clust_3="40.92386" pt_clust_4="82.99303" pt_clust_5="14000.00000" pt_clust_6="63.18785"></scales>
<clustering>
<clus scale="   40.924">  2  3  1 -1</clus>
<clus scale="   63.188">  2  6  1 -1</clus>
<clus scale="   82.993">  1  4  2 -1</clus>
<clus scale="   82.993">  1  3  2 -1</clus>
</clustering>
</event>
<event>
 6    0  0.2117869E+002  0.7961322E+02  0.7546771E-02  0.1330153E+00
          2   -1    0    0  504    0 -0.00000000000E+00  0.00000000000E+00  0.33956577857E+04  0.33956577857E+04  0.00000000000E+00 0. -1.
         21   -1    0    0  503  502  0.00000000000E+00 -0.00000000000E+00 -0.14799818702E+03  0.14799818702E+03  0.00000000000E+00 0.  1.
         21    1    1    2  503  501 -0.97973110531E+02 -0.12598365058E+02  0.77882357687E+00  0.98782871772E+02  0.00000000000E+00 0.  1.
         21    1    1    2  504  505  0.12926082919E+02  0.34380746431E+02  0.38712545432E+03  0.38886403373E+03  0.00000000000E+00 0.  1.
         21    1    1    2  505  502  0.66883684317E+02  0.34591595679E+02 -0.83339328983E+02  0.11231851795E+03  0.00000000000E+00 0.  1.
          2    1    1    2  501    0  0.18163343295E+02 -0.56373977052E+02  0.29430946498E+04  0.29436905493E+04  0.00000000000E+00 0. -1.
<scales pt_clust_3="14000.00000" pt_clust_4="36.73036" pt_clust_5="79.61322" pt_clust_6="38.28853"></scales>
<clustering>
<clus scale="   36.730">  1  4  2 -1</clus>
<clus scale="   38.289">  1  6  2 -1</clus>
<clus scale="   79.613">  2  5  1 -1</clus>
<clus scale="   79.613">  2  3  1 -1</clus>
</clustering>
</event>
<event>
 6    0  0.2117869E+002  0.1890553E+03  0.7546771E-02  0.1159316E+00
          2   -1    0    0  505    0 -0.00000000000E+00  0.00000000000E+00  0.10976338382E+04  0.10976338382E+04  0.00000000000E+00 0. -1.
         21   -1    0    0  503  502  0.00000000000E+00 -0.00000000000E+00 -0.16697030695E+03  0.16697030695E+03  0.00000000000E+00 0.  1.
         21    1    1    2  503  501  0.13675068257E+03 -0.19260724089E+03  0.10816469713E+02  0.23646415044E+03  0.00000000000E+00 0.  1.
         21    1    1    2  504  502 -0.43854696141E+02  0.46938128569E+02  0.11213948345E+02  0.65208702829E+02  0.00000000000E+00 0.  1.
         21    1    1    2  505  504  0.90380110752E+02  0.19119414356E+02  0.20412616964E+03  0.22405715690E+03  0.00000000000E+00 0.  1.
          2    1    1    2  501    0 -0.18327609718E+03  0.12654969796E+03  0.70450694350E+03  0.73887413495E+03  0.00000000000E+00 0. -1.
<scales pt_clust_3="189.05528" pt_clust_4="64.23723" pt_clust_5="90.10237" pt_clust_6="14000.00000"></scales>
<clustering>
<clus scale="   64.237">  2  4  1 -1</clus>
<clus scale="   90.102">  1  5  2 -1</clus>
<clus scale="  189.055">  2  3  1 -1</clus>
<clus scale="   64.237">  2  3  1 -1</clus>
</clustering>
</event>
<event>
 6    0  0.2117869E+002  0.8382236E+02  0.7546771E-02  0.1318541E+00
         -2   -1    0    0    0  501 -0.00000000000E+00  0.00000000000E+00  0.15069686369E+03  0.15069686369E+03  0.00000000000E+00 0.  1.
         21   -1    0    0  503  502  0.00000000000E+00 -0.00000000000E+00 -0.82265179768E+03  0.82265179768E+03  0.00000000000E+00 0. -1.
         21    1    1    2  503  505  0.46937502927E+02 -0.34729611685E+02 -0.49195694759E+02  0.76351106683E+02  0.00000000000E+00 0.  1.
         21    1    1    2  504  502 -0.69610599039E+02 -0.45557631207E+02 -0.69330791736E+03  0.69828146297E+03  0.00000000000E+00 0. -1.
         21    1    1    2  505  501 -0.38538586290E+02 -0.30792480377E+02 -0.73508564587E+01  0.49874187428E+02  0.00000000000E+00 0. -1.
         -2    1    1    2    0  504  0.61211682402E+02  0.11107972327E+03  0.77899534584E+02  0.14884190429E+03  0.00000000000E+00 0.  1.
<scales pt_clust_3="57.27920" pt_clust_4="14000.00000" pt_clust_5="49.32950" pt_clust_6="83.82236"></scales>
<clustering>
<clus scale="   49.329">  1  5  2 -1</clus>
<clus scale="   57.279">  1  3  2 -1</clus>
<clus scale="   83.822">  1  6  2 -1</clus>
<clus scale="   83.822">  2  3  1 -1</clus>
</clustering>
</event>
<event>
 6    0  0.2117869E+002  0.1114853E+03  0.7546771E-02  0.1257844E+00
         21   -1    0    0  503  502  0.00000000000E+00  0.00000000000E+00  0.25238380840E+03  0.25238380840E+03  0.00000000000E+00 0.  1.
          1   -1    0    0  504    0 -0.00000000000E+00 -0.00000000000E+00 -0.68324369823E+03  0.68324369823E+03  0.00000000000E+00 0.  1.
         21    1    1    2  503  501 -0.63888156690E+02 -0.13126813803E+03  0.15371718713E+03  0.21199526940E+03  0.00000000000E+00 0.  1.
         21    1    1    2  504  505 -0.30903681693E+01  0.30172477223E+02 -0.41679441281E+02  0.51547110323E+02  0.00000000000E+00 0. -1.
         21    1    1    2  505  502  0.35506141937E+02  0.23557922686E+02  0.54317029439E+02  0.69036233412E+02  0.00000000000E+00 0.  1.
          1    1    1    2  501    0  0.31472382922E+02  0.77537738124E+02 -0.59721466511E+03  0.60304889349E+03  0.00000000000E+00 0.  1.
<scales pt_clust_3="111.48531" pt_clust_4="30.33033" pt_clust_5="42.77478" pt_clust_6="14000.00000"></scales>
<clustering>
<clus scale="   30.330">  2  4  1 -1</clus>
<clus scale="   42.775">  1  5  2 -1</clus>
<clus scale="  111.485">  1  3  2 -1</clus>
<clus scale="   42.775">  1  3  2 -1</clus>
</clustering>
</event>
<event>
 6    0  0.2117869E+002  0.1924018E+03  0.7546771E-02  0.1156313E+00
         21   -1    0    0  503  502  0.00000000000E+00  0.00000000000E+00  0.92185148637E+02  0.92185148637E+02  0.00000000000E+00 0. -1.
          2   -1    0    0  505    0 -0.00000000000E+00 -0.00000000000E+00 -0.29255361926E+04  0.29255361926E+04  0.00000000000E+00 0. -1.
         21    1    1    2  503  504  0.11691538833E+03  0.12252978295E+03 -0.12421550725E+03  0.21002915983E+03  0.00000000000E+00 0. -1.
         21    1    1    2  504  501  0.59603168983E+02  0.12432363096E+03 -0.65351144054E+03  0.66789677786E+03  0.00000000000E+00 0. -1.
         21    1    1    2  505  502 -0.11922432611E+03 -0.21878646700E+03 -0.33253484647E+03  0.41552542906E+03  0.00000000000E+00 0. -1.
          2    1    1    2  501    0 -0.57294231209E+02 -0.28066946903E+02 -0.17230892498E+04  0.17242699745E+04  0.00000000000E+00 0. -1.
<scales pt_clust_3="192.40184" pt_clust_4="112.46298" pt_clust_5="14000.00000" pt_clust_6="63.79955"></scales>
<clustering>
<clus scale="   63.800">  2  6  1 -1</clus>
<clus scale="  112.463">  2  4  1 -1</clus>
<clus scale="  192.402">  1  3  2 -1</clus>
<clus scale="  192.402">  1  3  2 -1</clus>
</clustering>
</event>
<event>
 6    0  0.2117869E+002  0.6989968E+02  0.7546771E-02  0.1360435E+00
         21   -1    0    0  505  502  0.00000000000E+00  0.00000000000E+00  0.32480141057E+02  0.32480141057E+02  0.00000000000E+00 0. -1.
          2   -1    0    0  503    0 -0.00000000000E+00 -0.00000000000E+00 -0.10966536665E+04  0.10966536665E+04  0.00000000000E+00 0. -1.
         21    1    1    2  503  502 -0.42643473955E+02  0.42933603993E+02 -0.51578984961E+03  0.51932738151E+03  0.00000000000E+00 0. -1.
         21    1    1    2  504  501 -0.35267243916E+02  0.28496129537E+02 -0.73533113937E+02  0.86388232632E+02  0.00000000000E+00 0. -1.
         21    1    1    2  505  504 -0.30844617636E+02 -0.33019598626E+02 -0.12476873359E+02  0.46875971450E+02  0.00000000000E+00 0. -1.
          2    1    1    2  501    0  0.10875533551E+03 -0.38410134904E+02 -0.46237368849E+03  0.47654222192E+03  0.00000000000E+00 0. -1.
<scales pt_clust_3="14000.00000" pt_clust_4="50.40449" pt_clust_5="45.18500" pt_clust_6="69.89968"></scales>
<clustering>
<clus scale="   45.185">  1  5  2 -1</clus>
<clus scale="   50.404">  1  4  2 -1</clus>
<clus scale="   69.900">  1  6  2 -1</clus>
<clus scale="   45.185">  1  3  2 -1</clus>
</clustering>
</event>
<event>
 6    0  0.2117869E+002  0.7798294E+02  0.7546771E-02  0.1334875E+00
          2   -1    0    0  503    0 -0.00000000000E+00  0.00000000000E+00  0.13659874224E+04  0.13659874224E+04  0.00000000000E+00 0.  1.
         21   -1    0    0  501  502  0.00000000000E+00 -0.00000000000E+00 -0.45604412126E+02  0.45604412126E+02  0.00000000000E+00 0.  1.
         21    1    1    2  503  504 -0.17903236663E+02 -0.29337436376E+02  0.10504784537E+04  0.10510405286E+04  0.00000000000E+00 0.  1.
         21    1    1    2  504  505  0.80473756140E+02  0.40283459799E+02  0.16943978343E+03  0.19185573426E+03  0.00000000000E+00 0.  1.
         21    1    1    2  505  502  0.28685220877E+02 -0.30711069134E+02  0.34528126117E+02  0.54389366215E+02  0.00000000000E+00 0.  1.
          2    1    1    2  501    0 -0.91255740354E+02  0.19765045712E+02  0.65936646973E+02  0.11430620540E+03  0.00000000000E+00 0.  1.
<scales pt_clust_3="34.36875" pt_clust_4="77.98294" pt_clust_5="43.57511" pt_clust_6="14000.00000"></scales>
<clustering>
<clus scale="   34.369">  1  3  2 -1</clus>
<clus scale="   43.575">  2  5  1 -1</clus>
<clus scale="   77.983">  1  4  2 -1</clus>
<clus scale="   43.575">  2  3  1 -1</clus>
</clustering>
</event>
<event>
 6    0  0.2117869E+002  0.8122703E+02  0.7546771E-02  0.1325605E+00
         21   -1    0    0  503  502  0.00000000000E+00  0.00000000000E+00  0.30359702565E+03  0.30359702565E+03  0.00000000000E+00 0. -1.
          1   -1    0    0  505    0 -0.00000000000E+00 -0.00000000000E+00 -0.27347908961E+03  0.27347908961E+03  0.00000000000E+00 0.  1.
         21    1    1    2  503  501  0.87383248429E+02 -0.89696413622E+02  0.57563738239E+02  0.13782185125E+03  0.00000000000E+00 0. -1.
         21    1    1    2  504  502 -0.44507333289E+02  0.58523014915E+02  0.18209761341E+03  0.19638071902E+03  0.00000000000E+00 0. -1.
         21    1    1    2  505  504  0.31619277153E+02 -0.14953713879E+02 -0.66190813667E+02  0.74863983733E+02  0.00000000000E+00 0. -1.
          1    1    1    2  501    0 -0.74495192294E+02  0.46127112586E+02 -0.14335260194E+03  0.16800956126E+03  0.00000000000E+00 0.  1.
<scales pt_clust_3="81.22703" pt_clust_4="14000.00000" pt_clust_5="34.97702" pt_clust_6="61.03421"></scales>
<clustering>
<clus scale="   34.977">  2  5  1 -1</clus>
<clus scale="   61.034">  2  6  1 -1</clus>
<clus scale="   81.227">  2  3  1 -1</clus>
<clus scale="   81.227">  1  3  2 -1</clus>
</clustering>
</event>
<event>
 6    0  0.2117869E+002  0.1839358E+03  0.7546771E-02  0.1164047E+00
          2   -1    0    0  505    0 -0.00000000000E+00  0.00000000000E+00  0.22484110880E+04  0.22484110880E+04  0.00000000000E+00 0.  1.
         21   -1    0    0  501  502  0.00000000000E+00 -0.00000000000E+00 -0.29365278317E+03  0.29365278317E+03  0.00000000000E+00 0.  1.
         21    1    1    2  503  504 -0.24293118759E+02  0.27622668930E+02 -0.64208292701E+02  0.73999137221E+02  0.00000000000E+00 0.  1.
         21    1    1    2  504  502  0.95092638840E+00  0.46380289377E+02 -0.16320717478E+03  0.16967208787E+03  0.00000000000E+00 0.  1.
         21    1    1    2  505  503  0.14690007730E+03  0.65972389594E+02  0.66058512486E+02  0.17405664587E+03  0.00000000000E+00 0. -1.
          2    1    1    2  501    0 -0.12355788493E+03 -0.13997534790E+03  0.21161152599E+04  0.21243360003E+04  0.00000000000E+00 0.  1.
<scales pt_clust_3="36.02413" pt_clust_4="87.50926" pt_clust_5="14000.00000" pt_clust_6="183.93575"></scales>
<clustering>
<clus scale="   36.024">  3  4 -1 -1</clus>
<clus scale="   87.509">  2  3  1 -1</clus>
<clus scale="  183.936">  1  6  2 -1</clus>
<clus scale="   87.509">  2  3  1 -1</clus>
</clustering>
</event>
<event>
 6    0  0.2117869E+002  0.1112071E+03  0.7546771E-02  0.1258351E+00
         21   -1    0    0  505  502  0.00000000000E+00  0.00000000000E+00  0.15905089205E+03  0.15905089205E+03  0.00000000000E+00 0.  1.
          2   -1    0    0  504    0 -0.00000000000E+00 -0.00000000000E+00 -0.99714923755E+03  0.99714923755E+03  0.00000000000E+00 0.  1.
         21    1    1    2  503  502  0.39231565493E+02 -0.76152055059E+02  0.50910693910E+02  0.99650137858E+02  0.00000000000E+00 0.  1.
         21    1    1    2  504  503 -0.15522562640E+02 -0.77483399239E+02 -0.24954745472E+03  0.26176049982E+03  0.00000000000E+00 0.  1.
         21    1    1    2  505  501 -0.64600893467E+02  0.50676605787E+00  0.53533414005E+02  0.83900885952E+02  0.00000000000E+00 0.  1.
          2    1    1    2  501    0  0.40891890614E+02  0.15312868824E+03 -0.69299499869E+03  0.71088860596E+03  0.00000000000E+00 0.  1.
<scales pt_clust_3="77.12506" pt_clust_4="14000.00000" pt_clust_5="64.60288" pt_clust_6="111.20711"></scales>
<clustering>
<clus scale="   64.603">  1  5  2 -1</clus>
<clus scale="   77.125">  1  3  2 -1</clus>
<clus scale="  111.207">  1  6  2 -1</clus>
<clus scale="   64.603">  1  3  2 -1</clus>
</clustering>
</event>
<event>
 6    0  0.2117869E+002  0.6905058E+02  0.7546771E-02  0.1363352E+00
          1   -1    0    0  504    0 -0.00000000000E+00  0.00000000000E+00  0.24866863755E+03  0.24866863755E+03  0.00000000000E+00 0.  1.
         21   -1    0    0  503  502  0.00000000000E+00 -0.00000000000E+00 -0.23051856167E+04  0.23051856167E+04  0.00000000000E+00 0. -1.
         21    1    1    2  503  501 -0.40811267768E+01  0.46475021679E+02 -0.20554103697E+04  0.20559397781E+04  0.00000000000E+00 0. -1.
         21    1    1    2  504  505 -0.32238227058E+02  0.49010500341E+02  0.90391598274E+02  0.10775886723E+03  0.00000000000E+00 0.  1.
         21    1    1    2  505  502 -0.27273700141E+02  0.14750363400E+02 -0.21238045617E+03  0.21463197828E+03  0.00000000000E+00 0.  1.
          1    1    1    2  501    0  0.63593053976E+02 -0.11023588542E+03  0.12088224842E+03  0.17552363069E+03  0.00000000000E+00 0.  1.
<scales pt_clust_3="69.05058" pt_clust_4="58.77629" pt_clust_5="31.00690" pt_clust_6="14000.00000"></scales>
<clustering>
<clus scale="   31.007">  2  5  1 -1</clus>
<clus scale="   58.776">  1  4  2 -1</clus>
<clus scale="   69.051">  2  3  1 -1</clus>
<clus scale="   31.007">  2  3  1 -1</clus>
</clustering>
</event>
<event>
 6    0  0.2117869E+002  0.1109954E+03  0.7546771E-02  0.1258738E+00
          2   -1    0    0  503    0 -0.00000000000E+00  0.00000000000E+00  0.25170056292E+03  0.25170056292E+03  0.00000000000E+00 0. -1.
         21   -1    0    0  504  502  0.00000000000E+00 -0.00000000000E+00 -0.22405196574E+03  0.22405196574E+03  0.00000000000E+00 0. -1.
         21    1    1    2  503  502  0.30364820630E+02 -0.12851409935E+03 -0.10945327967E+03  0.17151651959E+03  0.00000000000E+00 0. -1.
         21    1    1    2  504  505  0.33989151999E+02 -0.47763549989E+01 -0.19562372913E+02  0.39506486236E+02  0.00000000000E+00 0. -1.
         21    1    1    2  505  501 -0.22346634348E+02  0.32770600340E+02 -0.29224653066E+02  0.49268292645E+02  0.00000000000E+00 0. -1.
          2    1    1    2  501    0 -0.42007338281E+02  0.10051985401E+03  0.18588890283E+03  0.21546123019E+03  0.00000000000E+00 0. -1.
<scales pt_clust_3="110.99543" pt_clust_4="34.32311" pt_clust_5="35.37774" pt_clust_6="14000.00000"></scales>
<clustering>
<clus scale="   34.323">  2  4  1 -1</clus>
<clus scale="   35.378">  2  5  1 -1</clus>
<clus scale="  110.995">  2  3  1 -1</clus>
<clus scale="   34.323">  2  3  1 -1</clus>
</clustering>
</event>
<event>
 6    0  0.2117869E+002  0.1171589E+03  0.7546771E-02  0.1247859E+00
         21   -1    0    0  501  502  0.00000000000E+00  0.00000000000E+00  0.10574219405E+04  0.10574219405E+04  0.00000000000E+00 0. -1.
          4   -1    0    0  504    0 -0.00000000000E+00 -0.00000000000E+00 -0.11653227735E+04  0.11653227735E+04  0.00000000000E+00 0. -1.
         21    1    1    2  503  505  0.49295471956E+02 -0.83283612477E+02  0.13375612813E+03  0.16509665495E+03  0.00000000000E+00 0. -1.
         21    1    1    2  504  503  0.26781892878E+02  0.15697670225E+02 -0.15891044247E+02  0.34874230083E+02  0.00000000000E+00 0. -1.
         21    1    1    2  505  502 -0.23899735724E+02 -0.33393142784E+02  0.89515923504E+03  0.89610063912E+03  0.00000000000E+00 0. -1.
          4    1    1    2  501    0 -0.52177629110E+02  0.10097908504E+03 -0.11209251519E+04  0.11266731899E+04  0.00000000000E+00 0. -1.
<scales pt_clust_3="117.15892" pt_clust_4="31.04330" pt_clust_5="41.05287" pt_clust_6="14000.00000"></scales>
<clustering>
<clus scale="   31.043">  2  4  1 -1</clus>
<clus scale="   41.053">  1  5  2 -1</clus>
<clus scale="  117.159">  1  3  2 -1</clus>
<clus scale="   41.053">  1  3  2 -1</clus>
</clustering>
</event>
<event>
 6    0  0.2117869E+002  0.2045028E+03  0.7546771E-02  0.1145995E+00
         21   -1    0    0  504  502  0.00000000000E+00  0.00000000000E+00  0.16916515186E+03  0.16916515186E+03  0.00000000000E+00 0. -1.
          1   -1    0    0  505    0 -0.00000000000E+00 -0.00000000000E+00 -0.23069492571E+04  0.23069492571E+04  0.00000000000E+00 0.  1.
         21    1    1    2  503  502  0.67663506924E+02  0.31805933397E+02 -0.23973090857E+02  0.78515454872E+02  0.00000000000E+00 0.  1.
         21    1    1    2  504  501  0.76084270580E+02 -0.55628168056E+02  0.95797937383E+02  0.13438956104E+03  0.00000000000E+00 0. -1.
         21    1    1    2  505  503  0.14651967468E+03 -0.83939666525E+02 -0.10244198976E+04  0.10382437138E+04  0.00000000000E+00 0.  1.
          1    1    1    2  501    0 -0.29026745218E+03  0.10776190118E+03 -0.11851890542E+04  0.12249656792E+04  0.00000000000E+00 0.  1.
<scales pt_clust_3="74.76609" pt_clust_4="134.32192" pt_clust_5="204.50283" pt_clust_6="14000.00000"></scales>
<clustering>
<clus scale="   74.766">  1  3  2 -1</clus>
<clus scale="  134.322">  1  4  2 -1</clus>
<clus scale="  204.503">  2  5  1 -1</clus>
<clus scale="   74.766">  1  3  2 -1</clus>
</clustering>
</event>
<event>
 6    0  0.2117869E+002  0.4430601E+03  0.7546771E-02  0.1029812E+00
          2   -1    0    0  504    0 -0.00000000000E+00  0.00000000000E+00  0.25508424367E+04  0.25508424367E+04  0.00000000000E+00 0.  1.
         21   -1    0    0  503  502  0.00000000000E+00 -0.00000000000E+00 -0.51497141208E+03  0.51497141208E+03  0.00000000000E+00 0. -1.
         21    1    1    2  503  505  0.13780080528E+03 -0.14715291070E+02 -0.18019293668E+03  0.22732156993E+03  0.00000000000E+00 0. -1.
         21    1    1    2  504  502 -0.77297800151E+02 -0.10717160038E+01 -0.15993874659E+03  0.17764149612E+03  0.00000000000E+00 0. -1.
         21    1    1    2  505  501  0.26308349942E+03 -0.29972960814E+03  0.21496046355E+03  0.45305492663E+03  0.00000000000E+00 0. -1.
          2    1    1    2  501    0 -0.32358650454E+03  0.31551661521E+03  0.21610422443E+04  0.22077958561E+04  0.00000000000E+00 0.  1.
<scales pt_clust_3="93.57144" pt_clust_4="77.30523" pt_clust_5="14000.00000" pt_clust_6="443.06014"></scales>
<clustering>
<clus scale="   77.305">  2  4  1 -1</clus>
<clus scale="   93.571">  2  3  1 -1</clus>
<clus scale="  443.060">  1  6  2 -1</clus>
<clus scale="   77.305">  2  3  1 -1</clus>
</clustering>
</event>
<event>
 6    0  0.2117869E+002  0.8264390E+02  0.7546771E-02  0.1321712E+00
         21   -1    0    0  503  502  0.00000000000E+00  0.00000000000E+00  0.45619085445E+03  0.45619085445E+03  0.00000000000E+00 0.  1.
          2   -1    0    0  505    0 -0.00000000000E+00 -0.00000000000E+00 -0.82587791362E+03  0.82587791362E+03  0.00000000000E+00 0.  1.
         21    1    1    2  503  501  0.26432443812E+01  0.82616398200E+02  0.44117759592E+03  0.44885423819E+03  0.00000000000E+00 0.  1.
         21    1    1    2  504  502 -0.60587310923E+02  0.10076458298E+02 -0.39378095910E+03  0.39854209440E+03  0.00000000000E+00 0.  1.
         21    1    1    2  505  504  0.32182990121E+02 -0.10546606554E+02 -0.82282741375E+02  0.88979915100E+02  0.00000000000E+00 0. -1.
          2    1    1    2  501    0  0.25761076421E+02 -0.82146249944E+02 -0.33480095462E+03  0.34569252039E+03  0.00000000000E+00 0.  1.
<scales pt_clust_3="82.64390" pt_clust_4="43.58969" pt_clust_5="33.86703" pt_clust_6="14000.00000"></scales>
<clustering>
<clus scale="   33.867">  2  5  1 -1</clus>
<clus scale="   43.590">  2  4  1 -1</clus>
<clus scale="   82.644">  1  3  2 -1</clus>
<clus scale="   82.644">  1  3  2 -1</clus>
</clustering>
</event>
<event>
 6    0  0.2117869E+002  0.1792479E+03  0.7546771E-02  0.1168533E+00
          2   -1    0    0  503    0 -0.00000000000E+00  0.00000000000E+00  0.89496769754E+03  0.89496769754E+03  0.00000000000E+00 0.  1.
         21   -1    0    0  501  502  0.00000000000E+00 -0.00000000000E+00 -0.15855013589E+03  0.15855013589E+03  0.00000000000E+00 0. -1.
         21    1    1    2  503  505 -0.56244944370E+01  0.36252741685E+02  0.80285372687E+02  0.88270251415E+02  0.00000000000E+00 0. -1.
         21    1    1    2  504  502 -0.73560499493E+02 -0.91691128948E+02 -0.53518890546E+02  0.12916145655E+03  0.00000000000E+00 0. -1.
         21    1    1    2  505  504 -0.61622258952E+02 -0.10152099597E+02 -0.37575036995E+02  0.72885192802E+02  0.00000000000E+00 0. -1.
          2    1    1    2  501    0  0.14080725288E+03  0.65590486860E+02  0.74722611650E+03  0.76320093266E+03  0.00000000000E+00 0.  1.
<scales pt_clust_3="36.68646" pt_clust_4="45.61493" pt_clust_5="45.61493" pt_clust_6="168.08176"></scales>
<clustering>
<clus scale="   36.686">  1  3  2 -1</clus>
<clus scale="   45.615">  4  5 -1 -1</clus>
<clus scale="  168.082">  1  6  2 -1</clus>
<clus scale="  179.248">  2  3  1 -1</clus>
</clustering>
</event>
<event>
 6    0  0.2117869E+002  0.1692258E+03  0.7546771E-02  0.1178658E+00
          1   -1    0    0  504    0 -0.00000000000E+00  0.00000000000E+00  0.42406064870E+03  0.42406064870E+03  0.00000000000E+00 0.  1.
         21   -1    0    0  501  502  0.00000000000E+00 -0.00000000000E+00 -0.32607914688E+03  0.32607914688E+03  0.00000000000E+00 0.  1.
         21    1    1    2  503  502 -0.17715863191E+03 -0.36875683046E+02 -0.22310540188E+03  0.28726471626E+03  0.00000000000E+00 0.  1.
         21    1    1    2  504  505 -0.28270213909E+02  0.12338852624E+02  0.40021378980E+02  0.50528833887E+02  0.00000000000E+00 0.  1.
         21    1    1    2  505  503  0.10406866094E+03  0.10462539881E+03  0.66426671971E+02  0.16183097050E+03  0.00000000000E+00 0.  1.
          1    1    1    2  501    0  0.10136018488E+03 -0.80088568385E+02  0.21463885275E+03  0.25051527494E+03  0.00000000000E+00 0.  1.
<scales pt_clust_3="169.22581" pt_clust_4="30.84562" pt_clust_5="14000.00000" pt_clust_6="110.97026"></scales>
<clustering>
<clus scale="   30.846">  1  4  2 -1</clus>
<clus scale="  110.970">  1  6  2 -1</clus>
<clus scale="  169.226">  2  3  1 -1</clus>
<clus scale="  169.226">  2  3  1 -1</clus>
</clustering>
</event>
<event>
 6    0  0.2117869E+002  0.1281946E+03  0.7546771E-02  0.1230159E+00
         21   -1    0    0  504  502  0.00000000000E+00  0.00000000000E+00  0.77760239549E+02  0.77760239549E+02  0.00000000000E+00 0. -1.
          2   -1    0    0  505    0 -0.00000000000E+00 -0.00000000000E+00 -0.94578984833E+03  0.94578984833E+03  0.00000000000E+00 0. -1.
         21    1    1    2  503  501 -0.27659461711E+02 -0.34637925809E+02 -0.81124857470E+01  0.45062669156E+02  0.00000000000E+00 0. -1.
         21    1    1    2  504  503 -0.11249250673E+02  0.39074395047E+02  0.16992246371E+02  0.44069155038E+02  0.00000000000E+00 0.  1.
         21    1    1    2  505  502 -0.74356606720E+02  0.97528567722E+02 -0.64742695005E+03  0.65894034793E+03  0.00000000000E+00 0. -1.
          2    1    1    2  501    0  0.11326531910E+03 -0.10196503696E+03 -0.22948241936E+03  0.27547791576E+03  0.00000000000E+00 0. -1.
<scales pt_clust_3="37.44828" pt_clust_4="40.66146" pt_clust_5="128.19461" pt_clust_6="14000.00000"></scales>
<clustering>
<clus scale="   40.661">  1  4  2 -1</clus>
<clus scale="   37.448">  1  3  2 -1</clus>
<clus scale="  128.195">  2  5  1 -1</clus>
<clus scale="   40.661">  1  3  2 -1</clus>
</clustering>
</event>
<event>
 6    0  0.2117869E+002  0.1078287E+03  0.7546771E-02  0.1264644E+00
          1   -1    0    0  504    0 -0.00000000000E+00  0.00000000000E+00  0.92492580716E+02  0.92492580716E+02  0.00000000000E+00 0. -1.
         21   -1    0    0  503  502  0.00000000000E+00 -0.00000000000E+00 -0.11882831649E+04  0.11882831649E+04  0.00000000000E+00 0.  1.
         21    1    1    2  503  501 -0.36727441613E+02 -0.84226485928E+02 -0.32779197958E+03  0.34042706675E+03  0.00000000000E+00 0.  1.
         21    1    1    2  504  505 -0.36232865474E+02 -0.26666871867E+02 -0.21324032846E+02  0.49786112245E+02  0.00000000000E+00 0.  1.
         21    1    1    2  505  502  0.50828753192E+02 -0.25886188643E+02 -0.74980225255E+03  0.75196879912E+03  0.00000000000E+00 0.  1.
          1    1    1    2  501    0  0.22131553896E+02  0.13677954644E+03  0.31276808015E+01  0.13859376750E+03  0.00000000000E+00 0. -1.
<scales pt_clust_3="107.82868" pt_clust_4="44.98825" pt_clust_5="56.76417" pt_clust_6="14000.00000"></scales>
<clustering>
<clus scale="   44.988">  1  4  2 -1</clus>
<clus scale="   56.764">  2  5  1 -1</clus>
<clus scale="  107.829">  2  3  1 -1</clus>
<clus scale="   56.764">  2  3  1 -1</clus>
</clustering>
</event>
<event>
 6    0  0.2117869E+002  0.7997663E+02  0.7546771E-02  0.1329118E+00
         21   -1    0    0  504  502  0.00000000000E+00  0.00000000000E+00  0.20389328709E+04  0.20389328709E+04  0.00000000000E+00 0. -1.
          2   -1    0    0  505    0 -0.00000000000E+00 -0.00000000000E+00 -0.19215736292E+04  0.19215736292E+04  0.00000000000E+00 0.  1.
         21    1    1    2  503  501 -0.63344398505E+02 -0.18721773679E+02  0.20576949134E+03  0.21611131668E+03  0.00000000000E+00 0.  1.
         21    1    1    2  504  503 -0.15327231768E+02  0.33485393886E+02  0.18230909111E+04  0.18234628227E+04  0.00000000000E+00 0. -1.
         21    1    1    2  505  502 -0.53393881399E+02  0.11758650959E+02 -0.63185692029E+03  0.63421789644E+03  0.00000000000E+00 0.  1.
          2    1    1    2  501    0  0.13206551167E+03 -0.26522271166E+02 -0.12796442405E+04  0.12867144642E+04  0.00000000000E+00 0.  1.
<scales pt_clust_3="14000.00000" pt_clust_4="36.82656" pt_clust_5="54.79492" pt_clust_6="79.97663"></scales>
<clustering>
<clus scale="   36.827">  1  4  2 -1</clus>
<clus scale="   54.795">  2  5  1 -1</clus>
<clus scale="   79.977">  2  6  1 -1</clus>
<clus scale="   36.827">  1  3  2 -1</clus>
</clustering>
</event>
<event>
 6    0  0.2117869E+002  0.7977457E+02  0.7546771E-02  0.1329692E+00
          2   -1    0    0  505    0 -0.00000000000E+00  0.00000000000E+00  0.18488379112E+04  0.18488379112E+04  0.00000000000E+00 0. -1.
         21   -1    0    0  504  502  0.00000000000E+00 -0.00000000000E+00 -0.82215246079E+02  0.82215246079E+02  0.00000000000E+00 0. -1.
         21    1    1    2  503  502  0.10579789721E+03 -0.49568945677E+02  0.29755015677E+03  0.31966603076E+03  0.00000000000E+00 0. -1.
         21    1    1    2  504  501 -0.75201376789E+02  0.17846327701E+02 -0.45865526497E+02  0.89874273317E+02  0.00000000000E+00 0. -1.
         21    1    1    2  505  503  0.46371900987E+02 -0.15350998213E+02  0.66774315499E+03  0.66952739106E+03  0.00000000000E+00 0. -1.
          2    1    1    2  501    0 -0.76968421407E+02  0.47073616189E+02  0.84719487988E+03  0.85198546216E+03  0.00000000000E+00 0. -1.
<scales pt_clust_3="14000.00000" pt_clust_4="79.77457" pt_clust_5="48.84676" pt_clust_6="56.54607"></scales>
<clustering>
<clus scale="   48.847">  1  5  2 -1</clus>
<clus scale="   56.546">  1  6  2 -1</clus>
<clus scale="   79.775">  2  4  1 -1</clus>
<clus scale="   79.775">  2  3  1 -1</clus>
</clustering>
</event>
<event>
 6    0  0.2117869E+002  0.7165405E+02  0.7546771E-02  0.1354557E+00
          1   -1    0    0  504    0 -0.00000000000E+00  0.00000000000E+00  0.15230740522E+03  0.15230740522E+03  0.00000000000E+00 0.  1.
         21   -1    0    0  503  502  0.00000000000E+00 -0.00000000000E+00 -0.66296443899E+03  0.66296443899E+03  0.00000000000E+00 0.  1.
         21    1    1    2  503  501  0.70804516500E+02 -0.94060525303E+02 -0.49184045487E+03  0.50573480701E+03  0.00000000000E+00 0.  1.
         21    1    1    2  504  505 -0.17399249801E+02 -0.30791983164E+02  0.90937615432E+02  0.97573203398E+02  0.00000000000E+00 0.  1.
         21    1    1    2  505  502 -0.47537595827E+02  0.35592787643E+02 -0.10711127486E+03  0.12247242446E+03  0.00000000000E+00 0.  1.
          1    1    1    2  501    0 -0.58676708718E+01  0.89259720825E+02 -0.26429194726E+01  0.89491409345E+02  0.00000000000E+00 0.  1.
<scales pt_clust_3="14000.00000" pt_clust_4="35.36778" pt_clust_5="58.96969" pt_clust_6="71.65405"></scales>
<clustering>
<clus scale="   35.368">  1  4  2 -1</clus>
<clus scale="   58.970">  2  5  1 -1</clus>
<clus scale="   71.654">  1  6  2 -1</clus>
<clus scale="   58.970">  2  3  1 -1</clus>
</clustering>
</event>
<event>
 6    0  0.2117869E+002  0.8830362E+02  0.7546771E-02  0.1307013E+00
         21   -1    0    0  505  502  0.00000000000E+00  0.00000000000E+00  0.51891051122E+02  0.51891051122E+02  0.00000000000E+00 0.  1.
         -1   -1    0    0    0  501 -0.00000000000E+00 -0.00000000000E+00 -0.64401483170E+03  0.64401483170E+03  0.00000000000E+00 0. -1.
         21    1    1    2  503  502  0.29108157298E+02 -0.72798357530E+01 -0.16937062556E+00  0.30005158161E+02  0.00000000000E+00 0.  1.
         21    1    1    2  504  503 -0.10738594972E+02 -0.82064107374E+02 -0.34275522175E+02  0.89580391612E+02  0.00000000000E+00 0.  1.
         21    1    1    2  505  501  0.40746256780E+02  0.74995348779E+01 -0.11388092600E+03  0.12118319096E+03  0.00000000000E+00 0. -1.
         -1    1    1    2    0  504 -0.59115819105E+02  0.81844408249E+02 -0.44379796178E+03  0.45513714209E+03  0.00000000000E+00 0. -1.
<scales pt_clust_3="30.00468" pt_clust_4="14000.00000" pt_clust_5="44.14458" pt_clust_6="88.30362"></scales>
<clustering>
<clus scale="   30.005">  1  3  2 -1</clus>
<clus scale="   44.145">  2  5  1 -1</clus>
<clus scale="   88.304">  2  6  1 -1</clus>
<clus scale="   30.005">  1  3  2 -1</clus>
</clustering>
</event>
<event>
 6    0  0.2117869E+002  0.1155786E+03  0.7546771E-02  0.1250574E+00
          2   -1    0    0  504    0 -0.00000000000E+00  0.00000000000E+00  0.41323825623E+04  0.41323825623E+04  0.00000000000E+00 0. -1.
         21   -1    0    0  505  502  0.00000000000E+00 -0.00000000000E+00 -0.65586377233E+03  0.65586377233E+03  0.00000000000E+00 0.  1.
         21    1    1    2  503  501 -0.10144626322E+03 -0.57269156948E+02  0.54830891376E+03  0.56054773710E+03  0.00000000000E+00 0. -1.
         21    1    1    2  504  502  0.46975072603E+01  0.38224695257E+02  0.40557214728E+03  0.40739656424E+03  0.00000000000E+00 0. -1.
         21    1    1    2  505  503  0.72461169979E+02  0.90130494351E+02 -0.64322989887E+03  0.65354328852E+03  0.00000000000E+00 0.  1.
          2    1    1    2  501    0  0.24287585983E+02 -0.71086032661E+02  0.31658676278E+04  0.31667587448E+04  0.00000000000E+00 0. -1.
<scales pt_clust_3="115.57860" pt_clust_4="38.51226" pt_clust_5="14000.00000" pt_clust_6="47.85255"></scales>
<clustering>
<clus scale="   38.512">  1  4  2 -1</clus>
<clus scale="   47.853">  1  6  2 -1</clus>
<clus scale="  115.579">  1  3  2 -1</clus>
<clus scale="  115.579">  2  3  1 -1</clus>
</clustering>
</event>
<event>
 6    0  0.2117869E+002  0.8261030E+02  0.7546771E-02  0.1321803E+00
         21   -1    0    0  503  502  0.00000000000E+00  0.00000000000E+00  0.28533373473E+04  0.28533373473E+04  0.00000000000E+00 0.  1.
          2   -1    0    0  504    0 -0.00000000000E+00 -0.00000000000E+00 -0.17060897736E+03  0.17060897736E+03  0.00000000000E+00 0.  1.
         21    1    1    2  503  501 -0.61642225192E+02  0.34115129821E+01  0.26937899309E+04  0.26944972804E+04  0.00000000000E+00 0.  1.
         21    1    1    2  504  505 -0.29626343170E+02 -0.11684094063E+02 -0.56902460835E+02  0.65208345422E+02  0.00000000000E+00 0. -1.
         21    1    1    2  505  502  0.53404771161E+01 -0.68458025734E+02  0.11201509533E+03  0.13138646645E+03  0.00000000000E+00 0. -1.
          2    1    1    2  501    0  0.85928091246E+02  0.76730606815E+02 -0.66174195529E+02  0.13285423230E+03  0.00000000000E+00 0.  1.
<scales pt_clust_3="61.82998" pt_clust_4="31.84711" pt_clust_5="82.61030" pt_clust_6="14000.00000"></scales>
<clustering>
<clus scale="   31.847">  2  4  1 -1</clus>
<clus scale="   61.830">  1  3  2 -1</clus>
<clus scale="   82.610">  1  5  2 -1</clus>
<clus scale="   61.830">  1  3  2 -1</clus>
</clustering>
</event>
<event>
 6    0  0.2117869E+002  0.1154804E+03  0.7546771E-02  0.1250745E+00
          1   -1    0    0  505    0 -0.00000000000E+00  0.00000000000E+00  0.29440599703E+03  0.29440599703E+03  0.00000000000E+00 0. -1.
         21   -1    0    0  504  502  0.00000000000E+00 -0.00000000000E+00 -0.24449467831E+03  0.24449467831E+03  0.00000000000E+00 0. -1.
         21    1    1    2  503  501  0.68842573686E+02 -0.77112174149E+01 -0.17577274453E+02  0.71468338465E+02  0.00000000000E+00 0. -1.
         21    1    1    2  504  503  0.52657149322E+02  0.35974301331E+02 -0.13298005528E+03  0.14748091685E+03  0.00000000000E+00 0. -1.
         21    1    1    2  505  502 -0.40115119254E+01  0.73617074912E+02  0.10532590530E+02  0.74474837428E+02  0.00000000000E+00 0. -1.
          1    1    1    2  501    0 -0.11748821108E+03 -0.10188015883E+03  0.18993605792E+03  0.24547658260E+03  0.00000000000E+00 0. -1.
<scales pt_clust_3="14000.00000" pt_clust_4="63.77245" pt_clust_5="85.51349" pt_clust_6="115.48035"></scales>
<clustering>
<clus scale="   63.772">  2  4  1 -1</clus>
<clus scale="   85.513">  2  5  1 -1</clus>
<clus scale="  115.480">  1  6  2 -1</clus>
<clus scale="   63.772">  2  3  1 -1</clus>
</clustering>
</event>
<event>
 6    0  0.2117869E+002  0.3084774E+03  0.7546771E-02  0.1081078E+00
         21   -1    0    0  505  502  0.00000000000E+00  0.00000000000E+00  0.14749041601E+03  0.14749041601E+03  0.00000000000E+00 0.  1.
          2   -1    0    0  504    0 -0.00000000000E+00 -0.00000000000E+00 -0.44336873815E+04  0.44336873815E+04  0.00000000000E+00 0.  1.
         21    1    1    2  503  501  0.19623043505E+03  0.23251836859E+03 -0.17628530953E+03  0.35163572874E+03  0.00000000000E+00 0.  1.
         21    1    1    2  504  502 -0.85981786226E+01 -0.15599636941E+03 -0.76361086312E+03  0.77942950048E+03  0.00000000000E+00 0. -1.
         21    1    1    2  505  503 -0.12493909876E+02  0.30600463673E+02  0.43203214236E+02  0.54396726752E+02  0.00000000000E+00 0.  1.
          2    1    1    2  501    0 -0.17513834655E+03 -0.10712246286E+03 -0.33895040071E+04  0.33957158416E+04  0.00000000000E+00 0.  1.
<scales pt_clust_3="308.47739" pt_clust_4="153.84375" pt_clust_5="33.05278" pt_clust_6="14000.00000"></scales>
<clustering>
<clus scale="   33.053">  1  5  2 -1</clus>
<clus scale="  153.844">  2  4  1 -1</clus>
<clus scale="  308.477">  1  3  2 -1</clus>
<clus scale="   33.053">  1  3  2 -1</clus>
</clustering>
</event>
<event>
 6    0  0.2117869E+002  0.1081855E+03  0.7546771E-02  0.1263967E+00
          2   -1    0    0  504    0 -0.00000000000E+00  0.00000000000E+00  0.36358848165E+04  0.36358848165E+04  0.00000000000E+00 0. -1.
         21   -1    0    0  505  502  0.00000000000E+00 -0.00000000000E+00 -0.72485179544E+02  0.72485179544E+02  0.00000000000E+00 0. -1.
         21    1    1    2  503  501  0.37675233182E+02  0.26756895556E+02  0.12838160977E+04  0.12846474721E+04  0.00000000000E+00 0. -1.
         21    1    1    2  504  502 -0.36562268359E+02 -0.69314714357E+02 -0.17670690735E+02  0.80334192004E+02  0.00000000000E+00 0. -1.
         21    1    1    2  505  503 -0.62883643353E+02  0.43256906636E+02  0.41671647981E+02  0.86959984007E+02  0.00000000000E+00 0. -1.
          2    1    1    2  501    0  0.61770678530E+02 -0.69908783529E+00  0.22555825820E+04  0.22564283480E+04  0.00000000000E+00 0. -1.
<scales pt_clust_3="31.26143" pt_clust_4="101.96886" pt_clust_5="76.32505" pt_clust_6="31.26143"></scales>
<clustering>
<clus scale="   31.261">  3  6 -1 -1</clus>
<clus scale="   76.325">  2  5  1 -1</clus>
<clus scale="  101.969">  2  4  1 -1</clus>
<clus scale="   76.325">  2  3  1 -1</clus>
</clustering>
</event>
<event>
 6    0  0.2117869E+002  0.9607708E+02  0.7546771E-02  0.1288768E+00
         21   -1    0    0  504  502  0.00000000000E+00  0.00000000000E+00  0.31486311946E+03  0.31486311946E+03  0.00000000000E+00 0. -1.
         -2   -1    0    0    0  501 -0.00000000000E+00 -0.00000000000E+00 -0.67328403937E+03  0.67328403937E+03  0.00000000000E+00 0. -1.
         21    1    1    2  503  501  0.62435851582E+02 -0.22165669693E+02 -0.59044891112E+02  0.88745995077E+02  0.00000000000E+00 0. -1.
         21    1    1    2  504  503  0.40846618100E+02 -0.63167649560E+02  0.11740544742E+03  0.13943685756E+03  0.00000000000E+00 0. -1.
         21    1    1    2  505  502 -0.11178203690E+02 -0.30918879340E+02  0.16055215141E+03  0.16388386943E+03  0.00000000000E+00 0. -1.
         -2    1    1    2    0  505 -0.92104265992E+02  0.11625219859E+03 -0.57733362763E+03  0.59608043676E+03  0.00000000000E+00 0. -1.
<scales pt_clust_3="66.31241" pt_clust_4="14000.00000" pt_clust_5="32.87749" pt_clust_6="96.07708"></scales>
<clustering>
<clus scale="   32.877">  1  5  2 -1</clus>
<clus scale="   66.312">  2  3  1 -1</clus>
<clus scale="   96.077">  2  6  1 -1</clus>
<clus scale="   32.877">  1  3  2 -1</clus>
</clustering>
</event>
<event>
 6    0  0.2117869E+002  0.8836327E+02  0.7546771E-02  0.1306864E+00
         -1   -1    0    0    0  501 -0.00000000000E+00  0.00000000000E+00  0.27821379810E+03  0.27821379810E+03  0.00000000000E+00 0.  1.
         21   -1    0    0  503  502  0.00000000000E+00 -0.00000000000E+00 -0.30403506934E+03  0.30403506934E+03  0.00000000000E+00 0.  1.
         21    1    1    2  503  504  0.62846151524E+02  0.42196203485E+02 -0.10490129449E+03  0.12936166332E+03  0.00000000000E+00 0.  1.
         21    1    1    2  504  501  0.21448834415E+02  0.21231348791E+02  0.84256108008E+02  0.89498125153E+02  0.00000000000E+00 0.  1.
         21    1    1    2  505  502  0.23438016258E+02 -0.73699781007E+02 -0.15812548886E+03  0.17602462485E+03  0.00000000000E+00 0.  1.
         -1    1    1    2    0  505 -0.10773300220E+03  0.10272228731E+02  0.15294940411E+03  0.18736445411E+03  0.00000000000E+00 0.  1.
<scales pt_clust_3="14000.00000" pt_clust_4="30.17984" pt_clust_5="76.70489" pt_clust_6="88.36327"></scales>
<clustering>
<clus scale="   30.180">  1  4  2 -1</clus>
<clus scale="   76.705">  2  5  1 -1</clus>
<clus scale="   88.363">  1  6  2 -1</clus>
<clus scale="   76.705">  2  3  1 -1</clus>
</clustering>
</event>
<event>
 6    0  0.2117869E+002  0.8817069E+02  0.7546771E-02  0.1307343E+00
         21   -1    0    0  505  502  0.00000000000E+00  0.00000000000E+00  0.95483279469E+03  0.95483279469E+03  0.00000000000E+00 0.  1.
          2   -1    0    0  503    0 -0.00000000000E+00 -0.00000000000E+00 -0.68086240445E+03  0.68086240445E+03  0.00000000000E+00 0. -1.
         21    1    1    2  503  502  0.68735254273E+02  0.56477687919E+02 -0.10713183032E+03  0.13925334280E+03  0.00000000000E+00 0.  1.
         21    1    1    2  504  501 -0.13093252390E+02 -0.56178440196E+02  0.29427916460E+03  0.29987943764E+03  0.00000000000E+00 0.  1.
         21    1    1    2  505  504  0.31792592982E+02  0.19838593214E+02  0.63751176950E+03  0.63861224150E+03  0.00000000000E+00 0.  1.
          2    1    1    2  501    0 -0.87434594866E+02 -0.20137840936E+02 -0.55068871354E+03  0.55795017720E+03  0.00000000000E+00 0. -1.
<scales pt_clust_3="88.17069" pt_clust_4="41.12658" pt_clust_5="37.47451" pt_clust_6="14000.00000"></scales>
<clustering>
<clus scale="   37.475">  1  5  2 -1</clus>
<clus scale="   41.127">  1  4  2 -1</clus>
<clus scale="   88.171">  1  3  2 -1</clus>
<clus scale="   37.475">  1  3  2 -1</clus>
</clustering>
</event>
<event>
 6    0  0.2117869E+002  0.1287561E+03  0.7546771E-02  0.1229313E+00
          2   -1    0    0  505    0 -0.00000000000E+00  0.00000000000E+00  0.26438218766E+04  0.26438218766E+04  0.00000000000E+00 0. -1.
         21   -1    0    0  501  502  0.00000000000E+00 -0.00000000000E+00 -0.10843915988E+03  0.10843915988E+03  0.00000000000E+00 0.  1.
         21    1    1    2  503  504  0.32642065345E+02 -0.32868748410E+02  0.29759174531E+03  0.30117554005E+03  0.00000000000E+00 0. -1.
         21    1    1    2  504  502 -0.12303101694E+03  0.41673258449E+02 -0.61091509466E+02  0.14354603488E+03  0.00000000000E+00 0.  1.
         21    1    1    2  505  503  0.30018117387E+02  0.23941319644E+02  0.93352453382E+02  0.10094035224E+03  0.00000000000E+00 0. -1.
          2    1    1    2  501    0  0.60370834211E+02 -0.32745829683E+02  0.22055300275E+04  0.22065991093E+04  0.00000000000E+00 0. -1.
<scales pt_clust_3="47.02760" pt_clust_4="14000.00000" pt_clust_5="38.39628" pt_clust_6="128.75611"></scales>
<clustering>
<clus scale="   38.396">  1  5  2 -1</clus>
<clus scale="   47.028">  1  3  2 -1</clus>
<clus scale="  128.756">  1  6  2 -1</clus>
<clus scale="  128.756">  2  3  1 -1</clus>
</clustering>
</event>
<event>
 6    0  0.2117869E+002  0.1344687E+03  0.7546771E-02  0.1220972E+00
          2   -1    0    0  505    0 -0.00000000000E+00  0.00000000000E+00  0.24940681704E+04  0.24940681704E+04  0.00000000000E+00 0. -1.
         21   -1    0    0  503  502  0.00000000000E+00 -0.00000000000E+00 -0.38500414250E+02  0.38500414250E+02  0.00000000000E+00 0.  1.
         21    1    1    2  503  501  0.44527201872E+02 -0.13300902160E+03  0.11267625816E+03  0.17991667707E+03  0.00000000000E+00 0.  1.
         21    1    1    2  504  502 -0.20246910059E+02  0.10432207054E+03  0.72806921703E+03  0.73578381101E+03  0.00000000000E+00 0. -1.
         21    1    1    2  505  504 -0.30830009596E+02 -0.12748659771E+02  0.42536932641E+03  0.42667561644E+03  0.00000000000E+00 0. -1.
          2    1    1    2  501    0  0.65497177827E+01  0.41435610833E+02  0.11894529546E+04  0.11901924802E+04  0.00000000000E+00 0. -1.
<scales pt_clust_3="14000.00000" pt_clust_4="134.46873" pt_clust_5="33.36192" pt_clust_6="35.88923"></scales>
<clustering>
<clus scale="   33.362">  1  5  2 -1</clus>
<clus scale="   35.889">  1  6  2 -1</clus>
<clus scale="  134.469">  1  4  2 -1</clus>
<clus scale="  134.469">  2  3  1 -1</clus>
</clustering>
</event>
<event>
 6    0  0.2117869E+002  0.1027282E+03  0.7546771E-02  0.1274661E+00
         21   -1    0    0  504  502  0.00000000000E+00  0.00000000000E+00  0.42365661523E+03  0.42365661523E+03  0.00000000000E+00 0.  1.
         -1   -1    0    0    0  501 -0.00000000000E+00 -0.00000000000E+00 -0.30253175923E+03  0.30253175923E+03  0.00000000000E+00 0. -1.
         21    1    1    2  503  501  0.12706319463E+02  0.28163889616E+02 -0.21083576192E+03  0.21308771372E+03  0.00000000000E+00 0. -1.
         21    1    1    2  504  503 -0.77722396427E+02 -0.85155939615E+02  0.26806907687E+03  0.29181044349E+03  0.00000000000E+00 0.  1.
         21    1    1    2  505  502  0.33693065078E+02 -0.12539046748E+02  0.12086435413E+03  0.12609774949E+03  0.00000000000E+00 0.  1.
         -1    1    1    2    0  505  0.31323011887E+02  0.69531096747E+02 -0.56972813081E+02  0.95192467763E+02  0.00000000000E+00 0. -1.
<scales pt_clust_3="30.89750" pt_clust_4="14000.00000" pt_clust_5="36.02192" pt_clust_6="102.72815"></scales>
<clustering>
<clus scale="   30.897">  2  3  1 -1</clus>
<clus scale="   36.022">  1  5  2 -1</clus>
<clus scale="  102.728">  2  6  1 -1</clus>
<clus scale="   36.022">  1  3  2 -1</clus>
</clustering>
</event>
<event>
 6    0  0.2117869E+002  0.1354763E+03  0.7546771E-02  0.1219549E+00
         21   -1    0    0  501  502  0.00000000000E+00  0.00000000000E+00  0.12400461208E+03  0.12400461208E+03  0.00000000000E+00 0. -1.
         -3   -1    0    0    0  501 -0.00000000000E+00 -0.00000000000E+00 -0.49315545079E+03  0.49315545079E+03  0.00000000000E+00 0.  1.
         21    1    1    2  503  502 -0.41884372581E+02 -0.92023005076E+01  0.69805331533E+02  0.81925376481E+02  0.00000000000E+00 0. -1.
         21    1    1    2  504  503 -0.54049535376E+02 -0.29179823408E+02 -0.39362593838E+02  0.72953602804E+02  0.00000000000E+00 0. -1.
         21    1    1    2  505  504 -0.39468978781E+02  0.28970338233E+01 -0.74365439097E+00  0.39582143864E+02  0.00000000000E+00 0. -1.
         -3    1    1    2    0  505  0.13540288674E+03  0.35485090092E+02 -0.39884992201E+03  0.42269893972E+03  0.00000000000E+00 0.  1.
<scales pt_clust_3="42.88337" pt_clust_4="32.30031" pt_clust_5="32.30031" pt_clust_6="129.36211"></scales>
<clustering>
<clus scale="   32.300">  4  5 -1 -1</clus>
<clus scale="   42.883">  1  3  2 -1</clus>
<clus scale="  129.362">  2  6  1 -1</clus>
<clus scale="   42.883">  1  3  2 -1</clus>
</clustering>
</event>
<event>
 6    0  0.2117869E+002  0.8043801E+02  0.7546771E-02  0.1327813E+00
          1   -1    0    0  503    0 -0.00000000000E+00  0.00000000000E+00  0.16327491376E+03  0.16327491376E+03  0.00000000000E+00 0.  1.
         21   -1    0    0  504  502  0.00000000000E+00 -0.00000000000E+00 -0.35709412434E+03  0.35709412434E+03  0.00000000000E+00 0.  1.
         21    1    1    2  503  505 -0.17375281425E+02  0.31718853480E+02  0.15880070779E+02  0.39498895157E+02  0.00000000000E+00 0.  1.
         21    1    1    2  504  501  0.64363061482E+01  0.54921451793E+02 -0.24980132074E+03  0.25584857191E+03  0.00000000000E+00 0.  1.
         21    1    1    2  505  502 -0.67754230392E+02  0.22857862434E+01 -0.42824670152E+02  0.80186114311E+02  0.00000000000E+00 0. -1.
          1    1    1    2  501    0  0.78693205669E+02 -0.88926091516E+02  0.82926709527E+02  0.14483545672E+03  0.00000000000E+00 0.  1.
<scales pt_clust_3="36.16609" pt_clust_4="55.95669" pt_clust_5="80.43801" pt_clust_6="14000.00000"></scales>
<clustering>
<clus scale="   36.166">  1  3  2 -1</clus>
<clus scale="   55.957">  2  4  1 -1</clus>
<clus scale="   80.438">  2  5  1 -1</clus>
<clus scale="   55.957">  2  3  1 -1</clus>
</clustering>
</event>
<event>
 6    0  0.2117869E+002  0.7819024E+02  0.7546771E-02  0.1334267E+00
         21   -1    0    0  503  502  0.00000000000E+00  0.00000000000E+00  0.89253843799E+03  0.89253843799E+03  0.00000000000E+00 0.  1.
          2   -1    0    0  505    0 -0.00000000000E+00 -0.00000000000E+00 -0.65417954097E+03  0.65417954097E+03  0.00000000000E+00 0.  1.
         21    1    1    2  503  501 -0.36574276544E+02 -0.77299251711E+02  0.30936647767E+02  0.90939145558E+02  0.00000000000E+00 0. -1.
         21    1    1    2  504  502  0.78087107835E+02  0.28107011658E+01  0.80513656228E+03  0.80891926691E+03  0.00000000000E+00 0.  1.
         21    1    1    2  505  504  0.15547886151E+02  0.49514577095E+02 -0.64201885957E+01  0.52293870867E+02  0.00000000000E+00 0.  1.
          2    1    1    2  501    0 -0.57060717442E+02  0.24973973450E+02 -0.59129412444E+03  0.59456569563E+03  0.00000000000E+00 0.  1.
<scales pt_clust_3="75.22611" pt_clust_4="78.19024" pt_clust_5="51.89827" pt_clust_6="14000.00000"></scales>
<clustering>
<clus scale="   51.898">  2  5  1 -1</clus>
<clus scale="   78.190">  1  4  2 -1</clus>
<clus scale="   75.226">  1  3  2 -1</clus>
<clus scale="   78.190">  1  3  2 -1</clus>
</clustering>
</event>
<event>
 6    0  0.2117869E+002  0.1177221E+03  0.7546771E-02  0.1246903E+00
         21   -1    0    0  503  502  0.00000000000E+00  0.00000000000E+00  0.39787064053E+03  0.39787064053E+03  0.00000000000E+00 0. -1.
          3   -1    0    0  504    0 -0.00000000000E+00 -0.00000000000E+00 -0.32422325826E+03  0.32422325826E+03  0.00000000000E+00 0.  1.
         21    1    1    2  503  505  0.28803506745E+02  0.40232497930E+02  0.94410612935E+02  0.10659108652E+03  0.00000000000E+00 0. -1.
         21    1    1    2  504  502 -0.31242074516E+02  0.69610895739E+02 -0.16898712222E+02  0.78149283429E+02  0.00000000000E+00 0. -1.
         21    1    1    2  505  501 -0.85036918308E+02  0.70777325412E+01  0.23910825044E+03  0.25387817394E+03  0.00000000000E+00 0. -1.
          3    1    1    2  501    0  0.87475486078E+02 -0.11692112621E+03 -0.24297276888E+03  0.28347535490E+03  0.00000000000E+00 0.  1.
<scales pt_clust_3="49.48026" pt_clust_4="14000.00000" pt_clust_5="73.31471" pt_clust_6="117.72209"></scales>
<clustering>
<clus scale="   49.480">  1  3  2 -1</clus>
<clus scale="   73.315">  1  5  2 -1</clus>
<clus scale="  117.722">  2  6  1 -1</clus>
<clus scale="   49.480">  1  3  2 -1</clus>
</clustering>
</event>
<event>
 6    0  0.2117869E+002  0.1464010E+03  0.7546771E-02  0.1204966E+00
          2   -1    0    0  503    0 -0.00000000000E+00  0.00000000000E+00  0.13960272435E+04  0.13960272435E+04  0.00000000000E+00 0.  1.
         21   -1    0    0  504  502  0.00000000000E+00 -0.00000000000E+00 -0.53064910429E+03  0.53064910429E+03  0.00000000000E+00 0.  1.
         21    1    1    2  503  505  0.64870750931E+02  0.93328971582E+01  0.39243037922E+03  0.39786545443E+03  0.00000000000E+00 0. -1.
         21    1    1    2  504  501 -0.89654617168E+02  0.51329624915E+01 -0.22452059241E+03  0.24181355235E+03  0.00000000000E+00 0.  1.
         21    1    1    2  505  502 -0.77221371130E+01  0.10757403071E+03 -0.28070165070E+03  0.30070786520E+03  0.00000000000E+00 0.  1.
          2    1    1    2  501    0  0.32506003350E+02 -0.12203989036E+03  0.97817000315E+03  0.98628947584E+03  0.00000000000E+00 0.  1.
<scales pt_clust_3="65.53867" pt_clust_4="89.24662" pt_clust_5="146.40101" pt_clust_6="14000.00000"></scales>
<clustering>
<clus scale="   65.539">  1  3  2 -1</clus>
<clus scale="   89.247">  2  4  1 -1</clus>
<clus scale="  146.401">  2  5  1 -1</clus>
<clus scale="   89.247">  2  3  1 -1</clus>
</clustering>
</event>
<event>
 6    0  0.2117869E+002  0.1119681E+03  0.7546771E-02  0.1256968E+00
          2   -1    0    0  503    0 -0.00000000000E+00  0.00000000000E+00  0.29886114028E+04  0.29886114028E+04  0.00000000000E+00 0.  1.
         21   -1    0    0  504  502  0.00000000000E+00 -0.00000000000E+00 -0.51038953567E+02  0.51038953567E+02  0.00000000000E+00 0.  1.
         21    1    1    2  503  502 -0.74811083020E+02  0.11536855245E+03  0.29076824251E+03  0.32164074973E+03  0.00000000000E+00 0.  1.
         21    1    1    2  504  505 -0.33981030783E+02 -0.62065918556E+02  0.38685591439E+01  0.70865043915E+02  0.00000000000E+00 0.  1.
         21    1    1    2  505  501  0.58948953459E+02 -0.58871881849E+02  0.10070423016E+04  0.10104825950E+04  0.00000000000E+00 0.  1.
          2    1    1    2  501    0  0.49843160344E+02  0.55692479565E+01  0.16358933460E+04  0.16366619677E+04  0.00000000000E+00 0.  1.
<scales pt_clust_3="14000.00000" pt_clust_4="69.97219" pt_clust_5="111.96807" pt_clust_6="50.15334"></scales>
<clustering>
<clus scale="   50.153">  1  6  2 -1</clus>
<clus scale="   69.972">  2  4  1 -1</clus>
<clus scale="  111.968">  1  5  2 -1</clus>
<clus scale="   69.972">  2  3  1 -1</clus>
</clustering>
</event>
<event>
 6    0  0.2117869E+002  0.7130862E+02  0.7546771E-02  0.1355699E+00
          1   -1    0    0  505    0 -0.00000000000E+00  0.00000000000E+00  0.17997180207E+04  0.17997180207E+04  0.00000000000E+00 0.  1.
         21   -1    0    0  503  502  0.00000000000E+00 -0.00000000000E+00 -0.96926501995E+03  0.96926501995E+03  0.00000000000E+00 0.  1.
         21    1    1    2  503  501  0.60808150116E+02 -0.32700577976E+02 -0.93319822283E+03  0.93574883490E+03  0.00000000000E+00 0.  1.
         21    1    1    2  504  502 -0.23085819283E+02 -0.27002020541E+02 -0.17397806210E+02  0.39556893535E+02  0.00000000000E+00 0.  1.
         21    1    1    2  505  504 -0.98163256649E+02  0.67289514423E+02  0.63793756690E+03  0.64894394440E+03  0.00000000000E+00 0.  1.
          1    1    1    2  501    0  0.60440925816E+02 -0.75869159062E+01  0.11431114629E+04  0.11447333678E+04  0.00000000000E+00 0.  1.
<scales pt_clust_3="71.30862" pt_clust_4="35.52554" pt_clust_5="14000.00000" pt_clust_6="60.89840"></scales>
<clustering>
<clus scale="   35.526">  2  4  1 -1</clus>
<clus scale="   60.898">  1  6  2 -1</clus>
<clus scale="   71.309">  2  3  1 -1</clus>
<clus scale="   35.526">  2  3  1 -1</clus>
</clustering>
</event>
<event>
 6    0  0.2117869E+002  0.9044432E+02  0.7546771E-02  0.1301779E+00
         21   -1    0    0  504  502  0.00000000000E+00  0.00000000000E+00  0.13450225251E+03  0.13450225251E+03  0.00000000000E+00 0.  1.
          2   -1    0    0  505    0 -0.00000000000E+00 -0.00000000000E+00 -0.22226707413E+04  0.22226707413E+04  0.00000000000E+00 0.  1.
         21    1    1    2  503  502  0.23366926793E+02 -0.19774001916E+02 -0.16587981787E+02  0.34816455295E+02  0.00000000000E+00 0.  1.
         21    1    1    2  504  501  0.36971665634E+02  0.86475716082E+02  0.10405832083E+03  0.14026078449E+03  0.00000000000E+00 0.  1.
         21    1    1    2  505  503  0.41058400064E+02 -0.17758161783E+02 -0.10212320612E+04  0.10222113614E+04  0.00000000000E+00 0.  1.
          2    1    1    2  501    0 -0.10139699249E+03 -0.48943552384E+02 -0.11544067666E+04  0.11598843926E+04  0.00000000000E+00 0.  1.
<scales pt_clust_3="30.61085" pt_clust_4="90.44432" pt_clust_5="44.84857" pt_clust_6="14000.00000"></scales>
<clustering>
<clus scale="   30.611">  1  3  2 -1</clus>
<clus scale="   44.849">  2  5  1 -1</clus>
<clus scale="   90.444">  1  4  2 -1</clus>
<clus scale="   30.611">  1  3  2 -1</clus>
</clustering>
</event>
<event>
 6    0  0.2117869E+002  0.9145343E+02  0.7546771E-02  0.1299370E+00
         21   -1    0    0  504  502  0.00000000000E+00  0.00000000000E+00  0.35711944372E+03  0.35711944372E+03  0.00000000000E+00 0.  1.
          2   -1    0    0  503    0 -0.00000000000E+00 -0.00000000000E+00 -0.71238911647E+03  0.71238911647E+03  0.00000000000E+00 0.  1.
         21    1    1    2  503  505  0.36381731574E+02  0.12663223259E+02 -0.18911237856E+03  0.19299606043E+03  0.00000000000E+00 0. -1.
         21    1    1    2  504  501  0.47083396807E+02 -0.19969848543E+02  0.32069242454E+03  0.32474493416E+03  0.00000000000E+00 0.  1.
         21    1    1    2  505  502  0.43452617121E+02  0.13409810435E+02  0.31280879500E+01  0.45582210179E+02  0.00000000000E+00 0.  1.
          2    1    1    2  501    0 -0.12691774550E+03 -0.61031851503E+01 -0.48997780668E+03  0.50618535541E+03  0.00000000000E+00 0.  1.
<scales pt_clust_3="38.52256" pt_clust_4="14000.00000" pt_clust_5="47.04230" pt_clust_6="91.45343"></scales>
<clustering>
<clus scale="   38.523">  2  3  1 -1</clus>
<clus scale="   47.042">  1  5  2 -1</clus>
<clus scale="   91.453">  2  6  1 -1</clus>
<clus scale="   47.042">  1  3  2 -1</clus>
</clustering>
</event>
<event>
 6    0  0.2117869E+002  0.1452841E+03  0.7546771E-02  0.1206391E+00
          2   -1    0    0  504    0 -0.00000000000E+00  0.00000000000E+00  0.10415219198E+04  0.10415219198E+04  0.00000000000E+00 0.  1.
         21   -1    0    0  505  502  0.00000000000E+00 -0.00000000000E+00 -0.21080597075E+03  0.21080597075E+03  0.00000000000E+00 0.  1.
         21    1    1    2  503  502  0.15066822244E+02 -0.33712198493E+02 -0.86923214968E+02  0.94441340313E+02  0.00000000000E+00 0.  1.
         21    1    1    2  504  503 -0.11538609092E+03  0.68261470444E+02  0.45900263938E+03  0.47818092944E+03  0.00000000000E+00 0.  1.
         21    1    1    2  505  501 -0.56228956751E+02  0.71717520455E+01 -0.90711274775E+02  0.10696571870E+03  0.00000000000E+00 0.  1.
          2    1    1    2  501    0  0.15654822543E+03 -0.41721023997E+02  0.54934779945E+03  0.57273990213E+03  0.00000000000E+00 0.  1.
<scales pt_clust_3="36.92589" pt_clust_4="14000.00000" pt_clust_5="48.41724" pt_clust_6="145.28407"></scales>
<clustering>
<clus scale="   36.926">  2  3  1 -1</clus>
<clus scale="   48.417">  2  5  1 -1</clus>
<clus scale="  145.284">  2  6  1 -1</clus>
<clus scale="   36.926">  2  3  1 -1</clus>
</clustering>
</event>
<event>
 6    0  0.2117869E+002  0.1373810E+03  0.7546771E-02  0.1216897E+00
         21   -1    0    0  505  502  0.00000000000E+00  0.00000000000E+00  0.39898808772E+03  0.39898808772E+03  0.00000000000E+00 0. -1.
          2   -1    0    0  503    0 -0.00000000000E+00 -0.00000000000E+00 -0.55310047085E+03  0.55310047085E+03  0.00000000000E+00 0.  1.
         21    1    1    2  503  502 -0.84946821094E+02  0.47170137117E+02  0.24439482429E+03  0.26300154826E+03  0.00000000000E+00 0. -1.
         21    1    1    2  504  501  0.54828907301E+02  0.32007212429E+02 -0.15760360905E+03  0.16991047145E+03  0.00000000000E+00 0. -1.
         21    1    1    2  505  504 -0.35996456350E+02 -0.86731972490E+02  0.11989509413E+03  0.15229252614E+03  0.00000000000E+00 0. -1.
          2    1    1    2  501    0  0.66114370143E+02  0.75546229427E+01 -0.36079869251E+03  0.36688401271E+03  0.00000000000E+00 0.  1.
<scales pt_clust_3="125.13424" pt_clust_4="55.38288" pt_clust_5="93.90516" pt_clust_6="55.38288"></scales>
<clustering>
<clus scale="   55.383">  4  6 -1 -1</clus>
<clus scale="   93.905">  1  5  2 -1</clus>
<clus scale="  125.134">  1  3  2 -1</clus>
<clus scale="   93.905">  1  3  2 -1</clus>
</clustering>
</event>
<event>
 6    0  0.2117869E+002  0.8195997E+02  0.7546771E-02  0.1323580E+00
         21   -1    0    0  504  502  0.00000000000E+00  0.00000000000E+00  0.44140412958E+03  0.44140412958E+03  0.00000000000E+00 0. -1.
         -3   -1    0    0    0  501 -0.00000000000E+00 -0.00000000000E+00 -0.57015388535E+03  0.57015388535E+03  0.00000000000E+00 0.  1.
         21    1    1    2  503  502  0.67411816343E+02 -0.51541863289E+02  0.24184701810E+02  0.88237273619E+02  0.00000000000E+00 0. -1.
         21    1    1    2  504  505 -0.44109661643E+02 -0.28275360370E+02  0.37332957520E+03  0.37698823585E+03  0.00000000000E+00 0. -1.
         21    1    1    2  505  501  0.34493889764E+02  0.52096036583E+01 -0.51005715498E+02  0.61794428672E+02  0.00000000000E+00 0. -1.
         -3    1    1    2    0  503 -0.57796044465E+02  0.74607620001E+02 -0.47525831728E+03  0.48453807679E+03  0.00000000000E+00 0.  1.
<scales pt_clust_3="14000.00000" pt_clust_4="52.28087" pt_clust_5="34.88507" pt_clust_6="81.95997"></scales>
<clustering>
<clus scale="   34.885">  2  5  1 -1</clus>
<clus scale="   52.281">  1  4  2 -1</clus>
<clus scale="   81.960">  2  6  1 -1</clus>
<clus scale="   52.281">  1  3  2 -1</clus>
</clustering>
</event>
<event>
 6    0  0.2117869E+002  0.8874065E+02  0.7546771E-02  0.1305930E+00
         -2   -1    0    0    0  501 -0.00000000000E+00  0.00000000000E+00  0.46289602683E+02  0.46289602683E+02  0.00000000000E+00 0.  1.
         21   -1    0    0  504  502  0.00000000000E+00 -0.00000000000E+00 -0.10077295666E+04  0.10077295666E+04  0.00000000000E+00 0.  1.
         21    1    1    2  503  505 -0.61185861655E+02  0.94585938094E+02 -0.36264276166E+03  0.37973672714E+03  0.00000000000E+00 0.  1.
         21    1    1    2  504  501 -0.52247238897E+02 -0.17929178582E+02 -0.40104210019E+02  0.68261094910E+02  0.00000000000E+00 0.  1.
         21    1    1    2  505  502  0.83146454326E+02 -0.24043065400E+02 -0.53319753106E+03  0.54017683122E+03  0.00000000000E+00 0.  1.
         -2    1    1    2    0  503  0.30286646227E+02 -0.52613694113E+02 -0.25495461168E+02  0.65844516005E+02  0.00000000000E+00 0.  1.
<scales pt_clust_3="14000.00000" pt_clust_4="55.23793" pt_clust_5="88.74065" pt_clust_6="63.88961"></scales>
<clustering>
<clus scale="   55.238">  1  4  2 -1</clus>
<clus scale="   63.890">  1  6  2 -1</clus>
<clus scale="   88.741">  2  5  1 -1</clus>
<clus scale="   88.741">  2  3  1 -1</clus>
</clustering>
</event>
<event>
 6    0  0.2117869E+002  0.1357889E+03  0.7546771E-02  0.1219110E+00
          2   -1    0    0  505    0 -0.00000000000E+00  0.00000000000E+00  0.24166462404E+03  0.24166462404E+03  0.00000000000E+00 0. -1.
         21   -1    0    0  503  502  0.00000000000E+00 -0.00000000000E+00 -0.12738050339E+04  0.12738050339E+04  0.00000000000E+00 0. -1.
         21    1    1    2  503  501 -0.14816946626E+01 -0.52654914849E+02 -0.10269573633E+03  0.11541728527E+03  0.00000000000E+00 0. -1.
         21    1    1    2  504  502  0.12832061461E+03 -0.10471745122E+01 -0.11349420970E+04  0.11421737348E+04  0.00000000000E+00 0. -1.
         21    1    1    2  505  504 -0.31272743870E+02  0.61824456550E+01  0.71962956302E+01  0.32680174636E+02  0.00000000000E+00 0.  1.
          2    1    1    2  501    0 -0.95566176077E+02  0.47519643707E+02  0.19830112789E+03  0.22519846329E+03  0.00000000000E+00 0. -1.
<scales pt_clust_3="52.53145" pt_clust_4="135.78887" pt_clust_5="31.87800" pt_clust_6="14000.00000"></scales>
<clustering>
<clus scale="   31.878">  1  5  2 -1</clus>
<clus scale="   52.531">  2  3  1 -1</clus>
<clus scale="  135.789">  2  4  1 -1</clus>
<clus scale="   52.531">  2  3  1 -1</clus>
</clustering>
</event>
<event>
 6    0  0.2117869E+002  0.7014637E+02  0.7546771E-02  0.1359596E+00
         -2   -1    0    0    0  501 -0.00000000000E+00  0.00000000000E+00  0.23165624067E+03  0.23165624067E+03  0.00000000000E+00 0. -1.
         21   -1    0    0  503  502  0.00000000000E+00 -0.00000000000E+00 -0.19375380689E+03  0.19375380689E+03  0.00000000000E+00 0.  1.
         21    1    1    2  503  505  0.33545575392E+02  0.27367932981E+02 -0.10859876201E+03  0.11691022408E+03  0.00000000000E+00 0.  1.
         21    1    1    2  504  501  0.36859349285E+02 -0.54919302799E+02  0.14635258769E+03  0.16060454967E+03  0.00000000000E+00 0. -1.
         21    1    1    2  505  504 -0.19188736142E+02 -0.48657076867E+02 -0.15935252244E+02  0.54677701013E+02  0.00000000000E+00 0.  1.
         -2    1    1    2    0  502 -0.51216188535E+02  0.76208446686E+02  0.16083860348E+02  0.93217572796E+02  0.00000000000E+00 0. -1.
<scales pt_clust_3="43.29329" pt_clust_4="70.14637" pt_clust_5="37.01059" pt_clust_6="14000.00000"></scales>
<clustering>
<clus scale="   43.293">  2  3  1 -1</clus>
<clus scale="   37.011">  2  5  1 -1</clus>
<clus scale="   70.146">  1  4  2 -1</clus>
<clus scale="   43.293">  2  3  1 -1</clus>
</clustering>
</event>
<event>
 6    0  0.2117869E+002  0.1616370E+03  0.7546771E-02  0.1186861E+00
          2   -1    0    0  505    0 -0.00000000000E+00  0.00000000000E+00  0.18777385077E+04  0.18777385077E+04  0.00000000000E+00 0. -1.
         21   -1    0    0  503  502  0.00000000000E+00 -0.00000000000E+00 -0.24767813291E+03  0.24767813291E+03  0.00000000000E+00 0.  1.
         21    1    1    2  503  501 -0.35638763847E+02 -0.83157724122E+01  0.21857221698E+02  0.42626420208E+02  0.00000000000E+00 0. -1.
         21    1    1    2  504  502 -0.11848531167E+03 -0.37632923228E+02 -0.19968396116E+03  0.23522051428E+03  0.00000000000E+00 0.  1.
         21    1    1    2  505  504 -0.93855012729E+02 -0.35733118033E+02  0.27842111103E+03  0.29597961789E+03  0.00000000000E+00 0.  1.
          2    1    1    2  501    0  0.24797908825E+03  0.81681813673E+02  0.15294660032E+04  0.15515900882E+04  0.00000000000E+00 0. -1.
<scales pt_clust_3="36.59609" pt_clust_4="161.63701" pt_clust_5="101.76907" pt_clust_6="14000.00000"></scales>
<clustering>
<clus scale="   36.596">  2  3  1 -1</clus>
<clus scale="  101.769">  1  5  2 -1</clus>
<clus scale="  161.637">  2  4  1 -1</clus>
<clus scale="   36.596">  2  3  1 -1</clus>
</clustering>
</event>
<event>
 6    0  0.2117869E+002  0.7823698E+02  0.7546771E-02  0.1334130E+00
         21   -1    0    0  504  502  0.00000000000E+00  0.00000000000E+00  0.38747172582E+03  0.38747172582E+03  0.00000000000E+00 0.  1.
          1   -1    0    0  503    0 -0.00000000000E+00 -0.00000000000E+00 -0.91481996223E+02  0.91481996223E+02  0.00000000000E+00 0. -1.
         21    1    1    2  503  505  0.34541006002E+02 -0.72217017704E+01 -0.12310539308E+02  0.37373566195E+02  0.00000000000E+00 0.  1.
         21    1    1    2  504  501 -0.28937806363E+02 -0.42247714095E+02  0.25181748799E+03  0.25697142495E+03  0.00000000000E+00 0.  1.
         21    1    1    2  505  502 -0.74512013587E+02 -0.20647049707E+02  0.21393594745E+02  0.80224851053E+02  0.00000000000E+00 0. -1.
          1    1    1    2  501    0  0.68908813948E+02  0.70116465573E+02  0.35089186162E+02  0.10438387984E+03  0.00000000000E+00 0. -1.
<scales pt_clust_3="35.28787" pt_clust_4="50.69931" pt_clust_5="14000.00000" pt_clust_6="78.23698"></scales>
<clustering>
<clus scale="   35.288">  2  3  1 -1</clus>
<clus scale="   50.699">  1  4  2 -1</clus>
<clus scale="   78.237">  1  6  2 -1</clus>
<clus scale="   50.699">  1  3  2 -1</clus>
</clustering>
</event>
<event>
 6    0  0.2117869E+002  0.5334448E+02  0.7546771E-02  0.1428094E+00
         21   -1    0    0  504  502  0.00000000000E+00  0.00000000000E+00  0.92011085279E+02  0.92011085279E+02  0.00000000000E+00 0. -1.
          2   -1    0    0  503    0 -0.00000000000E+00 -0.00000000000E+00 -0.26891860684E+04  0.26891860684E+04  0.00000000000E+00 0. -1.
         21    1    1    2  503  502 -0.20503061113E+02  0.39798827572E+02  0.71681659067E+02  0.84513800279E+02  0.00000000000E+00 0. -1.
         21    1    1    2  504  505  0.34576452619E+02 -0.80549107085E+02 -0.15150079960E+03  0.17503194568E+03  0.00000000000E+00 0. -1.
         21    1    1    2  505  501  0.33577800290E+02  0.61983392905E+02 -0.69862926340E+03  0.70217679921E+03  0.00000000000E+00 0. -1.
          2    1    1    2  501    0 -0.47651191796E+02 -0.21233113392E+02 -0.18187265792E+04  0.18194746086E+04  0.00000000000E+00 0. -1.
<scales pt_clust_3="44.76966" pt_clust_4="49.96205" pt_clust_5="14000.00000" pt_clust_6="53.34448"></scales>
<clustering>
<clus scale="   44.770">  1  3  2 -1</clus>
<clus scale="   49.962">  1  4  2 -1</clus>
<clus scale="   53.344">  2  6  1 -1</clus>
<clus scale="   44.770">  1  3  2 -1</clus>
</clustering>
</event>
<event>
 6    0  0.2117869E+002  0.1038739E+03  0.7546771E-02  0.1272354E+00
          1   -1    0    0  503    0 -0.00000000000E+00  0.00000000000E+00  0.19997876805E+04  0.19997876805E+04  0.00000000000E+00 0.  1.
         21   -1    0    0  505  502  0.00000000000E+00 -0.00000000000E+00 -0.29795001451E+03  0.29795001451E+03  0.00000000000E+00 0.  1.
         21    1    1    2  503  504  0.84254805996E+02  0.39290802084E+02  0.72434723120E+03  0.73028867635E+03  0.00000000000E+00 0. -1.
         21    1    1    2  504  502  0.12486437858E+02 -0.30462906676E+02 -0.76882102763E+01  0.33808407102E+02  0.00000000000E+00 0. -1.
         21    1    1    2  505  501  0.25445800683E+02 -0.23213550663E+02 -0.27013014299E+03  0.27231718980E+03  0.00000000000E+00 0.  1.
          1    1    1    2  501    0 -0.12218704454E+03  0.14385655255E+02  0.12553087881E+04  0.12613234218E+04  0.00000000000E+00 0.  1.
<scales pt_clust_3="14000.00000" pt_clust_4="32.92263" pt_clust_5="65.03512" pt_clust_6="103.87391"></scales>
<clustering>
<clus scale="   32.923">  2  4  1 -1</clus>
<clus scale="   65.035">  2  5  1 -1</clus>
<clus scale="  103.874">  2  6  1 -1</clus>
<clus scale="   32.923">  2  3  1 -1</clus>
</clustering>
</event>
<event>
 6    0  0.2117869E+002  0.1696807E+03  0.7546771E-02  0.1178181E+00
          3   -1    0    0  504    0 -0.00000000000E+00  0.00000000000E+00  0.24148199073E+03  0.24148199073E+03  0.00000000000E+00 0. -1.
         21   -1    0    0  503  502  0.00000000000E+00 -0.00000000000E+00 -0.35890730661E+03  0.35890730661E+03  0.00000000000E+00 0. -1.
         21    1    1    2  503  505  0.14815221016E+02 -0.46986445707E+02 -0.31766229946E+02  0.58620049633E+02  0.00000000000E+00 0. -1.
         21    1    1    2  504  502 -0.41372305953E+02  0.13691649995E+02 -0.68958754745E+02  0.81574743858E+02  0.00000000000E+00 0. -1.
         21    1    1    2  505  501  0.12039619756E+03 -0.87471469827E+02 -0.18193333285E+03  0.23504518720E+03  0.00000000000E+00 0. -1.
          3    1    1    2  501    0 -0.93839112623E+02  0.12076626554E+03  0.16523300167E+03  0.22514931666E+03  0.00000000000E+00 0. -1.
<scales pt_clust_3="37.33606" pt_clust_4="43.57900" pt_clust_5="37.33606" pt_clust_6="156.78280"></scales>
<clustering>
<clus scale="   37.336">  3  5 -1 -1</clus>
<clus scale="   43.579">  2  4  1 -1</clus>
<clus scale="  156.783">  1  6  2 -1</clus>
<clus scale="   43.579">  2  3  1 -1</clus>
</clustering>
</event>
<event>
 6    0  0.2117869E+002  0.1052498E+03  0.7546771E-02  0.1269628E+00
         21   -1    0    0  504  502  0.00000000000E+00  0.00000000000E+00  0.10224132197E+04  0.10224132197E+04  0.00000000000E+00 0.  1.
          4   -1    0    0  503    0 -0.00000000000E+00 -0.00000000000E+00 -0.42550233050E+02  0.42550233050E+02  0.00000000000E+00 0.  1.
         21    1    1    2  503  505 -0.36879215246E+02  0.69780773778E+01  0.44888213884E+02  0.58512578364E+02  0.00000000000E+00 0.  1.
         21    1    1    2  504  501  0.27101177880E+02 -0.22118232482E+02  0.34387257030E+03  0.34564726913E+03  0.00000000000E+00 0.  1.
         21    1    1    2  505  502 -0.11342165582E+03 -0.17607852286E+02  0.47401577362E+03  0.48771452932E+03  0.00000000000E+00 0.  1.
          4    1    1    2  501    0  0.12319969319E+03  0.32748007390E+02  0.11708642886E+03  0.17308907595E+03  0.00000000000E+00 0.  1.
<scales pt_clust_3="35.21131" pt_clust_4="34.98128" pt_clust_5="14000.00000" pt_clust_6="105.24982"></scales>
<clustering>
<clus scale="   34.981">  1  4  2 -1</clus>
<clus scale="   35.211">  2  3  1 -1</clus>
<clus scale="  105.250">  2  6  1 -1</clus>
<clus scale="   34.981">  1  3  2 -1</clus>
</clustering>
</event>
<event>
 6    0  0.2117869E+002  0.1191606E+03  0.7546771E-02  0.1244488E+00
         21   -1    0    0  503  502  0.00000000000E+00  0.00000000000E+00  0.64946184932E+02  0.64946184932E+02  0.00000000000E+00 0. -1.
          2   -1    0    0  504    0 -0.00000000000E+00 -0.00000000000E+00 -0.37009655101E+04  0.37009655101E+04  0.00000000000E+00 0. -1.
         21    1    1    2  503  505  0.10072672177E+03  0.61905327477E+02 -0.16100051362E+02  0.11932038260E+03  0.00000000000E+00 0. -1.
         21    1    1    2  504  502 -0.28925297064E+02  0.86614333925E+01 -0.19633041039E+04  0.19635362736E+04  0.00000000000E+00 0.  1.
         21    1    1    2  505  501 -0.74875934736E+02 -0.11084535291E+03 -0.33354042515E+03  0.35936376149E+03  0.00000000000E+00 0. -1.
          2    1    1    2  501    0  0.30745100290E+01  0.40278592036E+02 -0.13230747447E+04  0.13236912773E+04  0.00000000000E+00 0. -1.
<scales pt_clust_3="14000.00000" pt_clust_4="30.19426" pt_clust_5="119.16057" pt_clust_6="50.56329"></scales>
<clustering>
<clus scale="   30.194">  2  4  1 -1</clus>
<clus scale="   50.563">  2  6  1 -1</clus>
<clus scale="  119.161">  2  5  1 -1</clus>
<clus scale="  119.161">  1  3  2 -1</clus>
</clustering>
</event>
<event>
 6    0  0.2117869E+002  0.8564625E+02  0.7546771E-02  0.1313751E+00
          1   -1    0    0  505    0 -0.00000000000E+00  0.00000000000E+00  0.30152872754E+04  0.30152872754E+04  0.00000000000E+00 0. -1.
         21   -1    0    0  503  502  0.00000000000E+00 -0.00000000000E+00 -0.32662818291E+03  0.32662818291E+03  0.00000000000E+00 0. -1.
         21    1    1    2  503  501  0.42076044921E+02  0.17784116992E+02 -0.43907334411E+02  0.63360258747E+02  0.00000000000E+00 0. -1.
         21    1    1    2  504  502 -0.49024659066E+02 -0.46226393063E+02 -0.25675974088E+03  0.26545406599E+03  0.00000000000E+00 0. -1.
         21    1    1    2  505  504  0.25037206285E+02 -0.56744883539E+02  0.74345666674E+02  0.96820047819E+02  0.00000000000E+00 0.  1.
          1    1    1    2  501    0 -0.18088592141E+02  0.85187159611E+02  0.29149805011E+04  0.29162810857E+04  0.00000000000E+00 0. -1.
<scales pt_clust_3="45.68007" pt_clust_4="30.50766" pt_clust_5="85.64625" pt_clust_6="14000.00000"></scales>
<clustering>
<clus scale="   45.680">  2  3  1 -1</clus>
<clus scale="   30.508">  2  4  1 -1</clus>
<clus scale="   85.646">  2  5  1 -1</clus>
<clus scale="   45.680">  2  3  1 -1</clus>
</clustering>
</event>
<event>
 6    0  0.2117869E+002  0.1025029E+03  0.7546771E-02  0.1275119E+00
         21   -1    0    0  504  502  0.00000000000E+00  0.00000000000E+00  0.10778743030E+04  0.10778743030E+04  0.00000000000E+00 0. -1.
          1   -1    0    0  505    0 -0.00000000000E+00 -0.00000000000E+00 -0.67241770168E+03  0.67241770168E+03  0.00000000000E+00 0. -1.
         21    1    1    2  503  502  0.32978009359E+02 -0.85195463684E+02  0.33810420718E+03  0.35022888379E+03  0.00000000000E+00 0. -1.
         21    1    1    2  504  501 -0.10802690905E+03  0.60294498511E+02  0.71819217404E+03  0.72876967450E+03  0.00000000000E+00 0. -1.
         21    1    1    2  505  503 -0.30785649987E+02 -0.12211834970E+02 -0.49325024662E+02  0.59412483674E+02  0.00000000000E+00 0. -1.
          1    1    1    2  501    0  0.10583454967E+03  0.37112800143E+02 -0.60151475520E+03  0.61188096274E+03  0.00000000000E+00 0. -1.
<scales pt_clust_3="102.50285" pt_clust_4="14000.00000" pt_clust_5="33.11926" pt_clust_6="79.67937"></scales>
<clustering>
<clus scale="   33.119">  2  5  1 -1</clus>
<clus scale="   79.679">  2  6  1 -1</clus>
<clus scale="  102.503">  2  3  1 -1</clus>
<clus scale="  102.503">  1  3  2 -1</clus>
</clustering>
</event>
<event>
 6    0  0.2117869E+002  0.6906358E+02  0.7546771E-02  0.1363307E+00
         21   -1    0    0  501  502  0.00000000000E+00  0.00000000000E+00  0.37704527247E+03  0.37704527247E+03  0.00000000000E+00 0.  1.
          2   -1    0    0  504    0 -0.00000000000E+00 -0.00000000000E+00 -0.14432106753E+04  0.14432106753E+04  0.00000000000E+00 0.  1.
         21    1    1    2  503  502 -0.53476061711E+02  0.88415259457E+01  0.12615506655E+03  0.13730609081E+03  0.00000000000E+00 0.  1.
         21    1    1    2  504  505  0.13134361489E+02  0.32424674214E+02 -0.30170611739E+02  0.46196718090E+02  0.00000000000E+00 0. -1.
         21    1    1    2  505  503  0.97366935941E+02  0.10595966416E+02  0.22608082895E+03  0.24638412274E+03  0.00000000000E+00 0.  1.
          2    1    1    2  501    0 -0.57025235719E+02 -0.51862166576E+02 -0.13882306866E+04  0.13903690162E+04  0.00000000000E+00 0.  1.
<scales pt_clust_3="14000.00000" pt_clust_4="34.98387" pt_clust_5="69.06358" pt_clust_6="48.28450"></scales>
<clustering>
<clus scale="   34.984">  2  4  1 -1</clus>
<clus scale="   48.285">  2  6  1 -1</clus>
<clus scale="   69.064">  2  5  1 -1</clus>
<clus scale="   69.064">  1  3  2 -1</clus>
</clustering>
</event>
<event>
 6    0  0.2117869E+002  0.1012052E+03  0.7546771E-02  0.1277782E+00
         21   -1    0    0  503  502  0.00000000000E+00  0.00000000000E+00  0.17413888526E+03  0.17413888526E+03  0.00000000000E+00 0. -1.
          2   -1    0    0  505    0 -0.00000000000E+00 -0.00000000000E+00 -0.22962375446E+04  0.22962375446E+04  0.00000000000E+00 0.  1.
         21    1    1    2  503  501 -0.55686329818E+02 -0.16949927523E+02 -0.34584918049E+02  0.67708078751E+02  0.00000000000E+00 0. -1.
         21    1    1    2  504  502  0.33555063340E+02 -0.81657701715E+02  0.14131976637E+03  0.16662892574E+03  0.00000000000E+00 0. -1.
         21    1    1    2  505  504 -0.23225998055E+02 -0.19114195942E+02 -0.13070789985E+03  0.13412439955E+03  0.00000000000E+00 0. -1.
          2    1    1    2  501    0  0.45357264534E+02  0.11772182518E+03 -0.20981256078E+04  0.21019150258E+04  0.00000000000E+00 0.  1.
<scales pt_clust_3="58.86622" pt_clust_4="14000.00000" pt_clust_5="30.07988" pt_clust_6="101.20516"></scales>
<clustering>
<clus scale="   30.080">  2  5  1 -1</clus>
<clus scale="   58.866">  1  3  2 -1</clus>
<clus scale="  101.205">  2  6  1 -1</clus>
<clus scale="   58.866">  1  3  2 -1</clus>
</clustering>
</event>
<event>
 6    0  0.2117869E+002  0.1570359E+03  0.7546771E-02  0.1192084E+00
          2   -1    0    0  503    0 -0.00000000000E+00  0.00000000000E+00  0.25093771329E+04  0.25093771329E+04  0.00000000000E+00 0.  1.
         21   -1    0    0  501  502  0.00000000000E+00 -0.00000000000E+00 -0.35344035986E+02  0.35344035986E+02  0.00000000000E+00 0.  1.
         21    1    1    2  503  505  0.60569765751E+02 -0.28803309666E+02  0.11130488362E+04  0.11150677284E+04  0.00000000000E+00 0.  1.
         21    1    1    2  504  502 -0.34270974744E+01 -0.38992707650E+02  0.25917155241E+02  0.46945449010E+02  0.00000000000E+00 0.  1.
         21    1    1    2  505  504  0.20714755658E+02  0.18954585702E+03  0.49794858857E+03  0.53320683592E+03  0.00000000000E+00 0.  1.
          2    1    1    2  501    0 -0.77857423934E+02 -0.12174983971E+03  0.83711851696E+03  0.84950115560E+03  0.00000000000E+00 0.  1.
<scales pt_clust_3="67.64097" pt_clust_4="39.14302" pt_clust_5="14000.00000" pt_clust_6="157.03588"></scales>
<clustering>
<clus scale="   39.143">  2  4  1 -1</clus>
<clus scale="   67.641">  1  3  2 -1</clus>
<clus scale="  157.036">  1  6  2 -1</clus>
<clus scale="   39.143">  2  3  1 -1</clus>
</clustering>
</event>
<event>
 6    0  0.2117869E+002  0.2172687E+03  0.7546771E-02  0.1135936E+00
          2   -1    0    0  505    0 -0.00000000000E+00  0.00000000000E+00  0.12714273651E+04  0.12714273651E+04  0.00000000000E+00 0.  1.
         21   -1    0    0  504  502  0.00000000000E+00 -0.00000000000E+00 -0.12926429040E+04  0.12926429040E+04  0.00000000000E+00 0. -1.
         21    1    1    2  503  502 -0.28030381600E+02  0.58216239304E+02 -0.10968879813E+02  0.65537387313E+02  0.00000000000E+00 0.  1.
         21    1    1    2  504  501  0.15100906115E+03 -0.15780787353E+03 -0.12383741040E+04  0.12574885618E+04  0.00000000000E+00 0. -1.
         21    1    1    2  505  503 -0.46184711422E+02 -0.16804886671E+01  0.47768375074E+03  0.47991417705E+03  0.00000000000E+00 0.  1.
          2    1    1    2  501    0 -0.76793968130E+02  0.10127212290E+03  0.75044369422E+03  0.76113014302E+03  0.00000000000E+00 0.  1.
<scales pt_clust_3="65.26679" pt_clust_4="217.26873" pt_clust_5="46.21527" pt_clust_6="14000.00000"></scales>
<clustering>
<clus scale="   46.215">  1  5  2 -1</clus>
<clus scale="   65.267">  1  3  2 -1</clus>
<clus scale="  217.269">  2  4  1 -1</clus>
<clus scale="  217.269">  2  3  1 -1</clus>
</clustering>
</event>
<event>
 6    0  0.2117869E+002  0.1576118E+03  0.7546771E-02  0.1191420E+00
          2   -1    0    0  504    0 -0.00000000000E+00  0.00000000000E+00  0.25008357989E+04  0.25008357989E+04  0.00000000000E+00 0.  1.
         21   -1    0    0  501  502  0.00000000000E+00 -0.00000000000E+00 -0.45586212080E+03  0.45586212080E+03  0.00000000000E+00 0.  1.
         21    1    1    2  503  505  0.15044741728E+02 -0.16270027346E+03  0.34693819057E+03  0.38348902371E+03  0.00000000000E+00 0. -1.
         21    1    1    2  504  503  0.74426946731E+01  0.30990370100E+02  0.73555801090E+02  0.80163910938E+02  0.00000000000E+00 0. -1.
         21    1    1    2  505  502  0.36573738204E+02  0.87486843988E+01 -0.43120383124E+03  0.43284052708E+03  0.00000000000E+00 0.  1.
          2    1    1    2  501    0 -0.59061174605E+02  0.12296121896E+03  0.20556835177E+04  0.20602044579E+04  0.00000000000E+00 0.  1.
<scales pt_clust_3="157.61177" pt_clust_4="31.87157" pt_clust_5="37.61043" pt_clust_6="14000.00000"></scales>
<clustering>
<clus scale="   31.872">  1  4  2 -1</clus>
<clus scale="   37.610">  2  5  1 -1</clus>
<clus scale="  157.612">  2  3  1 -1</clus>
<clus scale="   37.610">  2  3  1 -1</clus>
</clustering>
</event>
<event>
 6    0  0.2117869E+002  0.9383812E+02  0.7546771E-02  0.1293815E+00
          2   -1    0    0  505    0 -0.00000000000E+00  0.00000000000E+00  0.17454204843E+04  0.17454204843E+04  0.00000000000E+00 0. -1.
         21   -1    0    0  503  502  0.00000000000E+00 -0.00000000000E+00 -0.13509273247E+04  0.13509273247E+04  0.00000000000E+00 0. -1.
         21    1    1    2  503  501  0.31264885284E+01 -0.89585709024E+02 -0.28731339284E+03  0.30097235736E+03  0.00000000000E+00 0. -1.
         21    1    1    2  504  502 -0.43134498130E+02 -0.39062073136E+02 -0.10036754221E+04  0.10053610215E+04  0.00000000000E+00 0. -1.
         21    1    1    2  505  504 -0.39938192652E+02  0.79099132349E+02 -0.12449140966E+02  0.89480238497E+02  0.00000000000E+00 0.  1.
          2    1    1    2  501    0  0.79946202253E+02  0.49548649811E+02  0.16979311155E+04  0.17005341917E+04  0.00000000000E+00 0. -1.
<scales pt_clust_3="93.83812" pt_clust_4="58.19305" pt_clust_5="86.73396" pt_clust_6="14000.00000"></scales>
<clustering>
<clus scale="   58.193">  2  4  1 -1</clus>
<clus scale="   86.734">  2  5  1 -1</clus>
<clus scale="   93.838">  2  3  1 -1</clus>
<clus scale="   58.193">  2  3  1 -1</clus>
</clustering>
</event>
<event>
 6    0  0.2117869E+002  0.2383866E+03  0.7546771E-02  0.1120872E+00
         21   -1    0    0  504  502  0.00000000000E+00  0.00000000000E+00  0.34471724832E+03  0.34471724832E+03  0.00000000000E+00 0.  1.
          2   -1    0    0  503    0 -0.00000000000E+00 -0.00000000000E+00 -0.10995631049E+04  0.10995631049E+04  0.00000000000E+00 0. -1.
         21    1    1    2  503  505  0.38507585816E+02  0.48614703219E+02 -0.19137879272E+03  0.20117670302E+03  0.00000000000E+00 0. -1.
         21    1    1    2  504  501 -0.23054939496E+03  0.17322533676E+03 -0.22092351724E+02  0.28921983475E+03  0.00000000000E+00 0.  1.
         21    1    1    2  505  502  0.75446514681E+02 -0.53709229490E+01  0.17813265414E+03  0.19352587905E+03  0.00000000000E+00 0.  1.
          2    1    1    2  501    0  0.11659529446E+03 -0.21646911703E+03 -0.71950736626E+03  0.76035793638E+03  0.00000000000E+00 0. -1.
<scales pt_clust_3="62.01793" pt_clust_4="14000.00000" pt_clust_5="75.93657" pt_clust_6="238.38664"></scales>
<clustering>
<clus scale="   62.018">  2  3  1 -1</clus>
<clus scale="   75.937">  1  5  2 -1</clus>
<clus scale="  238.387">  2  6  1 -1</clus>
<clus scale="   75.937">  1  3  2 -1</clus>
</clustering>
</event>
<event>
 6    0  0.2117869E+002  0.1215677E+03  0.7546771E-02  0.1240533E+00
         21   -1    0    0  504  502  0.00000000000E+00  0.00000000000E+00  0.50615538968E+03  0.50615538968E+03  0.00000000000E+00 0. -1.
          2   -1    0    0  502    0 -0.00000000000E+00 -0.00000000000E+00 -0.12229167750E+04  0.12229167750E+04  0.00000000000E+00 0.  1.
         21    1    1    2  503  505  0.27052793601E+02 -0.16231773081E+03  0.35697317683E+02  0.16838407843E+03  0.00000000000E+00 0. -1.
         21    1    1    2  504  503  0.38810008028E+02  0.51272713649E+02  0.38085020747E+03  0.38624084250E+03  0.00000000000E+00 0. -1.
         21    1    1    2  505  501 -0.94217955278E+02  0.44119669946E+02 -0.12118380748E+03  0.15971563345E+03  0.00000000000E+00 0. -1.
          2    1    1    2  501    0  0.28355153650E+02  0.66925347220E+02 -0.10121251030E+04  0.10147316103E+04  0.00000000000E+00 0.  1.
<scales pt_clust_3="121.56771" pt_clust_4="64.30480" pt_clust_5="14000.00000" pt_clust_6="73.34730"></scales>
<clustering>
<clus scale="   64.305">  1  4  2 -1</clus>
<clus scale="   73.347">  2  6  1 -1</clus>
<clus scale="  121.568">  1  3  2 -1</clus>
<clus scale="   64.305">  1  3  2 -1</clus>
</clustering>
</event>
<event>
 6    0  0.2117869E+002  0.6562356E+02  0.7546771E-02  0.1375641E+00
          2   -1    0    0  504    0 -0.00000000000E+00  0.00000000000E+00  0.20814400599E+04  0.20814400599E+04  0.00000000000E+00 0.  1.
         21   -1    0    0  503  502  0.00000000000E+00 -0.00000000000E+00 -0.12199296469E+02  0.12199296469E+02  0.00000000000E+00 0. -1.
         21    1    1    2  503  501  0.18268482222E+02  0.60227931897E+02  0.19303550541E+03  0.20303656708E+03  0.00000000000E+00 0. -1.
         21    1    1    2  504  505 -0.18547677507E+02 -0.45705732145E+02  0.83042056890E+03  0.83188421763E+03  0.00000000000E+00 0. -1.
         21    1    1    2  505  502  0.29162293838E+02 -0.74405778717E+02  0.31741654822E+03  0.32732235544E+03  0.00000000000E+00 0. -1.
          2    1    1    2  501    0 -0.28883098553E+02  0.59883578964E+02  0.72836814090E+03  0.73139621622E+03  0.00000000000E+00 0.  1.
<scales pt_clust_3="65.62356" pt_clust_4="49.32576" pt_clust_5="14000.00000" pt_clust_6="51.76200"></scales>
<clustering>
<clus scale="   49.326">  1  4  2 -1</clus>
<clus scale="   51.762">  1  6  2 -1</clus>
<clus scale="   65.624">  2  3  1 -1</clus>
<clus scale="   65.624">  2  3  1 -1</clus>
</clustering>
</event>
<event>
 6    0  0.2117869E+002  0.2031681E+03  0.7546771E-02  0.1147093E+00
         21   -1    0    0  501  502  0.00000000000E+00  0.00000000000E+00  0.21610304249E+04  0.21610304249E+04  0.00000000000E+00 0. -1.
          2   -1    0    0  503    0 -0.00000000000E+00 -0.00000000000E+00 -0.15444721161E+04  0.15444721161E+04  0.00000000000E+00 0.  1.
         21    1    1    2  503  504 -0.58901692230E+02  0.59656041190E+02 -0.12196243815E+04  0.12225023045E+04  0.00000000000E+00 0.  1.
         21    1    1    2  504  505  0.28720167083E+02 -0.22926596809E+03  0.10962193523E+03  0.25574342769E+03  0.00000000000E+00 0.  1.
         21    1    1    2  505  502  0.37924538943E+02  0.22593949960E+02  0.19549945265E+04  0.19554928678E+04  0.00000000000E+00 0. -1.
          2    1    1    2  501    0 -0.77430137966E+01  0.14701597694E+03 -0.22843377138E+03  0.27176394103E+03  0.00000000000E+00 0.  1.
<scales pt_clust_3="83.76131" pt_clust_4="14000.00000" pt_clust_5="44.14473" pt_clust_6="203.16813"></scales>
<clustering>
<clus scale="   44.145">  1  5  2 -1</clus>
<clus scale="   83.761">  2  3  1 -1</clus>
<clus scale="  203.168">  2  6  1 -1</clus>
<clus scale="   44.145">  1  3  2 -1</clus>
</clustering>
</event>
<event>
 6    0  0.2117869E+002  0.8798935E+02  0.7546771E-02  0.1307795E+00
         21   -1    0    0  503  502  0.00000000000E+00  0.00000000000E+00  0.21428161117E+02  0.21428161117E+02  0.00000000000E+00 0. -1.
          1   -1    0    0  504    0 -0.00000000000E+00 -0.00000000000E+00 -0.36311674683E+04  0.36311674683E+04  0.00000000000E+00 0. -1.
         21    1    1    2  503  501 -0.19216647968E+02 -0.30906244045E+02 -0.26384175683E+02  0.44951086823E+02  0.00000000000E+00 0. -1.
         21    1    1    2  504  505  0.38487366877E+02 -0.58812302928E+02 -0.12182734035E+04  0.12202992462E+04  0.00000000000E+00 0. -1.
         21    1    1    2  505  502  0.57322085385E+02  0.10864145386E+03 -0.35381039210E+03  0.37452714258E+03  0.00000000000E+00 0. -1.
          1    1    1    2  501    0 -0.76592804293E+02 -0.18922906890E+02 -0.20112713359E+04  0.20128181539E+04  0.00000000000E+00 0. -1.
<scales pt_clust_3="36.39334" pt_clust_4="71.61850" pt_clust_5="87.98935" pt_clust_6="14000.00000"></scales>
<clustering>
<clus scale="   36.393">  1  3  2 -1</clus>
<clus scale="   71.618">  2  4  1 -1</clus>
<clus scale="   87.989">  1  5  2 -1</clus>
<clus scale="   36.393">  1  3  2 -1</clus>
</clustering>
</event>
<event>
 6    0  0.2117869E+002  0.1768482E+03  0.7546771E-02  0.1170889E+00
         21   -1    0    0  501  502  0.00000000000E+00  0.00000000000E+00  0.15136284105E+03  0.15136284105E+03  0.00000000000E+00 0.  1.
          4   -1    0    0  503    0 -0.00000000000E+00 -0.00000000000E+00 -0.49447327137E+03  0.49447327137E+03  0.00000000000E+00 0. -1.
         21    1    1    2  503  504  0.16655460764E+03  0.22581429025E+02 -0.67392507853E+02  0.18108591436E+03  0.00000000000E+00 0.  1.
         21    1    1    2  504  505  0.23728466048E+02 -0.65173843091E+02 -0.14175267289E+02  0.70792712386E+02  0.00000000000E+00 0.  1.
         21    1    1    2  505  502 -0.87895318945E+01  0.29906979731E+02  0.34488255662E+02  0.46487881067E+02  0.00000000000E+00 0.  1.
          4    1    1    2  501    0 -0.18149354180E+03  0.12685434336E+02 -0.29603091084E+03  0.34746960461E+03  0.00000000000E+00 0. -1.
<scales pt_clust_3="176.84823" pt_clust_4="61.41816" pt_clust_5="31.17184" pt_clust_6="14000.00000"></scales>
<clustering>
<clus scale="   31.172">  1  5  2 -1</clus>
<clus scale="   61.418">  1  4  2 -1</clus>
<clus scale="  176.848">  1  3  2 -1</clus>
<clus scale="   31.172">  1  3  2 -1</clus>
</clustering>
</event>
<event>
 6    0  0.2117869E+002  0.1737168E+03  0.7546771E-02  0.1174026E+00
          2   -1    0    0  505    0 -0.00000000000E+00  0.00000000000E+00  0.34455878851E+04  0.34455878851E+04  0.00000000000E+00 0.  1.
         21   -1    0    0  503  502  0.00000000000E+00 -0.00000000000E+00 -0.94077155734E+02  0.94077155734E+02  0.00000000000E+00 0. -1.
         21    1    1    2  503  501 -0.16670344964E+03 -0.25274721162E+01  0.46397416003E+02  0.17305822271E+03  0.00000000000E+00 0.  1.
         21    1    1    2  504  502  0.19359046460E+03  0.20703407802E+02  0.29038971863E+03  0.34961705875E+03  0.00000000000E+00 0. -1.
         21    1    1    2  505  504  0.30728822082E+02 -0.83895500065E+01  0.30947300622E+03  0.31110799835E+03  0.00000000000E+00 0.  1.
          2    1    1    2  501    0 -0.57615837041E+02 -0.97863856795E+01  0.27052505885E+04  0.27058817610E+04  0.00000000000E+00 0.  1.
<scales pt_clust_3="173.71677" pt_clust_4="14000.00000" pt_clust_5="31.85349" pt_clust_6="35.45448"></scales>
<clustering>
<clus scale="   31.853">  1  5  2 -1</clus>
<clus scale="   35.454">  1  6  2 -1</clus>
<clus scale="  173.717">  2  3  1 -1</clus>
<clus scale="  173.717">  2  3  1 -1</clus>
</clustering>
</event>
<event>
 6    0  0.2117869E+002  0.8383920E+02  0.7546771E-02  0.1318496E+00
          2   -1    0    0  504    0 -0.00000000000E+00  0.00000000000E+00  0.15282582110E+03  0.15282582110E+03  0.00000000000E+00 0.  1.
         21   -1    0    0  503  502  0.00000000000E+00 -0.00000000000E+00 -0.27609303320E+03  0.27609303320E+03  0.00000000000E+00 0.  1.
         21    1    1    2  503  501  0.41763552091E+02  0.13943373434E+02 -0.58208339346E+02  0.72985085568E+02  0.00000000000E+00 0.  1.
         21    1    1    2  504  505 -0.37036013846E+02  0.45765931528E+02  0.71974621989E+01  0.59312648502E+02  0.00000000000E+00 0.  1.
         21    1    1    2  505  502 -0.10662901233E+03 -0.20292383936E+00 -0.12759678118E+03  0.16628507455E+03  0.00000000000E+00 0.  1.
          2    1    1    2  501    0  0.10190147409E+03 -0.59506381123E+02  0.55340446235E+02  0.13033604569E+03  0.00000000000E+00 0.  1.
<scales pt_clust_3="44.02967" pt_clust_4="57.19209" pt_clust_5="14000.00000" pt_clust_6="83.83920"></scales>
<clustering>
<clus scale="   44.030">  2  3  1 -1</clus>
<clus scale="   57.192">  1  4  2 -1</clus>
<clus scale="   83.839">  1  6  2 -1</clus>
<clus scale="   44.030">  2  3  1 -1</clus>
</clustering>
</event>
<event>
 6    0  0.2117869E+002  0.1293063E+03  0.7546771E-02  0.1228489E+00
          1   -1    0    0  504    0 -0.00000000000E+00  0.00000000000E+00  0.33180033934E+04  0.33180033934E+04  0.00000000000E+00 0. -1.
         21   -1    0    0  505  502  0.00000000000E+00 -0.00000000000E+00 -0.32834986475E+03  0.32834986475E+03  0.00000000000E+00 0.  1.
         21    1    1    2  503  502 -0.11857380243E+02 -0.31049369240E+02 -0.25453560616E+03  0.25669638797E+03  0.00000000000E+00 0.  1.
         21    1    1    2  504  503 -0.10830885008E+03 -0.40170809773E+02  0.18515732050E+04  0.18551732626E+04  0.00000000000E+00 0. -1.
         21    1    1    2  505  501 -0.47255868733E+02  0.44805974944E+02 -0.49902119776E+02  0.82042148183E+02  0.00000000000E+00 0.  1.
          1    1    1    2  501    0  0.16742209905E+03  0.26414204070E+02  0.14425180496E+04  0.14524414594E+04  0.00000000000E+00 0. -1.
<scales pt_clust_3="33.23644" pt_clust_4="14000.00000" pt_clust_5="60.35115" pt_clust_6="129.30629"></scales>
<clustering>
<clus scale="   33.236">  2  3  1 -1</clus>
<clus scale="   60.351">  2  5  1 -1</clus>
<clus scale="  129.306">  2  6  1 -1</clus>
<clus scale="   33.236">  2  3  1 -1</clus>
</clustering>
</event>
<event>
 6    0  0.2117869E+002  0.2380519E+03  0.7546771E-02  0.1121097E+00
          1   -1    0    0  502    0 -0.00000000000E+00  0.00000000000E+00  0.11258846365E+04  0.11258846365E+04  0.00000000000E+00 0.  1.
         21   -1    0    0  503  502  0.00000000000E+00 -0.00000000000E+00 -0.74973155215E+03  0.74973155215E+03  0.00000000000E+00 0.  1.
         21    1    1    2  503  505  0.29017763329E+02 -0.30879622736E+02 -0.56331955902E+03  0.56491106137E+03  0.00000000000E+00 0.  1.
         21    1    1    2  504  501  0.17324719900E+03  0.98856550170E+02 -0.86770469261E+02  0.21752315695E+03  0.00000000000E+00 0.  1.
         21    1    1    2  505  504  0.39172441328E+02 -0.39350240110E+02  0.21664461024E+02  0.59600926400E+02  0.00000000000E+00 0.  1.
          1    1    1    2  501    0 -0.24143740366E+03 -0.28626687324E+02  0.10045786516E+04  0.10335810439E+04  0.00000000000E+00 0.  1.
<scales pt_clust_3="42.37430" pt_clust_4="14000.00000" pt_clust_5="59.85265" pt_clust_6="238.05191"></scales>
<clustering>
<clus scale="   42.374">  2  3  1 -1</clus>
<clus scale="   59.853">  2  5  1 -1</clus>
<clus scale="  238.052">  1  6  2 -1</clus>
<clus scale="   42.374">  2  3  1 -1</clus>
</clustering>
</event>
<event>
 6    0  0.2117869E+002  0.7542055E+02  0.7546771E-02  0.1342574E+00
         21   -1    0    0  503  502  0.00000000000E+00  0.00000000000E+00  0.90921999016E+02  0.90921999016E+02  0.00000000000E+00 0. -1.
          1   -1    0    0  505    0 -0.00000000000E+00 -0.00000000000E+00 -0.73557095642E+03  0.73557095642E+03  0.00000000000E+00 0.  1.
         21    1    1    2  503  501  0.89029508075E+02  0.31946924410E+02 -0.26326837848E+02  0.98183306516E+02  0.00000000000E+00 0. -1.
         21    1    1    2  504  502 -0.36704275781E+02  0.13031212055E+02  0.40110885146E+02  0.55909743833E+02  0.00000000000E+00 0. -1.
         21    1    1    2  505  504  0.31367378388E+02  0.11471517091E+02 -0.21814586999E+03  0.22068785360E+03  0.00000000000E+00 0.  1.
          1    1    1    2  501    0 -0.83692610682E+02 -0.56449653556E+02 -0.44028713470E+03  0.45171205148E+03  0.00000000000E+00 0.  1.
<scales pt_clust_3="14000.00000" pt_clust_4="38.55662" pt_clust_5="33.39922" pt_clust_6="75.42055"></scales>
<clustering>
<clus scale="   33.399">  2  5  1 -1</clus>
<clus scale="   38.557">  1  4  2 -1</clus>
<clus scale="   75.421">  2  6  1 -1</clus>
<clus scale="   38.557">  1  3  2 -1</clus>
</clustering>
</event>
<event>
 6    0  0.2117869E+002  0.1071991E+03  0.7546771E-02  0.1265846E+00
         21   -1    0    0  504  502  0.00000000000E+00  0.00000000000E+00  0.12961294839E+03  0.12961294839E+03  0.00000000000E+00 0. -1.
          2   -1    0    0  505    0 -0.00000000000E+00 -0.00000000000E+00 -0.13984104137E+04  0.13984104137E+04  0.00000000000E+00 0.  1.
         21    1    1    2  503  501  0.92966048944E+02  0.10533983016E+03  0.51727371019E+02  0.14971602114E+03  0.00000000000E+00 0. -1.
         21    1    1    2  504  503 -0.21535689596E+02 -0.31231004201E+02 -0.68761763390E+01  0.38554420640E+02  0.00000000000E+00 0. -1.
         21    1    1    2  505  502  0.51419888629E+02 -0.46655678022E+02 -0.11372619593E+03  0.13324565613E+03  0.00000000000E+00 0.  1.
          2    1    1    2  501    0 -0.12285024798E+03 -0.27453147939E+02 -0.11999224641E+04  0.12065072642E+04  0.00000000000E+00 0.  1.
<scales pt_clust_3="107.19905" pt_clust_4="37.93628" pt_clust_5="69.93819" pt_clust_6="14000.00000"></scales>
<clustering>
<clus scale="   37.936">  1  4  2 -1</clus>
<clus scale="   69.938">  2  5  1 -1</clus>
<clus scale="  107.199">  1  3  2 -1</clus>
<clus scale="   37.936">  1  3  2 -1</clus>
</clustering>
</event>
<event>
 6    0  0.2117869E+002  0.1361224E+03  0.7546771E-02  0.1218644E+00
         -2   -1    0    0    0  501 -0.00000000000E+00  0.00000000000E+00  0.24602001835E+03  0.24602001835E+03  0.00000000000E+00 0. -1.
         21   -1    0    0  504  502  0.00000000000E+00 -0.00000000000E+00 -0.32654019159E+03  0.32654019159E+03  0.00000000000E+00 0. -1.
         21    1    1    2  503  501 -0.56901303552E+02  0.74301494300E+02 -0.22818302272E+02  0.96328320445E+02  0.00000000000E+00 0. -1.
         21    1    1    2  504  503 -0.78576455458E+02 -0.28026789350E+02 -0.22994881545E+03  0.24461442721E+03  0.00000000000E+00 0. -1.
         21    1    1    2  505  502  0.20664679633E+02 -0.32613975902E+02  0.52402833402E+02  0.65090378376E+02  0.00000000000E+00 0.  1.
         -2    1    1    2    0  505  0.11481307938E+03 -0.13660729048E+02  0.11984411108E+03  0.16652708391E+03  0.00000000000E+00 0. -1.
<scales pt_clust_3="122.66720" pt_clust_4="83.42518" pt_clust_5="34.09920" pt_clust_6="34.09920"></scales>
<clustering>
<clus scale="   34.099">  5  6 -1 -1</clus>
<clus scale="   83.425">  2  4  1 -1</clus>
<clus scale="  122.667">  2  3  1 -1</clus>
<clus scale="   83.425">  2  3  1 -1</clus>
</clustering>
</event>
<event>
 6    0  0.2117869E+002  0.8599318E+02  0.7546771E-02  0.1312856E+00
         21   -1    0    0  503  502  0.00000000000E+00  0.00000000000E+00  0.29153479071E+02  0.29153479071E+02  0.00000000000E+00 0.  1.
          1   -1    0    0  504    0 -0.00000000000E+00 -0.00000000000E+00 -0.16150934501E+04  0.16150934501E+04  0.00000000000E+00 0. -1.
         21    1    1    2  503  501  0.28953408820E+02  0.12204883342E+02  0.33598727588E+01  0.31599807035E+02  0.00000000000E+00 0.  1.
         21    1    1    2  504  505  0.66028330974E+02  0.67147446184E+02 -0.59045542454E+03  0.59791816195E+03  0.00000000000E+00 0. -1.
         21    1    1    2  505  502 -0.21065398318E+02 -0.40854230549E+02 -0.81196553556E+02  0.93304337892E+02  0.00000000000E+00 0. -1.
          1    1    1    2  501    0 -0.73916341477E+02 -0.38498098976E+02 -0.91764786571E+03  0.92142462232E+03  0.00000000000E+00 0. -1.
<scales pt_clust_3="31.42068" pt_clust_4="85.99318" pt_clust_5="35.05097" pt_clust_6="14000.00000"></scales>
<clustering>
<clus scale="   31.421">  1  3  2 -1</clus>
<clus scale="   35.051">  1  5  2 -1</clus>
<clus scale="   85.993">  1  4  2 -1</clus>
<clus scale="   31.421">  1  3  2 -1</clus>
</clustering>
</event>
<event>
 6    0  0.2117869E+002  0.7771353E+02  0.7546771E-02  0.1335668E+00
         21   -1    0    0  504  502  0.00000000000E+00  0.00000000000E+00  0.16718401697E+03  0.16718401697E+03  0.00000000000E+00 0. -1.
          2   -1    0    0  505    0 -0.00000000000E+00 -0.00000000000E+00 -0.16401268650E+04  0.16401268650E+04  0.00000000000E+00 0.  1.
         21    1    1    2  503  502 -0.29743523711E+02  0.77024959523E+01 -0.14076659225E+02  0.33795827872E+02  0.00000000000E+00 0.  1.
         21    1    1    2  504  501  0.10764346201E+03  0.24017942423E+02  0.13140745519E+03  0.17155726668E+03  0.00000000000E+00 0. -1.
         21    1    1    2  505  503 -0.13496108804E+02 -0.87762771723E+02 -0.46178849910E+03  0.47024787821E+03  0.00000000000E+00 0. -1.
          2    1    1    2  501    0 -0.64403829498E+02  0.56042333347E+02 -0.11284851449E+04  0.11317099093E+04  0.00000000000E+00 0.  1.
<scales pt_clust_3="30.72467" pt_clust_4="85.02836" pt_clust_5="77.71353" pt_clust_6="14000.00000"></scales>
<clustering>
<clus scale="   30.725">  1  3  2 -1</clus>
<clus scale="   85.028">  1  4  2 -1</clus>
<clus scale="   77.714">  1  5  2 -1</clus>
<clus scale="   30.725">  1  3  2 -1</clus>
</clustering>
</event>
<event>
 6    0  0.2117869E+002  0.1034214E+03  0.7546771E-02  0.1273262E+00
         -4   -1    0    0    0  501 -0.00000000000E+00  0.00000000000E+00  0.13420597289E+04  0.13420597289E+04  0.00000000000E+00 0. -1.
         21   -1    0    0  504  502  0.00000000000E+00 -0.00000000000E+00 -0.53380621532E+03  0.53380621532E+03  0.00000000000E+00 0.  1.
         21    1    1    2  503  501  0.62484862602E+01  0.51691975490E+02  0.74245819427E+03  0.74428171692E+03  0.00000000000E+00 0. -1.
         21    1    1    2  504  503  0.77538863106E+01  0.32728674386E+02 -0.11976951393E+02  0.35703448638E+02  0.00000000000E+00 0.  1.
         21    1    1    2  505  502  0.10672119808E+02  0.68236886517E+02 -0.49643439123E+03  0.50121579347E+03  0.00000000000E+00 0.  1.
         -4    1    1    2    0  505 -0.24674492379E+02 -0.15265753639E+03  0.57420666189E+03  0.59466498514E+03  0.00000000000E+00 0. -1.
<scales pt_clust_3="52.12802" pt_clust_4="33.63464" pt_clust_5="14000.00000" pt_clust_6="103.42135"></scales>
<clustering>
<clus scale="   33.635">  2  4  1 -1</clus>
<clus scale="   52.128">  1  3  2 -1</clus>
<clus scale="  103.421">  1  6  2 -1</clus>
<clus scale="   33.635">  2  3  1 -1</clus>
</clustering>
</event>
<event>
 6    0  0.2117869E+002  0.8502415E+02  0.7546771E-02  0.1315369E+00
          2   -1    0    0  504    0 -0.00000000000E+00  0.00000000000E+00  0.27502994252E+04  0.27502994252E+04  0.00000000000E+00 0. -1.
         21   -1    0    0  503  502  0.00000000000E+00 -0.00000000000E+00 -0.56409282331E+02  0.56409282331E+02  0.00000000000E+00 0. -1.
         21    1    1    2  503  501  0.56180730334E+02  0.64037400196E+02 -0.16106513556E+02  0.86697652008E+02  0.00000000000E+00 0. -1.
         21    1    1    2  504  505  0.10483891560E+01  0.46563052799E+02  0.33641000838E+03  0.33961877266E+03  0.00000000000E+00 0.  1.
         21    1    1    2  505  502 -0.41782540264E+02 -0.24569763154E+02  0.23134754243E+03  0.23637076664E+03  0.00000000000E+00 0.  1.
          2    1    1    2  501    0 -0.15446579227E+02 -0.86030689841E+02  0.21422391056E+04  0.21440215163E+04  0.00000000000E+00 0. -1.
<scales pt_clust_3="85.02415" pt_clust_4="46.57485" pt_clust_5="46.25504" pt_clust_6="14000.00000"></scales>
<clustering>
<clus scale="   46.575">  1  4  2 -1</clus>
<clus scale="   46.255">  1  5  2 -1</clus>
<clus scale="   85.024">  2  3  1 -1</clus>
<clus scale="   85.024">  2  3  1 -1</clus>
</clustering>
</event>
<event>
 6    0  0.2117869E+002  0.8080232E+02  0.7546771E-02  0.1326790E+00
         21   -1    0    0  504  502  0.00000000000E+00  0.00000000000E+00  0.89173452970E+03  0.89173452970E+03  0.00000000000E+00 0. -1.
          2   -1    0    0  503    0 -0.00000000000E+00 -0.00000000000E+00 -0.23594110114E+03  0.23594110114E+03  0.00000000000E+00 0.  1.
         21    1    1    2  503  505  0.11897631117E+02 -0.27980488671E+02 -0.72057499602E+01  0.31247147149E+02  0.00000000000E+00 0. -1.
         21    1    1    2  504  501  0.43733096248E+02  0.38968316384E+02  0.55521633701E+03  0.55829767532E+03  0.00000000000E+00 0. -1.
         21    1    1    2  505  502 -0.11833236409E+03 -0.61090842561E+02  0.30087106100E+03  0.32902588771E+03  0.00000000000E+00 0. -1.
          2    1    1    2  501    0  0.62701636722E+02  0.50103014847E+02 -0.19308821948E+03  0.20910492067E+03  0.00000000000E+00 0.  1.
<scales pt_clust_3="30.40496" pt_clust_4="58.50688" pt_clust_5="80.80232" pt_clust_6="14000.00000"></scales>
<clustering>
<clus scale="   30.405">  2  3  1 -1</clus>
<clus scale="   58.507">  1  4  2 -1</clus>
<clus scale="   80.802">  1  5  2 -1</clus>
<clus scale="   58.507">  1  3  2 -1</clus>
</clustering>
</event>
<event>
 6    0  0.2117869E+002  0.1628310E+03  0.7546771E-02  0.1185537E+00
         21   -1    0    0  503  502  0.00000000000E+00  0.00000000000E+00  0.29652523735E+04  0.29652523735E+04  0.00000000000E+00 0.  1.
          2   -1    0    0  505    0 -0.00000000000E+00 -0.00000000000E+00 -0.14938102148E+03  0.14938102148E+03  0.00000000000E+00 0.  1.
         21    1    1    2  503  501 -0.21491969625E+03  0.70488372758E+02  0.25299852457E+04  0.25400756741E+04  0.00000000000E+00 0.  1.
         21    1    1    2  504  502  0.13141964232E+03  0.74865876019E+02  0.34336543351E+03  0.37520106971E+03  0.00000000000E+00 0.  1.
         21    1    1    2  505  504  0.38433621986E+02 -0.14583501626E+02  0.14298648421E+02  0.43523248561E+02  0.00000000000E+00 0. -1.
          2    1    1    2  501    0  0.45066431944E+02 -0.13077074715E+03 -0.71777975611E+02  0.15583340265E+03  0.00000000000E+00 0.  1.
<scales pt_clust_3="162.83105" pt_clust_4="154.38535" pt_clust_5="41.10744" pt_clust_6="14000.00000"></scales>
<clustering>
<clus scale="   41.107">  2  5  1 -1</clus>
<clus scale="  154.385">  1  4  2 -1</clus>
<clus scale="  162.831">  1  3  2 -1</clus>
<clus scale="  154.385">  1  3  2 -1</clus>
</clustering>
</event>
<event>
 6    0  0.2117869E+002  0.8222217E+02  0.7546771E-02  0.1322861E+00
          2   -1    0    0  503    0 -0.00000000000E+00  0.00000000000E+00  0.37742625059E+03  0.37742625059E+03  0.00000000000E+00 0. -1.
         21   -1    0    0  505  502  0.00000000000E+00 -0.00000000000E+00 -0.44109827184E+03  0.44109827184E+03  0.00000000000E+00 0. -1.
         21    1    1    2  503  504 -0.35720354060E+02  0.17517427521E+02  0.43139049958E+02  0.58683742148E+02  0.00000000000E+00 0. -1.
         21    1    1    2  504  502 -0.11810408495E+03  0.18429064989E+02 -0.73362098467E+02  0.14025050021E+03  0.00000000000E+00 0. -1.
         21    1    1    2  505  501  0.76294124924E+02 -0.10838115694E+02 -0.31613515896E+03  0.32539160558E+03  0.00000000000E+00 0. -1.
          2    1    1    2  501    0  0.77530314088E+02 -0.25108376817E+02  0.28268618622E+03  0.29419867448E+03  0.00000000000E+00 0. -1.
<scales pt_clust_3="39.78447" pt_clust_4="14000.00000" pt_clust_5="82.22217" pt_clust_6="46.97349"></scales>
<clustering>
<clus scale="   39.784">  1  3  2 -1</clus>
<clus scale="   46.973">  1  6  2 -1</clus>
<clus scale="   82.222">  2  5  1 -1</clus>
<clus scale="   82.222">  2  3  1 -1</clus>
</clustering>
</event>
<event>
 6    0  0.2117869E+002  0.2130664E+03  0.7546771E-02  0.1139160E+00
          2   -1    0    0  505    0 -0.00000000000E+00  0.00000000000E+00  0.23357168185E+04  0.23357168185E+04  0.00000000000E+00 0. -1.
         21   -1    0    0  504  502  0.00000000000E+00 -0.00000000000E+00 -0.68933070061E+02  0.68933070061E+02  0.00000000000E+00 0. -1.
         21    1    1    2  503  502 -0.19648594073E+03 -0.15103973387E+02  0.16974743937E+03  0.26009430615E+03  0.00000000000E+00 0. -1.
         21    1    1    2  504  501  0.11630907346E+02 -0.97580752119E+02  0.16365742528E+03  0.19089534839E+03  0.00000000000E+00 0. -1.
         21    1    1    2  505  503 -0.27757190145E+02  0.25035175457E+02  0.55247927269E+03  0.55374233030E+03  0.00000000000E+00 0. -1.
          2    1    1    2  501    0  0.21261222353E+03  0.87649550049E+02  0.13808996111E+04  0.13999179038E+04  0.00000000000E+00 0. -1.
<scales pt_clust_3="14000.00000" pt_clust_4="95.50390" pt_clust_5="37.37943" pt_clust_6="213.06639"></scales>
<clustering>
<clus scale="   37.379">  1  5  2 -1</clus>
<clus scale="   95.504">  2  4  1 -1</clus>
<clus scale="  213.066">  1  6  2 -1</clus>
<clus scale="   95.504">  2  3  1 -1</clus>
</clustering>
</event>
<event>
 6    0  0.2117869E+002  0.1528573E+03  0.7546771E-02  0.1197005E+00
         21   -1    0    0  504  502  0.00000000000E+00  0.00000000000E+00  0.11340059521E+03  0.11340059521E+03  0.00000000000E+00 0.  1.
          3   -1    0    0  505    0 -0.00000000000E+00 -0.00000000000E+00 -0.61305567165E+03  0.61305567165E+03  0.00000000000E+00 0.  1.
         21    1    1    2  503  501 -0.31613579751E+02 -0.41697965629E+02  0.28377081620E+02  0.59526443901E+02  0.00000000000E+00 0.  1.
         21    1    1    2  504  503  0.73362948624E+01  0.36737906215E+02  0.43114973573E+01  0.37710528833E+02  0.00000000000E+00 0. -1.
         21    1    1    2  505  502  0.65041395680E+02 -0.14164688051E+03 -0.14430312212E+03  0.21240906988E+03  0.00000000000E+00 0.  1.
          3    1    1    2  501    0 -0.40764110792E+02  0.14660693993E+03 -0.38804053329E+03  0.41681022425E+03  0.00000000000E+00 0.  1.
<scales pt_clust_3="37.11586" pt_clust_4="37.46325" pt_clust_5="152.85728" pt_clust_6="14000.00000"></scales>
<clustering>
<clus scale="   37.463">  1  4  2 -1</clus>
<clus scale="   37.116">  1  3  2 -1</clus>
<clus scale="  152.857">  1  5  2 -1</clus>
<clus scale="   37.463">  1  3  2 -1</clus>
</clustering>
</event>
<event>
 6    0  0.2117869E+002  0.1429238E+03  0.7546771E-02  0.1209448E+00
         21   -1    0    0  501  502  0.00000000000E+00  0.00000000000E+00  0.10873699665E+03  0.10873699665E+03  0.00000000000E+00 0.  1.
          2   -1    0    0  505    0 -0.00000000000E+00 -0.00000000000E+00 -0.26413640031E+04  0.26413640031E+04  0.00000000000E+00 0. -1.
         21    1    1    2  503  502 -0.21273435508E+01 -0.73547706734E+02 -0.13762954614E+02  0.74854590214E+02  0.00000000000E+00 0.  1.
         21    1    1    2  504  503 -0.11725424750E+03 -0.94705166506E+01  0.29360708932E+02  0.12124479565E+03  0.00000000000E+00 0.  1.
         21    1    1    2  505  504 -0.66471820181E+01  0.36837916600E+02 -0.57435015885E+03  0.57556869451E+03  0.00000000000E+00 0. -1.
          2    1    1    2  501    0  0.12602877307E+03  0.46180306785E+02 -0.19738746020E+04  0.19784329194E+04  0.00000000000E+00 0. -1.
<scales pt_clust_3="72.79321" pt_clust_4="142.92376" pt_clust_5="37.43283" pt_clust_6="14000.00000"></scales>
<clustering>
<clus scale="   37.433">  2  5  1 -1</clus>
<clus scale="   72.793">  1  3  2 -1</clus>
<clus scale="  142.924">  1  4  2 -1</clus>
<clus scale="   72.793">  1  3  2 -1</clus>
</clustering>
</event>
<event>
 6    0  0.2117869E+002  0.9847006E+02  0.7546771E-02  0.1283546E+00
          2   -1    0    0  503    0 -0.00000000000E+00  0.00000000000E+00  0.58920933383E+03  0.58920933383E+03  0.00000000000E+00 0. -1.
         21   -1    0    0  505  502  0.00000000000E+00 -0.00000000000E+00 -0.48016027242E+03  0.48016027242E+03  0.00000000000E+00 0.  1.
         21    1    1    2  503  504 -0.12308085860E+02  0.30978237094E+02  0.30113859907E+02  0.44921984701E+02  0.00000000000E+00 0.  1.
         21    1    1    2  504  502  0.38556004573E+02 -0.12017551429E+03 -0.27001676405E+03  0.29805666003E+03  0.00000000000E+00 0.  1.
         21    1    1    2  505  501 -0.19701257592E+02  0.23754534155E+02 -0.18542813762E+03  0.18797875322E+03  0.00000000000E+00 0.  1.
          2    1    1    2  501    0 -0.65466611207E+01  0.65442743039E+02  0.53438010316E+03  0.53841220830E+03  0.00000000000E+00 0. -1.
<scales pt_clust_3="34.07514" pt_clust_4="98.47006" pt_clust_5="30.86126" pt_clust_6="14000.00000"></scales>
<clustering>
<clus scale="   30.861">  2  5  1 -1</clus>
<clus scale="   34.075">  1  3  2 -1</clus>
<clus scale="   98.470">  2  4  1 -1</clus>
<clus scale="   30.861">  2  3  1 -1</clus>
</clustering>
</event>
<event>
 6    0  0.2117869E+002  0.1154925E+03  0.7546771E-02  0.1250724E+00
         -3   -1    0    0    0  501 -0.00000000000E+00  0.00000000000E+00  0.53421644861E+03  0.53421644861E+03  0.00000000000E+00 0.  1.
         21   -1    0    0  504  502  0.00000000000E+00 -0.00000000000E+00 -0.14293421465E+04  0.14293421465E+04  0.00000000000E+00 0.  1.
         21    1    1    2  503  502 -0.42781180099E+02  0.86367247426E+02 -0.20850921700E+03  0.22970769333E+03  0.00000000000E+00 0.  1.
         21    1    1    2  504  505  0.26728310906E+02 -0.11884884773E+03 -0.11771892795E+04  0.11834754120E+04  0.00000000000E+00 0.  1.
         21    1    1    2  505  501  0.48053657119E+02  0.96228731179E+02  0.81026335322E+02  0.13466398807E+03  0.00000000000E+00 0.  1.
         -3    1    1    2    0  503 -0.32000787926E+02 -0.63747130878E+02  0.40954646322E+03  0.41571150171E+03  0.00000000000E+00 0.  1.
<scales pt_clust_3="115.49255" pt_clust_4="14000.00000" pt_clust_5="44.29358" pt_clust_6="71.32845"></scales>
<clustering>
<clus scale="   71.328">  1  6  2 -1</clus>
<clus scale="   44.294">  1  5  2 -1</clus>
<clus scale="  115.493">  1  3  2 -1</clus>
<clus scale="  115.493">  2  3  1 -1</clus>
</clustering>
</event>
<event>
 6    0  0.2117869E+002  0.1074522E+03  0.7546771E-02  0.1265362E+00
          2   -1    0    0  503    0 -0.00000000000E+00  0.00000000000E+00  0.29658930453E+04  0.29658930453E+04  0.00000000000E+00 0.  1.
         21   -1    0    0  505  502  0.00000000000E+00 -0.00000000000E+00 -0.89668692343E+03  0.89668692343E+03  0.00000000000E+00 0.  1.
         21    1    1    2  503  504 -0.15127427943E+01 -0.35680853718E+02  0.11855020240E+04  0.11860398226E+04  0.00000000000E+00 0.  1.
         21    1    1    2  504  502  0.61795755724E+02 -0.40975880544E+02 -0.83244441643E+03  0.83574005807E+03  0.00000000000E+00 0.  1.
         21    1    1    2  505  501  0.44240423239E+02  0.67559564209E+02 -0.33919287522E+02  0.87590112630E+02  0.00000000000E+00 0.  1.
          2    1    1    2  501    0 -0.10452343617E+03  0.90971700528E+01  0.17500678018E+04  0.17532099755E+04  0.00000000000E+00 0.  1.
<scales pt_clust_3="35.71291" pt_clust_4="74.16383" pt_clust_5="107.45223" pt_clust_6="14000.00000"></scales>
<clustering>
<clus scale="   35.713">  1  3  2 -1</clus>
<clus scale="   74.164">  2  4  1 -1</clus>
<clus scale="  107.452">  2  5  1 -1</clus>
<clus scale="   74.164">  2  3  1 -1</clus>
</clustering>
</event>
<event>
 6    0  0.2117869E+002  0.1287773E+03  0.7546771E-02  0.1229281E+00
         21   -1    0    0  504  502  0.00000000000E+00  0.00000000000E+00  0.71374991395E+02  0.71374991395E+02  0.00000000000E+00 0.  1.
          1   -1    0    0  503    0 -0.00000000000E+00 -0.00000000000E+00 -0.12535482385E+04  0.12535482385E+04  0.00000000000E+00 0.  1.
         21    1    1    2  503  505 -0.36559245481E+02 -0.15002997691E+02 -0.53945088260E+03  0.54089640700E+03  0.00000000000E+00 0. -1.
         21    1    1    2  504  501 -0.38210967892E+02  0.16306232768E+02  0.28552525827E+02  0.50410495191E+02  0.00000000000E+00 0.  1.
         21    1    1    2  505  502  0.60653283546E+02  0.13176997525E+03 -0.47031890315E+03  0.49218087919E+03  0.00000000000E+00 0.  1.
          1    1    1    2  501    0  0.14116929827E+02 -0.13307321033E+03 -0.20095598722E+03  0.24143544855E+03  0.00000000000E+00 0.  1.
<scales pt_clust_3="39.51795" pt_clust_4="41.97196" pt_clust_5="14000.00000" pt_clust_6="128.77734"></scales>
<clustering>
<clus scale="   39.518">  2  3  1 -1</clus>
<clus scale="   41.972">  1  4  2 -1</clus>
<clus scale="  128.777">  1  6  2 -1</clus>
<clus scale="   41.972">  1  3  2 -1</clus>
</clustering>
</event>
<event>
 6    0  0.2117869E+002  0.6908088E+02  0.7546771E-02  0.1363247E+00
          4   -1    0    0  504    0 -0.00000000000E+00  0.00000000000E+00  0.32134869648E+03  0.32134869648E+03  0.00000000000E+00 0. -1.
         21   -1    0    0  505  502  0.00000000000E+00 -0.00000000000E+00 -0.38129100637E+03  0.38129100637E+03  0.00000000000E+00 0. -1.
         21    1    1    2  503  502  0.78940984185E+02  0.50699300306E+01 -0.10820287887E+02  0.79840226732E+02  0.00000000000E+00 0.  1.
         21    1    1    2  504  503 -0.16205127915E+02 -0.36329848453E+02 -0.11615065012E+01  0.39797150108E+02  0.00000000000E+00 0.  1.
         21    1    1    2  505  501 -0.45201917845E+02 -0.54090757229E+02 -0.30424831622E+03  0.31230763890E+03  0.00000000000E+00 0. -1.
          4    1    1    2  501    0 -0.17533938425E+02  0.85350675652E+02  0.25628780071E+03  0.27069468710E+03  0.00000000000E+00 0. -1.
<scales pt_clust_3="69.08088" pt_clust_4="39.78020" pt_clust_5="14000.00000" pt_clust_6="62.30648"></scales>
<clustering>
<clus scale="   39.780">  1  4  2 -1</clus>
<clus scale="   62.306">  1  6  2 -1</clus>
<clus scale="   69.081">  1  3  2 -1</clus>
<clus scale="   69.081">  2  3  1 -1</clus>
</clustering>
</event>
<event>
 6    0  0.2117869E+002  0.1347455E+03  0.7546771E-02  0.1220579E+00
         -2   -1    0    0    0  501 -0.00000000000E+00  0.00000000000E+00  0.22623856784E+03  0.22623856784E+03  0.00000000000E+00 0.  1.
         21   -1    0    0  503  502  0.00000000000E+00 -0.00000000000E+00 -0.71572199157E+03  0.71572199157E+03  0.00000000000E+00 0. -1.
         21    1    1    2  503  501  0.10427779688E+03 -0.14979208631E+02  0.82792263836E+02  0.13398803888E+03  0.00000000000E+00 0. -1.
         21    1    1    2  504  505  0.23723923304E+02 -0.13634623302E+03 -0.39131344773E+03  0.41506545770E+03  0.00000000000E+00 0. -1.
         21    1    1    2  505  502  0.56296456834E+02  0.42327196222E+02 -0.16356296805E+03  0.17808348354E+03  0.00000000000E+00 0. -1.
         -2    1    1    2    0  504 -0.18429817702E+03  0.10899824543E+03 -0.17399271784E+02  0.21482357929E+03  0.00000000000E+00 0.  1.
<scales pt_clust_3="107.70874" pt_clust_4="134.74549" pt_clust_5="70.43353" pt_clust_6="14000.00000"></scales>
<clustering>
<clus scale="   70.434">  2  5  1 -1</clus>
<clus scale="  107.709">  1  3  2 -1</clus>
<clus scale="  134.745">  2  4  1 -1</clus>
<clus scale="   70.434">  2  3  1 -1</clus>
</clustering>
</event>
<event>
 6    0  0.2117869E+002  0.9250725E+02  0.7546771E-02  0.1296891E+00
         21   -1    0    0  503  502  0.00000000000E+00  0.00000000000E+00  0.89038911184E+02  0.89038911184E+02  0.00000000000E+00 0. -1.
          1   -1    0    0  504    0 -0.00000000000E+00 -0.00000000000E+00 -0.14603245406E+04  0.14603245406E+04  0.00000000000E+00 0. -1.
         21    1    1    2  503  501  0.36154385856E+02 -0.92001653738E+02  0.41975988719E+02  0.10739379654E+03  0.00000000000E+00 0. -1.
         21    1    1    2  504  505  0.10237320432E+02  0.33613794922E+02 -0.13190722629E+03  0.13650716569E+03  0.00000000000E+00 0. -1.
         21    1    1    2  505  502  0.31971615299E+02  0.27842804656E+02 -0.31589204710E+02  0.52870443635E+02  0.00000000000E+00 0.  1.
          1    1    1    2  501    0 -0.78363321588E+02  0.30545054161E+02 -0.12497651871E+04  0.12525920459E+04  0.00000000000E+00 0. -1.
<scales pt_clust_3="14000.00000" pt_clust_4="35.13816" pt_clust_5="43.34871" pt_clust_6="92.50725"></scales>
<clustering>
<clus scale="   35.138">  2  4  1 -1</clus>
<clus scale="   43.349">  1  5  2 -1</clus>
<clus scale="   92.507">  2  6  1 -1</clus>
<clus scale="   43.349">  1  3  2 -1</clus>
</clustering>
</event>
<event>
 6    0  0.2117869E+002  0.1189290E+03  0.7546771E-02  0.1244874E+00
         -4   -1    0    0    0  501 -0.00000000000E+00  0.00000000000E+00  0.18034823910E+04  0.18034823910E+04  0.00000000000E+00 0.  1.
         21   -1    0    0  503  502  0.00000000000E+00 -0.00000000000E+00 -0.21165885849E+02  0.21165885849E+02  0.00000000000E+00 0. -1.
         21    1    1    2  503  504 -0.28248256293E+02  0.22716625705E+02  0.87217156557E+02  0.94450206273E+02  0.00000000000E+00 0. -1.
         21    1    1    2  504  505 -0.81288204012E+01  0.74356317023E+02  0.11710631874E+03  0.13895621430E+03  0.00000000000E+00 0. -1.
         21    1    1    2  505  501 -0.24238760090E+00  0.49363380873E+02  0.26103350948E+03  0.26566011216E+03  0.00000000000E+00 0.  1.
         -4    1    1    2    0  502  0.36619464295E+02 -0.14643632360E+03  0.13169595204E+04  0.13255817441E+04  0.00000000000E+00 0.  1.
<scales pt_clust_3="31.00805" pt_clust_4="31.00805" pt_clust_5="49.36398" pt_clust_6="110.27275"></scales>
<clustering>
<clus scale="   31.008">  3  4 -1 -1</clus>
<clus scale="   49.364">  1  5  2 -1</clus>
<clus scale="  110.273">  1  6  2 -1</clus>
<clus scale="  118.929">  2  3  1 -1</clus>
</clustering>
</event>
<event>
 6    0  0.2117869E+002  0.1203527E+03  0.7546771E-02  0.1242516E+00
         21   -1    0    0  504  502  0.00000000000E+00  0.00000000000E+00  0.31551105710E+03  0.31551105710E+03  0.00000000000E+00 0. -1.
          2   -1    0    0  505    0 -0.00000000000E+00 -0.00000000000E+00 -0.12068438716E+04  0.12068438716E+04  0.00000000000E+00 0. -1.
         21    1    1    2  503  502  0.63109282333E+02 -0.22375524611E+02  0.15570823517E+03  0.16949483803E+03  0.00000000000E+00 0. -1.
         21    1    1    2  504  501 -0.13816043157E+03 -0.67897061777E+02  0.10343875654E+03  0.18546668759E+03  0.00000000000E+00 0. -1.
         21    1    1    2  505  503 -0.32715872646E+02 -0.19310440906E+02 -0.36846832174E+03  0.37042155118E+03  0.00000000000E+00 0. -1.
          2    1    1    2  501    0  0.10776702189E+03  0.10958302729E+03 -0.78201148448E+03  0.79697185191E+03  0.00000000000E+00 0. -1.
<scales pt_clust_3="66.75826" pt_clust_4="120.35271" pt_clust_5="37.98975" pt_clust_6="14000.00000"></scales>
<clustering>
<clus scale="   37.990">  2  5  1 -1</clus>
<clus scale="   66.758">  1  3  2 -1</clus>
<clus scale="  120.353">  1  4  2 -1</clus>
<clus scale="   66.758">  1  3  2 -1</clus>
</clustering>
</event>
<event>
 6    0  0.2117869E+002  0.8325441E+02  0.7546771E-02  0.1320062E+00
          2   -1    0    0  504    0 -0.00000000000E+00  0.00000000000E+00  0.17176649501E+03  0.17176649501E+03  0.00000000000E+00 0.  1.
         21   -1    0    0  503  502  0.00000000000E+00 -0.00000000000E+00 -0.17609568961E+03  0.17609568961E+03  0.00000000000E+00 0. -1.
         21    1    1    2  503  501  0.51205632682E+02  0.20117859681E+02 -0.17314876626E+02  0.57676252037E+02  0.00000000000E+00 0. -1.
         21    1    1    2  504  505  0.42402782255E+02 -0.29780598900E+01  0.69196680964E+02  0.81209885113E+02  0.00000000000E+00 0.  1.
         21    1    1    2  505  502  0.33205471659E+02  0.56359785066E+01 -0.71689193804E+02  0.79206742833E+02  0.00000000000E+00 0. -1.
          2    1    1    2  501    0 -0.12681388660E+03 -0.22775778298E+02  0.15478194868E+02  0.12976930464E+03  0.00000000000E+00 0.  1.
<scales pt_clust_3="14000.00000" pt_clust_4="44.46301" pt_clust_5="33.68037" pt_clust_6="83.25441"></scales>
<clustering>
<clus scale="   33.680">  2  5  1 -1</clus>
<clus scale="   44.463">  1  4  2 -1</clus>
<clus scale="   83.254">  1  6  2 -1</clus>
<clus scale="   33.680">  2  3  1 -1</clus>
</clustering>
</event>
<event>
 6    0  0.2117869E+002  0.2033540E+03  0.7546771E-02  0.1146940E+00
         21   -1    0    0  501  502  0.00000000000E+00  0.00000000000E+00  0.16674803554E+03  0.16674803554E+03  0.00000000000E+00 0.  1.
          3   -1    0    0  505    0 -0.00000000000E+00 -0.00000000000E+00 -0.83373142543E+03  0.83373142543E+03  0.00000000000E+00 0. -1.
         21    1    1    2  503  504  0.23206807475E+02  0.70570485394E+02 -0.39809690918E+02  0.84282624621E+02  0.00000000000E+00 0. -1.
         21    1    1    2  504  502  0.13481368269E+03  0.25594934435E+02  0.64803308136E+02  0.15175407228E+03  0.00000000000E+00 0.  1.
         21    1    1    2  505  503  0.51388252681E+02  0.34927061877E+02 -0.62100727060E+02  0.87847324754E+02  0.00000000000E+00 0.  1.
          3    1    1    2  501    0 -0.20940874284E+03 -0.13109248171E+03 -0.62987628004E+03  0.67659543931E+03  0.00000000000E+00 0. -1.
<scales pt_clust_3="46.17166" pt_clust_4="137.22183" pt_clust_5="46.17166" pt_clust_6="196.98739"></scales>
<clustering>
<clus scale="   46.172">  3  5 -1 -1</clus>
<clus scale="  137.222">  1  4  2 -1</clus>
<clus scale="  196.987">  2  6  1 -1</clus>
<clus scale="  137.222">  1  3  2 -1</clus>
</clustering>
</event>
<event>
 6    0  0.2117869E+002  0.6564777E+02  0.7546771E-02  0.1375551E+00
          2   -1    0    0  504    0 -0.00000000000E+00  0.00000000000E+00  0.20326913500E+04  0.20326913500E+04  0.00000000000E+00 0.  1.
         21   -1    0    0  503  502  0.00000000000E+00 -0.00000000000E+00 -0.49204828237E+03  0.49204828237E+03  0.00000000000E+00 0.  1.
         21    1    1    2  503  501 -0.44812245441E+02 -0.39574313930E+02 -0.30222216491E+03  0.30807872472E+03  0.00000000000E+00 0.  1.
         21    1    1    2  504  505  0.61602846084E+02  0.43822360134E+02  0.48904141469E+03  0.49485029572E+03  0.00000000000E+00 0. -1.
         21    1    1    2  505  502  0.49896178161E+02 -0.16215923869E+02 -0.17948999735E+03  0.18700065222E+03  0.00000000000E+00 0.  1.
          2    1    1    2  501    0 -0.66686778804E+02  0.11967877665E+02  0.15333138152E+04  0.15348099597E+04  0.00000000000E+00 0.  1.
<scales pt_clust_3="55.77975" pt_clust_4="65.64777" pt_clust_5="52.46508" pt_clust_6="14000.00000"></scales>
<clustering>
<clus scale="   52.465">  2  5  1 -1</clus>
<clus scale="   55.780">  2  3  1 -1</clus>
<clus scale="   65.648">  2  4  1 -1</clus>
<clus scale="   52.465">  2  3  1 -1</clus>
</clustering>
</event>
<event>
 6    0  0.2117869E+002  0.1066617E+03  0.7546771E-02  0.1266880E+00
         21   -1    0    0  504  502  0.00000000000E+00  0.00000000000E+00  0.10013506346E+03  0.10013506346E+03  0.00000000000E+00 0. -1.
          2   -1    0    0  505    0 -0.00000000000E+00 -0.00000000000E+00 -0.21628638852E+04  0.21628638852E+04  0.00000000000E+00 0.  1.
         21    1    1    2  503  502 -0.76220258734E+02 -0.87058225759E+02 -0.56049564189E+02  0.12856988823E+03  0.00000000000E+00 0. -1.
         21    1    1    2  504  501 -0.29022291308E+02  0.64231812273E+02  0.37920832506E+02  0.80037545181E+02  0.00000000000E+00 0. -1.
         21    1    1    2  505  503 -0.17782635966E+02  0.41811938457E+02 -0.18018596235E+03  0.18582637425E+03  0.00000000000E+00 0. -1.
          2    1    1    2  501    0  0.12302518601E+03 -0.18985524970E+02 -0.18644141277E+04  0.18685651410E+04  0.00000000000E+00 0.  1.
<scales pt_clust_3="106.66168" pt_clust_4="70.96733" pt_clust_5="45.43633" pt_clust_6="14000.00000"></scales>
<clustering>
<clus scale="   45.436">  2  5  1 -1</clus>
<clus scale="   70.967">  1  4  2 -1</clus>
<clus scale="  106.662">  1  3  2 -1</clus>
<clus scale="   70.967">  1  3  2 -1</clus>
</clustering>
</event>
<event>
 6    0  0.2117869E+002  0.1005173E+03  0.7546771E-02  0.1279212E+00
         21   -1    0    0  505  502  0.00000000000E+00  0.00000000000E+00  0.32277575041E+03  0.32277575041E+03  0.00000000000E+00 0.  1.
          2   -1    0    0  503    0 -0.00000000000E+00 -0.00000000000E+00 -0.21554590821E+04  0.21554590821E+04  0.00000000000E+00 0.  1.
         21    1    1    2  503  502 -0.39603254734E+02 -0.15450390194E+02  0.25903953550E+03  0.26250450148E+03  0.00000000000E+00 0.  1.
         21    1    1    2  504  501  0.16837446122E+03  0.70641950059E+02 -0.16263604985E+04  0.16365783560E+04  0.00000000000E+00 0.  1.
         21    1    1    2  505  504 -0.57270946265E+02 -0.21032707435E+02  0.36484472747E+02  0.71087641822E+02  0.00000000000E+00 0.  1.
          2    1    1    2  501    0 -0.71500260223E+02 -0.34158852431E+02 -0.50184684141E+03  0.50806433317E+03  0.00000000000E+00 0.  1.
<scales pt_clust_3="42.51038" pt_clust_4="100.51726" pt_clust_5="14000.00000" pt_clust_6="81.36661"></scales>
<clustering>
<clus scale="   42.510">  1  3  2 -1</clus>
<clus scale="   81.367">  2  6  1 -1</clus>
<clus scale="  100.517">  2  4  1 -1</clus>
<clus scale="   42.510">  1  3  2 -1</clus>
</clustering>
</event>
<event>
 6    0  0.2117869E+002  0.1195350E+03  0.7546771E-02  0.1243866E+00
         21   -1    0    0  504  502  0.00000000000E+00  0.00000000000E+00  0.13596363096E+04  0.13596363096E+04  0.00000000000E+00 0.  1.
          2   -1    0    0  503    0 -0.00000000000E+00 -0.00000000000E+00 -0.55362943238E+02  0.55362943238E+02  0.00000000000E+00 0.  1.
         21    1    1    2  503  502  0.10537651010E+03 -0.19520630031E+02  0.59141336662E+03  0.60104495181E+03  0.00000000000E+00 0. -1.
         21    1    1    2  504  505 -0.29574550230E+01  0.30756199093E+02  0.47938304638E+03  0.48037776330E+03  0.00000000000E+00 0.  1.
         21    1    1    2  505  501 -0.15468541006E+01  0.64283590383E+02  0.18950197698E+03  0.20011439736E+03  0.00000000000E+00 0.  1.
          2    1    1    2  501    0 -0.10087220097E+03 -0.75519159445E+02  0.43974976431E+02  0.13346214042E+03  0.00000000000E+00 0.  1.
<scales pt_clust_3="119.53504" pt_clust_4="30.89806" pt_clust_5="71.12815" pt_clust_6="14000.00000"></scales>
<clustering>
<clus scale="   30.898">  1  4  2 -1</clus>
<clus scale="   71.128">  1  5  2 -1</clus>
<clus scale="  119.535">  1  3  2 -1</clus>
<clus scale="   30.898">  1  3  2 -1</clus>
</clustering>
</event>
<event>
 6    0  0.2117869E+002  0.1422122E+03  0.7546771E-02  0.1210383E+00
         21   -1    0    0  504  502  0.00000000000E+00  0.00000000000E+00  0.57481953122E+03  0.57481953122E+03  0.00000000000E+00 0. -1.
         -4   -1    0    0    0  501 -0.00000000000E+00 -0.00000000000E+00 -0.19235766899E+03  0.19235766899E+03  0.00000000000E+00 0. -1.
         21    1    1    2  503  505 -0.63535735343E+02 -0.82610765795E+02  0.70552311830E+02  0.12585291810E+03  0.00000000000E+00 0. -1.
         21    1    1    2  504  501  0.61414498078E+02 -0.70791626765E+02 -0.47209721854E+02  0.10493785224E+03  0.00000000000E+00 0.  1.
         21    1    1    2  505  502  0.70710784140E+02  0.14887729756E+03  0.41581183731E+03  0.44728508669E+03  0.00000000000E+00 0. -1.
         -4    1    1    2    0  503 -0.68589546875E+02  0.45250949989E+01 -0.56692565049E+02  0.89101343183E+02  0.00000000000E+00 0. -1.
<scales pt_clust_3="14000.00000" pt_clust_4="70.18784" pt_clust_5="142.21220" pt_clust_6="68.73865"></scales>
<clustering>
<clus scale="   68.739">  2  6  1 -1</clus>
<clus scale="   70.188">  2  4  1 -1</clus>
<clus scale="  142.212">  1  5  2 -1</clus>
<clus scale="  142.212">  1  3  2 -1</clus>
</clustering>
</event>
<event>
 6    0  0.2117869E+002  0.6181487E+02  0.7546771E-02  0.1390370E+00
         -1   -1    0    0    0  501 -0.00000000000E+00  0.00000000000E+00  0.28945859920E+04  0.28945859920E+04  0.00000000000E+00 0.  1.
         21   -1    0    0  505  502  0.00000000000E+00 -0.00000000000E+00 -0.67475348700E+02  0.67475348700E+02  0.00000000000E+00 0.  1.
         21    1    1    2  503  501  0.36769860787E+02  0.18976285752E+01  0.42788053702E+03  0.42946173010E+03  0.00000000000E+00 0. -1.
         21    1    1    2  504  503  0.80382129531E+02 -0.13846915990E+02  0.47206753221E+02  0.94241717832E+02  0.00000000000E+00 0.  1.
         21    1    1    2  505  504 -0.51549665292E+02 -0.31172384405E+02 -0.21179782187E+02  0.63856626239E+02  0.00000000000E+00 0.  1.
         -1    1    1    2    0  502 -0.65602325026E+02  0.43121671820E+02  0.23732031352E+04  0.23745012665E+04  0.00000000000E+00 0.  1.
<scales pt_clust_3="36.81879" pt_clust_4="61.81487" pt_clust_5="14000.00000" pt_clust_6="54.15459"></scales>
<clustering>
<clus scale="   36.819">  1  3  2 -1</clus>
<clus scale="   54.155">  1  6  2 -1</clus>
<clus scale="   61.815">  1  4  2 -1</clus>
<clus scale="   61.815">  2  3  1 -1</clus>
</clustering>
</event>
<event>
 6    0  0.2117869E+002  0.7236217E+02  0.7546771E-02  0.1352240E+00
          2   -1    0    0  505    0 -0.00000000000E+00  0.00000000000E+00  0.78725713920E+03  0.78725713920E+03  0.00000000000E+00 0.  1.
         21   -1    0    0  504  502  0.00000000000E+00 -0.00000000000E+00 -0.53685531306E+03  0.53685531306E+03  0.00000000000E+00 0. -1.
         21    1    1    2  503  502  0.17743565624E+02 -0.41401968910E+02 -0.48972901321E+03  0.49179616055E+03  0.00000000000E+00 0. -1.
         21    1    1    2  504  501  0.54384385171E+02  0.19486820478E+02 -0.14380480367E+02  0.59533148231E+02  0.00000000000E+00 0.  1.
         21    1    1    2  505  503  0.37121916524E+02  0.25419502114E+00  0.69658504126E+02  0.78932936715E+02  0.00000000000E+00 0.  1.
          2    1    1    2  501    0 -0.10924986732E+03  0.21660953411E+02  0.68485281559E+03  0.69385020677E+03  0.00000000000E+00 0.  1.
<scales pt_clust_3="45.06483" pt_clust_4="14000.00000" pt_clust_5="37.12279" pt_clust_6="72.36217"></scales>
<clustering>
<clus scale="   37.123">  1  5  2 -1</clus>
<clus scale="   45.065">  2  3  1 -1</clus>
<clus scale="   72.362">  1  6  2 -1</clus>
<clus scale="   45.065">  2  3  1 -1</clus>
</clustering>
</event>
<event>
 6    0  0.2117869E+002  0.8991986E+02  0.7546771E-02  0.1303046E+00
         21   -1    0    0  505  502  0.00000000000E+00  0.00000000000E+00  0.13094558240E+03  0.13094558240E+03  0.00000000000E+00 0. -1.
         -3   -1    0    0    0  501 -0.00000000000E+00 -0.00000000000E+00 -0.19997252588E+03  0.19997252588E+03  0.00000000000E+00 0.  1.
         21    1    1    2  503  501  0.23645119078E+02  0.21879172706E+02 -0.46086156121E+02  0.56229206295E+02  0.00000000000E+00 0. -1.
         21    1    1    2  504  502 -0.94697896410E+02 -0.24813039838E+02  0.57056501333E+02  0.11330852958E+03  0.00000000000E+00 0. -1.
         21    1    1    2  505  503 -0.13716352572E+01  0.46339663719E+02 -0.19532153961E+01  0.46401086919E+02  0.00000000000E+00 0. -1.
         -3    1    1    2    0  504  0.72424412589E+02 -0.43405796587E+02 -0.78044073292E+02  0.11497928549E+03  0.00000000000E+00 0.  1.
<scales pt_clust_3="32.21475" pt_clust_4="14000.00000" pt_clust_5="49.95535" pt_clust_6="89.91986"></scales>
<clustering>
<clus scale="   32.215">  2  3  1 -1</clus>
<clus scale="   49.955">  1  5  2 -1</clus>
<clus scale="   89.920">  2  6  1 -1</clus>
<clus scale="   49.955">  1  3  2 -1</clus>
</clustering>
</event>
<event>
 6    0  0.2117869E+002  0.8639150E+02  0.7546771E-02  0.1311833E+00
         21   -1    0    0  504  502  0.00000000000E+00  0.00000000000E+00  0.51713315893E+03  0.51713315893E+03  0.00000000000E+00 0.  1.
         -2   -1    0    0    0  501 -0.00000000000E+00 -0.00000000000E+00 -0.14816250787E+03  0.14816250787E+03  0.00000000000E+00 0.  1.
         21    1    1    2  503  502 -0.69408528360E+02 -0.42529232755E+02  0.15705906409E+03  0.17690061916E+03  0.00000000000E+00 0.  1.
         21    1    1    2  504  505  0.26578659299E+02  0.97604806409E+02  0.32588851179E+03  0.34122784980E+03  0.00000000000E+00 0.  1.
         21    1    1    2  505  501  0.39851815940E+02 -0.23613760960E+02 -0.24772946067E+02  0.52530712895E+02  0.00000000000E+00 0. -1.
         -2    1    1    2    0  503  0.29780531209E+01 -0.31461812694E+02 -0.89203978748E+02  0.94636484946E+02  0.00000000000E+00 0.  1.
<scales pt_clust_3="86.39150" pt_clust_4="14000.00000" pt_clust_5="61.65818" pt_clust_6="31.60244"></scales>
<clustering>
<clus scale="   31.602">  2  6  1 -1</clus>
<clus scale="   61.658">  2  5  1 -1</clus>
<clus scale="   86.392">  2  3  1 -1</clus>
<clus scale="   86.392">  1  3  2 -1</clus>
</clustering>
</event>
<event>
 6    0  0.2117869E+002  0.1042842E+03  0.7546771E-02  0.1271536E+00
          2   -1    0    0  505    0 -0.00000000000E+00  0.00000000000E+00  0.39777789980E+03  0.39777789980E+03  0.00000000000E+00 0. -1.
         21   -1    0    0  503  502  0.00000000000E+00 -0.00000000000E+00 -0.11045992124E+03  0.11045992124E+03  0.00000000000E+00 0.  1.
         21    1    1    2  503  501 -0.15297170206E+02 -0.51460373075E+02  0.25378857386E+02  0.59382319048E+02  0.00000000000E+00 0. -1.
         21    1    1    2  504  502  0.31002521067E+01  0.44524595258E+02 -0.53720735731E+02  0.69842455524E+02  0.00000000000E+00 0.  1.
         21    1    1    2  505  504 -0.98676292988E+02  0.93047122515E+00  0.15337487521E+03  0.18237798365E+03  0.00000000000E+00 0.  1.
          2    1    1    2  501    0  0.11087321109E+03  0.60053065913E+01  0.16228498171E+03  0.19663506282E+03  0.00000000000E+00 0. -1.
<scales pt_clust_3="38.62037" pt_clust_4="44.63240" pt_clust_5="104.28421" pt_clust_6="14000.00000"></scales>
<clustering>
<clus scale="   44.632">  2  4  1 -1</clus>
<clus scale="   38.620">  2  3  1 -1</clus>
<clus scale="  104.284">  1  5  2 -1</clus>
<clus scale="   44.632">  2  3  1 -1</clus>
</clustering>
</event>
<event>
 6    0  0.2117869E+002  0.1037036E+03  0.7546771E-02  0.1272695E+00
         21   -1    0    0  503  502  0.00000000000E+00  0.00000000000E+00  0.38684360285E+03  0.38684360285E+03  0.00000000000E+00 0.  1.
          1   -1    0    0  504    0 -0.00000000000E+00 -0.00000000000E+00 -0.22475947566E+04  0.22475947566E+04  0.00000000000E+00 0.  1.
         21    1    1    2  503  501  0.84978664288E+02 -0.52025040469E+02  0.29873634429E+03  0.31491487996E+03  0.00000000000E+00 0.  1.
         21    1    1    2  504  505  0.37497127150E+02 -0.50996609571E+02 -0.13826853037E+04  0.13841334248E+04  0.00000000000E+00 0.  1.
         21    1    1    2  505  502 -0.81618967840E+02  0.14847818927E+03 -0.13854510760E+02  0.16999816490E+03  0.00000000000E+00 0.  1.
          1    1    1    2  501    0 -0.40856823598E+02 -0.45456539231E+02 -0.76294768362E+03  0.76539188978E+03  0.00000000000E+00 0.  1.
<scales pt_clust_3="14000.00000" pt_clust_4="93.39033" pt_clust_5="103.70360" pt_clust_6="61.11937"></scales>
<clustering>
<clus scale="   61.119">  2  6  1 -1</clus>
<clus scale="   93.390">  2  4  1 -1</clus>
<clus scale="  103.704">  2  5  1 -1</clus>
<clus scale="  103.704">  1  3  2 -1</clus>
</clustering>
</event>
<event>
 6    0  0.2117869E+002  0.1701963E+03  0.7546771E-02  0.1177643E+00
         21   -1    0    0  504  502  0.00000000000E+00  0.00000000000E+00  0.26408159957E+03  0.26408159957E+03  0.00000000000E+00 0.  1.
          2   -1    0    0  503    0 -0.00000000000E+00 -0.00000000000E+00 -0.31307585073E+03  0.31307585073E+03  0.00000000000E+00 0. -1.
         21    1    1    2  503  502  0.92093896721E+01  0.87836236728E+02 -0.13808598084E+03  0.16391386593E+03  0.00000000000E+00 0.  1.
         21    1    1    2  504  505 -0.92084780627E+02 -0.67302998509E+02  0.10850361659E+03  0.15742406183E+03  0.00000000000E+00 0.  1.
         21    1    1    2  505  501 -0.21006076571E+02 -0.69027641574E+02  0.77365440197E+02  0.10578980051E+03  0.00000000000E+00 0.  1.
          2    1    1    2  501    0  0.10388146753E+03  0.48494403355E+02 -0.96777327098E+02  0.15002972203E+03  0.00000000000E+00 0. -1.
<scales pt_clust_3="88.31771" pt_clust_4="46.09418" pt_clust_5="46.09418" pt_clust_6="160.02540"></scales>
<clustering>
<clus scale="   46.094">  4  5 -1 -1</clus>
<clus scale="   88.318">  2  3  1 -1</clus>
<clus scale="  160.025">  2  6  1 -1</clus>
<clus scale="  170.196">  1  3  2 -1</clus>
</clustering>
</event>
<event>
 6    0  0.2117869E+002  0.9177233E+02  0.7546771E-02  0.1298616E+00
         -1   -1    0    0    0  501 -0.00000000000E+00  0.00000000000E+00  0.36604510355E+03  0.36604510355E+03  0.00000000000E+00 0. -1.
         21   -1    0    0  505  502  0.00000000000E+00 -0.00000000000E+00 -0.97393190317E+02  0.97393190317E+02  0.00000000000E+00 0. -1.
         21    1    1    2  503  502 -0.35694922143E+02  0.18883911932E+02 -0.13358509065E+01  0.40404382117E+02  0.00000000000E+00 0.  1.
         21    1    1    2  504  501 -0.42300775387E+01  0.40453533090E+02  0.61342929387E+02  0.73602560290E+02  0.00000000000E+00 0.  1.
         21    1    1    2  505  504 -0.92445957838E+01  0.63827909728E+02 -0.34002312368E+02  0.72908311308E+02  0.00000000000E+00 0. -1.
         -1    1    1    2    0  503  0.49169595465E+02 -0.12316535475E+03  0.24264714712E+03  0.27652304015E+03  0.00000000000E+00 0. -1.
<scales pt_clust_3="40.38229" pt_clust_4="42.56081" pt_clust_5="14000.00000" pt_clust_6="91.77233"></scales>
<clustering>
<clus scale="   40.382">  2  3  1 -1</clus>
<clus scale="   42.561">  1  4  2 -1</clus>
<clus scale="   91.772">  1  6  2 -1</clus>
<clus scale="   40.382">  2  3  1 -1</clus>
</clustering>
</event>
<event>
 6    0  0.2117869E+002  0.8147548E+02  0.7546771E-02  0.1324916E+00
          1   -1    0    0  503    0 -0.00000000000E+00  0.00000000000E+00  0.18649104357E+04  0.18649104357E+04  0.00000000000E+00 0.  1.
         21   -1    0    0  504  502  0.00000000000E+00 -0.00000000000E+00 -0.18831582495E+03  0.18831582495E+03  0.00000000000E+00 0.  1.
         21    1    1    2  503  505  0.34299690357E+02 -0.50216126312E+02  0.50487318492E+03  0.50852242916E+03  0.00000000000E+00 0.  1.
         21    1    1    2  504  501 -0.32906663082E+02 -0.21761942815E+02 -0.66667310219E+01  0.40010947662E+02  0.00000000000E+00 0.  1.
         21    1    1    2  505  502  0.70687330725E+02 -0.52676077147E+01 -0.15326101338E+03  0.16885906739E+03  0.00000000000E+00 0.  1.
          1    1    1    2  501    0 -0.72080358000E+02  0.77245676842E+02  0.13316491703E+04  0.13358338165E+04  0.00000000000E+00 0.  1.
<scales pt_clust_3="14000.00000" pt_clust_4="39.45162" pt_clust_5="46.79697" pt_clust_6="81.47548"></scales>
<clustering>
<clus scale="   39.452">  2  4  1 -1</clus>
<clus scale="   46.797">  2  5  1 -1</clus>
<clus scale="   81.475">  2  6  1 -1</clus>
<clus scale="   39.452">  2  3  1 -1</clus>
</clustering>
</event>
<event>
 6    0  0.2117869E+002  0.1287694E+03  0.7546771E-02  0.1229293E+00
         21   -1    0    0  504  502  0.00000000000E+00  0.00000000000E+00  0.86146114636E+03  0.86146114636E+03  0.00000000000E+00 0.  1.
          1   -1    0    0  503    0 -0.00000000000E+00 -0.00000000000E+00 -0.12305071350E+03  0.12305071350E+03  0.00000000000E+00 0. -1.
         21    1    1    2  503  502  0.58756608898E+02 -0.32243532547E+02  0.53468174380E+01  0.67235206083E+02  0.00000000000E+00 0. -1.
         21    1    1    2  504  505 -0.41340499270E+02 -0.23794370574E+02  0.55257698430E+03  0.55463188921E+03  0.00000000000E+00 0.  1.
         21    1    1    2  505  501 -0.30283603775E+02 -0.97767877813E+02  0.18141873894E+03  0.20829885604E+03  0.00000000000E+00 0. -1.
          1    1    1    2  501    0  0.12867494146E+02  0.15380578093E+03 -0.93210781184E+00  0.15434590853E+03  0.00000000000E+00 0. -1.
<scales pt_clust_3="64.27910" pt_clust_4="47.69915" pt_clust_5="128.76936" pt_clust_6="14000.00000"></scales>
<clustering>
<clus scale="   47.699">  1  4  2 -1</clus>
<clus scale="   64.279">  2  3  1 -1</clus>
<clus scale="  128.769">  1  5  2 -1</clus>
<clus scale="   47.699">  1  3  2 -1</clus>
</clustering>
</event>
<event>
 6    0  0.2117869E+002  0.8236215E+02  0.7546771E-02  0.1322479E+00
          2   -1    0    0  504    0 -0.00000000000E+00  0.00000000000E+00  0.24171059096E+04  0.24171059096E+04  0.00000000000E+00 0.  1.
         21   -1    0    0  505  502  0.00000000000E+00 -0.00000000000E+00 -0.81943099325E+02  0.81943099325E+02  0.00000000000E+00 0.  1.
         21    1    1    2  503  502 -0.97073586389E+01 -0.34564664145E+02  0.49464998335E+02  0.61120658369E+02  0.00000000000E+00 0.  1.
         21    1    1    2  504  503 -0.70417702285E+02 -0.12997165959E+02  0.12810319499E+04  0.12830317361E+04  0.00000000000E+00 0.  1.
         21    1    1    2  505  501 -0.31546755368E+02  0.94991901024E+01 -0.68106259025E+02  0.75656426728E+02  0.00000000000E+00 0.  1.
          2    1    1    2  501    0  0.11167181629E+03  0.38062640002E+02  0.10727721210E+04  0.10792401877E+04  0.00000000000E+00 0.  1.
<scales pt_clust_3="40.34213" pt_clust_4="14000.00000" pt_clust_5="32.94590" pt_clust_6="82.36215"></scales>
<clustering>
<clus scale="   32.946">  2  5  1 -1</clus>
<clus scale="   40.342">  2  3  1 -1</clus>
<clus scale="   82.362">  2  6  1 -1</clus>
<clus scale="   32.946">  2  3  1 -1</clus>
</clustering>
</event>
<event>
 6    0  0.2117869E+002  0.9900763E+02  0.7546771E-02  0.1282397E+00
          4   -1    0    0  505    0 -0.00000000000E+00  0.00000000000E+00  0.93712433127E+03  0.93712433127E+03  0.00000000000E+00 0.  1.
         21   -1    0    0  503  502  0.00000000000E+00 -0.00000000000E+00 -0.10055785004E+03  0.10055785004E+03  0.00000000000E+00 0.  1.
         21    1    1    2  503  504 -0.27468458239E+02 -0.35225781680E+02 -0.36144848075E+02  0.57461482189E+02  0.00000000000E+00 0.  1.
         21    1    1    2  504  501  0.34004138602E+02  0.13500540890E+03  0.47638666765E+02  0.14714681256E+03  0.00000000000E+00 0.  1.
         21    1    1    2  505  502 -0.18862915890E+02 -0.25545485780E+02  0.41054894536E+03  0.41177520321E+03  0.00000000000E+00 0. -1.
          4    1    1    2  501    0  0.12327235526E+02 -0.74234141441E+02  0.41452371719E+03  0.42129868336E+03  0.00000000000E+00 0.  1.
<scales pt_clust_3="45.31286" pt_clust_4="14000.00000" pt_clust_5="31.75502" pt_clust_6="99.00763"></scales>
<clustering>
<clus scale="   31.755">  1  5  2 -1</clus>
<clus scale="   45.313">  2  3  1 -1</clus>
<clus scale="   99.008">  1  6  2 -1</clus>
<clus scale="   45.313">  2  3  1 -1</clus>
</clustering>
</event>
<event>
 6    0  0.2117869E+002  0.1027142E+03  0.7546771E-02  0.1274690E+00
         21   -1    0    0  503  502  0.00000000000E+00  0.00000000000E+00  0.38704918444E+02  0.38704918444E+02  0.00000000000E+00 0. -1.
          2   -1    0    0  505    0 -0.00000000000E+00 -0.00000000000E+00 -0.36657168713E+04  0.36657168713E+04  0.00000000000E+00 0.  1.
         21    1    1    2  503  501 -0.25038145383E+02 -0.13086517008E+03 -0.55936668041E+03  0.57501624726E+03  0.00000000000E+00 0.  1.
         21    1    1    2  504  502  0.12739464233E+02  0.97432719456E+02 -0.54263186689E+02  0.11224937505E+03  0.00000000000E+00 0. -1.
         21    1    1    2  505  504  0.48600081006E+02 -0.17047701694E+02 -0.43709557429E+03  0.44011945318E+03  0.00000000000E+00 0.  1.
          2    1    1    2  501    0 -0.36301399856E+02  0.50480152317E+02 -0.25762865114E+04  0.25770367142E+04  0.00000000000E+00 0.  1.
<scales pt_clust_3="102.71425" pt_clust_4="14000.00000" pt_clust_5="51.50332" pt_clust_6="36.95341"></scales>
<clustering>
<clus scale="   51.503">  2  5  1 -1</clus>
<clus scale="   36.953">  2  6  1 -1</clus>
<clus scale="  102.714">  2  3  1 -1</clus>
<clus scale="  102.714">  1  3  2 -1</clus>
</clustering>
</event>
<event>
 6    0  0.2117869E+002  0.1173601E+03  0.7546771E-02  0.1247517E+00
         21   -1    0    0  501  502  0.00000000000E+00  0.00000000000E+00  0.26070232526E+03  0.26070232526E+03  0.00000000000E+00 0. -1.
          1   -1    0    0  503    0 -0.00000000000E+00 -0.00000000000E+00 -0.10865618835E+04  0.10865618835E+04  0.00000000000E+00 0.  1.
         21    1    1    2  503  505  0.13595393154E+02  0.32318990823E+02 -0.85623215988E+03  0.85694974386E+03  0.00000000000E+00 0.  1.
         21    1    1    2  504  502  0.32882373582E+01  0.39759403629E+02  0.10337322178E+03  0.11080453809E+03  0.00000000000E+00 0. -1.
         21    1    1    2  505  504 -0.10163625978E+02 -0.15875601185E+03  0.98588444597E+02  0.18715355193E+03  0.00000000000E+00 0. -1.
          1    1    1    2  501    0 -0.67200045342E+01  0.86677617402E+02 -0.17158906478E+03  0.19235637491E+03  0.00000000000E+00 0.  1.
<scales pt_clust_3="35.06211" pt_clust_4="40.43404" pt_clust_5="14000.00000" pt_clust_6="117.36005"></scales>
<clustering>
<clus scale="   35.062">  2  3  1 -1</clus>
<clus scale="   40.434">  1  4  2 -1</clus>
<clus scale="  117.360">  2  6  1 -1</clus>
<clus scale="   40.434">  1  3  2 -1</clus>
</clustering>
</event>
<event>
 6    0  0.2117869E+002  0.9338238E+02  0.7546771E-02  0.1294861E+00
         21   -1    0    0  505  502  0.00000000000E+00  0.00000000000E+00  0.38167748704E+02  0.38167748704E+02  0.00000000000E+00 0.  1.
         -3   -1    0    0    0  501 -0.00000000000E+00 -0.00000000000E+00 -0.13076741351E+04  0.13076741351E+04  0.00000000000E+00 0. -1.
         21    1    1    2  503  502 -0.98671104280E+02  0.34214412129E+02 -0.10239012457E+03  0.14625440310E+03  0.00000000000E+00 0.  1.
         21    1    1    2  504  501  0.17006114170E+00  0.34596270247E+02 -0.74919280312E+03  0.74999119134E+03  0.00000000000E+00 0. -1.
         21    1    1    2  505  504  0.59758309534E+02 -0.63801406377E+02 -0.11649015786E+03  0.14564213639E+03  0.00000000000E+00 0.  1.
         -3    1    1    2    0  503  0.38742733604E+02 -0.50092759983E+01 -0.30143330088E+03  0.30395415301E+03  0.00000000000E+00 0. -1.
<scales pt_clust_3="93.38238" pt_clust_4="34.59669" pt_clust_5="14000.00000" pt_clust_6="41.19901"></scales>
<clustering>
<clus scale="   34.597">  2  4  1 -1</clus>
<clus scale="   41.199">  2  6  1 -1</clus>
<clus scale="   93.382">  1  3  2 -1</clus>
<clus scale="   93.382">  1  3  2 -1</clus>
</clustering>
</event>
<event>
 6    0  0.2117869E+002  0.9143799E+02  0.7546771E-02  0.1299406E+00
         21   -1    0    0  501  502  0.00000000000E+00  0.00000000000E+00  0.15481652042E+04  0.15481652042E+04  0.00000000000E+00 0.  1.
          2   -1    0    0  503    0 -0.00000000000E+00 -0.00000000000E+00 -0.14678997228E+04  0.14678997228E+04  0.00000000000E+00 0.  1.
         21    1    1    2  503  504  0.23776219787E+02 -0.36797769787E+02 -0.33318094191E+02  0.55040711198E+02  0.00000000000E+00 0. -1.
         21    1    1    2  504  505  0.30897946329E+02 -0.50577516008E+02  0.46928556562E+03  0.47301343566E+03  0.00000000000E+00 0.  1.
         21    1    1    2  505  502  0.45622379846E+02 -0.11659618098E+01  0.10625163732E+04  0.10634960293E+04  0.00000000000E+00 0.  1.
          2    1    1    2  501    0 -0.10029654596E+03  0.88541247605E+02 -0.14182183632E+04  0.14245147509E+04  0.00000000000E+00 0.  1.
<scales pt_clust_3="43.81078" pt_clust_4="91.43799" pt_clust_5="45.64578" pt_clust_6="14000.00000"></scales>
<clustering>
<clus scale="   43.811">  2  3  1 -1</clus>
<clus scale="   45.646">  1  5  2 -1</clus>
<clus scale="   91.438">  1  4  2 -1</clus>
<clus scale="   45.646">  1  3  2 -1</clus>
</clustering>
</event>
<event>
 6    0  0.2117869E+002  0.9894043E+02  0.7546771E-02  0.1282540E+00
          2   -1    0    0  504    0 -0.00000000000E+00  0.00000000000E+00  0.61146185698E+03  0.61146185698E+03  0.00000000000E+00 0. -1.
         21   -1    0    0  503  502  0.00000000000E+00 -0.00000000000E+00 -0.26057037421E+04  0.26057037421E+04  0.00000000000E+00 0.  1.
         21    1    1    2  503  501 -0.40373072960E+02 -0.48825547849E+02 -0.23666653019E+04  0.23675131616E+04  0.00000000000E+00 0.  1.
         21    1    1    2  504  505 -0.78451251269E+02 -0.40175126134E+02  0.33605848879E+03  0.34742473641E+03  0.00000000000E+00 0. -1.
         21    1    1    2  505  502  0.28625119050E+02 -0.25610418951E+02 -0.21132512713E+03  0.21478733751E+03  0.00000000000E+00 0.  1.
          2    1    1    2  501    0  0.90199205179E+02  0.11461109293E+03  0.24769005508E+03  0.28744036360E+03  0.00000000000E+00 0. -1.
<scales pt_clust_3="75.13557" pt_clust_4="98.94043" pt_clust_5="38.40952" pt_clust_6="14000.00000"></scales>
<clustering>
<clus scale="   38.410">  2  5  1 -1</clus>
<clus scale="   75.136">  2  3  1 -1</clus>
<clus scale="   98.940">  1  4  2 -1</clus>
<clus scale="   38.410">  2  3  1 -1</clus>
</clustering>
</event>
<event>
 6    0  0.2117869E+002  0.6856264E+02  0.7546771E-02  0.1365050E+00
         21   -1    0    0  501  502  0.00000000000E+00  0.00000000000E+00  0.27581518891E+03  0.27581518891E+03  0.00000000000E+00 0. -1.
          1   -1    0    0  505    0 -0.00000000000E+00 -0.00000000000E+00 -0.30497493934E+03  0.30497493934E+03  0.00000000000E+00 0. -1.
         21    1    1    2  503  502  0.26266423404E+02 -0.17984966177E+02  0.75263541410E+02  0.81718937049E+02  0.00000000000E+00 0. -1.
         21    1    1    2  504  503 -0.79039169004E+02  0.41157882593E+02  0.14688609759E+03  0.17180421183E+03  0.00000000000E+00 0. -1.
         21    1    1    2  505  504 -0.45450042965E+02  0.74215645955E+01 -0.21230761426E+03  0.21724481375E+03  0.00000000000E+00 0. -1.
          1    1    1    2  501    0  0.98222788566E+02 -0.30594481012E+02 -0.39001775165E+02  0.11002216562E+03  0.00000000000E+00 0. -1.
<scales pt_clust_3="31.83369" pt_clust_4="14000.00000" pt_clust_5="45.69174" pt_clust_6="68.56264"></scales>
<clustering>
<clus scale="   31.834">  1  3  2 -1</clus>
<clus scale="   45.692">  2  5  1 -1</clus>
<clus scale="   68.563">  2  6  1 -1</clus>
<clus scale="   31.834">  1  3  2 -1</clus>
</clustering>
</event>
<event>
 6    0  0.2117869E+002  0.4507381E+03  0.7546771E-02  0.1027502E+00
          2   -1    0    0  503    0 -0.00000000000E+00  0.00000000000E+00  0.57994485876E+03  0.57994485876E+03  0.00000000000E+00 0. -1.
         21   -1    0    0  501  502  0.00000000000E+00 -0.00000000000E+00 -0.63246096117E+03  0.63246096117E+03  0.00000000000E+00 0. -1.
         21    1    1    2  503  505 -0.24970527055E+02  0.64885237532E+02  0.18498479384E+03  0.19761830691E+03  0.00000000000E+00 0. -1.
         21    1    1    2  504  502 -0.12242041938E+03 -0.38769237491E+03  0.37628926438E+02  0.40829899921E+03  0.00000000000E+00 0. -1.
         21    1    1    2  505  504 -0.52166095323E+02 -0.55886736305E+02  0.28598126982E+02  0.81624026260E+02  0.00000000000E+00 0. -1.
          2    1    1    2  501    0  0.19955704176E+03  0.37869387369E+03 -0.30372794967E+03  0.52486448755E+03  0.00000000000E+00 0. -1.
<scales pt_clust_3="69.52425" pt_clust_4="39.73323" pt_clust_5="39.73323" pt_clust_6="441.32656"></scales>
<clustering>
<clus scale="   39.733">  4  5 -1 -1</clus>
<clus scale="   69.524">  1  3  2 -1</clus>
<clus scale="  441.327">  2  6  1 -1</clus>
<clus scale="  441.327">  2  3  1 -1</clus>
</clustering>
</event>
<event>
 6    0  0.2117869E+002  0.1276084E+03  0.7546771E-02  0.1231048E+00
          2   -1    0    0  504    0 -0.00000000000E+00  0.00000000000E+00  0.16765057989E+04  0.16765057989E+04  0.00000000000E+00 0.  1.
         21   -1    0    0  503  502  0.00000000000E+00 -0.00000000000E+00 -0.61248864830E+03  0.61248864830E+03  0.00000000000E+00 0. -1.
         21    1    1    2  503  505 -0.56800734327E+02 -0.18146669193E+02 -0.49648204925E+03  0.50005004775E+03  0.00000000000E+00 0. -1.
         21    1    1    2  504  502  0.87488954826E+02 -0.38440142871E+02 -0.28859959977E+02  0.99824140819E+02  0.00000000000E+00 0. -1.
         21    1    1    2  505  501 -0.38676846184E+02 -0.73672273947E+02 -0.10571033580E+02  0.83876391972E+02  0.00000000000E+00 0.  1.
          2    1    1    2  501    0  0.79886256858E+01  0.13025908601E+03  0.15999301934E+04  0.16052438666E+04  0.00000000000E+00 0.  1.
<scales pt_clust_3="59.62906" pt_clust_4="73.80699" pt_clust_5="14000.00000" pt_clust_6="127.60842"></scales>
<clustering>
<clus scale="   59.629">  2  3  1 -1</clus>
<clus scale="   73.807">  2  4  1 -1</clus>
<clus scale="  127.608">  1  6  2 -1</clus>
<clus scale="   59.629">  2  3  1 -1</clus>
</clustering>
</event>
<event>
 6    0  0.2117869E+002  0.9304239E+02  0.7546771E-02  0.1295647E+00
          2   -1    0    0  504    0 -0.00000000000E+00  0.00000000000E+00  0.17235927431E+04  0.17235927431E+04  0.00000000000E+00 0.  1.
         21   -1    0    0  501  502  0.00000000000E+00 -0.00000000000E+00 -0.39176650866E+02  0.39176650866E+02  0.00000000000E+00 0.  1.
         21    1    1    2  503  502  0.71530728403E+02  0.51278566374E+02  0.40473549315E+02  0.96872311160E+02  0.00000000000E+00 0.  1.
         21    1    1    2  504  505 -0.35017656501E+02  0.85938596183E+01  0.44274998835E+03  0.44421576162E+03  0.00000000000E+00 0.  1.
         21    1    1    2  505  503 -0.89773330998E+02 -0.91212236565E+02  0.44696794615E+03  0.46492931500E+03  0.00000000000E+00 0. -1.
          2    1    1    2  501    0  0.53260259096E+02  0.31339810572E+02  0.75422460842E+03  0.75675200619E+03  0.00000000000E+00 0.  1.
<scales pt_clust_3="93.04239" pt_clust_4="36.05677" pt_clust_5="14000.00000" pt_clust_6="48.86883"></scales>
<clustering>
<clus scale="   36.057">  1  4  2 -1</clus>
<clus scale="   48.869">  1  6  2 -1</clus>
<clus scale="   93.042">  2  3  1 -1</clus>
<clus scale="   93.042">  2  3  1 -1</clus>
</clustering>
</event>
<event>
 6    0  0.2117869E+002  0.1117663E+03  0.7546771E-02  0.1257333E+00
         21   -1    0    0  504  502  0.00000000000E+00  0.00000000000E+00  0.15755871415E+04  0.15755871415E+04  0.00000000000E+00 0. -1.
         -1   -1    0    0    0  501 -0.00000000000E+00 -0.00000000000E+00 -0.14962387516E+03  0.14962387516E+03  0.00000000000E+00 0.  1.
         21    1    1    2  503  501  0.42580530593E+02  0.16533429783E+02  0.39472389145E+02  0.60369904678E+02  0.00000000000E+00 0.  1.
         21    1    1    2  504  503 -0.10880681726E+03  0.54661226758E+02  0.11947962021E+04  0.12009849032E+04  0.00000000000E+00 0. -1.
         21    1    1    2  505  502  0.93352808996E+02 -0.10090219583E+02  0.31221826896E+03  0.32603191094E+03  0.00000000000E+00 0.  1.
         -1    1    1    2    0  505 -0.27126522325E+02 -0.61104436958E+02 -0.12052359380E+03  0.13782429790E+03  0.00000000000E+00 0.  1.
<scales pt_clust_3="45.67774" pt_clust_4="14000.00000" pt_clust_5="111.76635" pt_clust_6="47.40792"></scales>
<clustering>
<clus scale="   45.678">  2  3  1 -1</clus>
<clus scale="   47.408">  2  6  1 -1</clus>
<clus scale="  111.766">  2  5  1 -1</clus>
<clus scale="  111.766">  1  3  2 -1</clus>
</clustering>
</event>
<event>
 6    0  0.2117869E+002  0.8417756E+02  0.7546771E-02  0.1317597E+00
         21   -1    0    0  501  502  0.00000000000E+00  0.00000000000E+00  0.25573938721E+03  0.25573938721E+03  0.00000000000E+00 0. -1.
          2   -1    0    0  504    0 -0.00000000000E+00 -0.00000000000E+00 -0.22014758791E+03  0.22014758791E+03  0.00000000000E+00 0.  1.
         21    1    1    2  503  505  0.69843232187E+02 -0.41982556813E+02  0.11133731826E+03  0.13797322420E+03  0.00000000000E+00 0. -1.
         21    1    1    2  504  503  0.30851616631E+02  0.97996858539E+01 -0.19043542133E+02  0.37556791511E+02  0.00000000000E+00 0. -1.
         21    1    1    2  505  502  0.12953286704E+02  0.50643887525E+02  0.95882178115E+02  0.10920614937E+03  0.00000000000E+00 0. -1.
          2    1    1    2  501    0 -0.11364813552E+03 -0.18461016566E+02 -0.15258415494E+03  0.19115081004E+03  0.00000000000E+00 0.  1.
<scales pt_clust_3="84.17756" pt_clust_4="32.37061" pt_clust_5="52.87795" pt_clust_6="14000.00000"></scales>
<clustering>
<clus scale="   32.371">  2  4  1 -1</clus>
<clus scale="   52.878">  1  5  2 -1</clus>
<clus scale="   84.178">  1  3  2 -1</clus>
<clus scale="   52.878">  1  3  2 -1</clus>
</clustering>
</event>
<event>
 6    0  0.2117869E+002  0.1271765E+03  0.7546771E-02  0.1231707E+00
          2   -1    0    0  504    0 -0.00000000000E+00  0.00000000000E+00  0.87709809169E+03  0.87709809169E+03  0.00000000000E+00 0. -1.
         21   -1    0    0  503  502  0.00000000000E+00 -0.00000000000E+00 -0.22728253107E+03  0.22728253107E+03  0.00000000000E+00 0. -1.
         21    1    1    2  503  501  0.13180725929E+03  0.64320709430E+02 -0.10279336337E+03  0.17909992411E+03  0.00000000000E+00 0. -1.
         21    1    1    2  504  505  0.49118248904E+01 -0.34909529026E+02  0.75490555840E+03  0.75572826025E+03  0.00000000000E+00 0. -1.
         21    1    1    2  505  502 -0.58844277906E+02  0.30193103650E+02 -0.21654500984E+02  0.69593030995E+02  0.00000000000E+00 0. -1.
          2    1    1    2  501    0 -0.77874806278E+02 -0.59604284054E+02  0.19357866570E+02  0.99959407404E+02  0.00000000000E+00 0. -1.
<scales pt_clust_3="14000.00000" pt_clust_4="35.25339" pt_clust_5="62.39975" pt_clust_6="127.17647"></scales>
<clustering>
<clus scale="   35.253">  1  4  2 -1</clus>
<clus scale="   62.400">  1  5  2 -1</clus>
<clus scale="  127.176">  1  6  2 -1</clus>
<clus scale="  127.176">  2  3  1 -1</clus>
</clustering>
</event>
<event>
 6    0  0.2117869E+002  0.1815537E+03  0.7546771E-02  0.1166308E+00
          2   -1    0    0  504    0 -0.00000000000E+00  0.00000000000E+00  0.18186385727E+04  0.18186385727E+04  0.00000000000E+00 0. -1.
         21   -1    0    0  501  502  0.00000000000E+00 -0.00000000000E+00 -0.75765644899E+02  0.75765644899E+02  0.00000000000E+00 0. -1.
         21    1    1    2  503  502  0.35186479165E+02 -0.13894348186E+01  0.14690272607E+02  0.38155248058E+02  0.00000000000E+00 0.  1.
         21    1    1    2  504  505  0.31648910592E+02  0.44726613372E+02  0.78513282944E+03  0.78704236439E+03  0.00000000000E+00 0. -1.
         21    1    1    2  505  503 -0.21747835183E+03 -0.20335969622E+02  0.15819907718E+03  0.26969859694E+03  0.00000000000E+00 0. -1.
          2    1    1    2  501    0  0.15064296207E+03 -0.23001208931E+02  0.78485074856E+03  0.79950800818E+03  0.00000000000E+00 0. -1.
<scales pt_clust_3="35.21390" pt_clust_4="55.07953" pt_clust_5="181.55373" pt_clust_6="14000.00000"></scales>
<clustering>
<clus scale="   35.214">  2  3  1 -1</clus>
<clus scale="   55.080">  1  4  2 -1</clus>
<clus scale="  181.554">  2  5  1 -1</clus>
<clus scale="   35.214">  2  3  1 -1</clus>
</clustering>
</event>
<event>
 6    0  0.2117869E+002  0.1633069E+03  0.7546771E-02  0.1185013E+00
         -2   -1    0    0    0  501 -0.00000000000E+00  0.00000000000E+00  0.14350555814E+04  0.14350555814E+04  0.00000000000E+00 0.  1.
         21   -1    0    0  505  502  0.00000000000E+00 -0.00000000000E+00 -0.42518348036E+03  0.42518348036E+03  0.00000000000E+00 0. -1.
         21    1    1    2  503  504 -0.42337588636E+01 -0.18846403514E+03  0.11523894158E+04  0.11677062914E+04  0.00000000000E+00 0.  1.
         21    1    1    2  504  501 -0.18927354377E+02  0.25497297155E+02  0.13410707434E+03  0.13781532678E+03  0.00000000000E+00 0.  1.
         21    1    1    2  505  503 -0.17902928638E+02  0.25005877854E+02 -0.37762482230E+03  0.37887506542E+03  0.00000000000E+00 0. -1.
         -2    1    1    2    0  502  0.41064041878E+02  0.13796086014E+03  0.10100043321E+03  0.17584237820E+03  0.00000000000E+00 0.  1.
<scales pt_clust_3="14000.00000" pt_clust_4="32.96941" pt_clust_5="30.75400" pt_clust_6="163.30695"></scales>
<clustering>
<clus scale="   30.754">  2  5  1 -1</clus>
<clus scale="   32.969">  1  4  2 -1</clus>
<clus scale="  163.307">  2  6  1 -1</clus>
<clus scale="   30.754">  2  3  1 -1</clus>
</clustering>
</event>
<event>
 6    0  0.2117869E+002  0.7188467E+02  0.7546771E-02  0.1353799E+00
          2   -1    0    0  503    0 -0.00000000000E+00  0.00000000000E+00  0.18186269332E+04  0.18186269332E+04  0.00000000000E+00 0. -1.
         21   -1    0    0  505  502  0.00000000000E+00 -0.00000000000E+00 -0.69869666913E+02  0.69869666913E+02  0.00000000000E+00 0. -1.
         21    1    1    2  503  504 -0.73574138485E+02  0.69338852942E+02  0.44660697828E+03  0.45790700304E+03  0.00000000000E+00 0. -1.
         21    1    1    2  504  502 -0.42045100125E+02  0.39915466509E+02 -0.21997114712E+02  0.62007321880E+02  0.00000000000E+00 0. -1.
         21    1    1    2  505  501  0.55974041099E+02 -0.77466276142E+02  0.85933169662E+02  0.12852481031E+03  0.00000000000E+00 0. -1.
          2    1    1    2  501    0  0.59645197511E+02 -0.31788043310E+02  0.12382142331E+04  0.12400574649E+04  0.00000000000E+00 0. -1.
<scales pt_clust_3="14000.00000" pt_clust_4="57.97443" pt_clust_5="52.66981" pt_clust_6="71.88467"></scales>
<clustering>
<clus scale="   57.974">  2  4  1 -1</clus>
<clus scale="   52.670">  2  5  1 -1</clus>
<clus scale="   71.885">  1  6  2 -1</clus>
<clus scale="   57.974">  2  3  1 -1</clus>
</clustering>
</event>
<event>
 6    0  0.2117869E+002  0.1153090E+03  0.7546771E-02  0.1251043E+00
         -2   -1    0    0    0  501 -0.00000000000E+00  0.00000000000E+00  0.23247367322E+04  0.23247367322E+04  0.00000000000E+00 0. -1.
         21   -1    0    0  503  502  0.00000000000E+00 -0.00000000000E+00 -0.19717337607E+03  0.19717337607E+03  0.00000000000E+00 0. -1.
         21    1    1    2  503  505  0.65259232676E+01  0.53398752206E+02 -0.18529325312E+02  0.56897717953E+02  0.00000000000E+00 0.  1.
         21    1    1    2  504  502  0.71361241790E+02  0.32870095302E+02 -0.14510315978E+03  0.16500847546E+03  0.00000000000E+00 0. -1.
         21    1    1    2  505  501  0.32670571748E+02 -0.11193889592E+02  0.12480251992E+03  0.12949261910E+03  0.00000000000E+00 0. -1.
         -2    1    1    2    0  504 -0.11055773680E+03 -0.75074957916E+02  0.21663933213E+04  0.21705112957E+04  0.00000000000E+00 0. -1.
<scales pt_clust_3="53.73445" pt_clust_4="14000.00000" pt_clust_5="34.53505" pt_clust_6="115.30897"></scales>
<clustering>
<clus scale="   34.535">  1  5  2 -1</clus>
<clus scale="   53.734">  2  3  1 -1</clus>
<clus scale="  115.309">  1  6  2 -1</clus>
<clus scale="   53.734">  2  3  1 -1</clus>
</clustering>
</event>
<event>
 6    0  0.2117869E+002  0.1991461E+03  0.7546771E-02  0.1150461E+00
          1   -1    0    0  504    0 -0.00000000000E+00  0.00000000000E+00  0.13955787969E+04  0.13955787969E+04  0.00000000000E+00 0.  1.
         21   -1    0    0  501  502  0.00000000000E+00 -0.00000000000E+00 -0.17816866436E+03  0.17816866436E+03  0.00000000000E+00 0. -1.
         21    1    1    2  503  502  0.11867575262E+03  0.68860829930E+02 -0.92612529602E+02  0.16553799805E+03  0.00000000000E+00 0. -1.
         21    1    1    2  504  505  0.31555698800E+02 -0.30001053603E+02  0.66939030239E+02  0.79853986208E+02  0.00000000000E+00 0. -1.
         21    1    1    2  505  503  0.13200806908E+03 -0.74850289046E+02  0.68871054583E+03  0.70523110539E+03  0.00000000000E+00 0.  1.
          1    1    1    2  501    0 -0.28223952050E+03  0.35990512719E+02  0.55437308603E+03  0.62312437157E+03  0.00000000000E+00 0.  1.
<scales pt_clust_3="137.54925" pt_clust_4="43.54108" pt_clust_5="199.14612" pt_clust_6="14000.00000"></scales>
<clustering>
<clus scale="   43.541">  1  4  2 -1</clus>
<clus scale="  137.549">  2  3  1 -1</clus>
<clus scale="  199.146">  1  5  2 -1</clus>
<clus scale="  137.549">  2  3  1 -1</clus>
</clustering>
</event>
<event>
 6    0  0.2117869E+002  0.6982911E+02  0.7546771E-02  0.1360675E+00
         21   -1    0    0  504  502  0.00000000000E+00  0.00000000000E+00  0.41594562004E+03  0.41594562004E+03  0.00000000000E+00 0. -1.
         -4   -1    0    0    0  501 -0.00000000000E+00 -0.00000000000E+00 -0.16807461349E+03  0.16807461349E+03  0.00000000000E+00 0. -1.
         21    1    1    2  503  505 -0.85827137768E+02 -0.39797584503E+02  0.33980352892E+03  0.35272735019E+03  0.00000000000E+00 0. -1.
         21    1    1    2  504  503  0.23883110970E+02  0.21600176652E+02  0.25275326889E+02  0.40936692225E+02  0.00000000000E+00 0.  1.
         21    1    1    2  505  501 -0.29864284154E+02 -0.21294676925E+02 -0.47139152909E+00  0.36681888492E+02  0.00000000000E+00 0.  1.
         -4    1    1    2    0  502  0.91808310952E+02  0.39492084777E+02 -0.11673645773E+03  0.15367430261E+03  0.00000000000E+00 0. -1.
<scales pt_clust_3="14000.00000" pt_clust_4="32.20203" pt_clust_5="35.16660" pt_clust_6="69.82911"></scales>
<clustering>
<clus scale="   32.202">  1  4  2 -1</clus>
<clus scale="   35.167">  2  5  1 -1</clus>
<clus scale="   69.829">  2  6  1 -1</clus>
<clus scale="   32.202">  1  3  2 -1</clus>
</clustering>
</event>
<event>
 6    0  0.2117869E+002  0.1299615E+03  0.7546771E-02  0.1227513E+00
         21   -1    0    0  503  502  0.00000000000E+00  0.00000000000E+00  0.18006366020E+03  0.18006366020E+03  0.00000000000E+00 0.  1.
          2   -1    0    0  504    0 -0.00000000000E+00 -0.00000000000E+00 -0.12477842678E+04  0.12477842678E+04  0.00000000000E+00 0. -1.
         21    1    1    2  503  501 -0.48119815779E+02  0.33120347080E+02  0.89608324639E+02  0.10696787324E+03  0.00000000000E+00 0.  1.
         21    1    1    2  504  505  0.12687122674E+03  0.88187990567E+02 -0.87786892544E+03  0.89136259744E+03  0.00000000000E+00 0. -1.
         21    1    1    2  505  502  0.27973659172E+02 -0.11730540950E+03  0.99751465244E+01  0.12100656285E+03  0.00000000000E+00 0. -1.
          2    1    1    2  501    0 -0.10672507013E+03 -0.40029281461E+01 -0.28943515328E+03  0.30851089443E+03  0.00000000000E+00 0. -1.
<scales pt_clust_3="58.41639" pt_clust_4="129.96152" pt_clust_5="91.39316" pt_clust_6="14000.00000"></scales>
<clustering>
<clus scale="   58.416">  1  3  2 -1</clus>
<clus scale="   91.393">  1  5  2 -1</clus>
<clus scale="  129.962">  2  4  1 -1</clus>
<clus scale="   58.416">  1  3  2 -1</clus>
</clustering>
</event>
<event>
 6    0  0.2117869E+002  0.1091550E+03  0.7546771E-02  0.1262143E+00
         21   -1    0    0  504  502  0.00000000000E+00  0.00000000000E+00  0.76366446177E+03  0.76366446177E+03  0.00000000000E+00 0. -1.
          4   -1    0    0  503    0 -0.00000000000E+00 -0.00000000000E+00 -0.65143594495E+03  0.65143594495E+03  0.00000000000E+00 0.  1.
         21    1    1    2  503  505 -0.56778012080E+01 -0.59069636898E+02 -0.17376801840E+03  0.18362130500E+03  0.00000000000E+00 0.  1.
         21    1    1    2  504  501 -0.98231418133E+01 -0.49762817592E+02 -0.47391698506E+01  0.50944007112E+02  0.00000000000E+00 0.  1.
         21    1    1    2  505  502  0.53860631688E+02  0.96400488512E+02  0.73056385207E+03  0.73886234427E+03  0.00000000000E+00 0. -1.
          4    1    1    2  501    0 -0.38359688667E+02  0.12431965977E+02 -0.43982814700E+03  0.44167275034E+03  0.00000000000E+00 0.  1.
<scales pt_clust_3="109.15504" pt_clust_4="50.37173" pt_clust_5="14000.00000" pt_clust_6="40.32393"></scales>
<clustering>
<clus scale="   40.324">  2  6  1 -1</clus>
<clus scale="   50.372">  2  4  1 -1</clus>
<clus scale="  109.155">  2  3  1 -1</clus>
<clus scale="  109.155">  1  3  2 -1</clus>
</clustering>
</event>
<event>
 6    0  0.2117869E+002  0.1162394E+03  0.7546771E-02  0.1249433E+00
          2   -1    0    0  503    0 -0.00000000000E+00  0.00000000000E+00  0.11429610034E+04  0.11429610034E+04  0.00000000000E+00 0.  1.
         21   -1    0    0  505  502  0.00000000000E+00 -0.00000000000E+00 -0.41796107251E+03  0.41796107251E+03  0.00000000000E+00 0.  1.
         21    1    1    2  503  502 -0.48637344998E+02 -0.10879823240E+03  0.96985294380E+03  0.97714757294E+03  0.00000000000E+00 0.  1.
         21    1    1    2  504  501  0.38091118335E+02 -0.20319247744E+02  0.20707459062E+02  0.47881144365E+02  0.00000000000E+00 0.  1.
         21    1    1    2  505  504  0.26483155918E+02  0.17703790769E+02 -0.37650862505E+03  0.37785384276E+03  0.00000000000E+00 0.  1.
          2    1    1    2  501    0 -0.15936929254E+02  0.11141368938E+03  0.11094815303E+03  0.15803951580E+03  0.00000000000E+00 0.  1.
<scales pt_clust_3="14000.00000" pt_clust_4="49.08099" pt_clust_5="31.85564" pt_clust_6="116.23944"></scales>
<clustering>
<clus scale="   31.856">  2  5  1 -1</clus>
<clus scale="   49.081">  2  4  1 -1</clus>
<clus scale="  116.239">  2  6  1 -1</clus>
<clus scale="   31.856">  2  3  1 -1</clus>
</clustering>
</event>
<event>
 6    0  0.2117869E+002  0.1106860E+03  0.7546771E-02  0.1259305E+00
          2   -1    0    0  504    0 -0.00000000000E+00  0.00000000000E+00  0.52863762647E+04  0.52863762647E+04  0.00000000000E+00 0.  1.
         21   -1    0    0  503  502  0.00000000000E+00 -0.00000000000E+00 -0.37591316848E+02  0.37591316848E+02  0.00000000000E+00 0. -1.
         21    1    1    2  503  501  0.45456441597E+02 -0.15610165735E+03  0.87656549238E+03  0.89151616807E+03  0.00000000000E+00 0. -1.
         21    1    1    2  504  505 -0.28321047762E+02  0.19355313758E+02  0.52894127654E+03  0.53005243509E+03  0.00000000000E+00 0. -1.
         21    1    1    2  505  502 -0.88526598635E+02  0.62312146233E+02  0.72683953366E+02  0.13039447577E+03  0.00000000000E+00 0. -1.
          2    1    1    2  501    0  0.71391204800E+02  0.74434197362E+02  0.37705942256E+04  0.37720045026E+04  0.00000000000E+00 0.  1.
<scales pt_clust_3="110.68596" pt_clust_4="34.30321" pt_clust_5="14000.00000" pt_clust_6="102.25090"></scales>
<clustering>
<clus scale="   34.303">  1  4  2 -1</clus>
<clus scale="  102.251">  1  6  2 -1</clus>
<clus scale="  110.686">  1  3  2 -1</clus>
<clus scale="  110.686">  2  3  1 -1</clus>
</clustering>
</event>
<event>
 6    0  0.2117869E+002  0.2729947E+03  0.7546771E-02  0.1099578E+00
          2   -1    0    0  503    0 -0.00000000000E+00  0.00000000000E+00  0.15418477763E+04  0.15418477763E+04  0.00000000000E+00 0. -1.
         21   -1    0    0  505  502  0.00000000000E+00 -0.00000000000E+00 -0.47469112916E+03  0.47469112916E+03  0.00000000000E+00 0.  1.
         21    1    1    2  503  502 -0.30730342688E+02  0.98588360336E+01  0.30688123074E+03  0.30857355750E+03  0.00000000000E+00 0. -1.
         21    1    1    2  504  501  0.16234800570E+03 -0.15495307421E+03  0.20129940291E+03  0.30147766048E+03  0.00000000000E+00 0.  1.
         21    1    1    2  505  504 -0.15901135043E+03  0.23410435718E+03 -0.37392763913E+03  0.46894705343E+03  0.00000000000E+00 0.  1.
          2    1    1    2  501    0  0.27393687417E+02 -0.89010119008E+02  0.93290365263E+03  0.93754063405E+03  0.00000000000E+00 0. -1.
<scales pt_clust_3="32.27306" pt_clust_4="14000.00000" pt_clust_5="272.99475" pt_clust_6="81.64237"></scales>
<clustering>
<clus scale="   32.273">  1  3  2 -1</clus>
<clus scale="   81.642">  1  6  2 -1</clus>
<clus scale="  272.995">  2  5  1 -1</clus>
<clus scale="  272.995">  2  3  1 -1</clus>
</clustering>
</event>
<event>
 6    0  0.2117869E+002  0.1179408E+03  0.7546771E-02  0.1246533E+00
         21   -1    0    0  505  502  0.00000000000E+00  0.00000000000E+00  0.23058797551E+04  0.23058797551E+04  0.00000000000E+00 0. -1.
         -2   -1    0    0    0  501 -0.00000000000E+00 -0.00000000000E+00 -0.11750923706E+03  0.11750923706E+03  0.00000000000E+00 0.  1.
         21    1    1    2  503  504 -0.10303582014E+03 -0.29556447397E+02  0.11338669044E+04  0.11389223506E+04  0.00000000000E+00 0. -1.
         21    1    1    2  504  502  0.79054684291E+00 -0.66068905240E+02  0.97052613872E+03  0.97277269243E+03  0.00000000000E+00 0. -1.
         21    1    1    2  505  501  0.21122203832E+02  0.10170799989E+03  0.16622302395E+03  0.19601213847E+03  0.00000000000E+00 0. -1.
         -2    1    1    2    0  503  0.81123069470E+02 -0.60826472536E+01 -0.82245548991E+02  0.11568181070E+03  0.00000000000E+00 0.  1.
<scales pt_clust_3="117.94078" pt_clust_4="66.07363" pt_clust_5="14000.00000" pt_clust_6="81.42674"></scales>
<clustering>
<clus scale="   66.074">  1  4  2 -1</clus>
<clus scale="   81.427">  2  6  1 -1</clus>
<clus scale="  117.941">  1  3  2 -1</clus>
<clus scale="   66.074">  1  3  2 -1</clus>
</clustering>
</event>
<event>
 6    0  0.2117869E+002  0.1083700E+03  0.7546771E-02  0.1263618E+00
         21   -1    0    0  505  502  0.00000000000E+00  0.00000000000E+00  0.22129637266E+03  0.22129637266E+03  0.00000000000E+00 0.  1.
          2   -1    0    0  502    0 -0.00000000000E+00 -0.00000000000E+00 -0.24778935223E+04  0.24778935223E+04  0.00000000000E+00 0.  1.
         21    1    1    2  503  504 -0.29593575977E+02  0.25577608692E+02 -0.21416861278E+01  0.39173723655E+02  0.00000000000E+00 0. -1.
         21    1    1    2  504  501 -0.78315732887E+02 -0.19592130519E+02 -0.63338341406E+03  0.63850744303E+03  0.00000000000E+00 0.  1.
         21    1    1    2  505  503 -0.26146746897E+02 -0.28382945121E+02  0.19579665548E+03  0.19956345919E+03  0.00000000000E+00 0.  1.
          2    1    1    2  501    0  0.13405605576E+03  0.22397466947E+02 -0.18168687049E+04  0.18219452691E+04  0.00000000000E+00 0.  1.
<scales pt_clust_3="50.20373" pt_clust_4="14000.00000" pt_clust_5="38.59072" pt_clust_6="108.37000"></scales>
<clustering>
<clus scale="   38.591">  1  5  2 -1</clus>
<clus scale="   50.204">  1  3  2 -1</clus>
<clus scale="  108.370">  2  6  1 -1</clus>
<clus scale="   38.591">  1  3  2 -1</clus>
</clustering>
</event>
<event>
 6    0  0.2117869E+002  0.8988868E+02  0.7546771E-02  0.1303121E+00
         21   -1    0    0  501  502  0.00000000000E+00  0.00000000000E+00  0.98368671310E+03  0.98368671310E+03  0.00000000000E+00 0. -1.
          2   -1    0    0  504    0 -0.00000000000E+00 -0.00000000000E+00 -0.72617293013E+03  0.72617293013E+03  0.00000000000E+00 0. -1.
         21    1    1    2  503  502  0.49004184014E+02  0.72468619261E+02  0.86103593794E+03  0.86546865758E+03  0.00000000000E+00 0. -1.
         21    1    1    2  504  505  0.25792276624E+02  0.25231003975E+02 -0.29859624217E+03  0.30076828446E+03  0.00000000000E+00 0. -1.
         21    1    1    2  505  503 -0.44382377756E+02 -0.13158164124E+03  0.77140677477E+02  0.15885278684E+03  0.00000000000E+00 0. -1.
          2    1    1    2  501    0 -0.30414082882E+02  0.33882018004E+02 -0.38206659027E+03  0.38476991434E+03  0.00000000000E+00 0. -1.
<scales pt_clust_3="14000.00000" pt_clust_4="36.08109" pt_clust_5="89.88868" pt_clust_6="57.02464"></scales>
<clustering>
<clus scale="   36.081">  2  4  1 -1</clus>
<clus scale="   57.025">  2  6  1 -1</clus>
<clus scale="   89.889">  2  5  1 -1</clus>
<clus scale="   89.889">  1  3  2 -1</clus>
</clustering>
</event>
<event>
 6    0  0.2117869E+002  0.1163526E+03  0.7546771E-02  0.1249238E+00
          2   -1    0    0  503    0 -0.00000000000E+00  0.00000000000E+00  0.14215529581E+04  0.14215529581E+04  0.00000000000E+00 0.  1.
         21   -1    0    0  501  502  0.00000000000E+00 -0.00000000000E+00 -0.13120824333E+03  0.13120824333E+03  0.00000000000E+00 0. -1.
         21    1    1    2  503  505  0.43868957477E+02 -0.24263884084E+02  0.20967424192E+03  0.21558411171E+03  0.00000000000E+00 0.  1.
         21    1    1    2  504  502  0.73692909489E+02  0.64993259094E+01 -0.41017175365E+02  0.84588975767E+02  0.00000000000E+00 0.  1.
         21    1    1    2  505  504 -0.64912273926E+02  0.11208860645E+03  0.38933934909E+01  0.12958633228E+03  0.00000000000E+00 0. -1.
          2    1    1    2  501    0 -0.52649593041E+02 -0.94324048274E+02  0.11177942547E+04  0.11230017817E+04  0.00000000000E+00 0.  1.
<scales pt_clust_3="50.13204" pt_clust_4="74.72975" pt_clust_5="14000.00000" pt_clust_6="116.35259"></scales>
<clustering>
<clus scale="   50.132">  1  3  2 -1</clus>
<clus scale="   74.730">  2  4  1 -1</clus>
<clus scale="  116.353">  1  6  2 -1</clus>
<clus scale="   74.730">  2  3  1 -1</clus>
</clustering>
</event>
<event>
 6    0  0.2117869E+002  0.1065934E+03  0.7546771E-02  0.1267012E+00
          1   -1    0    0  505    0 -0.00000000000E+00  0.00000000000E+00  0.58439328315E+03  0.58439328315E+03  0.00000000000E+00 0. -1.
         21   -1    0    0  503  502  0.00000000000E+00 -0.00000000000E+00 -0.38935305755E+03  0.38935305755E+03  0.00000000000E+00 0. -1.
         21    1    1    2  503  501  0.66063719232E+02  0.70898392035E+02 -0.32913510682E+03  0.34310481713E+03  0.00000000000E+00 0. -1.
         21    1    1    2  504  502 -0.30845246254E+02  0.35948732214E+02  0.85625165097E+01  0.48135820895E+02  0.00000000000E+00 0. -1.
         21    1    1    2  505  504  0.48317834260E+02 -0.40351587160E+02  0.76167934394E+01  0.63410403218E+02  0.00000000000E+00 0. -1.
          1    1    1    2  501    0 -0.83536307239E+02 -0.66495537089E+02  0.50799602247E+03  0.51909529947E+03  0.00000000000E+00 0. -1.
<scales pt_clust_3="106.59340" pt_clust_4="47.36814" pt_clust_5="59.42769" pt_clust_6="14000.00000"></scales>
<clustering>
<clus scale="   47.368">  2  4  1 -1</clus>
<clus scale="   59.428">  2  5  1 -1</clus>
<clus scale="  106.593">  2  3  1 -1</clus>
<clus scale="   47.368">  2  3  1 -1</clus>
</clustering>
</event>
<event>
 6    0  0.2117869E+002  0.1172451E+03  0.7546771E-02  0.1247712E+00
         21   -1    0    0  504  502  0.00000000000E+00  0.00000000000E+00  0.62083909327E+03  0.62083909327E+03  0.00000000000E+00 0.  1.
          1   -1    0    0  505    0 -0.00000000000E+00 -0.00000000000E+00 -0.28711539041E+04  0.28711539041E+04  0.00000000000E+00 0.  1.
         21    1    1    2  503  502 -0.73813483191E+02 -0.16911986877E+03  0.34777987644E+03  0.39370141322E+03  0.00000000000E+00 0.  1.
         21    1    1    2  504  501 -0.60986355147E+01  0.56300139602E+02 -0.36612536547E+02  0.67434241353E+02  0.00000000000E+00 0.  1.
         21    1    1    2  505  503  0.16753303332E+02  0.68829787087E+02  0.22879916689E+03  0.23951465829E+03  0.00000000000E+00 0.  1.
          1    1    1    2  501    0  0.63158815373E+02  0.43989942075E+02 -0.27902813177E+04  0.27913426846E+04  0.00000000000E+00 0.  1.
<scales pt_clust_3="14000.00000" pt_clust_4="56.62949" pt_clust_5="117.24508" pt_clust_6="76.99234"></scales>
<clustering>
<clus scale="   56.629">  1  4  2 -1</clus>
<clus scale="   76.992">  2  6  1 -1</clus>
<clus scale="  117.245">  2  5  1 -1</clus>
<clus scale="   56.629">  1  3  2 -1</clus>
</clustering>
</event>
<event>
 6    0  0.2117869E+002  0.1545806E+03  0.7546771E-02  0.1194955E+00
         -2   -1    0    0    0  501 -0.00000000000E+00  0.00000000000E+00  0.17794369379E+03  0.17794369379E+03  0.00000000000E+00 0.  1.
         21   -1    0    0  503  502  0.00000000000E+00 -0.00000000000E+00 -0.70060395212E+03  0.70060395212E+03  0.00000000000E+00 0.  1.
         21    1    1    2  503  501 -0.13921851825E+02 -0.33261296307E+02  0.44829109776E+02  0.57530695055E+02  0.00000000000E+00 0.  1.
         21    1    1    2  504  502  0.11271940721E+03 -0.21516411223E+02 -0.45082158979E+03  0.46519751346E+03  0.00000000000E+00 0.  1.
         21    1    1    2  505  504  0.20157711925E+02 -0.33717985478E+02 -0.18745351622E+03  0.19152560308E+03  0.00000000000E+00 0.  1.
         -2    1    1    2    0  505 -0.11895526731E+03  0.88495693009E+02  0.70785737899E+02  0.16429383431E+03  0.00000000000E+00 0.  1.
<scales pt_clust_3="36.05734" pt_clust_4="33.00954" pt_clust_5="33.00954" pt_clust_6="143.91733"></scales>
<clustering>
<clus scale="   33.010">  4  5 -1 -1</clus>
<clus scale="   36.057">  1  3  2 -1</clus>
<clus scale="  143.917">  1  6  2 -1</clus>
<clus scale="  154.581">  2  3  1 -1</clus>
</clustering>
</event>
<event>
 6    0  0.2117869E+002  0.7534962E+02  0.7546771E-02  0.1342792E+00
         21   -1    0    0  505  502  0.00000000000E+00  0.00000000000E+00  0.23282512894E+03  0.23282512894E+03  0.00000000000E+00 0. -1.
          2   -1    0    0  503    0 -0.00000000000E+00 -0.00000000000E+00 -0.19000355670E+04  0.19000355670E+04  0.00000000000E+00 0.  1.
         21    1    1    2  503  504 -0.72823750925E+02 -0.99418173141E+01 -0.12023583634E+04  0.12046027447E+04  0.00000000000E+00 0.  1.
         21    1    1    2  504  502 -0.44905801938E+02  0.52472222728E+01  0.75261988266E+02  0.87797672332E+02  0.00000000000E+00 0. -1.
         21    1    1    2  505  501  0.47854694337E+02 -0.48637774850E+02  0.13944282772E+03  0.15524176988E+03  0.00000000000E+00 0. -1.
          2    1    1    2  501    0  0.69874858525E+02  0.53332369892E+02 -0.67955689064E+03  0.68521850906E+03  0.00000000000E+00 0.  1.
<scales pt_clust_3="75.34962" pt_clust_4="45.21133" pt_clust_5="43.72241" pt_clust_6="14000.00000"></scales>
<clustering>
<clus scale="   45.211">  1  4  2 -1</clus>
<clus scale="   43.722">  1  5  2 -1</clus>
<clus scale="   75.350">  2  3  1 -1</clus>
<clus scale="   45.211">  1  3  2 -1</clus>
</clustering>
</event>
<event>
 6    0  0.2117869E+002  0.1041845E+03  0.7546771E-02  0.1271735E+00
          1   -1    0    0  503    0 -0.00000000000E+00  0.00000000000E+00  0.42781704916E+03  0.42781704916E+03  0.00000000000E+00 0.  1.
         21   -1    0    0  504  502  0.00000000000E+00 -0.00000000000E+00 -0.19333119510E+04  0.19333119510E+04  0.00000000000E+00 0.  1.
         21    1    1    2  503  505 -0.10364255449E+02  0.64159189527E+02  0.26338125930E+02  0.70125004594E+02  0.00000000000E+00 0.  1.
         21    1    1    2  504  501 -0.86752039637E+02 -0.39576840461E+02 -0.98840666729E+03  0.99299545952E+03  0.00000000000E+00 0.  1.
         21    1    1    2  505  502 -0.14385187364E+02  0.67455044790E+02 -0.90550662959E+03  0.90812960139E+03  0.00000000000E+00 0.  1.
          1    1    1    2  501    0  0.11150148245E+03 -0.92037393857E+02  0.36208026908E+03  0.38987893469E+03  0.00000000000E+00 0.  1.
<scales pt_clust_3="64.99092" pt_clust_4="104.18448" pt_clust_5="69.19612" pt_clust_6="14000.00000"></scales>
<clustering>
<clus scale="   64.991">  1  3  2 -1</clus>
<clus scale="   69.196">  2  5  1 -1</clus>
<clus scale="  104.184">  2  4  1 -1</clus>
<clus scale="   69.196">  2  3  1 -1</clus>
</clustering>
</event>
<event>
 6    0  0.2117869E+002  0.1139485E+03  0.7546771E-02  0.1253428E+00
         21   -1    0    0  503  502  0.00000000000E+00  0.00000000000E+00  0.92238778465E+02  0.92238778465E+02  0.00000000000E+00 0.  1.
          1   -1    0    0  504    0 -0.00000000000E+00 -0.00000000000E+00 -0.16251354858E+04  0.16251354858E+04  0.00000000000E+00 0.  1.
         21    1    1    2  503  505  0.91675360427E+02  0.24280223967E+02  0.56760740612E+02  0.11052457944E+03  0.00000000000E+00 0.  1.
         21    1    1    2  504  502  0.93872807360E+01  0.64249124402E+02 -0.22520985868E+03  0.23438334299E+03  0.00000000000E+00 0. -1.
         21    1    1    2  505  501 -0.53254009516E+02 -0.13762878693E+02 -0.36989471457E+03  0.37396190478E+03  0.00000000000E+00 0.  1.
          1    1    1    2  501    0 -0.47808631647E+02 -0.74766469676E+02 -0.99455287474E+03  0.99850443709E+03  0.00000000000E+00 0.  1.
<scales pt_clust_3="95.33485" pt_clust_4="64.93128" pt_clust_5="49.13684" pt_clust_6="49.13684"></scales>
<clustering>
<clus scale="   49.137">  5  6 -1 -1</clus>
<clus scale="   64.931">  2  4  1 -1</clus>
<clus scale="   95.335">  1  3  2 -1</clus>
<clus scale="   95.335">  1  3  2 -1</clus>
</clustering>
</event>
<event>
 6    0  0.2117869E+002  0.2991554E+03  0.7546771E-02  0.1085664E+00
         21   -1    0    0  505  502  0.00000000000E+00  0.00000000000E+00  0.21465799234E+04  0.21465799234E+04  0.00000000000E+00 0.  1.
          1   -1    0    0  503    0 -0.00000000000E+00 -0.00000000000E+00 -0.36499879427E+03  0.36499879427E+03  0.00000000000E+00 0. -1.
         21    1    1    2  503  502  0.33304385191E+03  0.34756854797E+02  0.52453744493E+03  0.62230681933E+03  0.00000000000E+00 0.  1.
         21    1    1    2  504  501 -0.71997139684E+02 -0.37553401339E+02  0.40763711310E+02  0.90859926451E+02  0.00000000000E+00 0. -1.
         21    1    1    2  505  504  0.33084966022E+02 -0.21835856649E+02  0.14321725840E+04  0.14327210929E+04  0.00000000000E+00 0.  1.
          1    1    1    2  501    0 -0.29413167825E+03  0.24632403191E+02 -0.21589261113E+03  0.36569087899E+03  0.00000000000E+00 0. -1.
<scales pt_clust_3="14000.00000" pt_clust_4="79.49398" pt_clust_5="39.64114" pt_clust_6="299.15543"></scales>
<clustering>
<clus scale="   39.641">  1  5  2 -1</clus>
<clus scale="   79.494">  1  4  2 -1</clus>
<clus scale="  299.155">  2  6  1 -1</clus>
<clus scale="   39.641">  1  3  2 -1</clus>
</clustering>
</event>
<event>
 6    0  0.2117869E+002  0.9925324E+02  0.7546771E-02  0.1281874E+00
          2   -1    0    0  503    0 -0.00000000000E+00  0.00000000000E+00  0.20865048632E+04  0.20865048632E+04  0.00000000000E+00 0.  1.
         21   -1    0    0  505  502  0.00000000000E+00 -0.00000000000E+00 -0.13294076165E+04  0.13294076165E+04  0.00000000000E+00 0. -1.
         21    1    1    2  503  504 -0.29926590361E+02  0.41664877624E+01  0.11096771643E+03  0.11500780200E+03  0.00000000000E+00 0.  1.
         21    1    1    2  504  502 -0.57298049721E+02 -0.52184848282E+02 -0.19577287971E+03  0.21055485110E+03  0.00000000000E+00 0. -1.
         21    1    1    2  505  501 -0.33103169682E+02  0.10440352946E+02 -0.11219344435E+04  0.11224712542E+04  0.00000000000E+00 0. -1.
          2    1    1    2  501    0  0.12032780976E+03  0.37578007573E+02  0.19638368535E+04  0.19678785724E+04  0.00000000000E+00 0.  1.
<scales pt_clust_3="30.21524" pt_clust_4="99.25324" pt_clust_5="34.71458" pt_clust_6="14000.00000"></scales>
<clustering>
<clus scale="   30.215">  1  3  2 -1</clus>
<clus scale="   34.715">  2  5  1 -1</clus>
<clus scale="   99.253">  2  4  1 -1</clus>
<clus scale="   34.715">  2  3  1 -1</clus>
</clustering>
</event>
<event>
 6    0  0.2117869E+002  0.8296743E+02  0.7546771E-02  0.1320835E+00
         21   -1    0    0  503  502  0.00000000000E+00  0.00000000000E+00  0.13633161023E+03  0.13633161023E+03  0.00000000000E+00 0. -1.
          1   -1    0    0  505    0 -0.00000000000E+00 -0.00000000000E+00 -0.85907228900E+03  0.85907228900E+03  0.00000000000E+00 0.  1.
         21    1    1    2  503  501 -0.10260504884E+03  0.21475947516E+02  0.53010822795E+02  0.11746982465E+03  0.00000000000E+00 0. -1.
         21    1    1    2  504  502  0.23105673151E+02 -0.20000053627E+02  0.37147433358E+02  0.48102038231E+02  0.00000000000E+00 0. -1.
         21    1    1    2  505  504 -0.38015062378E+02  0.44497853627E+01 -0.96127896387E+02  0.10346747325E+03  0.00000000000E+00 0.  1.
          1    1    1    2  501    0  0.11751443807E+03 -0.59256792520E+01 -0.71677103854E+03  0.72636456309E+03  0.00000000000E+00 0.  1.
<scales pt_clust_3="82.96743" pt_clust_4="30.55936" pt_clust_5="37.29088" pt_clust_6="14000.00000"></scales>
<clustering>
<clus scale="   30.559">  1  4  2 -1</clus>
<clus scale="   37.291">  2  5  1 -1</clus>
<clus scale="   82.967">  1  3  2 -1</clus>
<clus scale="   30.559">  1  3  2 -1</clus>
</clustering>
</event>
<event>
 6    0  0.2117869E+002  0.1153946E+03  0.7546771E-02  0.1250894E+00
         21   -1    0    0  503  502  0.00000000000E+00  0.00000000000E+00  0.59452525767E+02  0.59452525767E+02  0.00000000000E+00 0. -1.
          1   -1    0    0  504    0 -0.00000000000E+00 -0.00000000000E+00 -0.16044947959E+04  0.16044947959E+04  0.00000000000E+00 0. -1.
         21    1    1    2  503  505  0.56670903771E+02 -0.46862054128E+01  0.15707385933E+02  0.58993845681E+02  0.00000000000E+00 0. -1.
         21    1    1    2  504  502 -0.92681239435E+02  0.14188602174E+03 -0.46585297297E+03  0.49572214771E+03  0.00000000000E+00 0. -1.
         21    1    1    2  505  501  0.29855509513E+02 -0.73046541349E+02 -0.25657447397E+03  0.26843548451E+03  0.00000000000E+00 0.  1.
          1    1    1    2  501    0  0.61548261513E+01 -0.64153274975E+02 -0.83832220912E+03  0.84079584376E+03  0.00000000000E+00 0. -1.
<scales pt_clust_3="56.86433" pt_clust_4="115.39461" pt_clust_5="14000.00000" pt_clust_6="65.08713"></scales>
<clustering>
<clus scale="   56.864">  1  3  2 -1</clus>
<clus scale="   65.087">  2  6  1 -1</clus>
<clus scale="  115.395">  2  4  1 -1</clus>
<clus scale="   56.864">  1  3  2 -1</clus>
</clustering>
</event>
<event>
 6    0  0.2117869E+002  0.6485667E+02  0.7546771E-02  0.1378511E+00
          2   -1    0    0  503    0 -0.00000000000E+00  0.00000000000E+00  0.89788835236E+03  0.89788835236E+03  0.00000000000E+00 0.  1.
         21   -1    0    0  504  502  0.00000000000E+00 -0.00000000000E+00 -0.57529676462E+02  0.57529676462E+02  0.00000000000E+00 0.  1.
         21    1    1    2  503  505 -0.48397544614E+02 -0.13995496255E+02  0.16213472955E+03  0.16978182107E+03  0.00000000000E+00 0.  1.
         21    1    1    2  504  501  0.52492121524E+02 -0.67436646137E+01  0.60866802792E+02  0.80657718271E+02  0.00000000000E+00 0.  1.
         21    1    1    2  505  502 -0.98797703133E+02 -0.14789377229E+02  0.23574566901E+02  0.10264244750E+03  0.00000000000E+00 0.  1.
          2    1    1    2  501    0  0.94703126223E+02  0.35528538098E+02  0.59378257666E+03  0.60233604199E+03  0.00000000000E+00 0.  1.
<scales pt_clust_3="50.38051" pt_clust_4="48.49381" pt_clust_5="14000.00000" pt_clust_6="64.85667"></scales>
<clustering>
<clus scale="   50.381">  1  3  2 -1</clus>
<clus scale="   48.494">  2  4  1 -1</clus>
<clus scale="   64.857">  1  6  2 -1</clus>
<clus scale="   48.494">  2  3  1 -1</clus>
</clustering>
</event>
<event>
 6    0  0.2117869E+002  0.1269466E+03  0.7546771E-02  0.1232058E+00
         21   -1    0    0  504  502  0.00000000000E+00  0.00000000000E+00  0.11062636021E+03  0.11062636021E+03  0.00000000000E+00 0. -1.
          1   -1    0    0  503    0 -0.00000000000E+00 -0.00000000000E+00 -0.56314074039E+03  0.56314074039E+03  0.00000000000E+00 0. -1.
         21    1    1    2  503  505  0.70102965027E+02  0.10019201914E+02 -0.34206237906E+03  0.34931573295E+03  0.00000000000E+00 0. -1.
         21    1    1    2  504  501  0.94226443721E+01 -0.35736774481E+02 -0.18252914346E+02  0.41219803000E+02  0.00000000000E+00 0. -1.
         21    1    1    2  505  502 -0.11041184045E+03 -0.91825384221E+02 -0.29997463196E+02  0.14670556737E+03  0.00000000000E+00 0. -1.
          1    1    1    2  501    0  0.30886231047E+02  0.11754295679E+03 -0.62201623576E+02  0.13652599728E+03  0.00000000000E+00 0. -1.
<scales pt_clust_3="70.98429" pt_clust_4="36.95813" pt_clust_5="126.94664" pt_clust_6="14000.00000"></scales>
<clustering>
<clus scale="   36.958">  1  4  2 -1</clus>
<clus scale="   70.984">  2  3  1 -1</clus>
<clus scale="  126.947">  2  5  1 -1</clus>
<clus scale="   36.958">  1  3  2 -1</clus>
</clustering>
</event>
<event>
 6    0  0.2117869E+002  0.9827731E+02  0.7546771E-02  0.1283961E+00
          2   -1    0    0  504    0 -0.00000000000E+00  0.00000000000E+00  0.18837244019E+04  0.18837244019E+04  0.00000000000E+00 0. -1.
         21   -1    0    0  503  502  0.00000000000E+00 -0.00000000000E+00 -0.99334828547E+02  0.99334828547E+02  0.00000000000E+00 0.  1.
         21    1    1    2  503  501 -0.56656638623E+01  0.45628636219E+02  0.94392923933E+02  0.10499569648E+03  0.00000000000E+00 0.  1.
         21    1    1    2  504  505 -0.20262574920E+02 -0.45567570467E+02  0.13046810879E+03  0.13967427405E+03  0.00000000000E+00 0.  1.
         21    1    1    2  505  502  0.33684463251E+02 -0.13345158198E+03 -0.31962128281E+02  0.14129948847E+03  0.00000000000E+00 0.  1.
          2    1    1    2  501    0 -0.77562244682E+01  0.13339051623E+03  0.15914906689E+04  0.15970897714E+04  0.00000000000E+00 0. -1.
<scales pt_clust_3="45.97904" pt_clust_4="47.95542" pt_clust_5="98.27731" pt_clust_6="14000.00000"></scales>
<clustering>
<clus scale="   45.979">  2  3  1 -1</clus>
<clus scale="   47.955">  1  4  2 -1</clus>
<clus scale="   98.277">  2  5  1 -1</clus>
<clus scale="   45.979">  2  3  1 -1</clus>
</clustering>
</event>
<event>
 6    0  0.2117869E+002  0.1022570E+03  0.7546771E-02  0.1275620E+00
          1   -1    0    0  504    0 -0.00000000000E+00  0.00000000000E+00  0.15307824219E+04  0.15307824219E+04  0.00000000000E+00 0.  1.
         21   -1    0    0  505  502  0.00000000000E+00 -0.00000000000E+00 -0.62787145829E+02  0.62787145829E+02  0.00000000000E+00 0.  1.
         21    1    1    2  503  502 -0.37776314536E+02 -0.12331419180E+02 -0.27589017378E+02  0.48376313614E+02  0.00000000000E+00 0.  1.
         21    1    1    2  504  503 -0.86838342461E+02 -0.44448953054E+02  0.48969144605E+03  0.49931384868E+03  0.00000000000E+00 0.  1.
         21    1    1    2  505  501  0.96470652213E+01  0.89719634850E+02  0.11109574705E+03  0.14312562229E+03  0.00000000000E+00 0.  1.
          1    1    1    2  501    0  0.11496759178E+03 -0.32939262615E+02  0.89479710035E+03  0.90275378314E+03  0.00000000000E+00 0.  1.
<scales pt_clust_3="39.73807" pt_clust_4="102.25700" pt_clust_5="83.07654" pt_clust_6="14000.00000"></scales>
<clustering>
<clus scale="   39.738">  2  3  1 -1</clus>
<clus scale="   83.077">  2  5  1 -1</clus>
<clus scale="  102.257">  2  4  1 -1</clus>
<clus scale="   39.738">  2  3  1 -1</clus>
</clustering>
</event>
<event>
 6    0  0.2117869E+002  0.8020295E+02  0.7546771E-02  0.1328476E+00
          2   -1    0    0  505    0 -0.00000000000E+00  0.00000000000E+00  0.56626214119E+03  0.56626214119E+03  0.00000000000E+00 0.  1.
         21   -1    0    0  501  502  0.00000000000E+00 -0.00000000000E+00 -0.29561697886E+03  0.29561697886E+03  0.00000000000E+00 0. -1.
         21    1    1    2  503  502  0.36762561296E+02 -0.24796463818E+02 -0.16532123237E+03  0.17116500928E+03  0.00000000000E+00 0. -1.
         21    1    1    2  504  503 -0.10619988780E+03  0.55090262121E+02 -0.83212740618E+02  0.14573164842E+03  0.00000000000E+00 0.  1.
         21    1    1    2  505  504 -0.22638632320E+02 -0.43777658234E+02  0.66132434360E+02  0.82477208416E+02  0.00000000000E+00 0.  1.
          2    1    1    2  501    0  0.92075958826E+02  0.13483859931E+02  0.45304670095E+03  0.46250525394E+03  0.00000000000E+00 0.  1.
<scales pt_clust_3="44.34355" pt_clust_4="14000.00000" pt_clust_5="49.69493" pt_clust_6="80.20295"></scales>
<clustering>
<clus scale="   44.344">  2  3  1 -1</clus>
<clus scale="   49.695">  1  5  2 -1</clus>
<clus scale="   80.203">  1  6  2 -1</clus>
<clus scale="   44.344">  2  3  1 -1</clus>
</clustering>
</event>
<event>
 6    0  0.2117869E+002  0.1155422E+03  0.7546771E-02  0.1250638E+00
          1   -1    0    0  504    0 -0.00000000000E+00  0.00000000000E+00  0.39666847532E+03  0.39666847532E+03  0.00000000000E+00 0. -1.
         21   -1    0    0  503  502  0.00000000000E+00 -0.00000000000E+00 -0.35349439632E+03  0.35349439632E+03  0.00000000000E+00 0.  1.
         21    1    1    2  503  501  0.17846248850E+02 -0.45296379840E+02 -0.16068385854E+03  0.16789744793E+03  0.00000000000E+00 0.  1.
         21    1    1    2  504  505  0.18651931237E+01  0.40108441413E+02  0.88926464581E+01  0.41124751416E+02  0.00000000000E+00 0.  1.
         21    1    1    2  505  502 -0.74872880752E+02  0.13426151260E+03 -0.12084632212E+03  0.19554011253E+03  0.00000000000E+00 0.  1.
          1    1    1    2  501    0  0.55161438779E+02 -0.12907357417E+03  0.31581161320E+03  0.34560055977E+03  0.00000000000E+00 0. -1.
<scales pt_clust_3="48.32998" pt_clust_4="40.15179" pt_clust_5="115.54221" pt_clust_6="14000.00000"></scales>
<clustering>
<clus scale="   40.152">  1  4  2 -1</clus>
<clus scale="   48.330">  2  3  1 -1</clus>
<clus scale="  115.542">  2  5  1 -1</clus>
<clus scale="   48.330">  2  3  1 -1</clus>
</clustering>
</event>
<event>
 6    0  0.2117869E+002  0.1250238E+03  0.7546771E-02  0.1235032E+00
          2   -1    0    0  505    0 -0.00000000000E+00  0.00000000000E+00  0.13394168749E+04  0.13394168749E+04  0.00000000000E+00 0. -1.
         21   -1    0    0  503  502  0.00000000000E+00 -0.00000000000E+00 -0.36974980990E+02  0.36974980990E+02  0.00000000000E+00 0. -1.
         21    1    1    2  503  504  0.70577028987E+02  0.66661965357E+02  0.20293325613E+03  0.22495964325E+03  0.00000000000E+00 0. -1.
         21    1    1    2  504  501  0.49075754548E+02  0.70729536055E+01  0.29541459269E+03  0.29954672078E+03  0.00000000000E+00 0. -1.
         21    1    1    2  505  502 -0.15395773861E+03 -0.70260255838E+02  0.28363250832E+03  0.33028304317E+03  0.00000000000E+00 0. -1.
          2    1    1    2  501    0  0.34304955073E+02 -0.34746631242E+01  0.52046153676E+03  0.52160244868E+03  0.00000000000E+00 0. -1.
<scales pt_clust_3="125.02382" pt_clust_4="34.04583" pt_clust_5="14000.00000" pt_clust_6="92.90909"></scales>
<clustering>
<clus scale="   34.046">  4  6 -1 -1</clus>
<clus scale="   92.909">  1  4  2 -1</clus>
<clus scale="  125.024">  2  3  1 -1</clus>
<clus scale="  125.024">  2  3  1 -1</clus>
</clustering>
</event>
<event>
 6    0  0.2117869E+002  0.1377536E+03  0.7546771E-02  0.1216384E+00
         21   -1    0    0  503  502  0.00000000000E+00  0.00000000000E+00  0.47243220729E+03  0.47243220729E+03  0.00000000000E+00 0.  1.
          3   -1    0    0  504    0 -0.00000000000E+00 -0.00000000000E+00 -0.31044384467E+03  0.31044384467E+03  0.00000000000E+00 0.  1.
         21    1    1    2  503  501 -0.18433089945E+01  0.15431683243E+03  0.34803160884E+03  0.38071391268E+03  0.00000000000E+00 0.  1.
         21    1    1    2  504  505 -0.57865496420E+02  0.12130015460E+02 -0.72064743427E+02  0.93214163066E+02  0.00000000000E+00 0.  1.
         21    1    1    2  505  502 -0.45389291166E+02 -0.96964297116E+02  0.36111130099E+02  0.11298794796E+03  0.00000000000E+00 0. -1.
          3    1    1    2  501    0  0.10509809658E+03 -0.69482550776E+02 -0.15008963290E+03  0.19596002825E+03  0.00000000000E+00 0.  1.
<scales pt_clust_3="137.75359" pt_clust_4="59.12320" pt_clust_5="14000.00000" pt_clust_6="85.85688"></scales>
<clustering>
<clus scale="   59.123">  2  4  1 -1</clus>
<clus scale="   85.857">  2  6  1 -1</clus>
<clus scale="  137.754">  1  3  2 -1</clus>
<clus scale="  137.754">  1  3  2 -1</clus>
</clustering>
</event>
<event>
 6    0  0.2117869E+002  0.6626118E+02  0.7546771E-02  0.1373289E+00
         21   -1    0    0  504  502  0.00000000000E+00  0.00000000000E+00  0.79410459656E+03  0.79410459656E+03  0.00000000000E+00 0. -1.
          2   -1    0    0  505    0 -0.00000000000E+00 -0.00000000000E+00 -0.32994659614E+04  0.32994659614E+04  0.00000000000E+00 0. -1.
         21    1    1    2  503  502  0.31756333848E+01 -0.34589525829E+02  0.77659282962E+03  0.77736924493E+03  0.00000000000E+00 0. -1.
         21    1    1    2  504  501 -0.42293373735E+02  0.74633202436E+02 -0.13624172021E+03  0.16099891519E+03  0.00000000000E+00 0. -1.
         21    1    1    2  505  503 -0.10154745277E+01 -0.89842154645E+02 -0.45803674844E+03  0.46676579445E+03  0.00000000000E+00 0. -1.
          2    1    1    2  501    0  0.40133214877E+02  0.49798478039E+02 -0.26876757259E+04  0.26884366034E+04  0.00000000000E+00 0. -1.
<scales pt_clust_3="34.73500" pt_clust_4="14000.00000" pt_clust_5="66.26118" pt_clust_6="63.40570"></scales>
<clustering>
<clus scale="   34.735">  1  3  2 -1</clus>
<clus scale="   63.406">  2  6  1 -1</clus>
<clus scale="   66.261">  2  5  1 -1</clus>
<clus scale="   34.735">  1  3  2 -1</clus>
</clustering>
</event>
<event>
 6    0  0.2117869E+002  0.1233354E+03  0.7546771E-02  0.1237694E+00
         21   -1    0    0  505  502  0.00000000000E+00  0.00000000000E+00  0.75266525609E+03  0.75266525609E+03  0.00000000000E+00 0. -1.
         -1   -1    0    0    0  501 -0.00000000000E+00 -0.00000000000E+00 -0.19427634547E+03  0.19427634547E+03  0.00000000000E+00 0. -1.
         21    1    1    2  503  502  0.12299151760E+03  0.60138317154E+02  0.30374139369E+03  0.33317017398E+03  0.00000000000E+00 0. -1.
         21    1    1    2  504  501  0.42320656468E+02 -0.17459458890E+02 -0.77488617056E+02  0.90001980210E+02  0.00000000000E+00 0.  1.
         21    1    1    2  505  504 -0.94405993559E+02 -0.68117189559E+02  0.40352696297E+03  0.41998387228E+03  0.00000000000E+00 0. -1.
         -1    1    1    2    0  503 -0.70906180506E+02  0.25438331295E+02 -0.71390828982E+02  0.10378557509E+03  0.00000000000E+00 0. -1.
<scales pt_clust_3="14000.00000" pt_clust_4="45.78068" pt_clust_5="123.33542" pt_clust_6="39.12983"></scales>
<clustering>
<clus scale="   45.781">  2  4  1 -1</clus>
<clus scale="   39.130">  2  6  1 -1</clus>
<clus scale="  123.335">  1  5  2 -1</clus>
<clus scale="  123.335">  1  3  2 -1</clus>
</clustering>
</event>
<event>
 6    0  0.2117869E+002  0.9943234E+02  0.7546771E-02  0.1281494E+00
          3   -1    0    0  505    0 -0.00000000000E+00  0.00000000000E+00  0.67271679615E+03  0.67271679615E+03  0.00000000000E+00 0.  1.
         21   -1    0    0  504  502  0.00000000000E+00 -0.00000000000E+00 -0.38879422229E+03  0.38879422229E+03  0.00000000000E+00 0.  1.
         21    1    1    2  503  501 -0.50564881730E+02  0.11566463042E+02  0.13721312868E+03  0.14669026217E+03  0.00000000000E+00 0. -1.
         21    1    1    2  504  503  0.17200517281E+03  0.14754030353E+02 -0.15708153907E+03  0.23340537869E+03  0.00000000000E+00 0.  1.
         21    1    1    2  505  502 -0.78862924322E+02 -0.24729183942E+02 -0.17878381691E+03  0.19696331273E+03  0.00000000000E+00 0. -1.
          3    1    1    2  501    0 -0.42577366758E+02 -0.15913094521E+01  0.48257480116E+03  0.48445206486E+03  0.00000000000E+00 0.  1.
<scales pt_clust_3="83.15841" pt_clust_4="99.43234" pt_clust_5="14000.00000" pt_clust_6="42.60709"></scales>
<clustering>
<clus scale="   42.607">  1  6  2 -1</clus>
<clus scale="   83.158">  1  3  2 -1</clus>
<clus scale="   99.432">  1  4  2 -1</clus>
<clus scale="   99.432">  2  3  1 -1</clus>
</clustering>
</event>
<event>
 6    0  0.2117869E+002  0.1328920E+03  0.7546771E-02  0.1223227E+00
          1   -1    0    0  505    0 -0.00000000000E+00  0.00000000000E+00  0.50695787861E+03  0.50695787861E+03  0.00000000000E+00 0. -1.
         21   -1    0    0  504  502  0.00000000000E+00 -0.00000000000E+00 -0.15225921439E+04  0.15225921439E+04  0.00000000000E+00 0. -1.
         21    1    1    2  503  501  0.95437726260E+02  0.61421994359E+02 -0.90413269862E+03  0.91122826871E+03  0.00000000000E+00 0. -1.
         21    1    1    2  504  503 -0.21917692147E+02  0.51063009597E+02 -0.59737671248E+03  0.59995562568E+03  0.00000000000E+00 0. -1.
         21    1    1    2  505  502 -0.30308653592E+02 -0.12299041948E+02  0.30773305719E+03  0.30946650126E+03  0.00000000000E+00 0. -1.
          1    1    1    2  501    0 -0.43211380520E+02 -0.10018596201E+03  0.17814208858E+03  0.20889962689E+03  0.00000000000E+00 0. -1.
<scales pt_clust_3="132.89202" pt_clust_4="55.57277" pt_clust_5="32.70903" pt_clust_6="14000.00000"></scales>
<clustering>
<clus scale="   32.709">  1  5  2 -1</clus>
<clus scale="   55.573">  2  4  1 -1</clus>
<clus scale="  132.892">  2  3  1 -1</clus>
<clus scale="   55.573">  2  3  1 -1</clus>
</clustering>
</event>
<event>
 6    0  0.2117869E+002  0.1336298E+03  0.7546771E-02  0.1222167E+00
         21   -1    0    0  503  502  0.00000000000E+00  0.00000000000E+00  0.12093122028E+04  0.12093122028E+04  0.00000000000E+00 0.  1.
          1   -1    0    0  504    0 -0.00000000000E+00 -0.00000000000E+00 -0.39906529995E+03  0.39906529995E+03  0.00000000000E+00 0.  1.
         21    1    1    2  503  501  0.18285761104E+02 -0.42129290327E+02  0.11043218161E+04  0.11052763997E+04  0.00000000000E+00 0.  1.
         21    1    1    2  504  505 -0.59124043954E+01 -0.10601494692E+03 -0.12899899972E+03  0.16707742943E+03  0.00000000000E+00 0.  1.
         21    1    1    2  505  502 -0.39412141882E+01 -0.35889481687E+02  0.44291726616E+02  0.57143198297E+02  0.00000000000E+00 0. -1.
          1    1    1    2  501    0 -0.84321425202E+01  0.18403371894E+03 -0.20936764020E+03  0.27888047529E+03  0.00000000000E+00 0.  1.
<scales pt_clust_3="77.72215" pt_clust_4="133.62977" pt_clust_5="36.10524" pt_clust_6="14000.00000"></scales>
<clustering>
<clus scale="   36.105">  1  5  2 -1</clus>
<clus scale="   77.722">  1  3  2 -1</clus>
<clus scale="  133.630">  2  4  1 -1</clus>
<clus scale="   36.105">  1  3  2 -1</clus>
</clustering>
</event>
<event>
 6    0  0.2117869E+002  0.1136660E+03  0.7546771E-02  0.1253928E+00
          1   -1    0    0  505    0 -0.00000000000E+00  0.00000000000E+00  0.67375201575E+03  0.67375201575E+03  0.00000000000E+00 0. -1.
         21   -1    0    0  504  502  0.00000000000E+00 -0.00000000000E+00 -0.16223044800E+03  0.16223044800E+03  0.00000000000E+00 0.  1.
         21    1    1    2  503  502 -0.12601503745E+02  0.35324073439E+02  0.37712367181E+01  0.37693637226E+02  0.00000000000E+00 0. -1.
         21    1    1    2  504  501 -0.23047362043E+02 -0.28383498122E+02 -0.12220268433E+03  0.12755508583E+03  0.00000000000E+00 0.  1.
         21    1    1    2  505  503 -0.84206104445E+02  0.47774660696E+02  0.22685714371E+03  0.24665208266E+03  0.00000000000E+00 0. -1.
          1    1    1    2  501    0  0.11985497023E+03 -0.54715236014E+02  0.40309587165E+03  0.42408165804E+03  0.00000000000E+00 0. -1.
<scales pt_clust_3="32.17820" pt_clust_4="36.56233" pt_clust_5="113.66599" pt_clust_6="14000.00000"></scales>
<clustering>
<clus scale="   36.562">  2  4  1 -1</clus>
<clus scale="   32.178">  2  3  1 -1</clus>
<clus scale="  113.666">  1  5  2 -1</clus>
<clus scale="   36.562">  2  3  1 -1</clus>
</clustering>
</event>
<event>
 6    0  0.2117869E+002  0.1842348E+03  0.7546771E-02  0.1163766E+00
         21   -1    0    0  505  502  0.00000000000E+00  0.00000000000E+00  0.42309083436E+03  0.42309083436E+03  0.00000000000E+00 0. -1.
          1   -1    0    0  503    0 -0.00000000000E+00 -0.00000000000E+00 -0.97288332768E+03  0.97288332768E+03  0.00000000000E+00 0.  1.
         21    1    1    2  503  504  0.16777547029E+03  0.12187361108E+03  0.30006801756E+03  0.36475005233E+03  0.00000000000E+00 0. -1.
         21    1    1    2  504  502 -0.54310625141E+01 -0.55627121383E+02  0.72065762327E+02  0.91199491079E+02  0.00000000000E+00 0. -1.
         21    1    1    2  505  501 -0.50350309955E+02 -0.32149826065E+01 -0.17518034708E+03  0.18230097045E+03  0.00000000000E+00 0.  1.
          1    1    1    2  501    0 -0.11199409782E+03 -0.63031507092E+02 -0.74674592613E+03  0.75772364819E+03  0.00000000000E+00 0.  1.
<scales pt_clust_3="176.03566" pt_clust_4="55.89162" pt_clust_5="34.05405" pt_clust_6="34.05405"></scales>
<clustering>
<clus scale="   34.054">  5  6 -1 -1</clus>
<clus scale="   55.892">  1  4  2 -1</clus>
<clus scale="  176.036">  1  3  2 -1</clus>
<clus scale="   55.892">  1  3  2 -1</clus>
</clustering>
</event>
<event>
 6    0  0.2117869E+002  0.2198816E+03  0.7546771E-02  0.1133971E+00
          1   -1    0    0  503    0 -0.00000000000E+00  0.00000000000E+00  0.23608408081E+04  0.23608408081E+04  0.00000000000E+00 0. -1.
         21   -1    0    0  504  502  0.00000000000E+00 -0.00000000000E+00 -0.17866337831E+03  0.17866337831E+03  0.00000000000E+00 0.  1.
         21    1    1    2  503  505 -0.37164504443E+02 -0.24712316067E+01  0.32137826386E+03  0.32352943584E+03  0.00000000000E+00 0.  1.
         21    1    1    2  504  501 -0.90147172229E+02 -0.19031001267E+03 -0.68572514287E+01  0.21069275137E+03  0.00000000000E+00 0.  1.
         21    1    1    2  505  502  0.88049416132E+02  0.22250590931E+03  0.14063862590E+03  0.27756224969E+03  0.00000000000E+00 0.  1.
          1    1    1    2  501    0  0.39262260541E+02 -0.29724665031E+02  0.17270177914E+04  0.17277197495E+04  0.00000000000E+00 0. -1.
<scales pt_clust_3="37.24658" pt_clust_4="14000.00000" pt_clust_5="219.88158" pt_clust_6="32.75340"></scales>
<clustering>
<clus scale="   37.247">  1  3  2 -1</clus>
<clus scale="   32.753">  1  6  2 -1</clus>
<clus scale="  219.882">  1  5  2 -1</clus>
<clus scale="  219.882">  2  3  1 -1</clus>
</clustering>
</event>
<event>
 6    0  0.2117869E+002  0.9899209E+02  0.7546771E-02  0.1282430E+00
          2   -1    0    0  504    0 -0.00000000000E+00  0.00000000000E+00  0.21124310268E+04  0.21124310268E+04  0.00000000000E+00 0. -1.
         21   -1    0    0  503  502  0.00000000000E+00 -0.00000000000E+00 -0.45357390884E+02  0.45357390884E+02  0.00000000000E+00 0.  1.
         21    1    1    2  503  501 -0.60597697395E+02  0.46980306119E+02  0.25146173307E+03  0.26289205635E+03  0.00000000000E+00 0.  1.
         21    1    1    2  504  505 -0.29137542372E+02 -0.23384211747E+02  0.27626167510E+03  0.27877648908E+03  0.00000000000E+00 0. -1.
         21    1    1    2  505  502  0.58384486872E+02 -0.89167357876E+02  0.38213551352E+02  0.11322473901E+03  0.00000000000E+00 0.  1.
          2    1    1    2  501    0  0.31350752895E+02  0.65571263504E+02  0.15011366764E+04  0.15028951333E+04  0.00000000000E+00 0. -1.
<scales pt_clust_3="98.99209" pt_clust_4="37.36064" pt_clust_5="14000.00000" pt_clust_6="47.03126"></scales>
<clustering>
<clus scale="   37.361">  1  4  2 -1</clus>
<clus scale="   47.031">  1  6  2 -1</clus>
<clus scale="   98.992">  1  3  2 -1</clus>
<clus scale="   98.992">  2  3  1 -1</clus>
</clustering>
</event>
<event>
 6    0  0.2117869E+002  0.1863720E+03  0.7546771E-02  0.1161775E+00
          1   -1    0    0  504    0 -0.00000000000E+00  0.00000000000E+00  0.24437019147E+04  0.24437019147E+04  0.00000000000E+00 0. -1.
         21   -1    0    0  505  502  0.00000000000E+00 -0.00000000000E+00 -0.34908685788E+03  0.34908685788E+03  0.00000000000E+00 0. -1.
         21    1    1    2  503  502 -0.51010584271E+02 -0.62971039825E+02 -0.86099718753E+02  0.11823955824E+03  0.00000000000E+00 0. -1.
         21    1    1    2  504  503 -0.36558574147E+02 -0.49794927699E+02  0.39856878696E+03  0.40332758659E+03  0.00000000000E+00 0. -1.
         21    1    1    2  505  501 -0.89304637117E+02  0.18573167812E+03 -0.19566546539E+03  0.28417696743E+03  0.00000000000E+00 0. -1.
          1    1    1    2  501    0  0.17687379553E+03 -0.72965710594E+02  0.19778114540E+04  0.19870446603E+04  0.00000000000E+00 0. -1.
<scales pt_clust_3="81.52511" pt_clust_4="61.77430" pt_clust_5="186.37200" pt_clust_6="14000.00000"></scales>
<clustering>
<clus scale="   61.774">  1  4  2 -1</clus>
<clus scale="   81.525">  2  3  1 -1</clus>
<clus scale="  186.372">  2  5  1 -1</clus>
<clus scale="   81.525">  2  3  1 -1</clus>
</clustering>
</event>
<event>
 6    0  0.2117869E+002  0.1183183E+03  0.7546771E-02  0.1245897E+00
          2   -1    0    0  505    0 -0.00000000000E+00  0.00000000000E+00  0.28630550776E+04  0.28630550776E+04  0.00000000000E+00 0. -1.
         21   -1    0    0  504  502  0.00000000000E+00 -0.00000000000E+00 -0.24400308435E+03  0.24400308435E+03  0.00000000000E+00 0.  1.
         21    1    1    2  503  501  0.41470021713E+02  0.10088502073E+03 -0.52567516139E+02  0.12108217814E+03  0.00000000000E+00 0.  1.
         21    1    1    2  504  503 -0.45292227947E+02  0.18700388814E+02 -0.15173907945E+03  0.15945481707E+03  0.00000000000E+00 0.  1.
         21    1    1    2  505  502  0.68559979814E+01 -0.44458248963E+02  0.52200571330E+03  0.52394036429E+03  0.00000000000E+00 0.  1.
          2    1    1    2  501    0 -0.30337917472E+01 -0.75127160585E+02  0.23013528756E+04  0.23025808025E+04  0.00000000000E+00 0. -1.
<scales pt_clust_3="14000.00000" pt_clust_4="48.96255" pt_clust_5="44.98378" pt_clust_6="118.31835"></scales>
<clustering>
<clus scale="   44.984">  1  5  2 -1</clus>
<clus scale="   48.963">  2  4  1 -1</clus>
<clus scale="  118.318">  1  6  2 -1</clus>
<clus scale="   48.963">  2  3  1 -1</clus>
</clustering>
</event>
<event>
 6    0  0.2117869E+002  0.1094137E+03  0.7546771E-02  0.1261660E+00
         21   -1    0    0  505  502  0.00000000000E+00  0.00000000000E+00  0.12275171335E+03  0.12275171335E+03  0.00000000000E+00 0.  1.
          1   -1    0    0  503    0 -0.00000000000E+00 -0.00000000000E+00 -0.57452852907E+03  0.57452852907E+03  0.00000000000E+00 0.  1.
         21    1    1    2  503  504 -0.30332028335E+02  0.92175286268E+01 -0.50512515961E+02  0.59636474122E+02  0.00000000000E+00 0.  1.
         21    1    1    2  504  502 -0.45081295541E+02  0.36964810818E+02  0.34322928558E+02  0.67651931763E+02  0.00000000000E+00 0.  1.
         21    1    1    2  505  501  0.18010384103E+02 -0.13926195854E+03 -0.21930303805E+02  0.14212390811E+03  0.00000000000E+00 0.  1.
          1    1    1    2  501    0  0.57402939774E+02  0.93079619094E+02 -0.41365692451E+03  0.42786792843E+03  0.00000000000E+00 0.  1.
<scales pt_clust_3="31.70165" pt_clust_4="59.23978" pt_clust_5="14000.00000" pt_clust_6="109.41367"></scales>
<clustering>
<clus scale="   31.702">  2  3  1 -1</clus>
<clus scale="   59.240">  1  4  2 -1</clus>
<clus scale="  109.414">  2  6  1 -1</clus>
<clus scale="   59.240">  1  3  2 -1</clus>
</clustering>
</event>
<event>
 6    0  0.2117869E+002  0.1903402E+03  0.7546771E-02  0.1158155E+00
          2   -1    0    0  503    0 -0.00000000000E+00  0.00000000000E+00  0.48910654755E+03  0.48910654755E+03  0.00000000000E+00 0. -1.
         21   -1    0    0  504  502  0.00000000000E+00 -0.00000000000E+00 -0.21400221312E+04  0.21400221312E+04  0.00000000000E+00 0. -1.
         21    1    1    2  503  505 -0.32658407778E+02  0.16562147862E+02 -0.12063040081E+02  0.38553771234E+02  0.00000000000E+00 0.  1.
         21    1    1    2  504  501 -0.12015154938E+03 -0.14568235108E+03 -0.19343383615E+04  0.19435340591E+04  0.00000000000E+00 0. -1.
         21    1    1    2  505  502  0.19223672156E+03  0.11791026040E+03 -0.10195449427E+03  0.24749243529E+03  0.00000000000E+00 0.  1.
          2    1    1    2  501    0 -0.39426764408E+02  0.11209942812E+02  0.39744031224E+03  0.39954841304E+03  0.00000000000E+00 0. -1.
<scales pt_clust_3="36.61798" pt_clust_4="14000.00000" pt_clust_5="190.34017" pt_clust_6="71.32979"></scales>
<clustering>
<clus scale="   36.618">  1  3  2 -1</clus>
<clus scale="   71.330">  1  6  2 -1</clus>
<clus scale="  190.340">  1  5  2 -1</clus>
<clus scale="  190.340">  2  3  1 -1</clus>
</clustering>
</event>
<event>
 6    0  0.2117869E+002  0.1049938E+03  0.7546771E-02  0.1270132E+00
         -2   -1    0    0    0  501 -0.00000000000E+00  0.00000000000E+00  0.14731200429E+04  0.14731200429E+04  0.00000000000E+00 0. -1.
         21   -1    0    0  504  502  0.00000000000E+00 -0.00000000000E+00 -0.47235872194E+02  0.47235872194E+02  0.00000000000E+00 0. -1.
         21    1    1    2  503  501 -0.29611893789E+02 -0.40575004158E+02  0.28091398868E+03  0.28536969751E+03  0.00000000000E+00 0.  1.
         21    1    1    2  504  503  0.21174637931E+01 -0.32101052678E+02  0.52661685893E+02  0.61710731620E+02  0.00000000000E+00 0.  1.
         21    1    1    2  505  502 -0.84169994573E+02 -0.29833726606E+02  0.21581038825E+02  0.91871543290E+02  0.00000000000E+00 0. -1.
         -2    1    1    2    0  505  0.11166442457E+03  0.10250978344E+03  0.10707274573E+04  0.10814039427E+04  0.00000000000E+00 0. -1.
<scales pt_clust_3="51.53007" pt_clust_4="32.17081" pt_clust_5="104.99380" pt_clust_6="14000.00000"></scales>
<clustering>
<clus scale="   32.171">  2  4  1 -1</clus>
<clus scale="   51.530">  1  3  2 -1</clus>
<clus scale="  104.994">  2  5  1 -1</clus>
<clus scale="   32.171">  2  3  1 -1</clus>
</clustering>
</event>
<event>
 6    0  0.2117869E+002  0.1509252E+03  0.7546771E-02  0.1199341E+00
         21   -1    0    0  504  502  0.00000000000E+00  0.00000000000E+00  0.20812150511E+03  0.20812150511E+03  0.00000000000E+00 0. -1.
         -1   -1    0    0    0  501 -0.00000000000E+00 -0.00000000000E+00 -0.38961621283E+03  0.38961621283E+03  0.00000000000E+00 0. -1.
         21    1    1    2  503  505  0.39522396104E+02  0.91746020179E+02  0.25606878083E+02  0.10312644771E+03  0.00000000000E+00 0. -1.
         21    1    1    2  504  501  0.27196649135E+02 -0.29911444509E+02  0.58632968750E+02  0.71219219746E+02  0.00000000000E+00 0. -1.
         21    1    1    2  505  502  0.30809269492E+02  0.40974946933E+02  0.53512742634E+02  0.74106484109E+02  0.00000000000E+00 0. -1.
         -1    1    1    2    0  503 -0.97528314731E+02 -0.10280952260E+03 -0.31924729719E+03  0.34928556637E+03  0.00000000000E+00 0. -1.
<scales pt_clust_3="36.45892" pt_clust_4="40.42712" pt_clust_5="36.45892" pt_clust_6="142.08528"></scales>
<clustering>
<clus scale="   36.459">  3  5 -1 -1</clus>
<clus scale="   40.427">  1  4  2 -1</clus>
<clus scale="  142.085">  2  6  1 -1</clus>
<clus scale="   40.427">  1  3  2 -1</clus>
</clustering>
</event>
<event>
 6    0  0.2117869E+002  0.1243276E+03  0.7546771E-02  0.1236124E+00
          2   -1    0    0  505    0 -0.00000000000E+00  0.00000000000E+00  0.19468114668E+04  0.19468114668E+04  0.00000000000E+00 0. -1.
         21   -1    0    0  501  502  0.00000000000E+00 -0.00000000000E+00 -0.89787293713E+02  0.89787293713E+02  0.00000000000E+00 0. -1.
         21    1    1    2  503  502  0.74519503983E+01  0.29490764293E+02  0.54987175033E+00  0.30422674147E+02  0.00000000000E+00 0.  1.
         21    1    1    2  504  503  0.11337819063E+03  0.34153597402E+01 -0.18845024549E+02  0.11498440652E+03  0.00000000000E+00 0. -1.
         21    1    1    2  505  504 -0.31927896894E+01  0.34270278352E+02  0.12876880298E+04  0.12881479371E+04  0.00000000000E+00 0. -1.
          2    1    1    2  501    0 -0.11763735134E+03 -0.67176402386E+02  0.58763129607E+03  0.60304374268E+03  0.00000000000E+00 0. -1.
<scales pt_clust_3="30.41770" pt_clust_4="124.32763" pt_clust_5="34.50679" pt_clust_6="14000.00000"></scales>
<clustering>
<clus scale="   30.418">  2  3  1 -1</clus>
<clus scale="   34.507">  1  5  2 -1</clus>
<clus scale="  124.328">  2  4  1 -1</clus>
<clus scale="   30.418">  2  3  1 -1</clus>
</clustering>
</event>
<event>
 6    0  0.2117869E+002  0.7786587E+02  0.7546771E-02  0.1335219E+00
          2   -1    0    0  503    0 -0.00000000000E+00  0.00000000000E+00  0.18179256307E+04  0.18179256307E+04  0.00000000000E+00 0. -1.
         21   -1    0    0  505  502  0.00000000000E+00 -0.00000000000E+00 -0.86086415722E+02  0.86086415722E+02  0.00000000000E+00 0. -1.
         21    1    1    2  503  502 -0.12958092973E+02 -0.29653969236E+02 -0.23291090700E+02  0.39871606075E+02  0.00000000000E+00 0. -1.
         21    1    1    2  504  501 -0.83816126616E+02 -0.29254072450E+02  0.73444940451E+03  0.73979515517E+03  0.00000000000E+00 0. -1.
         21    1    1    2  505  504  0.22232623452E+02  0.64276678836E+02 -0.27602821335E+02  0.73400931421E+02  0.00000000000E+00 0. -1.
          2    1    1    2  501    0  0.74541596137E+02 -0.53686371497E+01  0.10482837225E+04  0.10509443538E+04  0.00000000000E+00 0. -1.
<scales pt_clust_3="32.36155" pt_clust_4="14000.00000" pt_clust_5="38.19511" pt_clust_6="77.86587"></scales>
<clustering>
<clus scale="   32.362">  2  3  1 -1</clus>
<clus scale="   38.195">  2  5  1 -1</clus>
<clus scale="   77.866">  1  6  2 -1</clus>
<clus scale="   32.362">  2  3  1 -1</clus>
</clustering>
</event>
<event>
 6    0  0.2117869E+002  0.1159859E+03  0.7546771E-02  0.1249870E+00
         -1   -1    0    0    0  501 -0.00000000000E+00  0.00000000000E+00  0.37786110274E+03  0.37786110274E+03  0.00000000000E+00 0.  1.
         21   -1    0    0  503  502  0.00000000000E+00 -0.00000000000E+00 -0.14039452416E+03  0.14039452416E+03  0.00000000000E+00 0.  1.
         21    1    1    2  503  505 -0.12113439700E+03 -0.40145566272E+02 -0.58705173594E+02  0.14046887924E+03  0.00000000000E+00 0.  1.
         21    1    1    2  504  502 -0.11763357026E+02  0.37391713050E+02  0.67975429841E+02  0.78467673825E+02  0.00000000000E+00 0.  1.
         21    1    1    2  505  501  0.96108450842E+02  0.13896142228E+02  0.36395483305E+02  0.10370423471E+03  0.00000000000E+00 0. -1.
         -1    1    1    2    0  504  0.36789303188E+02 -0.11142289006E+02  0.19180083903E+03  0.19561483912E+03  0.00000000000E+00 0.  1.
<scales pt_clust_3="115.98588" pt_clust_4="33.08564" pt_clust_5="14000.00000" pt_clust_6="38.43961"></scales>
<clustering>
<clus scale="   38.440">  1  6  2 -1</clus>
<clus scale="   33.086">  1  4  2 -1</clus>
<clus scale="  115.986">  2  3  1 -1</clus>
<clus scale="  115.986">  2  3  1 -1</clus>
</clustering>
</event>
<event>
 6    0  0.2117869E+002  0.2446525E+03  0.7546771E-02  0.1116732E+00
         21   -1    0    0  505  502  0.00000000000E+00  0.00000000000E+00  0.36591142645E+03  0.36591142645E+03  0.00000000000E+00 0.  1.
          2   -1    0    0  504    0 -0.00000000000E+00 -0.00000000000E+00 -0.77337113927E+03  0.77337113927E+03  0.00000000000E+00 0.  1.
         21    1    1    2  503  502  0.10385691109E+03 -0.27346110916E+03  0.16197926137E+03  0.33437182495E+03  0.00000000000E+00 0.  1.
         21    1    1    2  504  503  0.67594381290E+02  0.43232096463E+01 -0.18993352753E+03  0.20164928813E+03  0.00000000000E+00 0. -1.
         21    1    1    2  505  501 -0.74518906658E+00  0.64737756989E+02  0.60715362321E+02  0.88757465649E+02  0.00000000000E+00 0.  1.
          2    1    1    2  501    0 -0.17070610331E+03  0.20440014253E+03 -0.44022080898E+03  0.51450398699E+03  0.00000000000E+00 0.  1.
<scales pt_clust_3="244.65246" pt_clust_4="67.81314" pt_clust_5="64.74205" pt_clust_6="14000.00000"></scales>
<clustering>
<clus scale="   64.742">  1  5  2 -1</clus>
<clus scale="   67.813">  2  4  1 -1</clus>
<clus scale="  244.652">  1  3  2 -1</clus>
<clus scale="   64.742">  1  3  2 -1</clus>
</clustering>
</event>
<event>
 6    0  0.2117869E+002  0.1034631E+03  0.7546771E-02  0.1273178E+00
          2   -1    0    0  504    0 -0.00000000000E+00  0.00000000000E+00  0.84516863367E+03  0.84516863367E+03  0.00000000000E+00 0.  1.
         21   -1    0    0  505  502  0.00000000000E+00 -0.00000000000E+00 -0.56827550716E+02  0.56827550716E+02  0.00000000000E+00 0.  1.
         21    1    1    2  503  501 -0.15621113293E+02  0.69337076920E+02  0.94395962715E+01  0.71699061319E+02  0.00000000000E+00 0.  1.
         21    1    1    2  504  502  0.54660797505E+02 -0.10246185257E+02  0.39958416896E+03  0.40343561467E+03  0.00000000000E+00 0.  1.
         21    1    1    2  505  503  0.21629410796E+02  0.24396930981E+02 -0.11707971855E+01  0.32625334002E+02  0.00000000000E+00 0. -1.
          2    1    1    2  501    0 -0.60669095007E+02 -0.83487822645E+02  0.38048811491E+03  0.39423617440E+03  0.00000000000E+00 0.  1.
<scales pt_clust_3="30.23692" pt_clust_4="55.61283" pt_clust_5="30.23692" pt_clust_6="93.33580"></scales>
<clustering>
<clus scale="   30.237">  3  5 -1 -1</clus>
<clus scale="   55.613">  1  4  2 -1</clus>
<clus scale="   93.336">  1  6  2 -1</clus>
<clus scale="  103.463">  2  3  1 -1</clus>
</clustering>
</event>
<event>
 6    0  0.2117869E+002  0.1650983E+03  0.7546771E-02  0.1183058E+00
          2   -1    0    0  502    0 -0.00000000000E+00  0.00000000000E+00  0.66298438999E+03  0.66298438999E+03  0.00000000000E+00 0. -1.
         21   -1    0    0  503  502  0.00000000000E+00 -0.00000000000E+00 -0.17671242869E+04  0.17671242869E+04  0.00000000000E+00 0.  1.
         21    1    1    2  503  504  0.62060740458E+02  0.40849376697E+01 -0.13891439332E+04  0.13905355405E+04  0.00000000000E+00 0.  1.
         21    1    1    2  504  505 -0.54934926804E+02  0.14575107918E+03 -0.35017041435E+03  0.38324997372E+03  0.00000000000E+00 0. -1.
         21    1    1    2  505  501 -0.29927418840E+02 -0.53222348192E+02  0.16887758558E+03  0.17957702430E+03  0.00000000000E+00 0. -1.
          2    1    1    2  501    0  0.22801605185E+02 -0.96613668658E+02  0.46629686503E+03  0.47674613843E+03  0.00000000000E+00 0. -1.
<scales pt_clust_3="62.19503" pt_clust_4="149.81839" pt_clust_5="54.40400" pt_clust_6="54.40400"></scales>
<clustering>
<clus scale="   54.404">  5  6 -1 -1</clus>
<clus scale="   62.195">  2  3  1 -1</clus>
<clus scale="  149.818">  2  4  1 -1</clus>
<clus scale="   62.195">  2  3  1 -1</clus>
</clustering>
</event>
<event>
 6    0  0.2117869E+002  0.1109466E+03  0.7546771E-02  0.1258827E+00
          1   -1    0    0  504    0 -0.00000000000E+00  0.00000000000E+00  0.34981392579E+04  0.34981392579E+04  0.00000000000E+00 0. -1.
         21   -1    0    0  503  502  0.00000000000E+00 -0.00000000000E+00 -0.17638046120E+02  0.17638046120E+02  0.00000000000E+00 0.  1.
         21    1    1    2  503  501  0.81644383685E+02  0.29216203404E+02  0.13546205519E+03  0.16083954838E+03  0.00000000000E+00 0.  1.
         21    1    1    2  504  505  0.17517760757E+02  0.26881326196E+02  0.38446424384E+03  0.38580076780E+03  0.00000000000E+00 0. -1.
         21    1    1    2  505  502  0.10755695126E+02  0.33847985895E+02  0.12339737012E+03  0.12840670574E+03  0.00000000000E+00 0. -1.
          1    1    1    2  501    0 -0.10991783957E+03 -0.89945515496E+02  0.28371775427E+04  0.28407302821E+04  0.00000000000E+00 0. -1.
<scales pt_clust_3="110.94657" pt_clust_4="32.08547" pt_clust_5="36.76811" pt_clust_6="14000.00000"></scales>
<clustering>
<clus scale="   32.085">  1  4  2 -1</clus>
<clus scale="   36.768">  2  5  1 -1</clus>
<clus scale="  110.947">  2  3  1 -1</clus>
<clus scale="   36.768">  2  3  1 -1</clus>
</clustering>
</event>
<event>
 6    0  0.2117869E+002  0.4067104E+03  0.7546771E-02  0.1041481E+00
          1   -1    0    0  504    0 -0.00000000000E+00  0.00000000000E+00  0.18562009196E+04  0.18562009196E+04  0.00000000000E+00 0. -1.
         21   -1    0    0  503  502  0.00000000000E+00 -0.00000000000E+00 -0.60249901549E+03  0.60249901549E+03  0.00000000000E+00 0. -1.
         21    1    1    2  503  505 -0.12433523681E+03  0.39387762152E+03 -0.39947580333E+03  0.57461269503E+03  0.00000000000E+00 0. -1.
         21    1    1    2  504  502  0.13167763525E+02  0.48846143901E+02  0.12718329837E+03  0.13687559006E+03  0.00000000000E+00 0.  1.
         21    1    1    2  505  501  0.67172027596E+02 -0.37899267442E+03  0.22892564219E+03  0.44783309191E+03  0.00000000000E+00 0. -1.
          1    1    1    2  501    0  0.43995445685E+02 -0.63731091008E+02  0.12970687669E+04  0.12993785581E+04  0.00000000000E+00 0. -1.
<scales pt_clust_3="406.71037" pt_clust_4="50.58988" pt_clust_5="14000.00000" pt_clust_6="60.27209"></scales>
<clustering>
<clus scale="   50.590">  1  4  2 -1</clus>
<clus scale="   60.272">  1  6  2 -1</clus>
<clus scale="  406.710">  2  3  1 -1</clus>
<clus scale="  406.710">  2  3  1 -1</clus>
</clustering>
</event>
<event>
 6    0  0.2117869E+002  0.8768684E+02  0.7546771E-02  0.1308552E+00
         -1   -1    0    0    0  501 -0.00000000000E+00  0.00000000000E+00  0.17161273398E+03  0.17161273398E+03  0.00000000000E+00 0.  1.
         21   -1    0    0  504  502  0.00000000000E+00 -0.00000000000E+00 -0.37537921449E+03  0.37537921449E+03  0.00000000000E+00 0. -1.
         21    1    1    2  503  502  0.12226710188E+02  0.69842790840E+02 -0.13538595928E+03  0.15282953198E+03  0.00000000000E+00 0. -1.
         21    1    1    2  504  505 -0.19113038448E+02  0.24859880288E+02 -0.19304632368E+03  0.19557659618E+03  0.00000000000E+00 0. -1.
         21    1    1    2  505  501 -0.54423033445E+02 -0.20105461604E+02  0.46238931181E+02  0.74189857207E+02  0.00000000000E+00 0. -1.
         -1    1    1    2    0  503  0.61309361705E+02 -0.74597209524E+02  0.78426871261E+02  0.12439596311E+03  0.00000000000E+00 0.  1.
<scales pt_clust_3="87.68684" pt_clust_4="31.35796" pt_clust_5="58.78239" pt_clust_6="14000.00000"></scales>
<clustering>
<clus scale="   31.358">  2  4  1 -1</clus>
<clus scale="   58.782">  1  5  2 -1</clus>
<clus scale="   87.687">  2  3  1 -1</clus>
<clus scale="   31.358">  2  3  1 -1</clus>
</clustering>
</event>
<event>
 6    0  0.2117869E+002  0.7366863E+02  0.7546771E-02  0.1348044E+00
         21   -1    0    0  505  502  0.00000000000E+00  0.00000000000E+00  0.60973764809E+02  0.60973764809E+02  0.00000000000E+00 0. -1.
         -1   -1    0    0    0  501 -0.00000000000E+00 -0.00000000000E+00 -0.34136297043E+03  0.34136297043E+03  0.00000000000E+00 0. -1.
         21    1    1    2  503  502 -0.46521736798E+01 -0.33067079427E+02  0.13593637858E+02  0.36053591388E+02  0.00000000000E+00 0. -1.
         21    1    1    2  504  501 -0.32685884509E+01 -0.49217452260E+02 -0.62985490440E+02  0.80001333011E+02  0.00000000000E+00 0. -1.
         21    1    1    2  505  504 -0.68729730509E+02  0.23968018230E+02 -0.98205329904E+02  0.12223963586E+03  0.00000000000E+00 0. -1.
         -1    1    1    2    0  503  0.76650492640E+02  0.58316513457E+02 -0.13279202313E+03  0.16404217498E+03  0.00000000000E+00 0. -1.
<scales pt_clust_3="33.39273" pt_clust_4="57.16655" pt_clust_5="14000.00000" pt_clust_6="73.66863"></scales>
<clustering>
<clus scale="   33.393">  1  3  2 -1</clus>
<clus scale="   57.167">  2  4  1 -1</clus>
<clus scale="   73.669">  2  6  1 -1</clus>
<clus scale="   33.393">  1  3  2 -1</clus>
</clustering>
</event>
<event>
 6    0  0.2117869E+002  0.1032034E+03  0.7546771E-02  0.1273700E+00
         21   -1    0    0  503  502  0.00000000000E+00  0.00000000000E+00  0.53735512932E+02  0.53735512932E+02  0.00000000000E+00 0. -1.
          2   -1    0    0  504    0 -0.00000000000E+00 -0.00000000000E+00 -0.35461291047E+04  0.35461291047E+04  0.00000000000E+00 0. -1.
         21    1    1    2  503  501  0.55900913958E+02  0.51896332076E+02  0.19308895461E+02  0.78682748479E+02  0.00000000000E+00 0. -1.
         21    1    1    2  504  505 -0.99602353273E+01 -0.42669147002E+02 -0.80774960495E+03  0.80893713395E+03  0.00000000000E+00 0. -1.
         21    1    1    2  505  502  0.68269186061E+02 -0.55477622751E+02 -0.10167579793E+04  0.10205563369E+04  0.00000000000E+00 0. -1.
          2    1    1    2  501    0 -0.11420986469E+03  0.46250437678E+02 -0.16871949030E+04  0.16916883983E+04  0.00000000000E+00 0. -1.
<scales pt_clust_3="75.88326" pt_clust_4="43.81623" pt_clust_5="14000.00000" pt_clust_6="103.20343"></scales>
<clustering>
<clus scale="   43.816">  2  4  1 -1</clus>
<clus scale="   75.883">  1  3  2 -1</clus>
<clus scale="  103.203">  2  6  1 -1</clus>
<clus scale="   75.883">  1  3  2 -1</clus>
</clustering>
</event>
<event>
 6    0  0.2117869E+002  0.1378701E+03  0.7546771E-02  0.1216224E+00
         -1   -1    0    0    0  501 -0.00000000000E+00  0.00000000000E+00  0.66975813378E+02  0.66975813378E+02  0.00000000000E+00 0. -1.
         21   -1    0    0  505  502  0.00000000000E+00 -0.00000000000E+00 -0.99647571043E+03  0.99647571043E+03  0.00000000000E+00 0.  1.
         21    1    1    2  503  501 -0.64097208068E+02 -0.91918968485E+01  0.24676393271E+02  0.69295508041E+02  0.00000000000E+00 0. -1.
         21    1    1    2  504  502 -0.28120104708E+02 -0.41639870586E+02 -0.82648037971E+02  0.96722889182E+02  0.00000000000E+00 0. -1.
         21    1    1    2  505  503  0.14394314523E+03  0.53750219811E+02 -0.74553929685E+03  0.76120795998E+03  0.00000000000E+00 0.  1.
         -1    1    1    2    0  504 -0.51725832459E+02 -0.29184523762E+01 -0.12598895550E+03  0.13622516660E+03  0.00000000000E+00 0. -1.
<scales pt_clust_3="64.75294" pt_clust_4="47.98924" pt_clust_5="128.97124" pt_clust_6="47.98924"></scales>
<clustering>
<clus scale="   47.989">  4  6 -1 -1</clus>
<clus scale="   64.753">  1  3  2 -1</clus>
<clus scale="  128.971">  2  5  1 -1</clus>
<clus scale="  128.971">  2  3  1 -1</clus>
</clustering>
</event>
<event>
 6    0  0.2117869E+002  0.9776112E+02  0.7546771E-02  0.1285076E+00
          2   -1    0    0  504    0 -0.00000000000E+00  0.00000000000E+00  0.18935664718E+04  0.18935664718E+04  0.00000000000E+00 0. -1.
         21   -1    0    0  503  502  0.00000000000E+00 -0.00000000000E+00 -0.17786904944E+03  0.17786904944E+03  0.00000000000E+00 0. -1.
         21    1    1    2  503  501 -0.23228698796E+02 -0.26821263916E+02 -0.16669012825E+02  0.39202150889E+02  0.00000000000E+00 0. -1.
         21    1    1    2  504  505 -0.25118431199E+02  0.53202845597E+02  0.25092140255E+03  0.25772665486E+03  0.00000000000E+00 0. -1.
         21    1    1    2  505  502  0.12071468018E+03  0.26685689620E+02 -0.11897151806E+03  0.17157617012E+03  0.00000000000E+00 0. -1.
          2    1    1    2  501    0 -0.72367550188E+02 -0.53067271301E+02  0.16004165507E+04  0.16029305454E+04  0.00000000000E+00 0. -1.
<scales pt_clust_3="35.48172" pt_clust_4="58.51360" pt_clust_5="97.76112" pt_clust_6="14000.00000"></scales>
<clustering>
<clus scale="   35.482">  2  3  1 -1</clus>
<clus scale="   58.514">  1  4  2 -1</clus>
<clus scale="   97.761">  2  5  1 -1</clus>
<clus scale="   35.482">  2  3  1 -1</clus>
</clustering>
</event>
<event>
 6    0  0.2117869E+002  0.1694069E+03  0.7546771E-02  0.1178468E+00
         21   -1    0    0  505  502  0.00000000000E+00  0.00000000000E+00  0.70363900672E+02  0.70363900672E+02  0.00000000000E+00 0. -1.
          1   -1    0    0  502    0 -0.00000000000E+00 -0.00000000000E+00 -0.27924921708E+04  0.27924921708E+04  0.00000000000E+00 0.  1.
         21    1    1    2  503  504  0.30493929290E+02  0.36885040662E+02 -0.26945325994E+03  0.27367032218E+03  0.00000000000E+00 0. -1.
         21    1    1    2  504  501 -0.93233567002E+01  0.65122954073E+02 -0.35302406836E+03  0.35910154130E+03  0.00000000000E+00 0. -1.
         21    1    1    2  505  503  0.35383535310E+02 -0.17240536656E+03 -0.56365553894E+02  0.18480443895E+03  0.00000000000E+00 0. -1.
          1    1    1    2  501    0 -0.56554107900E+02  0.70397371829E+02 -0.20432853880E+04  0.20452797691E+04  0.00000000000E+00 0.  1.
<scales pt_clust_3="38.79026" pt_clust_4="38.79026" pt_clust_5="163.18798" pt_clust_6="90.30037"></scales>
<clustering>
<clus scale="   38.790">  3  4 -1 -1</clus>
<clus scale="   90.300">  2  6  1 -1</clus>
<clus scale="  163.188">  1  5  2 -1</clus>
<clus scale="  163.188">  1  3  2 -1</clus>
</clustering>
</event>
<event>
 6    0  0.2117869E+002  0.8139498E+02  0.7546771E-02  0.1325139E+00
         21   -1    0    0  501  502  0.00000000000E+00  0.00000000000E+00  0.13747717891E+03  0.13747717891E+03  0.00000000000E+00 0.  1.
          1   -1    0    0  504    0 -0.00000000000E+00 -0.00000000000E+00 -0.53142639405E+03  0.53142639405E+03  0.00000000000E+00 0. -1.
         21    1    1    2  503  505  0.50277551962E+02  0.52944695189E+02  0.39599829877E+02  0.83060938511E+02  0.00000000000E+00 0.  1.
         21    1    1    2  504  503  0.43754711106E+02  0.25227184701E+02 -0.88991858386E+02  0.10232515063E+03  0.00000000000E+00 0. -1.
         21    1    1    2  505  502  0.23057721336E+02 -0.20195952394E+02  0.55096185799E+02  0.63048589959E+02  0.00000000000E+00 0.  1.
          1    1    1    2  501    0 -0.11708998440E+03 -0.57975927497E+02 -0.39965337243E+03  0.42046889387E+03  0.00000000000E+00 0. -1.
<scales pt_clust_3="14000.00000" pt_clust_4="51.40627" pt_clust_5="30.65184" pt_clust_6="81.39498"></scales>
<clustering>
<clus scale="   30.652">  1  5  2 -1</clus>
<clus scale="   51.406">  2  4  1 -1</clus>
<clus scale="   81.395">  2  6  1 -1</clus>
<clus scale="   30.652">  1  3  2 -1</clus>
</clustering>
</event>
<event>
 6    0  0.2117869E+002  0.7630976E+02  0.7546771E-02  0.1339862E+00
         21   -1    0    0  504  502  0.00000000000E+00  0.00000000000E+00  0.18751357464E+02  0.18751357464E+02  0.00000000000E+00 0. -1.
          2   -1    0    0  505    0 -0.00000000000E+00 -0.00000000000E+00 -0.31996921551E+04  0.31996921551E+04  0.00000000000E+00 0. -1.
         21    1    1    2  503  502  0.51765824697E+02 -0.65966728918E+02 -0.18553911360E+03  0.20360764378E+03  0.00000000000E+00 0. -1.
         21    1    1    2  504  501 -0.14089683015E+02  0.72677104216E+02 -0.15412182000E+03  0.17097957786E+03  0.00000000000E+00 0. -1.
         21    1    1    2  505  503 -0.58436000266E+01  0.39391865611E+02 -0.40964275171E+03  0.41157387036E+03  0.00000000000E+00 0.  1.
          2    1    1    2  501    0 -0.31832541655E+02 -0.46102240909E+02 -0.24316371124E+04  0.24322824206E+04  0.00000000000E+00 0. -1.
<scales pt_clust_3="14000.00000" pt_clust_4="76.30976" pt_clust_5="39.82294" pt_clust_6="38.75349"></scales>
<clustering>
<clus scale="   39.823">  2  5  1 -1</clus>
<clus scale="   38.753">  2  6  1 -1</clus>
<clus scale="   76.310">  1  4  2 -1</clus>
<clus scale="   76.310">  1  3  2 -1</clus>
</clustering>
</event>
<event>
 6    0  0.2117869E+002  0.7660408E+02  0.7546771E-02  0.1338974E+00
         21   -1    0    0  501  502  0.00000000000E+00  0.00000000000E+00  0.23414476361E+03  0.23414476361E+03  0.00000000000E+00 0. -1.
          1   -1    0    0  503    0 -0.00000000000E+00 -0.00000000000E+00 -0.10636821727E+04  0.10636821727E+04  0.00000000000E+00 0. -1.
         21    1    1    2  503  504 -0.35198786006E+02 -0.22568658581E+02 -0.16322573062E+03  0.16849610685E+03  0.00000000000E+00 0. -1.
         21    1    1    2  504  505 -0.37178879715E+02  0.10730199505E+03  0.37971822452E+02  0.11974074720E+03  0.00000000000E+00 0. -1.
         21    1    1    2  505  502  0.53752996877E+02 -0.46960121010E+02  0.14375859609E+03  0.16050287096E+03  0.00000000000E+00 0. -1.
          1    1    1    2  501    0  0.18624668844E+02 -0.37773215462E+02 -0.84804209701E+03  0.84908721131E+03  0.00000000000E+00 0. -1.
<scales pt_clust_3="41.81266" pt_clust_4="76.60408" pt_clust_5="14000.00000" pt_clust_6="60.89061"></scales>
<clustering>
<clus scale="   41.813">  2  3  1 -1</clus>
<clus scale="   60.891">  2  6  1 -1</clus>
<clus scale="   76.604">  2  4  1 -1</clus>
<clus scale="   76.604">  1  3  2 -1</clus>
</clustering>
</event>
<event>
 6    0  0.2117869E+002  0.1438696E+03  0.7546771E-02  0.1208215E+00
          2   -1    0    0  504    0 -0.00000000000E+00  0.00000000000E+00  0.33396036695E+04  0.33396036695E+04  0.00000000000E+00 0. -1.
         21   -1    0    0  505  502  0.00000000000E+00 -0.00000000000E+00 -0.43053646976E+03  0.43053646976E+03  0.00000000000E+00 0. -1.
         21    1    1    2  503  502 -0.15097348953E+02 -0.11028845300E+03  0.70219071141E+03  0.71095939968E+03  0.00000000000E+00 0. -1.
         21    1    1    2  504  503 -0.72393704703E+00 -0.97534916388E+02  0.23948148575E+04  0.23968003225E+04  0.00000000000E+00 0. -1.
         21    1    1    2  505  501  0.30685106282E+02  0.78907850614E+02 -0.40267437709E+03  0.41147864902E+03  0.00000000000E+00 0. -1.
          2    1    1    2  501    0 -0.14863820282E+02  0.12891551877E+03  0.21473600789E+03  0.25090176807E+03  0.00000000000E+00 0. -1.
<scales pt_clust_3="14000.00000" pt_clust_4="94.19760" pt_clust_5="84.66419" pt_clust_6="143.86955"></scales>
<clustering>
<clus scale="   84.664">  2  5  1 -1</clus>
<clus scale="   94.198">  1  4  2 -1</clus>
<clus scale="  143.870">  2  6  1 -1</clus>
<clus scale="   84.664">  2  3  1 -1</clus>
</clustering>
</event>
<event>
 6    0  0.2117869E+002  0.7731453E+02  0.7546771E-02  0.1336850E+00
          1   -1    0    0  503    0 -0.00000000000E+00  0.00000000000E+00  0.60795990754E+03  0.60795990754E+03  0.00000000000E+00 0.  1.
         21   -1    0    0  504  502  0.00000000000E+00 -0.00000000000E+00 -0.87051639605E+03  0.87051639605E+03  0.00000000000E+00 0.  1.
         21    1    1    2  503  505 -0.12860147840E+02 -0.57442582373E+02  0.39602177647E+02  0.70946220100E+02  0.00000000000E+00 0.  1.
         21    1    1    2  504  501 -0.82677843475E+02 -0.41581916673E+02 -0.72789450803E+03  0.73375411169E+03  0.00000000000E+00 0.  1.
         21    1    1    2  505  502  0.34139329011E+02 -0.17582318885E+02 -0.11290061540E+03  0.11925259193E+03  0.00000000000E+00 0. -1.
          1    1    1    2  501    0  0.61398662303E+02  0.11660681793E+03  0.53863645728E+03  0.55452337988E+03  0.00000000000E+00 0.  1.
<scales pt_clust_3="59.07106" pt_clust_4="77.31453" pt_clust_5="38.40093" pt_clust_6="14000.00000"></scales>
<clustering>
<clus scale="   38.401">  2  5  1 -1</clus>
<clus scale="   59.071">  1  3  2 -1</clus>
<clus scale="   77.315">  2  4  1 -1</clus>
<clus scale="   38.401">  2  3  1 -1</clus>
</clustering>
</event>
<event>
 6    0  0.2117869E+002  0.8261936E+02  0.7546771E-02  0.1321778E+00
         21   -1    0    0  504  502  0.00000000000E+00  0.00000000000E+00  0.43615894881E+02  0.43615894881E+02  0.00000000000E+00 0.  1.
         -3   -1    0    0    0  501 -0.00000000000E+00 -0.00000000000E+00 -0.76766435850E+03  0.76766435850E+03  0.00000000000E+00 0. -1.
         21    1    1    2  503  505 -0.22223547325E+02  0.47567717905E+02 -0.17133719626E+02  0.55228056191E+02  0.00000000000E+00 0.  1.
         21    1    1    2  504  503  0.29996550107E+02 -0.18487313934E+02 -0.66864910650E+01  0.35864787153E+02  0.00000000000E+00 0.  1.
         21    1    1    2  505  501 -0.12169855182E+01  0.69084427611E+02 -0.25298696346E+03  0.26225282243E+03  0.00000000000E+00 0. -1.
         -3    1    1    2    0  502 -0.65560172636E+01 -0.98164831581E+02 -0.44724128947E+03  0.45793458761E+03  0.00000000000E+00 0. -1.
<scales pt_clust_3="35.52737" pt_clust_4="35.23597" pt_clust_5="82.61936" pt_clust_6="14000.00000"></scales>
<clustering>
<clus scale="   35.236">  1  4  2 -1</clus>
<clus scale="   35.527">  1  3  2 -1</clus>
<clus scale="   82.619">  2  5  1 -1</clus>
<clus scale="   35.236">  1  3  2 -1</clus>
</clustering>
</event>
<event>
 6    0  0.2117869E+002  0.1033839E+03  0.7546771E-02  0.1273337E+00
         21   -1    0    0  503  502  0.00000000000E+00  0.00000000000E+00  0.16652744573E+03  0.16652744573E+03  0.00000000000E+00 0.  1.
          2   -1    0    0  505    0 -0.00000000000E+00 -0.00000000000E+00 -0.14268674025E+04  0.14268674025E+04  0.00000000000E+00 0. -1.
         21    1    1    2  503  504 -0.79293655315E+01 -0.33840075497E+02 -0.42514151459E+02  0.54913373796E+02  0.00000000000E+00 0.  1.
         21    1    1    2  504  501 -0.71484298386E+02 -0.19847688911E+01 -0.31972078527E+02  0.78333632806E+02  0.00000000000E+00 0.  1.
         21    1    1    2  505  502  0.70274104294E+02 -0.67795027536E+02  0.11742777568E+03  0.15272163565E+03  0.00000000000E+00 0.  1.
          2    1    1    2  501    0  0.91395596233E+01  0.10361987192E+03 -0.13032815024E+04  0.13074262060E+04  0.00000000000E+00 0. -1.
<scales pt_clust_3="34.75666" pt_clust_4="72.95565" pt_clust_5="103.38386" pt_clust_6="14000.00000"></scales>
<clustering>
<clus scale="   34.757">  1  3  2 -1</clus>
<clus scale="   72.956">  1  4  2 -1</clus>
<clus scale="  103.384">  1  5  2 -1</clus>
<clus scale="   34.757">  1  3  2 -1</clus>
</clustering>
</event>
<event>
 6    0  0.2117869E+002  0.1337215E+03  0.7546771E-02  0.1222036E+00
          2   -1    0    0  503    0 -0.00000000000E+00  0.00000000000E+00  0.32099060919E+04  0.32099060919E+04  0.00000000000E+00 0. -1.
         21   -1    0    0  504  502  0.00000000000E+00 -0.00000000000E+00 -0.33185730946E+02  0.33185730946E+02  0.00000000000E+00 0. -1.
         21    1    1    2  503  505 -0.16406759940E+02  0.30769996758E+02  0.12859409963E+04  0.12864137050E+04  0.00000000000E+00 0. -1.
         21    1    1    2  504  501  0.54707735111E+02  0.12334115523E+03  0.15470610393E+03  0.20528018767E+03  0.00000000000E+00 0. -1.
         21    1    1    2  505  502 -0.13223823346E+02 -0.13425800347E+03  0.60442318953E+03  0.61929594948E+03  0.00000000000E+00 0. -1.
          2    1    1    2  501    0 -0.25077151825E+02 -0.19853148516E+02  0.11316500712E+04  0.11321019807E+04  0.00000000000E+00 0. -1.
<scales pt_clust_3="36.89155" pt_clust_4="14000.00000" pt_clust_5="133.72152" pt_clust_6="31.98454"></scales>
<clustering>
<clus scale="   31.985">  1  6  2 -1</clus>
<clus scale="   36.892">  1  3  2 -1</clus>
<clus scale="  133.722">  1  5  2 -1</clus>
<clus scale="  133.722">  2  3  1 -1</clus>
</clustering>
</event>
<event>
 6    0  0.2117869E+002  0.7964888E+02  0.7546771E-02  0.1330051E+00
         21   -1    0    0  504  502  0.00000000000E+00  0.00000000000E+00  0.14588511163E+03  0.14588511163E+03  0.00000000000E+00 0. -1.
          2   -1    0    0  503    0 -0.00000000000E+00 -0.00000000000E+00 -0.43758519208E+03  0.43758519208E+03  0.00000000000E+00 0.  1.
         21    1    1    2  503  502  0.21130417665E+02  0.56439409870E+02 -0.24670273791E+03  0.25395696964E+03  0.00000000000E+00 0.  1.
         21    1    1    2  504  505 -0.17004139087E+01  0.43149755432E+02  0.61707217885E+02  0.75316489167E+02  0.00000000000E+00 0. -1.
         21    1    1    2  505  501 -0.76441418398E+02 -0.12409002889E+02  0.29373984155E+02  0.82825749285E+02  0.00000000000E+00 0. -1.
          2    1    1    2  501    0  0.57011414643E+02 -0.87180162413E+02 -0.13607854458E+03  0.17137109562E+03  0.00000000000E+00 0.  1.
<scales pt_clust_3="62.13662" pt_clust_4="43.18325" pt_clust_5="79.64888" pt_clust_6="14000.00000"></scales>
<clustering>
<clus scale="   43.183">  1  4  2 -1</clus>
<clus scale="   62.137">  2  3  1 -1</clus>
<clus scale="   79.649">  1  5  2 -1</clus>
<clus scale="   43.183">  1  3  2 -1</clus>
</clustering>
</event>
<event>
 6    0  0.2117869E+002  0.6542775E+02  0.7546771E-02  0.1376370E+00
         21   -1    0    0  504  502  0.00000000000E+00  0.00000000000E+00  0.76276722784E+02  0.76276722784E+02  0.00000000000E+00 0.  1.
          1   -1    0    0  503    0 -0.00000000000E+00 -0.00000000000E+00 -0.13186524086E+04  0.13186524086E+04  0.00000000000E+00 0.  1.
         21    1    1    2  503  502 -0.50234545918E+02 -0.16095394590E+02 -0.33297274874E+03  0.33712523301E+03  0.00000000000E+00 0.  1.
         21    1    1    2  504  505  0.16278587078E+02 -0.68036506286E+02  0.31093526941E+02  0.76555639913E+02  0.00000000000E+00 0.  1.
         21    1    1    2  505  501 -0.45645393349E+02  0.42564465789E+02 -0.35488805504E+02  0.71796176764E+02  0.00000000000E+00 0. -1.
          1    1    1    2  501    0  0.79601352188E+02  0.41567435087E+02 -0.90500765850E+03  0.90945208168E+03  0.00000000000E+00 0.  1.
<scales pt_clust_3="52.75008" pt_clust_4="14000.00000" pt_clust_5="65.42775" pt_clust_6="42.67049"></scales>
<clustering>
<clus scale="   52.750">  2  3  1 -1</clus>
<clus scale="   42.670">  2  6  1 -1</clus>
<clus scale="   65.428">  2  5  1 -1</clus>
<clus scale="   65.428">  1  3  2 -1</clus>
</clustering>
</event>
<event>
 6    0  0.2117869E+002  0.9604103E+02  0.7546771E-02  0.1288849E+00
          2   -1    0    0  505    0 -0.00000000000E+00  0.00000000000E+00  0.41421879490E+03  0.41421879490E+03  0.00000000000E+00 0. -1.
         21   -1    0    0  504  502  0.00000000000E+00 -0.00000000000E+00 -0.44037256960E+03  0.44037256960E+03  0.00000000000E+00 0.  1.
         21    1    1    2  503  501  0.13311327542E+02  0.47104925299E+02 -0.49123961729E+02  0.69348605208E+02  0.00000000000E+00 0.  1.
         21    1    1    2  504  503 -0.33112335373E+02 -0.65596803013E+00 -0.35359506750E+03  0.35514268796E+03  0.00000000000E+00 0.  1.
         21    1    1    2  505  502 -0.88938285903E+02 -0.22461041574E+02  0.21630052613E+03  0.23494772757E+03  0.00000000000E+00 0.  1.
          2    1    1    2  501    0  0.10873929373E+03 -0.23987915694E+02  0.16026472841E+03  0.19515234376E+03  0.00000000000E+00 0. -1.
<scales pt_clust_3="47.60960" pt_clust_4="33.11883" pt_clust_5="14000.00000" pt_clust_6="96.04103"></scales>
<clustering>
<clus scale="   33.119">  2  4  1 -1</clus>
<clus scale="   47.610">  2  3  1 -1</clus>
<clus scale="   96.041">  2  6  1 -1</clus>
<clus scale="   33.119">  2  3  1 -1</clus>
</clustering>
</event>
<event>
 6    0  0.2117869E+002  0.8710352E+02  0.7546771E-02  0.1310021E+00
         -4   -1    0    0    0  501 -0.00000000000E+00  0.00000000000E+00  0.22111375751E+03  0.22111375751E+03  0.00000000000E+00 0.  1.
         21   -1    0    0  504  502  0.00000000000E+00 -0.00000000000E+00 -0.29873305137E+03  0.29873305137E+03  0.00000000000E+00 0. -1.
         21    1    1    2  503  502  0.27023090095E+02 -0.36051697378E+02 -0.21959725502E+03  0.22417164561E+03  0.00000000000E+00 0. -1.
         21    1    1    2  504  505  0.40043412218E+02  0.32022299297E+02 -0.11094362322E+02  0.52459388004E+02  0.00000000000E+00 0. -1.
         21    1    1    2  505  501 -0.54761092055E+02 -0.83335068475E+02  0.68321161560E+02  0.12087717716E+03  0.00000000000E+00 0.  1.
         -4    1    1    2    0  503 -0.12305410259E+02  0.87364466556E+02  0.84751161924E+02  0.12233859810E+03  0.00000000000E+00 0.  1.
<scales pt_clust_3="45.05521" pt_clust_4="54.00137" pt_clust_5="87.10352" pt_clust_6="14000.00000"></scales>
<clustering>
<clus scale="   45.055">  2  3  1 -1</clus>
<clus scale="   54.001">  2  4  1 -1</clus>
<clus scale="   87.104">  2  5  1 -1</clus>
<clus scale="   45.055">  2  3  1 -1</clus>
</clustering>
</event>
<event>
 6    0  0.2117869E+002  0.6805048E+02  0.7546771E-02  0.1366851E+00
          2   -1    0    0  504    0 -0.00000000000E+00  0.00000000000E+00  0.16426829891E+04  0.16426829891E+04  0.00000000000E+00 0. -1.
         21   -1    0    0  505  502  0.00000000000E+00 -0.00000000000E+00 -0.47515612351E+03  0.47515612351E+03  0.00000000000E+00 0.  1.
         21    1    1    2  503  502  0.72633073726E+02  0.18284115412E+02 -0.15329737769E+03  0.17061640684E+03  0.00000000000E+00 0. -1.
         21    1    1    2  504  503  0.46282856136E+02  0.36031994416E+02  0.13341945181E+04  0.13354832157E+04  0.00000000000E+00 0. -1.
         21    1    1    2  505  501 -0.78586472215E+01 -0.35053958209E+02 -0.30083200155E+03  0.30296935733E+03  0.00000000000E+00 0.  1.
          2    1    1    2  501    0 -0.11105728264E+03 -0.19262151619E+02  0.28746172681E+03  0.30877013278E+03  0.00000000000E+00 0. -1.
<scales pt_clust_3="68.05048" pt_clust_4="58.55190" pt_clust_5="35.92406" pt_clust_6="14000.00000"></scales>
<clustering>
<clus scale="   35.924">  2  5  1 -1</clus>
<clus scale="   58.552">  1  4  2 -1</clus>
<clus scale="   68.050">  2  3  1 -1</clus>
<clus scale="   35.924">  2  3  1 -1</clus>
</clustering>
</event>
<event>
 6    0  0.2117869E+002  0.9741643E+02  0.7546771E-02  0.1285825E+00
         21   -1    0    0  504  502  0.00000000000E+00  0.00000000000E+00  0.42829231048E+03  0.42829231048E+03  0.00000000000E+00 0. -1.
          4   -1    0    0  505    0 -0.00000000000E+00 -0.00000000000E+00 -0.17630650955E+03  0.17630650955E+03  0.00000000000E+00 0. -1.
         21    1    1    2  503  502  0.25222774227E+02  0.65228063346E+02  0.25416286916E+03  0.26360890093E+03  0.00000000000E+00 0. -1.
         21    1    1    2  504  501  0.88175290228E+02 -0.62491173079E+02  0.79844054785E+02  0.13436927329E+03  0.00000000000E+00 0. -1.
         21    1    1    2  505  503 -0.21920974337E+02  0.67309035098E+02 -0.51170637226E+02  0.87346834149E+02  0.00000000000E+00 0. -1.
          4    1    1    2  501    0 -0.91477090118E+02 -0.70045925365E+02 -0.30850485793E+02  0.11927381167E+03  0.00000000000E+00 0. -1.
<scales pt_clust_3="69.93489" pt_clust_4="14000.00000" pt_clust_5="76.72214" pt_clust_6="97.41643"></scales>
<clustering>
<clus scale="   69.935">  1  3  2 -1</clus>
<clus scale="   76.722">  2  5  1 -1</clus>
<clus scale="   97.416">  2  6  1 -1</clus>
<clus scale="   69.935">  1  3  2 -1</clus>
</clustering>
</event>
<event>
 6    0  0.2117869E+002  0.2611575E+03  0.7546771E-02  0.1106450E+00
         -1   -1    0    0    0  501 -0.00000000000E+00  0.00000000000E+00  0.68869930097E+03  0.68869930097E+03  0.00000000000E+00 0. -1.
         21   -1    0    0  505  502  0.00000000000E+00 -0.00000000000E+00 -0.56341094947E+03  0.56341094947E+03  0.00000000000E+00 0. -1.
         21    1    1    2  503  502 -0.31192084250E+02 -0.35213782084E+02 -0.17331959985E+03  0.17959020091E+03  0.00000000000E+00 0. -1.
         21    1    1    2  504  501 -0.20981270033E+03 -0.14579439852E+03  0.13383610384E+03  0.28842586318E+03  0.00000000000E+00 0. -1.
         21    1    1    2  505  504  0.42768876075E+02  0.60085517063E+01 -0.27097254447E+03  0.27439278291E+03  0.00000000000E+00 0. -1.
         -1    1    1    2    0  503  0.19823590851E+03  0.17499962889E+03  0.43574439198E+03  0.50970140345E+03  0.00000000000E+00 0. -1.
<scales pt_clust_3="31.99790" pt_clust_4="261.15746" pt_clust_5="43.18888" pt_clust_6="14000.00000"></scales>
<clustering>
<clus scale="   43.189">  2  5  1 -1</clus>
<clus scale="   31.998">  2  3  1 -1</clus>
<clus scale="  261.157">  2  4  1 -1</clus>
<clus scale="   43.189">  2  3  1 -1</clus>
</clustering>
</event>
<event>
 6    0  0.2117869E+002  0.9134416E+02  0.7546771E-02  0.1299629E+00
         -3   -1    0    0    0  501 -0.00000000000E+00  0.00000000000E+00  0.21199970320E+03  0.21199970320E+03  0.00000000000E+00 0.  1.
         21   -1    0    0  501  502  0.00000000000E+00 -0.00000000000E+00 -0.79700215230E+03  0.79700215230E+03  0.00000000000E+00 0. -1.
         21    1    1    2  503  505 -0.31712264631E+02  0.30759897927E+01  0.49002702046E+02  0.58449929418E+02  0.00000000000E+00 0.  1.
         21    1    1    2  504  502 -0.54184622664E+02  0.65844909259E+01 -0.54966404727E+03  0.55236753499E+03  0.00000000000E+00 0. -1.
         21    1    1    2  505  504  0.12384438023E+03  0.31917638665E+02 -0.21822976652E+03  0.25294346635E+03  0.00000000000E+00 0. -1.
         -3    1    1    2    0  503 -0.37947492933E+02 -0.41578119383E+02  0.13388866265E+03  0.14524092473E+03  0.00000000000E+00 0.  1.
<scales pt_clust_3="31.07238" pt_clust_4="54.58323" pt_clust_5="81.47354" pt_clust_6="31.07238"></scales>
<clustering>
<clus scale="   31.072">  3  6 -1 -1</clus>
<clus scale="   54.583">  2  4  1 -1</clus>
<clus scale="   81.474">  2  5  1 -1</clus>
<clus scale="   54.583">  2  3  1 -1</clus>
</clustering>
</event>
<event>
 6    0  0.2117869E+002  0.6897538E+02  0.7546771E-02  0.1363612E+00
          1   -1    0    0  503    0 -0.00000000000E+00  0.00000000000E+00  0.12891951081E+04  0.12891951081E+04  0.00000000000E+00 0. -1.
         21   -1    0    0  504  502  0.00000000000E+00 -0.00000000000E+00 -0.66310215991E+02  0.66310215991E+02  0.00000000000E+00 0. -1.
         21    1    1    2  503  505 -0.81555366862E+01 -0.44746797642E+02  0.41331594485E+03  0.41581108565E+03  0.00000000000E+00 0. -1.
         21    1    1    2  504  501  0.20705752227E+02 -0.75568258353E+02  0.10346964402E+02  0.79033850458E+02  0.00000000000E+00 0. -1.
         21    1    1    2  505  502 -0.40646669123E+02  0.49745039203E+02  0.67912081765E+01  0.64597532032E+02  0.00000000000E+00 0. -1.
          1    1    1    2  501    0  0.28096453582E+02  0.70570016792E+02  0.79243077472E+03  0.79606285600E+03  0.00000000000E+00 0. -1.
<scales pt_clust_3="45.48394" pt_clust_4="14000.00000" pt_clust_5="68.97538" pt_clust_6="36.39018"></scales>
<clustering>
<clus scale="   45.484">  1  3  2 -1</clus>
<clus scale="   36.390">  1  6  2 -1</clus>
<clus scale="   68.975">  2  5  1 -1</clus>
<clus scale="   68.975">  2  3  1 -1</clus>
</clustering>
</event>
<event>
 6    0  0.2117869E+002  0.1405008E+03  0.7546771E-02  0.1212657E+00
          1   -1    0    0  503    0 -0.00000000000E+00  0.00000000000E+00  0.18426198540E+04  0.18426198540E+04  0.00000000000E+00 0. -1.
         21   -1    0    0  505  502  0.00000000000E+00 -0.00000000000E+00 -0.99145347807E+03  0.99145347807E+03  0.00000000000E+00 0. -1.
         21    1    1    2  503  504  0.28319734979E+02 -0.73192592725E+02 -0.14822305591E+03  0.16771773109E+03  0.00000000000E+00 0.  1.
         21    1    1    2  504  502 -0.19941166186E+02 -0.70768911019E+02 -0.82789149606E+03  0.83114993721E+03  0.00000000000E+00 0. -1.
         21    1    1    2  505  501 -0.43175239410E+02  0.78939938572E+02  0.12498530315E+04  0.12530874732E+04  0.00000000000E+00 0. -1.
          1    1    1    2  501    0  0.34796670617E+02  0.65021565172E+02  0.57742789635E+03  0.58211819050E+03  0.00000000000E+00 0. -1.
<scales pt_clust_3="140.50076" pt_clust_4="73.52475" pt_clust_5="14000.00000" pt_clust_6="72.70741"></scales>
<clustering>
<clus scale="   73.525">  2  4  1 -1</clus>
<clus scale="   72.707">  1  6  2 -1</clus>
<clus scale="  140.501">  2  3  1 -1</clus>
<clus scale="   73.525">  2  3  1 -1</clus>
</clustering>
</event>
<event>
 6    0  0.2117869E+002  0.8956526E+02  0.7546771E-02  0.1303908E+00
          3   -1    0    0  505    0 -0.00000000000E+00  0.00000000000E+00  0.31098795890E+03  0.31098795890E+03  0.00000000000E+00 0. -1.
         21   -1    0    0  504  502  0.00000000000E+00 -0.00000000000E+00 -0.18559640910E+03  0.18559640910E+03  0.00000000000E+00 0.  1.
         21    1    1    2  503  502  0.34970132190E+02  0.22068731504E+02  0.34697340407E+01  0.41496724087E+02  0.00000000000E+00 0.  1.
         21    1    1    2  504  501 -0.84624574775E+02  0.29336290096E+02 -0.13394032738E+03  0.16112711712E+03  0.00000000000E+00 0.  1.
         21    1    1    2  505  503  0.22988722985E+02  0.36447205006E+02  0.37655375511E+02  0.57225933300E+02  0.00000000000E+00 0. -1.
          3    1    1    2  501    0  0.26665719600E+02 -0.87852226606E+02  0.21820676762E+03  0.23673459349E+03  0.00000000000E+00 0. -1.
<scales pt_clust_3="34.93132" pt_clust_4="89.56526" pt_clust_5="34.93132" pt_clust_6="80.94007"></scales>
<clustering>
<clus scale="   34.931">  3  5 -1 -1</clus>
<clus scale="   89.565">  2  4  1 -1</clus>
<clus scale="   80.940">  1  6  2 -1</clus>
<clus scale="   89.565">  2  3  1 -1</clus>
</clustering>
</event>
<event>
 6    0  0.2117869E+002  0.1564090E+03  0.7546771E-02  0.1192812E+00
          2   -1    0    0  504    0 -0.00000000000E+00  0.00000000000E+00  0.10699236712E+04  0.10699236712E+04  0.00000000000E+00 0.  1.
         21   -1    0    0  505  502  0.00000000000E+00 -0.00000000000E+00 -0.19516280464E+03  0.19516280464E+03  0.00000000000E+00 0. -1.
         21    1    1    2  503  501  0.18163481397E+02 -0.15612319260E+03  0.16330066424E+03  0.22665275261E+03  0.00000000000E+00 0.  1.
         21    1    1    2  504  502  0.23021206820E+02 -0.26751331745E+02  0.18105653657E+01  0.35339607532E+02  0.00000000000E+00 0. -1.
         21    1    1    2  505  503 -0.15194090362E+03  0.56742940583E+02 -0.90360911704E+02  0.18566338859E+03  0.00000000000E+00 0. -1.
          2    1    1    2  501    0  0.11075621540E+03  0.12613158376E+03  0.80001054862E+03  0.81743072708E+03  0.00000000000E+00 0.  1.
<scales pt_clust_3="14000.00000" pt_clust_4="35.29320" pt_clust_5="138.89072" pt_clust_6="156.40900"></scales>
<clustering>
<clus scale="   35.293">  2  4  1 -1</clus>
<clus scale="  138.891">  2  5  1 -1</clus>
<clus scale="  156.409">  1  6  2 -1</clus>
<clus scale="   35.293">  2  3  1 -1</clus>
</clustering>
</event>
<event>
 6    0  0.2117869E+002  0.1734360E+03  0.7546771E-02  0.1174311E+00
         21   -1    0    0  504  502  0.00000000000E+00  0.00000000000E+00  0.10938728983E+03  0.10938728983E+03  0.00000000000E+00 0. -1.
          1   -1    0    0  505    0 -0.00000000000E+00 -0.00000000000E+00 -0.21864750368E+04  0.21864750368E+04  0.00000000000E+00 0. -1.
         21    1    1    2  503  502  0.13510756710E+03  0.10143190003E+03 -0.20842673967E+02  0.17022603235E+03  0.00000000000E+00 0. -1.
         21    1    1    2  504  501 -0.11593521454E+03 -0.15377924601E+03 -0.25827104009E+03  0.32216914909E+03  0.00000000000E+00 0. -1.
         21    1    1    2  505  503  0.33118634394E+02  0.25449896129E+02 -0.19537780657E+03  0.19979246346E+03  0.00000000000E+00 0. -1.
          1    1    1    2  501    0 -0.52290986952E+02  0.26897449858E+02 -0.16025962263E+04  0.16036746817E+04  0.00000000000E+00 0. -1.
<scales pt_clust_3="14000.00000" pt_clust_4="173.43595" pt_clust_5="41.76770" pt_clust_6="53.87924"></scales>
<clustering>
<clus scale="   41.768">  2  5  1 -1</clus>
<clus scale="   53.879">  2  6  1 -1</clus>
<clus scale="  173.436">  2  4  1 -1</clus>
<clus scale="  173.436">  1  3  2 -1</clus>
</clustering>
</event>
<event>
 6    0  0.2117869E+002  0.1988678E+03  0.7546771E-02  0.1150698E+00
          2   -1    0    0  503    0 -0.00000000000E+00  0.00000000000E+00  0.26309210748E+04  0.26309210748E+04  0.00000000000E+00 0.  1.
         21   -1    0    0  501  502  0.00000000000E+00 -0.00000000000E+00 -0.20013721621E+02  0.20013721621E+02  0.00000000000E+00 0.  1.
         21    1    1    2  503  504 -0.35043361336E+02  0.20747791746E+02  0.60572937025E+03  0.60709684402E+03  0.00000000000E+00 0.  1.
         21    1    1    2  504  505 -0.33440772987E+02  0.31000798283E+02  0.11551604549E+03  0.12419054536E+03  0.00000000000E+00 0.  1.
         21    1    1    2  505  502 -0.67515171429E+02  0.10847225028E+03  0.72963304642E+03  0.74073538452E+03  0.00000000000E+00 0.  1.
          2    1    1    2  501    0  0.13599930575E+03 -0.16022084031E+03  0.11600288911E+04  0.11789120226E+04  0.00000000000E+00 0.  1.
<scales pt_clust_3="40.72478" pt_clust_4="38.60125" pt_clust_5="38.60125" pt_clust_6="188.07804"></scales>
<clustering>
<clus scale="   38.601">  4  5 -1 -1</clus>
<clus scale="   40.725">  1  3  2 -1</clus>
<clus scale="  188.078">  1  6  2 -1</clus>
<clus scale="  198.868">  2  3  1 -1</clus>
</clustering>
</event>
<event>
 6    0  0.2117869E+002  0.8068211E+02  0.7546771E-02  0.1327127E+00
          1   -1    0    0  504    0 -0.00000000000E+00  0.00000000000E+00  0.23721684009E+04  0.23721684009E+04  0.00000000000E+00 0.  1.
         21   -1    0    0  505  502  0.00000000000E+00 -0.00000000000E+00 -0.84727454269E+02  0.84727454269E+02  0.00000000000E+00 0. -1.
         21    1    1    2  503  502 -0.31347845444E+02  0.64103700469E+02 -0.52213944704E+02  0.88420969512E+02  0.00000000000E+00 0. -1.
         21    1    1    2  504  503  0.96165144145E+02 -0.36600371899E+01  0.62634933287E+03  0.63369915386E+03  0.00000000000E+00 0.  1.
         21    1    1    2  505  501  0.96783421303E+01 -0.37739921512E+02  0.28748655098E+02  0.48419594711E+02  0.00000000000E+00 0. -1.
          1    1    1    2  501    0 -0.74495640831E+02 -0.22703741768E+02  0.16845569033E+04  0.16863561371E+04  0.00000000000E+00 0.  1.
<scales pt_clust_3="36.29668" pt_clust_4="80.68211" pt_clust_5="38.96116" pt_clust_6="14000.00000"></scales>
<clustering>
<clus scale="   38.961">  2  5  1 -1</clus>
<clus scale="   36.297">  2  3  1 -1</clus>
<clus scale="   80.682">  2  4  1 -1</clus>
<clus scale="   38.961">  2  3  1 -1</clus>
</clustering>
</event>
<event>
 6    0  0.2117869E+002  0.1153714E+03  0.7546771E-02  0.1250934E+00
         21   -1    0    0  505  502  0.00000000000E+00  0.00000000000E+00  0.80854421774E+02  0.80854421774E+02  0.00000000000E+00 0.  1.
          2   -1    0    0  503    0 -0.00000000000E+00 -0.00000000000E+00 -0.17143610170E+04  0.17143610170E+04  0.00000000000E+00 0.  1.
         21    1    1    2  503  504  0.28633476943E+02  0.17376388986E+02 -0.12477481387E+03  0.12919198532E+03  0.00000000000E+00 0. -1.
         21    1    1    2  504  502 -0.31080902354E+02 -0.25609278182E+02  0.42903776811E+02  0.58843790538E+02  0.00000000000E+00 0.  1.
         21    1    1    2  505  501 -0.59783492746E+02  0.99634370946E+02 -0.10587281770E+03  0.15719455273E+03  0.00000000000E+00 0.  1.
          2    1    1    2  501    0  0.62230918157E+02 -0.91401481750E+02 -0.14457627404E+04  0.14499851101E+04  0.00000000000E+00 0.  1.
<scales pt_clust_3="33.49351" pt_clust_4="40.10587" pt_clust_5="115.37136" pt_clust_6="14000.00000"></scales>
<clustering>
<clus scale="   33.494">  2  3  1 -1</clus>
<clus scale="   40.106">  1  4  2 -1</clus>
<clus scale="  115.371">  1  5  2 -1</clus>
<clus scale="   40.106">  1  3  2 -1</clus>
</clustering>
</event>
<event>
 6    0  0.2117869E+002  0.1043607E+03  0.7546771E-02  0.1271384E+00
          1   -1    0    0  503    0 -0.00000000000E+00  0.00000000000E+00  0.21027851107E+03  0.21027851107E+03  0.00000000000E+00 0. -1.
         21   -1    0    0  505  502  0.00000000000E+00 -0.00000000000E+00 -0.34690432378E+03  0.34690432378E+03  0.00000000000E+00 0. -1.
         21    1    1    2  503  502 -0.18165206234E+02  0.29201058530E+02  0.47671210098E+01  0.34718899458E+02  0.00000000000E+00 0. -1.
         21    1    1    2  504  501  0.17898565198E+01  0.99642472769E+02 -0.86201582986E+02  0.13176698705E+03  0.00000000000E+00 0. -1.
         21    1    1    2  505  504 -0.91747036508E+02 -0.38593232337E+02 -0.17793202554E+03  0.20387928292E+03  0.00000000000E+00 0. -1.
          1    1    1    2  501    0  0.10812238622E+03 -0.90250298962E+02  0.12274067481E+03  0.18681766543E+03  0.00000000000E+00 0. -1.
<scales pt_clust_3="34.39006" pt_clust_4="14000.00000" pt_clust_5="99.92962" pt_clust_6="104.36075"></scales>
<clustering>
<clus scale="   34.390">  1  3  2 -1</clus>
<clus scale="   99.930">  2  5  1 -1</clus>
<clus scale="  104.361">  1  6  2 -1</clus>
<clus scale="   99.930">  2  3  1 -1</clus>
</clustering>
</event>
<event>
 6    0  0.2117869E+002  0.1088150E+03  0.7546771E-02  0.1262780E+00
          2   -1    0    0  505    0 -0.00000000000E+00  0.00000000000E+00  0.34343445130E+04  0.34343445130E+04  0.00000000000E+00 0. -1.
         21   -1    0    0  501  502  0.00000000000E+00 -0.00000000000E+00 -0.13378190528E+03  0.13378190528E+03  0.00000000000E+00 0. -1.
         21    1    1    2  503  504  0.79860107579E+02  0.45215509787E+01  0.81431499290E+02  0.11414539098E+03  0.00000000000E+00 0. -1.
         21    1    1    2  504  502  0.22952624080E+02 -0.72119395762E+02 -0.95603809517E+02  0.12193489489E+03  0.00000000000E+00 0. -1.
         21    1    1    2  505  503  0.29415052486E+02 -0.69172033259E+02  0.24146558500E+03  0.25289453185E+03  0.00000000000E+00 0. -1.
          2    1    1    2  501    0 -0.13222778414E+03  0.13676987804E+03  0.30732693330E+04  0.30791516006E+04  0.00000000000E+00 0. -1.
<scales pt_clust_3="108.81504" pt_clust_4="75.99289" pt_clust_5="75.16658" pt_clust_6="14000.00000"></scales>
<clustering>
<clus scale="   75.167">  1  5  2 -1</clus>
<clus scale="   75.993">  2  4  1 -1</clus>
<clus scale="  108.815">  2  3  1 -1</clus>
<clus scale="   75.993">  2  3  1 -1</clus>
</clustering>
</event>
<event>
 6    0  0.2117869E+002  0.1665907E+03  0.7546771E-02  0.1181451E+00
         21   -1    0    0  503  502  0.00000000000E+00  0.00000000000E+00  0.94532218545E+02  0.94532218545E+02  0.00000000000E+00 0. -1.
          2   -1    0    0  504    0 -0.00000000000E+00 -0.00000000000E+00 -0.78990057531E+03  0.78990057531E+03  0.00000000000E+00 0.  1.
         21    1    1    2  503  501 -0.15719177960E+03  0.10511725193E+03 -0.59404022309E+02  0.19821132685E+03  0.00000000000E+00 0. -1.
         21    1    1    2  504  505  0.15870504036E+02 -0.40330474249E+02 -0.65775296812E+02  0.78770614586E+02  0.00000000000E+00 0. -1.
         21    1    1    2  505  502  0.10820247749E+02 -0.47088018619E+02 -0.33007429722E+03  0.33359166798E+03  0.00000000000E+00 0.  1.
          2    1    1    2  501    0  0.13050102781E+03 -0.17698759064E+02 -0.24011474042E+03  0.27385918443E+03  0.00000000000E+00 0.  1.
<scales pt_clust_3="166.59075" pt_clust_4="43.34074" pt_clust_5="68.19888" pt_clust_6="14000.00000"></scales>
<clustering>
<clus scale="   43.341">  2  4  1 -1</clus>
<clus scale="   68.199">  2  5  1 -1</clus>
<clus scale="  166.591">  1  3  2 -1</clus>
<clus scale="  166.591">  1  3  2 -1</clus>
</clustering>
</event>
<event>
 6    0  0.2117869E+002  0.4568555E+03  0.7546771E-02  0.1025697E+00
          2   -1    0    0  504    0 -0.00000000000E+00  0.00000000000E+00  0.11055855715E+04  0.11055855715E+04  0.00000000000E+00 0.  1.
         21   -1    0    0  505  502  0.00000000000E+00 -0.00000000000E+00 -0.26724252379E+03  0.26724252379E+03  0.00000000000E+00 0.  1.
         21    1    1    2  503  502  0.30779153192E+03 -0.25333112150E+03  0.98088413511E+02  0.41052846565E+03  0.00000000000E+00 0.  1.
         21    1    1    2  504  503  0.31800337109E+02 -0.55630501271E+02  0.60186083331E+02  0.87911198028E+02  0.00000000000E+00 0. -1.
         21    1    1    2  505  501 -0.92238182050E-01  0.33660186804E+02 -0.26983171493E+02  0.43140563596E+02  0.00000000000E+00 0. -1.
          2    1    1    2  501    0 -0.33949963085E+03  0.27530143596E+03  0.70705172232E+03  0.83124786798E+03  0.00000000000E+00 0.  1.
<scales pt_clust_3="45.21249" pt_clust_4="45.21249" pt_clust_5="33.66031" pt_clust_6="442.83806"></scales>
<clustering>
<clus scale="   33.660">  2  5  1 -1</clus>
<clus scale="   45.212">  3  4 -1 -1</clus>
<clus scale="  442.838">  1  6  2 -1</clus>
<clus scale="   33.660">  2  3  1 -1</clus>
</clustering>
</event>
<event>
 6    0  0.2117869E+002  0.9572225E+02  0.7546771E-02  0.1289558E+00
          2   -1    0    0  505    0 -0.00000000000E+00  0.00000000000E+00  0.29878387586E+04  0.29878387586E+04  0.00000000000E+00 0.  1.
         21   -1    0    0  503  502  0.00000000000E+00 -0.00000000000E+00 -0.35269192763E+02  0.35269192763E+02  0.00000000000E+00 0.  1.
         21    1    1    2  503  501  0.63487364213E+02  0.19412542379E+02  0.73742820035E+02  0.99224471392E+02  0.00000000000E+00 0.  1.
         21    1    1    2  504  502  0.63394614942E+01  0.50778982494E+02  0.12694416282E+02  0.52724207343E+02  0.00000000000E+00 0.  1.
         21    1    1    2  505  504  0.39426495301E+02 -0.25849355256E+01  0.86975514961E+03  0.87065214104E+03  0.00000000000E+00 0. -1.
          2    1    1    2  501    0 -0.10925332101E+03 -0.67606589347E+02  0.19963771799E+04  0.20005071316E+04  0.00000000000E+00 0.  1.
<scales pt_clust_3="95.72225" pt_clust_4="51.21262" pt_clust_5="39.51114" pt_clust_6="14000.00000"></scales>
<clustering>
<clus scale="   39.511">  1  5  2 -1</clus>
<clus scale="   51.213">  2  4  1 -1</clus>
<clus scale="   95.722">  2  3  1 -1</clus>
<clus scale="   51.213">  2  3  1 -1</clus>
</clustering>
</event>
<event>
 6    0  0.2117869E+002  0.7275544E+02  0.7546771E-02  0.1350966E+00
          1   -1    0    0  504    0 -0.00000000000E+00  0.00000000000E+00  0.10838976132E+04  0.10838976132E+04  0.00000000000E+00 0.  1.
         21   -1    0    0  505  502  0.00000000000E+00 -0.00000000000E+00 -0.14754867654E+03  0.14754867654E+03  0.00000000000E+00 0.  1.
         21    1    1    2  503  502 -0.99200618371E+01 -0.46329427112E+02 -0.41508577640E+02  0.62990360065E+02  0.00000000000E+00 0.  1.
         21    1    1    2  504  503  0.79251249309E+01  0.65307611405E+02 -0.45712551813E+02  0.80109481997E+02  0.00000000000E+00 0.  1.
         21    1    1    2  505  501 -0.68367518914E+02 -0.37021042719E+02  0.17545264412E+02  0.79702644559E+02  0.00000000000E+00 0.  1.
          1    1    1    2  501    0  0.70362455820E+02  0.18042858427E+02  0.10060248017E+04  0.10086438031E+04  0.00000000000E+00 0.  1.
<scales pt_clust_3="47.37957" pt_clust_4="34.75088" pt_clust_5="14000.00000" pt_clust_6="72.75544"></scales>
<clustering>
<clus scale="   47.380">  2  3  1 -1</clus>
<clus scale="   34.751">  2  4  1 -1</clus>
<clus scale="   72.755">  1  6  2 -1</clus>
<clus scale="   47.380">  2  3  1 -1</clus>
</clustering>
</event>
<event>
 6    0  0.2117869E+002  0.9378906E+02  0.7546771E-02  0.1293927E+00
          1   -1    0    0  504    0 -0.00000000000E+00  0.00000000000E+00  0.44615606039E+03  0.44615606039E+03  0.00000000000E+00 0. -1.
         21   -1    0    0  505  502  0.00000000000E+00 -0.00000000000E+00 -0.12311992846E+03  0.12311992846E+03  0.00000000000E+00 0.  1.
         21    1    1    2  503  502 -0.10355529993E+03 -0.46754586261E+02  0.17896335761E+03  0.21198484579E+03  0.00000000000E+00 0. -1.
         21    1    1    2  504  503 -0.43728713009E+01 -0.32193256394E+02  0.10057734222E+03  0.10569451040E+03  0.00000000000E+00 0. -1.
         21    1    1    2  505  501  0.91035768955E+02  0.13100547141E+02 -0.72524507678E+02  0.11712787789E+03  0.00000000000E+00 0.  1.
          1    1    1    2  501    0  0.16892402273E+02  0.65847295513E+02  0.11601993978E+03  0.13446875476E+03  0.00000000000E+00 0. -1.
<scales pt_clust_3="14000.00000" pt_clust_4="32.48889" pt_clust_5="93.78906" pt_clust_6="56.21382"></scales>
<clustering>
<clus scale="   32.489">  1  4  2 -1</clus>
<clus scale="   56.214">  1  6  2 -1</clus>
<clus scale="   93.789">  2  5  1 -1</clus>
<clus scale="   93.789">  2  3  1 -1</clus>
</clustering>
</event>
<event>
 6    0  0.2117869E+002  0.2394745E+03  0.7546771E-02  0.1120143E+00
          1   -1    0    0  503    0 -0.00000000000E+00  0.00000000000E+00  0.30056507394E+04  0.30056507394E+04  0.00000000000E+00 0. -1.
         21   -1    0    0  505  502  0.00000000000E+00 -0.00000000000E+00 -0.10711816649E+03  0.10711816649E+03  0.00000000000E+00 0.  1.
         21    1    1    2  503  504  0.19179189196E+03  0.67297830665E+02  0.96813978353E+03  0.98924606053E+03  0.00000000000E+00 0.  1.
         21    1    1    2  504  502  0.38069551740E+02  0.12650887976E+03 -0.10483376136E+02  0.13252806723E+03  0.00000000000E+00 0.  1.
         21    1    1    2  505  501 -0.31829418178E+01 -0.33030664038E+02  0.30288706480E+01  0.33321613749E+02  0.00000000000E+00 0. -1.
          1    1    1    2  501    0 -0.22667850188E+03 -0.16077604638E+03  0.19378472949E+04  0.19576731644E+04  0.00000000000E+00 0. -1.
<scales pt_clust_3="14000.00000" pt_clust_4="106.92689" pt_clust_5="33.18367" pt_clust_6="239.47447"></scales>
<clustering>
<clus scale="   33.184">  2  5  1 -1</clus>
<clus scale="  106.927">  2  4  1 -1</clus>
<clus scale="  239.474">  1  6  2 -1</clus>
<clus scale="   33.184">  2  3  1 -1</clus>
</clustering>
</event>
<event>
 6    0  0.2117869E+002  0.2132000E+03  0.7546771E-02  0.1139057E+00
         21   -1    0    0  504  502  0.00000000000E+00  0.00000000000E+00  0.45858885677E+02  0.45858885677E+02  0.00000000000E+00 0.  1.
          2   -1    0    0  502    0 -0.00000000000E+00 -0.00000000000E+00 -0.22810418341E+04  0.22810418341E+04  0.00000000000E+00 0. -1.
         21    1    1    2  503  505  0.17491332993E+03  0.17444396864E+02 -0.23465135080E+03  0.29318976176E+03  0.00000000000E+00 0.  1.
         21    1    1    2  504  503  0.28525194683E+02 -0.47792932503E+02 -0.63837902565E+02  0.84694326450E+02  0.00000000000E+00 0.  1.
         21    1    1    2  505  501 -0.70697058573E+02 -0.10259764324E+02 -0.93881632727E+03  0.94153036765E+03  0.00000000000E+00 0.  1.
          2    1    1    2  501    0 -0.13274146604E+03  0.40608299963E+02 -0.99787736780E+03  0.10074862639E+04  0.00000000000E+00 0. -1.
<scales pt_clust_3="199.69760" pt_clust_4="55.65834" pt_clust_5="53.56400" pt_clust_6="53.56400"></scales>
<clustering>
<clus scale="   53.564">  5  6 -1 -1</clus>
<clus scale="   55.658">  1  4  2 -1</clus>
<clus scale="  199.698">  1  3  2 -1</clus>
<clus scale="   55.658">  1  3  2 -1</clus>
</clustering>
</event>
<event>
 6    0  0.2117869E+002  0.6302759E+02  0.7546771E-02  0.1385548E+00
          2   -1    0    0  505    0 -0.00000000000E+00  0.00000000000E+00  0.35013917393E+04  0.35013917393E+04  0.00000000000E+00 0. -1.
         21   -1    0    0  503  502  0.00000000000E+00 -0.00000000000E+00 -0.82965521709E+02  0.82965521709E+02  0.00000000000E+00 0.  1.
         21    1    1    2  503  501 -0.81635543301E+02  0.32439286856E+02 -0.52010320977E+02  0.10208693721E+03  0.00000000000E+00 0.  1.
         21    1    1    2  504  502  0.36307699719E+02  0.91449864655E+01  0.72603797956E+02  0.81689603464E+02  0.00000000000E+00 0. -1.
         21    1    1    2  505  504 -0.17941221697E+02  0.32389742712E+02  0.68231955118E+03  0.68332346132E+03  0.00000000000E+00 0.  1.
          2    1    1    2  501    0  0.63269065279E+02 -0.73974016033E+02  0.27155131895E+04  0.27172572590E+04  0.00000000000E+00 0. -1.
<scales pt_clust_3="14000.00000" pt_clust_4="37.19493" pt_clust_5="37.02679" pt_clust_6="63.02759"></scales>
<clustering>
<clus scale="   37.027">  1  5  2 -1</clus>
<clus scale="   37.195">  2  4  1 -1</clus>
<clus scale="   63.028">  1  6  2 -1</clus>
<clus scale="   37.195">  2  3  1 -1</clus>
</clustering>
</event>
<event>
 6    0  0.2117869E+002  0.1202225E+03  0.7546771E-02  0.1242730E+00
          2   -1    0    0  503    0 -0.00000000000E+00  0.00000000000E+00  0.28061368651E+03  0.28061368651E+03  0.00000000000E+00 0. -1.
         21   -1    0    0  504  502  0.00000000000E+00 -0.00000000000E+00 -0.10063398430E+04  0.10063398430E+04  0.00000000000E+00 0.  1.
         21    1    1    2  503  505  0.23362904668E+02 -0.49663870557E+02 -0.85482370458E+01  0.55546356405E+02  0.00000000000E+00 0.  1.
         21    1    1    2  504  501 -0.30795069304E+02 -0.22797312462E+02 -0.90625157226E+03  0.90706116992E+03  0.00000000000E+00 0.  1.
         21    1    1    2  505  502  0.64881788958E+02 -0.18057274041E+02 -0.35033489998E+02  0.75914801624E+02  0.00000000000E+00 0.  1.
          2    1    1    2  501    0 -0.57449624323E+02  0.90518457060E+02  0.22410714286E+03  0.24843120151E+03  0.00000000000E+00 0. -1.
<scales pt_clust_3="54.02017" pt_clust_4="38.31519" pt_clust_5="54.02017" pt_clust_6="106.97693"></scales>
<clustering>
<clus scale="   38.315">  2  4  1 -1</clus>
<clus scale="   54.020">  3  5 -1 -1</clus>
<clus scale="  106.977">  1  6  2 -1</clus>
<clus scale="   38.315">  2  3  1 -1</clus>
</clustering>
</event>
<event>
 6    0  0.2117869E+002  0.1112485E+03  0.7546771E-02  0.1258275E+00
          2   -1    0    0  503    0 -0.00000000000E+00  0.00000000000E+00  0.77202673135E+03  0.77202673135E+03  0.00000000000E+00 0. -1.
         21   -1    0    0  505  502  0.00000000000E+00 -0.00000000000E+00 -0.53763211416E+03  0.53763211416E+03  0.00000000000E+00 0.  1.
         21    1    1    2  503  502 -0.38909239147E+02 -0.23499108083E+02  0.20684204782E+03  0.21177764215E+03  0.00000000000E+00 0. -1.
         21    1    1    2  504  501 -0.83662169084E+02  0.71628964427E+02 -0.42554256211E+02  0.11807172313E+03  0.00000000000E+00 0.  1.
         21    1    1    2  505  504  0.11592169779E+03  0.66274047310E-01 -0.44630346874E+03  0.46111238393E+03  0.00000000000E+00 0.  1.
          2    1    1    2  501    0  0.66497104411E+01 -0.48196130392E+02  0.51641029432E+03  0.51869709630E+03  0.00000000000E+00 0. -1.
<scales pt_clust_3="45.45478" pt_clust_4="111.24848" pt_clust_5="14000.00000" pt_clust_6="75.64572"></scales>
<clustering>
<clus scale="   45.455">  1  3  2 -1</clus>
<clus scale="   75.646">  1  6  2 -1</clus>
<clus scale="  111.248">  1  4  2 -1</clus>
<clus scale="  111.248">  2  3  1 -1</clus>
</clustering>
</event>
<event>
 6    0  0.2117869E+002  0.1258863E+03  0.7546771E-02  0.1233691E+00
         21   -1    0    0  501  502  0.00000000000E+00  0.00000000000E+00  0.62213833053E+03  0.62213833053E+03  0.00000000000E+00 0. -1.
          2   -1    0    0  504    0 -0.00000000000E+00 -0.00000000000E+00 -0.65837053826E+03  0.65837053826E+03  0.00000000000E+00 0. -1.
         21    1    1    2  503  502  0.10407291529E+03  0.73461909473E+02  0.52599984406E+03  0.54120574627E+03  0.00000000000E+00 0. -1.
         21    1    1    2  504  505  0.23825233922E+02  0.51400538599E+02 -0.16347610451E+03  0.17301472158E+03  0.00000000000E+00 0. -1.
         21    1    1    2  505  503 -0.61399187643E+02 -0.11140444574E+03  0.31230985456E+02  0.13098162171E+03  0.00000000000E+00 0. -1.
          2    1    1    2  501    0 -0.66498961566E+02 -0.13458002334E+02 -0.42998693274E+03  0.43530677923E+03  0.00000000000E+00 0. -1.
<scales pt_clust_3="14000.00000" pt_clust_4="56.65384" pt_clust_5="125.88625" pt_clust_6="55.55055"></scales>
<clustering>
<clus scale="   56.654">  2  4  1 -1</clus>
<clus scale="   55.551">  2  6  1 -1</clus>
<clus scale="  125.886">  2  5  1 -1</clus>
<clus scale="  125.886">  1  3  2 -1</clus>
</clustering>
</event>
<event>
 6    0  0.2117869E+002  0.1022117E+03  0.7546771E-02  0.1275713E+00
          1   -1    0    0  503    0 -0.00000000000E+00  0.00000000000E+00  0.18086715361E+04  0.18086715361E+04  0.00000000000E+00 0. -1.
         21   -1    0    0  504  502  0.00000000000E+00 -0.00000000000E+00 -0.16927463358E+03  0.16927463358E+03  0.00000000000E+00 0. -1.
         21    1    1    2  503  505 -0.53409764753E+02 -0.27071506651E+02  0.22847199381E+03  0.23618831766E+03  0.00000000000E+00 0.  1.
         21    1    1    2  504  501  0.37935269542E+01 -0.34379983002E+02  0.19462704679E+02  0.39688423393E+02  0.00000000000E+00 0.  1.
         21    1    1    2  505  502  0.30845955630E+01  0.13619541152E+03 -0.12390309730E+03  0.18414853344E+03  0.00000000000E+00 0. -1.
          1    1    1    2  501    0  0.46531642236E+02 -0.74743921866E+02  0.15153653014E+04  0.15179208952E+04  0.00000000000E+00 0. -1.
<scales pt_clust_3="60.17867" pt_clust_4="34.58864" pt_clust_5="102.21170" pt_clust_6="14000.00000"></scales>
<clustering>
<clus scale="   34.589">  2  4  1 -1</clus>
<clus scale="   60.179">  1  3  2 -1</clus>
<clus scale="  102.212">  2  5  1 -1</clus>
<clus scale="   34.589">  2  3  1 -1</clus>
</clustering>
</event>
<event>
 6    0  0.2117869E+002  0.1278135E+03  0.7546771E-02  0.1230737E+00
          2   -1    0    0  505    0 -0.00000000000E+00  0.00000000000E+00  0.20788885824E+04  0.20788885824E+04  0.00000000000E+00 0. -1.
         21   -1    0    0  504  502  0.00000000000E+00 -0.00000000000E+00 -0.17866456215E+02  0.17866456215E+02  0.00000000000E+00 0. -1.
         21    1    1    2  503  502  0.10061940829E+03 -0.22716803705E+02  0.38675720082E+03  0.40027671789E+03  0.00000000000E+00 0. -1.
         21    1    1    2  504  501 -0.61072707773E+02 -0.21066242283E+02  0.15156083275E+03  0.16475541941E+03  0.00000000000E+00 0.  1.
         21    1    1    2  505  503  0.24478878372E+02  0.77099977449E+02  0.10939124944E+04  0.10968993424E+04  0.00000000000E+00 0. -1.
          2    1    1    2  501    0 -0.64025578894E+02 -0.33316931460E+02  0.42879159821E+03  0.43482355889E+03  0.00000000000E+00 0. -1.
<scales pt_clust_3="110.71317" pt_clust_4="60.42351" pt_clust_5="80.89266" pt_clust_6="60.42351"></scales>
<clustering>
<clus scale="   60.424">  4  6 -1 -1</clus>
<clus scale="   80.893">  1  5  2 -1</clus>
<clus scale="  110.713">  2  3  1 -1</clus>
<clus scale="  110.713">  2  3  1 -1</clus>
</clustering>
</event>
<event>
 6    0  0.2117869E+002  0.7648066E+02  0.7546771E-02  0.1339346E+00
          1   -1    0    0  505    0 -0.00000000000E+00  0.00000000000E+00  0.57614319142E+02  0.57614319142E+02  0.00000000000E+00 0.  1.
         21   -1    0    0  503  502  0.00000000000E+00 -0.00000000000E+00 -0.13407622229E+04  0.13407622229E+04  0.00000000000E+00 0. -1.
         21    1    1    2  503  501 -0.67262427478E+02 -0.57502150451E+02 -0.45788909534E+03  0.46636161408E+03  0.00000000000E+00 0. -1.
         21    1    1    2  504  502  0.37886996534E+02  0.62205737686E+02 -0.77512496441E+03  0.77853945870E+03  0.00000000000E+00 0. -1.
         21    1    1    2  505  504 -0.28502896220E+02  0.19370439818E+02 -0.77697796313E+02  0.84997509279E+02  0.00000000000E+00 0. -1.
          1    1    1    2  501    0  0.57878327165E+02 -0.24074027053E+02  0.27563952317E+02  0.68477959967E+02  0.00000000000E+00 0.  1.
<scales pt_clust_3="14000.00000" pt_clust_4="76.48066" pt_clust_5="34.46199" pt_clust_6="33.22571"></scales>
<clustering>
<clus scale="   34.462">  1  5  2 -1</clus>
<clus scale="   33.226">  1  6  2 -1</clus>
<clus scale="   76.481">  2  4  1 -1</clus>
<clus scale="   76.481">  2  3  1 -1</clus>
</clustering>
</event>
<event>
 6    0  0.2117869E+002  0.1243208E+03  0.7546771E-02  0.1236135E+00
         -1   -1    0    0    0  501 -0.00000000000E+00  0.00000000000E+00  0.92890117329E+02  0.92890117329E+02  0.00000000000E+00 0.  1.
         21   -1    0    0  503  502  0.00000000000E+00 -0.00000000000E+00 -0.20552016824E+04  0.20552016824E+04  0.00000000000E+00 0. -1.
         21    1    1    2  503  504 -0.11706489815E+03  0.31236381287E+02 -0.93410520132E+03  0.94193016144E+03  0.00000000000E+00 0. -1.
         21    1    1    2  504  501 -0.33247665502E+02 -0.17702596990E+02 -0.17735620845E+02  0.41633417446E+02  0.00000000000E+00 0.  1.
         21    1    1    2  505  502  0.13289537665E+03  0.75544448335E+02 -0.10531804157E+04  0.10642166757E+04  0.00000000000E+00 0. -1.
         -1    1    1    2    0  505  0.17417187003E+02 -0.89078232632E+02  0.42709672824E+02  0.10031154512E+03  0.00000000000E+00 0.  1.
<scales pt_clust_3="124.32078" pt_clust_4="37.66682" pt_clust_5="14000.00000" pt_clust_6="105.39867"></scales>
<clustering>
<clus scale="   37.667">  1  4  2 -1</clus>
<clus scale="  105.399">  1  6  2 -1</clus>
<clus scale="  124.321">  2  3  1 -1</clus>
<clus scale="  124.321">  2  3  1 -1</clus>
</clustering>
</event>
<event>
 6    0  0.2117869E+002  0.8556814E+02  0.7546771E-02  0.1313953E+00
         21   -1    0    0  505  502  0.00000000000E+00  0.00000000000E+00  0.41679947586E+03  0.41679947586E+03  0.00000000000E+00 0.  1.
         -3   -1    0    0    0  501 -0.00000000000E+00 -0.00000000000E+00 -0.17725744811E+04  0.17725744811E+04  0.00000000000E+00 0. -1.
         21    1    1    2  503  501  0.88148036330E+01 -0.33416684881E+02 -0.87001556153E+03  0.87070170144E+03  0.00000000000E+00 0. -1.
         21    1    1    2  504  502 -0.56250362932E+02 -0.11648736365E+03  0.35474267394E+02  0.13413363809E+03  0.00000000000E+00 0.  1.
         21    1    1    2  505  503  0.63283282576E+02  0.34122560268E+02  0.32368650831E+03  0.33157514780E+03  0.00000000000E+00 0.  1.
         -3    1    1    2    0  504 -0.15847723278E+02  0.11578148826E+03 -0.84492021944E+03  0.85296346966E+03  0.00000000000E+00 0. -1.
<scales pt_clust_3="34.55974" pt_clust_4="14000.00000" pt_clust_5="71.86135" pt_clust_6="85.56814"></scales>
<clustering>
<clus scale="   34.560">  2  3  1 -1</clus>
<clus scale="   71.861">  1  5  2 -1</clus>
<clus scale="   85.568">  2  6  1 -1</clus>
<clus scale="   71.861">  1  3  2 -1</clus>
</clustering>
</event>
<event>
 6    0  0.2117869E+002  0.8677629E+02  0.7546771E-02  0.1310852E+00
          2   -1    0    0  505    0 -0.00000000000E+00  0.00000000000E+00  0.15350756847E+04  0.15350756847E+04  0.00000000000E+00 0.  1.
         21   -1    0    0  503  502  0.00000000000E+00 -0.00000000000E+00 -0.21793062602E+04  0.21793062602E+04  0.00000000000E+00 0.  1.
         21    1    1    2  503  501 -0.30590166270E+02 -0.11157338349E+03 -0.10310580809E+03  0.15496833817E+03  0.00000000000E+00 0.  1.
         21    1    1    2  504  502  0.21915180654E+02  0.26361623503E+02 -0.20429506893E+04  0.20432382948E+04  0.00000000000E+00 0.  1.
         21    1    1    2  505  504  0.47690537056E+02  0.25398819933E+02  0.11035181085E+03  0.12286988865E+03  0.00000000000E+00 0. -1.
          2    1    1    2  501    0 -0.39015551440E+02  0.59812940051E+02  0.13914741110E+04  0.13933054234E+04  0.00000000000E+00 0.  1.
<scales pt_clust_3="86.77629" pt_clust_4="34.28134" pt_clust_5="55.49372" pt_clust_6="14000.00000"></scales>
<clustering>
<clus scale="   34.281">  2  4  1 -1</clus>
<clus scale="   55.494">  1  5  2 -1</clus>
<clus scale="   86.776">  2  3  1 -1</clus>
<clus scale="   34.281">  2  3  1 -1</clus>
</clustering>
</event>
<event>
 6    0  0.2117869E+002  0.1317404E+03  0.7546771E-02  0.1224896E+00
         21   -1    0    0  503  502  0.00000000000E+00  0.00000000000E+00  0.39039620994E+03  0.39039620994E+03  0.00000000000E+00 0. -1.
          2   -1    0    0  505    0 -0.00000000000E+00 -0.00000000000E+00 -0.22717934876E+04  0.22717934876E+04  0.00000000000E+00 0. -1.
         21    1    1    2  503  501  0.24900741013E+02  0.64902689753E+02 -0.18677401107E+02  0.71980909638E+02  0.00000000000E+00 0.  1.
         21    1    1    2  504  502  0.72302565119E+02 -0.15345292836E+03  0.33777681680E+03  0.37797968215E+03  0.00000000000E+00 0. -1.
         21    1    1    2  505  504 -0.35165354793E+02 -0.29598605555E+02 -0.13868479852E+03  0.14610322710E+03  0.00000000000E+00 0. -1.
          2    1    1    2  501    0 -0.62037951340E+02  0.11814884416E+03 -0.20618118948E+04  0.20661258786E+04  0.00000000000E+00 0. -1.
<scales pt_clust_3="68.66073" pt_clust_4="14000.00000" pt_clust_5="45.96389" pt_clust_6="131.74044"></scales>
<clustering>
<clus scale="   45.964">  2  5  1 -1</clus>
<clus scale="   68.661">  1  3  2 -1</clus>
<clus scale="  131.740">  2  6  1 -1</clus>
<clus scale="   68.661">  1  3  2 -1</clus>
</clustering>
</event>
<event>
 6    0  0.2117869E+002  0.1861704E+03  0.7546771E-02  0.1161961E+00
          2   -1    0    0  504    0 -0.00000000000E+00  0.00000000000E+00  0.89190269452E+02  0.89190269452E+02  0.00000000000E+00 0. -1.
         21   -1    0    0  505  502  0.00000000000E+00 -0.00000000000E+00 -0.13969982850E+04  0.13969982850E+04  0.00000000000E+00 0. -1.
         21    1    1    2  503  501  0.62329049852E+02  0.12411532415E+03 -0.24962432421E+03  0.28566033568E+03  0.00000000000E+00 0. -1.
         21    1    1    2  504  502 -0.31654996637E+02  0.37266356876E+02 -0.19737944865E+03  0.20334568329E+03  0.00000000000E+00 0. -1.
         21    1    1    2  505  503  0.11017321002E+01  0.58454568369E+02 -0.74386627491E+03  0.74616029466E+03  0.00000000000E+00 0. -1.
          2    1    1    2  501    0 -0.31775785315E+02 -0.21983624939E+03 -0.11693796779E+03  0.25102224082E+03  0.00000000000E+00 0. -1.
<scales pt_clust_3="186.17035" pt_clust_4="48.89601" pt_clust_5="83.74924" pt_clust_6="14000.00000"></scales>
<clustering>
<clus scale="   48.896">  2  4  1 -1</clus>
<clus scale="   83.749">  2  5  1 -1</clus>
<clus scale="  186.170">  2  3  1 -1</clus>
<clus scale="   48.896">  2  3  1 -1</clus>
</clustering>
</event>
<event>
 6    0  0.2117869E+002  0.7770836E+02  0.7546771E-02  0.1335683E+00
          2   -1    0    0  504    0 -0.00000000000E+00  0.00000000000E+00  0.22521333406E+03  0.22521333406E+03  0.00000000000E+00 0. -1.
         21   -1    0    0  501  502  0.00000000000E+00 -0.00000000000E+00 -0.12990562090E+03  0.12990562090E+03  0.00000000000E+00 0. -1.
         21    1    1    2  503  505  0.29855927337E+02  0.65549444464E+02 -0.74156900568E+01  0.72409243372E+02  0.00000000000E+00 0. -1.
         21    1    1    2  504  503 -0.40895097656E+02  0.24479776859E+02  0.11449760542E+03  0.12402165188E+03  0.00000000000E+00 0. -1.
         21    1    1    2  505  502  0.47783478033E+02 -0.16374750031E+02 -0.47149117379E+02  0.69097268261E+02  0.00000000000E+00 0. -1.
          2    1    1    2  501    0 -0.36744307713E+02 -0.73654471292E+02  0.35374915178E+02  0.89590791460E+02  0.00000000000E+00 0. -1.
<scales pt_clust_3="14000.00000" pt_clust_4="47.66202" pt_clust_5="45.69394" pt_clust_6="77.70836"></scales>
<clustering>
<clus scale="   47.662">  1  4  2 -1</clus>
<clus scale="   45.694">  2  5  1 -1</clus>
<clus scale="   77.708">  1  6  2 -1</clus>
<clus scale="   45.694">  2  3  1 -1</clus>
</clustering>
</event>
<event>
 6    0  0.2117869E+002  0.8333038E+02  0.7546771E-02  0.1319857E+00
          1   -1    0    0  503    0 -0.00000000000E+00  0.00000000000E+00  0.76436875032E+03  0.76436875032E+03  0.00000000000E+00 0. -1.
         21   -1    0    0  505  502  0.00000000000E+00 -0.00000000000E+00 -0.22703471822E+03  0.22703471822E+03  0.00000000000E+00 0. -1.
         21    1    1    2  503  504  0.58148606831E+02 -0.29033515943E+02  0.90567471699E+02  0.11147498578E+03  0.00000000000E+00 0.  1.
         21    1    1    2  504  502  0.45878634254E+02 -0.96107555111E+01 -0.21713980730E+02  0.51659584412E+02  0.00000000000E+00 0.  1.
         21    1    1    2  505  501  0.13464685519E+02 -0.50773655680E+02 -0.16741233974E+03  0.17545983404E+03  0.00000000000E+00 0. -1.
          1    1    1    2  501    0 -0.11749192660E+03  0.89417927134E+02  0.63589288086E+03  0.65280906431E+03  0.00000000000E+00 0. -1.
<scales pt_clust_3="67.48708" pt_clust_4="46.87447" pt_clust_5="83.33038" pt_clust_6="14000.00000"></scales>
<clustering>
<clus scale="   46.874">  2  4  1 -1</clus>
<clus scale="   67.487">  1  3  2 -1</clus>
<clus scale="   83.330">  2  5  1 -1</clus>
<clus scale="   46.874">  2  3  1 -1</clus>
</clustering>
</event>
<event>
 6    0  0.2117869E+002  0.1111862E+03  0.7546771E-02  0.1258389E+00
         21   -1    0    0  501  502  0.00000000000E+00  0.00000000000E+00  0.52576560512E+03  0.52576560512E+03  0.00000000000E+00 0. -1.
          2   -1    0    0  504    0 -0.00000000000E+00 -0.00000000000E+00 -0.32405943698E+03  0.32405943698E+03  0.00000000000E+00 0.  1.
         21    1    1    2  503  505  0.64722473884E+02 -0.28613374846E+02 -0.15935243370E+02  0.72537271985E+02  0.00000000000E+00 0. -1.
         21    1    1    2  504  503 -0.12360594020E+02 -0.47591543375E+02 -0.51225655461E+02  0.71005683313E+02  0.00000000000E+00 0.  1.
         21    1    1    2  505  502 -0.95034521678E+02 -0.57940347736E+02  0.45753880172E+03  0.47088257483E+03  0.00000000000E+00 0. -1.
          2    1    1    2  501    0  0.42672641814E+02  0.13414526596E+03 -0.18867173475E+03  0.23539951196E+03  0.00000000000E+00 0.  1.
<scales pt_clust_3="72.56145" pt_clust_4="49.17051" pt_clust_5="111.18625" pt_clust_6="14000.00000"></scales>
<clustering>
<clus scale="   49.171">  2  4  1 -1</clus>
<clus scale="   72.561">  2  3  1 -1</clus>
<clus scale="  111.186">  1  5  2 -1</clus>
<clus scale="  111.186">  1  3  2 -1</clus>
</clustering>
</event>
<event>
 6    0  0.2117869E+002  0.1151668E+03  0.7546771E-02  0.1251290E+00
         21   -1    0    0  505  502  0.00000000000E+00  0.00000000000E+00  0.55187186359E+03  0.55187186359E+03  0.00000000000E+00 0.  1.
         -3   -1    0    0    0  501 -0.00000000000E+00 -0.00000000000E+00 -0.10072236202E+03  0.10072236202E+03  0.00000000000E+00 0.  1.
         21    1    1    2  503  502 -0.14576653538E+03 -0.31231401867E+02  0.20860938417E+03  0.25640038702E+03  0.00000000000E+00 0.  1.
         21    1    1    2  504  501 -0.50451315317E+02  0.51849983759E+01 -0.83847028291E+01  0.51405473122E+02  0.00000000000E+00 0.  1.
         21    1    1    2  505  504  0.72647556414E+02  0.57831570841E+02  0.16997123706E+03  0.19368112832E+03  0.00000000000E+00 0.  1.
         -3    1    1    2    0  503  0.12357029428E+03 -0.31785167350E+02  0.80953583168E+02  0.15110723715E+03  0.00000000000E+00 0.  1.
<scales pt_clust_3="14000.00000" pt_clust_4="50.71705" pt_clust_5="86.99231" pt_clust_6="115.16684"></scales>
<clustering>
<clus scale="   50.717">  2  4  1 -1</clus>
<clus scale="   86.992">  1  5  2 -1</clus>
<clus scale="  115.167">  2  6  1 -1</clus>
<clus scale="   86.992">  1  3  2 -1</clus>
</clustering>
</event>
<event>
 6    0  0.2117869E+002  0.8494933E+02  0.7546771E-02  0.1315565E+00
         -4   -1    0    0    0  501 -0.00000000000E+00  0.00000000000E+00  0.38301000238E+03  0.38301000238E+03  0.00000000000E+00 0.  1.
         21   -1    0    0  505  502  0.00000000000E+00 -0.00000000000E+00 -0.23525836694E+03  0.23525836694E+03  0.00000000000E+00 0.  1.
         21    1    1    2  503  504  0.30785875988E+02 -0.37726126640E+02 -0.55231131169E+02  0.73630894615E+02  0.00000000000E+00 0.  1.
         21    1    1    2  504  501 -0.13559813124E+03 -0.26414134939E+02  0.75295307171E+02  0.15733385841E+03  0.00000000000E+00 0.  1.
         21    1    1    2  505  503  0.43104591913E+02  0.15045289457E+02 -0.11945695183E+03  0.12788404873E+03  0.00000000000E+00 0.  1.
         -4    1    1    2    0  502  0.61707663343E+02  0.49094972122E+02  0.24714441128E+03  0.25941956755E+03  0.00000000000E+00 0.  1.
<scales pt_clust_3="62.79263" pt_clust_4="84.94933" pt_clust_5="45.65486" pt_clust_6="14000.00000"></scales>
<clustering>
<clus scale="   45.655">  2  5  1 -1</clus>
<clus scale="   62.793">  2  3  1 -1</clus>
<clus scale="   84.949">  2  4  1 -1</clus>
<clus scale="   45.655">  2  3  1 -1</clus>
</clustering>
</event>
<event>
 6    0  0.2117869E+002  0.1128390E+03  0.7546771E-02  0.1255401E+00
         -3   -1    0    0    0  501 -0.00000000000E+00  0.00000000000E+00  0.56849654842E+03  0.56849654842E+03  0.00000000000E+00 0. -1.
         21   -1    0    0  504  502  0.00000000000E+00 -0.00000000000E+00 -0.95078954756E+02  0.95078954756E+02  0.00000000000E+00 0. -1.
         21    1    1    2  503  502 -0.48263879759E+02 -0.10155929039E+03  0.43328726900E+02  0.12050340297E+03  0.00000000000E+00 0. -1.
         21    1    1    2  504  501 -0.98285009987E+01  0.83888865240E+02 -0.35362387662E+01  0.84536655527E+02  0.00000000000E+00 0.  1.
         21    1    1    2  505  503 -0.21276820862E+02 -0.34610304942E+02  0.56320105476E+02  0.69444442506E+02  0.00000000000E+00 0. -1.
         -3    1    1    2    0  505  0.79369201620E+02  0.52280730088E+02  0.37730500006E+03  0.38909100217E+03  0.00000000000E+00 0. -1.
<scales pt_clust_3="31.64862" pt_clust_4="84.46266" pt_clust_5="31.64862" pt_clust_6="99.80185"></scales>
<clustering>
<clus scale="   31.649">  3  5 -1 -1</clus>
<clus scale="   84.463">  2  4  1 -1</clus>
<clus scale="   99.802">  1  6  2 -1</clus>
<clus scale="   84.463">  2  3  1 -1</clus>
</clustering>
</event>
<event>
 6    0  0.2117869E+002  0.1099557E+03  0.7546771E-02  0.1260652E+00
         -2   -1    0    0    0  501 -0.00000000000E+00  0.00000000000E+00  0.64550853524E+03  0.64550853524E+03  0.00000000000E+00 0. -1.
         21   -1    0    0  505  502  0.00000000000E+00 -0.00000000000E+00 -0.67054657758E+03  0.67054657758E+03  0.00000000000E+00 0. -1.
         21    1    1    2  503  501 -0.23594803322E+02  0.86557164516E+02  0.10236824998E+03  0.13611802260E+03  0.00000000000E+00 0. -1.
         21    1    1    2  504  502 -0.79953135637E+00 -0.37735680279E+02 -0.39018419040E+03  0.39200551431E+03  0.00000000000E+00 0. -1.
         21    1    1    2  505  503 -0.69768407515E+02  0.31965654466E+02 -0.24940025374E+03  0.26094045359E+03  0.00000000000E+00 0. -1.
         -2    1    1    2    0  504  0.94162742193E+02 -0.80787138703E+02  0.51217815182E+03  0.52699112231E+03  0.00000000000E+00 0. -1.
<scales pt_clust_3="14000.00000" pt_clust_4="37.74415" pt_clust_5="70.54247" pt_clust_6="109.95568"></scales>
<clustering>
<clus scale="   37.744">  2  4  1 -1</clus>
<clus scale="   70.542">  2  5  1 -1</clus>
<clus scale="  109.956">  1  6  2 -1</clus>
<clus scale="   37.744">  2  3  1 -1</clus>
</clustering>
</event>
<event>
 6    0  0.2117869E+002  0.8114294E+02  0.7546771E-02  0.1325839E+00
          2   -1    0    0  505    0 -0.00000000000E+00  0.00000000000E+00  0.11598300145E+04  0.11598300145E+04  0.00000000000E+00 0. -1.
         21   -1    0    0  503  502  0.00000000000E+00 -0.00000000000E+00 -0.14504146600E+03  0.14504146600E+03  0.00000000000E+00 0. -1.
         21    1    1    2  503  504  0.40437377374E+02 -0.14600986397E+02 -0.10819725238E+03  0.11642600962E+03  0.00000000000E+00 0. -1.
         21    1    1    2  504  501  0.34984294462E+02 -0.25974292759E+02 -0.85301500598E+01  0.44399641929E+02  0.00000000000E+00 0.  1.
         21    1    1    2  505  502  0.35629765906E+02 -0.21332506823E+02  0.25602231135E+03  0.25936842517E+03  0.00000000000E+00 0.  1.
          2    1    1    2  501    0 -0.11105143774E+03  0.61907785980E+02  0.87549363961E+03  0.88467740379E+03  0.00000000000E+00 0. -1.
<scales pt_clust_3="43.17857" pt_clust_4="81.14294" pt_clust_5="41.52777" pt_clust_6="14000.00000"></scales>
<clustering>
<clus scale="   41.528">  1  5  2 -1</clus>
<clus scale="   43.179">  2  3  1 -1</clus>
<clus scale="   81.143">  2  4  1 -1</clus>
<clus scale="   43.179">  2  3  1 -1</clus>
</clustering>
</event>
<event>
 6    0  0.2117869E+002  0.6806489E+02  0.7546771E-02  0.1366800E+00
         21   -1    0    0  501  502  0.00000000000E+00  0.00000000000E+00  0.65261319861E+03  0.65261319861E+03  0.00000000000E+00 0.  1.
          2   -1    0    0  505    0 -0.00000000000E+00 -0.00000000000E+00 -0.97736755061E+03  0.97736755061E+03  0.00000000000E+00 0.  1.
         21    1    1    2  503  504  0.36894648888E+02  0.89485850068E+02  0.10607325314E+03  0.14359828519E+03  0.00000000000E+00 0.  1.
         21    1    1    2  504  502 -0.18892941871E+02 -0.24853979559E+02  0.52232196058E+03  0.52325413907E+03  0.00000000000E+00 0.  1.
         21    1    1    2  505  503  0.50291818065E+02 -0.22940051381E+02 -0.29513861976E+03  0.30027040780E+03  0.00000000000E+00 0.  1.
          2    1    1    2  501    0 -0.68293525083E+02 -0.41691819128E+02 -0.65801094595E+03  0.66285791716E+03  0.00000000000E+00 0.  1.
<scales pt_clust_3="68.06489" pt_clust_4="31.21960" pt_clust_5="55.14411" pt_clust_6="14000.00000"></scales>
<clustering>
<clus scale="   31.220">  1  4  2 -1</clus>
<clus scale="   55.144">  2  5  1 -1</clus>
<clus scale="   68.065">  1  3  2 -1</clus>
<clus scale="   31.220">  1  3  2 -1</clus>
</clustering>
</event>
<event>
 6    0  0.2117869E+002  0.8375450E+02  0.7546771E-02  0.1318722E+00
         21   -1    0    0  503  502  0.00000000000E+00  0.00000000000E+00  0.23041302889E+03  0.23041302889E+03  0.00000000000E+00 0.  1.
          2   -1    0    0  504    0 -0.00000000000E+00 -0.00000000000E+00 -0.44510703429E+04  0.44510703429E+04  0.00000000000E+00 0.  1.
         21    1    1    2  503  505  0.20072595007E+02 -0.43282020325E+02  0.80834817252E+02  0.93864317149E+02  0.00000000000E+00 0.  1.
         21    1    1    2  504  502  0.10886758838E+02  0.63792782786E+02  0.13205760501E+03  0.14706206749E+03  0.00000000000E+00 0.  1.
         21    1    1    2  505  501  0.56735069029E+02 -0.23270341047E+02 -0.30647170679E+03  0.31254645078E+03  0.00000000000E+00 0. -1.
          2    1    1    2  501    0 -0.87694422873E+02  0.27595785861E+01 -0.41270780294E+04  0.41280105363E+04  0.00000000000E+00 0.  1.
<scales pt_clust_3="47.70998" pt_clust_4="37.33071" pt_clust_5="83.75450" pt_clust_6="14000.00000"></scales>
<clustering>
<clus scale="   47.710">  1  3  2 -1</clus>
<clus scale="   37.331">  1  4  2 -1</clus>
<clus scale="   83.754">  1  5  2 -1</clus>
<clus scale="   47.710">  1  3  2 -1</clus>
</clustering>
</event>
<event>
 6    0  0.2117869E+002  0.1074037E+03  0.7546771E-02  0.1265455E+00
         21   -1    0    0  505  502  0.00000000000E+00  0.00000000000E+00  0.46445227274E+03  0.46445227274E+03  0.00000000000E+00 0. -1.
          2   -1    0    0  504    0 -0.00000000000E+00 -0.00000000000E+00 -0.16934926530E+03  0.16934926530E+03  0.00000000000E+00 0.  1.
         21    1    1    2  503  502 -0.11040451387E+03  0.39378791993E+02  0.24018883148E+03  0.26726488866E+03  0.00000000000E+00 0. -1.
         21    1    1    2  504  503 -0.15436722419E+02  0.67740565534E+02  0.35523179358E+01  0.69567920628E+02  0.00000000000E+00 0.  1.
         21    1    1    2  505  501  0.31525738491E+02  0.20025602391E+02  0.11906966317E+03  0.12478974968E+03  0.00000000000E+00 0.  1.
          2    1    1    2  501    0  0.94315497798E+02 -0.12714495992E+03 -0.67707805146E+02  0.17217897907E+03  0.00000000000E+00 0.  1.
<scales pt_clust_3="14000.00000" pt_clust_4="70.91311" pt_clust_5="37.34832" pt_clust_6="107.40370"></scales>
<clustering>
<clus scale="   37.348">  1  5  2 -1</clus>
<clus scale="   70.913">  2  4  1 -1</clus>
<clus scale="  107.404">  2  6  1 -1</clus>
<clus scale="   37.348">  1  3  2 -1</clus>
</clustering>
</event>
<event>
 6    0  0.2117869E+002  0.8351101E+02  0.7546771E-02  0.1319373E+00
         -1   -1    0    0    0  501 -0.00000000000E+00  0.00000000000E+00  0.84460998404E+03  0.84460998404E+03  0.00000000000E+00 0. -1.
         21   -1    0    0  503  502  0.00000000000E+00 -0.00000000000E+00 -0.13817953822E+03  0.13817953822E+03  0.00000000000E+00 0.  1.
         21    1    1    2  503  501  0.17762083017E+02  0.33426339886E+02  0.20251622155E+03  0.20602337679E+03  0.00000000000E+00 0.  1.
         21    1    1    2  504  502  0.56862016218E+02 -0.37437999689E+01 -0.86180562154E+02  0.10331695998E+03  0.00000000000E+00 0. -1.
         21    1    1    2  505  504 -0.45076673467E+02  0.82876669313E+02  0.26539601969E+02  0.98004077874E+02  0.00000000000E+00 0.  1.
         -1    1    1    2    0  505 -0.29547425768E+02 -0.11255920923E+03  0.56355518446E+03  0.57544510762E+03  0.00000000000E+00 0. -1.
<scales pt_clust_3="37.85250" pt_clust_4="57.19477" pt_clust_5="83.51101" pt_clust_6="14000.00000"></scales>
<clustering>
<clus scale="   37.853">  1  3  2 -1</clus>
<clus scale="   57.195">  2  4  1 -1</clus>
<clus scale="   83.511">  2  5  1 -1</clus>
<clus scale="   57.195">  2  3  1 -1</clus>
</clustering>
</event>
<event>
 6    0  0.2117869E+002  0.8406415E+02  0.7546771E-02  0.1317898E+00
         21   -1    0    0  503  502  0.00000000000E+00  0.00000000000E+00  0.13394723767E+03  0.13394723767E+03  0.00000000000E+00 0. -1.
         -2   -1    0    0    0  501 -0.00000000000E+00 -0.00000000000E+00 -0.26651677719E+03  0.26651677719E+03  0.00000000000E+00 0. -1.
         21    1    1    2  503  504 -0.63020480209E+02  0.50334107736E+02 -0.18696403510E+02  0.82792867034E+02  0.00000000000E+00 0. -1.
         21    1    1    2  504  501 -0.25140487290E+02  0.43094428660E+02 -0.65698650022E+02  0.82495372582E+02  0.00000000000E+00 0. -1.
         21    1    1    2  505  502  0.52044247825E+02 -0.68707206559E+02  0.68797892668E+02  0.11028342577E+03  0.00000000000E+00 0. -1.
         -2    1    1    2    0  505  0.36116719674E+02 -0.24721329838E+02 -0.11697237866E+03  0.12489234948E+03  0.00000000000E+00 0. -1.
<scales pt_clust_3="14000.00000" pt_clust_4="31.25173" pt_clust_5="84.06415" pt_clust_6="43.76713"></scales>
<clustering>
<clus scale="   43.767">  2  6  1 -1</clus>
<clus scale="   31.252">  2  4  1 -1</clus>
<clus scale="   84.064">  1  5  2 -1</clus>
<clus scale="   84.064">  1  3  2 -1</clus>
</clustering>
</event>
<event>
 6    0  0.2117869E+002  0.1414561E+03  0.7546771E-02  0.1211383E+00
         21   -1    0    0  501  502  0.00000000000E+00  0.00000000000E+00  0.45997844935E+03  0.45997844935E+03  0.00000000000E+00 0. -1.
          3   -1    0    0  504    0 -0.00000000000E+00 -0.00000000000E+00 -0.18816143567E+03  0.18816143567E+03  0.00000000000E+00 0.  1.
         21    1    1    2  503  502 -0.32711827983E+02 -0.38558793190E+01  0.30468977096E+03  0.30646498662E+03  0.00000000000E+00 0. -1.
         21    1    1    2  504  505 -0.37574384463E+02 -0.58699886279E+01  0.17968247653E+02  0.42061253642E+02  0.00000000000E+00 0.  1.
         21    1    1    2  505  503 -0.66326202401E+02  0.42208836002E+02  0.76760128435E+02  0.10987660478E+03  0.00000000000E+00 0.  1.
          3    1    1    2  501    0  0.13661241485E+03 -0.32482968055E+02 -0.12760113336E+03  0.18973703998E+03  0.00000000000E+00 0.  1.
<scales pt_clust_3="32.93830" pt_clust_4="31.07152" pt_clust_5="31.07152" pt_clust_6="134.21633"></scales>
<clustering>
<clus scale="   31.072">  4  5 -1 -1</clus>
<clus scale="   32.938">  1  3  2 -1</clus>
<clus scale="  134.216">  2  6  1 -1</clus>
<clus scale="   32.938">  1  3  2 -1</clus>
</clustering>
</event>
<event>
 6    0  0.2117869E+002  0.3763655E+03  0.7546771E-02  0.1052285E+00
         21   -1    0    0  504  502  0.00000000000E+00  0.00000000000E+00  0.52853020663E+03  0.52853020663E+03  0.00000000000E+00 0.  1.
         -2   -1    0    0    0  501 -0.00000000000E+00 -0.00000000000E+00 -0.76813159155E+03  0.76813159155E+03  0.00000000000E+00 0. -1.
         21    1    1    2  503  505 -0.26158020627E+03 -0.22786370665E+02  0.20150664789E+03  0.33098089393E+03  0.00000000000E+00 0.  1.
         21    1    1    2  504  501  0.99330833758E+01  0.38092086977E+02 -0.97780978602E+02  0.10540774645E+03  0.00000000000E+00 0.  1.
         21    1    1    2  505  502 -0.90797270953E+02 -0.21080745248E+02  0.19848818234E+03  0.21928543217E+03  0.00000000000E+00 0.  1.
         -2    1    1    2    0  503  0.34244439385E+03  0.57750289349E+01 -0.54181523655E+03  0.64098772562E+03  0.00000000000E+00 0. -1.
<scales pt_clust_3="77.07090" pt_clust_4="39.36589" pt_clust_5="77.07090" pt_clust_6="353.47992"></scales>
<clustering>
<clus scale="   39.366">  2  4  1 -1</clus>
<clus scale="   77.071">  3  5 -1 -1</clus>
<clus scale="  353.480">  2  6  1 -1</clus>
<clus scale="  376.366">  1  3  2 -1</clus>
</clustering>
</event>
<event>
 6    0  0.2117869E+002  0.1492366E+03  0.7546771E-02  0.1201414E+00
         -3   -1    0    0    0  501 -0.00000000000E+00  0.00000000000E+00  0.41334172271E+03  0.41334172271E+03  0.00000000000E+00 0.  1.
         21   -1    0    0  504  502  0.00000000000E+00 -0.00000000000E+00 -0.32081853152E+03  0.32081853152E+03  0.00000000000E+00 0.  1.
         21    1    1    2  503  501 -0.35949241428E+02 -0.28553052554E+01  0.25939937590E+03  0.26189413308E+03  0.00000000000E+00 0.  1.
         21    1    1    2  504  505  0.12374841468E+03 -0.80615922654E+02 -0.20284470158E+03  0.25091546401E+03  0.00000000000E+00 0.  1.
         21    1    1    2  505  503  0.51589677353E+02  0.11399550526E+02 -0.17366837450E+02  0.55615210191E+02  0.00000000000E+00 0.  1.
         -3    1    1    2    0  502 -0.13938885061E+03  0.72071677383E+02  0.53335354326E+02  0.16573544695E+03  0.00000000000E+00 0.  1.
<scales pt_clust_3="36.06246" pt_clust_4="14000.00000" pt_clust_5="48.36458" pt_clust_6="149.23655"></scales>
<clustering>
<clus scale="   36.062">  1  3  2 -1</clus>
<clus scale="   48.365">  1  5  2 -1</clus>
<clus scale="  149.237">  1  6  2 -1</clus>
<clus scale="  149.237">  2  3  1 -1</clus>
</clustering>
</event>
<event>
 6    0  0.2117869E+002  0.9419051E+02  0.7546771E-02  0.1293010E+00
          1   -1    0    0  504    0 -0.00000000000E+00  0.00000000000E+00  0.21028136054E+04  0.21028136054E+04  0.00000000000E+00 0. -1.
         21   -1    0    0  503  502  0.00000000000E+00 -0.00000000000E+00 -0.81558288090E+02  0.81558288090E+02  0.00000000000E+00 0. -1.
         21    1    1    2  503  501  0.36088915866E+02  0.11646078688E+02 -0.21589175809E+02  0.43636378279E+02  0.00000000000E+00 0. -1.
         21    1    1    2  504  505 -0.26174040855E+02 -0.17201293632E+02  0.11528256789E+04  0.11532510615E+04  0.00000000000E+00 0. -1.
         21    1    1    2  505  502 -0.12382385702E+03 -0.26222387513E+02  0.45153892753E+02  0.13438316563E+03  0.00000000000E+00 0. -1.
          1    1    1    2  501    0  0.11390898201E+03  0.31777602458E+02  0.84486492142E+03  0.85310128803E+03  0.00000000000E+00 0. -1.
<scales pt_clust_3="37.57121" pt_clust_4="31.32036" pt_clust_5="94.19051" pt_clust_6="14000.00000"></scales>
<clustering>
<clus scale="   31.320">  1  4  2 -1</clus>
<clus scale="   37.571">  2  3  1 -1</clus>
<clus scale="   94.191">  2  5  1 -1</clus>
<clus scale="   37.571">  2  3  1 -1</clus>
</clustering>
</event>
<event>
 6    0  0.2117869E+002  0.9849978E+02  0.7546771E-02  0.1283483E+00
          2   -1    0    0  503    0 -0.00000000000E+00  0.00000000000E+00  0.15157333493E+03  0.15157333493E+03  0.00000000000E+00 0. -1.
         21   -1    0    0  504  502  0.00000000000E+00 -0.00000000000E+00 -0.38824849238E+03  0.38824849238E+03  0.00000000000E+00 0. -1.
         21    1    1    2  503  505  0.27821897762E+02  0.11545758733E+02  0.16627289074E+01  0.30168314623E+02  0.00000000000E+00 0.  1.
         21    1    1    2  504  501 -0.23424653197E+02  0.52494664947E+02 -0.17305887075E+03  0.18235618161E+03  0.00000000000E+00 0. -1.
         21    1    1    2  505  502  0.89991831099E+02  0.19928760042E+02 -0.14938197140E+03  0.17552965140E+03  0.00000000000E+00 0. -1.
          2    1    1    2  501    0 -0.94389075664E+02 -0.83969183722E+02  0.84102955791E+02  0.15176767967E+03  0.00000000000E+00 0. -1.
<scales pt_clust_3="30.12246" pt_clust_4="57.46601" pt_clust_5="98.49978" pt_clust_6="14000.00000"></scales>
<clustering>
<clus scale="   30.122">  1  3  2 -1</clus>
<clus scale="   57.466">  2  4  1 -1</clus>
<clus scale="   98.500">  2  5  1 -1</clus>
<clus scale="   57.466">  2  3  1 -1</clus>
</clustering>
</event>
<event>
 6    0  0.2117869E+002  0.1994136E+03  0.7546771E-02  0.1150235E+00
          1   -1    0    0  503    0 -0.00000000000E+00  0.00000000000E+00  0.46585600206E+03  0.46585600206E+03  0.00000000000E+00 0.  1.
         21   -1    0    0  505  502  0.00000000000E+00 -0.00000000000E+00 -0.54255322957E+03  0.54255322957E+03  0.00000000000E+00 0. -1.
         21    1    1    2  503  504 -0.14820283830E+03 -0.16518040327E+03 -0.22311030059E+03  0.31468532399E+03  0.00000000000E+00 0. -1.
         21    1    1    2  504  502  0.25287298559E+02  0.25849380909E+02 -0.24924939604E+03  0.25185888785E+03  0.00000000000E+00 0. -1.
         21    1    1    2  505  501  0.68941039340E+02  0.56306722827E+02  0.12340969635E+03  0.15216197651E+03  0.00000000000E+00 0.  1.
          1    1    1    2  501    0  0.53974500404E+02  0.83024299536E+02  0.27225277277E+03  0.28970304328E+03  0.00000000000E+00 0.  1.
<scales pt_clust_3="188.65639" pt_clust_4="36.16128" pt_clust_5="61.53443" pt_clust_6="61.53443"></scales>
<clustering>
<clus scale="   36.161">  2  4  1 -1</clus>
<clus scale="   61.534">  5  6 -1 -1</clus>
<clus scale="  188.656">  2  3  1 -1</clus>
<clus scale="   36.161">  2  3  1 -1</clus>
</clustering>
</event>
<event>
 6    0  0.2117869E+002  0.7161178E+02  0.7546771E-02  0.1354696E+00
          2   -1    0    0  504    0 -0.00000000000E+00  0.00000000000E+00  0.11123572083E+04  0.11123572083E+04  0.00000000000E+00 0. -1.
         21   -1    0    0  505  502  0.00000000000E+00 -0.00000000000E+00 -0.55469899328E+02  0.55469899328E+02  0.00000000000E+00 0. -1.
         21    1    1    2  503  501  0.49134754003E+02  0.29208847829E+02  0.42307110699E+02  0.71114502446E+02  0.00000000000E+00 0. -1.
         21    1    1    2  504  502  0.18166689356E+02  0.68081323372E+02  0.70656277620E+03  0.71006763897E+03  0.00000000000E+00 0. -1.
         21    1    1    2  505  503  0.42965604816E+01 -0.43170046753E+02 -0.19126846147E+02  0.47412546991E+02  0.00000000000E+00 0. -1.
          2    1    1    2  501    0 -0.71598003841E+02 -0.54120124447E+02  0.32714426819E+03  0.33923241920E+03  0.00000000000E+00 0. -1.
<scales pt_clust_3="51.93626" pt_clust_4="14000.00000" pt_clust_5="43.38333" pt_clust_6="71.61178"></scales>
<clustering>
<clus scale="   43.383">  2  5  1 -1</clus>
<clus scale="   51.936">  2  3  1 -1</clus>
<clus scale="   71.612">  2  6  1 -1</clus>
<clus scale="   43.383">  2  3  1 -1</clus>
</clustering>
</event>
<event>
 6    0  0.2117869E+002  0.1205808E+03  0.7546771E-02  0.1242142E+00
         21   -1    0    0  505  502  0.00000000000E+00  0.00000000000E+00  0.17470733626E+04  0.17470733626E+04  0.00000000000E+00 0. -1.
          4   -1    0    0  504    0 -0.00000000000E+00 -0.00000000000E+00 -0.29085174063E+03  0.29085174063E+03  0.00000000000E+00 0. -1.
         21    1    1    2  503  502 -0.37628467636E+02 -0.96898133563E+01  0.15802082509E+03  0.16272791777E+03  0.00000000000E+00 0. -1.
         21    1    1    2  504  503 -0.87183477919E+02 -0.35733762761E+02 -0.83918568050E+02  0.12617522216E+03  0.00000000000E+00 0. -1.
         21    1    1    2  505  501 -0.40311187436E+02  0.63397622983E+00  0.15253559494E+04  0.15258886480E+04  0.00000000000E+00 0. -1.
          4    1    1    2  501    0  0.16512313299E+03  0.44789599887E+02 -0.14323658441E+03  0.22313331535E+03  0.00000000000E+00 0. -1.
<scales pt_clust_3="38.85607" pt_clust_4="14000.00000" pt_clust_5="76.98246" pt_clust_6="120.58082"></scales>
<clustering>
<clus scale="   38.856">  1  3  2 -1</clus>
<clus scale="   76.982">  1  5  2 -1</clus>
<clus scale="  120.581">  1  6  2 -1</clus>
<clus scale="   38.856">  1  3  2 -1</clus>
</clustering>
</event>
<event>
 6    0  0.2117869E+002  0.8507736E+02  0.7546771E-02  0.1315230E+00
         21   -1    0    0  505  502  0.00000000000E+00  0.00000000000E+00  0.79149601060E+03  0.79149601060E+03  0.00000000000E+00 0.  1.
         -4   -1    0    0    0  501 -0.00000000000E+00 -0.00000000000E+00 -0.22901866196E+03  0.22901866196E+03  0.00000000000E+00 0.  1.
         21    1    1    2  503  501 -0.18474121296E+02  0.31621079041E+02  0.99877507334E+01  0.37959728162E+02  0.00000000000E+00 0.  1.
         21    1    1    2  504  502 -0.22915501689E+01  0.34223757040E+02  0.42637847327E+03  0.42775591079E+03  0.00000000000E+00 0.  1.
         21    1    1    2  505  503 -0.67787896674E+02 -0.79817737569E+02  0.32241408051E+03  0.33899396673E+03  0.00000000000E+00 0.  1.
         -4    1    1    2    0  504  0.88553568139E+02  0.13972901487E+02 -0.19630295587E+03  0.21580506688E+03  0.00000000000E+00 0.  1.
<scales pt_clust_3="38.65527" pt_clust_4="34.30039" pt_clust_5="14000.00000" pt_clust_6="85.07736"></scales>
<clustering>
<clus scale="   34.300">  1  4  2 -1</clus>
<clus scale="   38.655">  2  3  1 -1</clus>
<clus scale="   85.077">  2  6  1 -1</clus>
<clus scale="   34.300">  1  3  2 -1</clus>
</clustering>
</event>
<event>
 6    0  0.2117869E+002  0.6123388E+02  0.7546771E-02  0.1392725E+00
          2   -1    0    0  504    0 -0.00000000000E+00  0.00000000000E+00  0.74045638266E+03  0.74045638266E+03  0.00000000000E+00 0.  1.
         21   -1    0    0  503  502  0.00000000000E+00 -0.00000000000E+00 -0.57065178017E+03  0.57065178017E+03  0.00000000000E+00 0. -1.
         21    1    1    2  503  501 -0.73135202005E+02  0.54188136096E+02 -0.41747008444E+03  0.42727787595E+03  0.00000000000E+00 0. -1.
         21    1    1    2  504  505 -0.37896999838E+02 -0.92409091396E+01  0.24245752027E+03  0.24557529626E+03  0.00000000000E+00 0. -1.
         21    1    1    2  505  502  0.36188715859E+02 -0.59795054230E+01 -0.14072945308E+03  0.14543093414E+03  0.00000000000E+00 0. -1.
          2    1    1    2  501    0  0.74843485984E+02 -0.38967721534E+02  0.48554661974E+03  0.49282405649E+03  0.00000000000E+00 0.  1.
<scales pt_clust_3="61.23388" pt_clust_4="38.88441" pt_clust_5="36.67939" pt_clust_6="14000.00000"></scales>
<clustering>
<clus scale="   36.679">  2  5  1 -1</clus>
<clus scale="   38.884">  1  4  2 -1</clus>
<clus scale="   61.234">  2  3  1 -1</clus>
<clus scale="   36.679">  2  3  1 -1</clus>
</clustering>
</event>
<event>
 6    0  0.2117869E+002  0.1183178E+03  0.7546771E-02  0.1245898E+00
         21   -1    0    0  505  502  0.00000000000E+00  0.00000000000E+00  0.21860236173E+03  0.21860236173E+03  0.00000000000E+00 0.  1.
          1   -1    0    0  503    0 -0.00000000000E+00 -0.00000000000E+00 -0.27942134782E+03  0.27942134782E+03  0.00000000000E+00 0.  1.
         21    1    1    2  503  504  0.15790660706E+02 -0.37814830055E+02 -0.53242203465E+02  0.67186595147E+02  0.00000000000E+00 0.  1.
         21    1    1    2  504  502 -0.85863508277E+02  0.66243960477E+02  0.89879696019E+02  0.14085156765E+03  0.00000000000E+00 0. -1.
         21    1    1    2  505  501  0.10522431833E+03 -0.93550696292E+02  0.28731234222E+02  0.14369889967E+03  0.00000000000E+00 0.  1.
          1    1    1    2  501    0 -0.35151470764E+02  0.65121565869E+02 -0.12618771286E+03  0.14628664709E+03  0.00000000000E+00 0.  1.
<scales pt_clust_3="40.97934" pt_clust_4="14000.00000" pt_clust_5="118.31776" pt_clust_6="48.72563"></scales>
<clustering>
<clus scale="   40.979">  2  3  1 -1</clus>
<clus scale="   48.726">  2  6  1 -1</clus>
<clus scale="  118.318">  2  5  1 -1</clus>
<clus scale="  118.318">  1  3  2 -1</clus>
</clustering>
</event>
<event>
 6    0  0.2117869E+002  0.7778622E+02  0.7546771E-02  0.1335454E+00
          1   -1    0    0  505    0 -0.00000000000E+00  0.00000000000E+00  0.22028453608E+04  0.22028453608E+04  0.00000000000E+00 0.  1.
         21   -1    0    0  503  502  0.00000000000E+00 -0.00000000000E+00 -0.21176267761E+02  0.21176267761E+02  0.00000000000E+00 0.  1.
         21    1    1    2  503  501  0.66310546156E+02  0.66336655937E+02  0.30958361495E+03  0.32348053279E+03  0.00000000000E+00 0.  1.
         21    1    1    2  504  502 -0.32423866032E+01 -0.39003613986E+02  0.20494438536E+02  0.44179372854E+02  0.00000000000E+00 0.  1.
         21    1    1    2  505  504  0.27449394756E+02  0.13679771717E+02  0.29152695503E+03  0.29313575513E+03  0.00000000000E+00 0.  1.
          1    1    1    2  501    0 -0.90517554309E+02 -0.41012813668E+02  0.15600640845E+04  0.15632259678E+04  0.00000000000E+00 0.  1.
<scales pt_clust_3="14000.00000" pt_clust_4="38.87145" pt_clust_5="30.66929" pt_clust_6="77.78622"></scales>
<clustering>
<clus scale="   30.669">  1  5  2 -1</clus>
<clus scale="   38.871">  2  4  1 -1</clus>
<clus scale="   77.786">  1  6  2 -1</clus>
<clus scale="   38.871">  2  3  1 -1</clus>
</clustering>
</event>
<event>
 6    0  0.2117869E+002  0.3220306E+03  0.7546771E-02  0.1074719E+00
          2   -1    0    0  503    0 -0.00000000000E+00  0.00000000000E+00  0.70202768788E+03  0.70202768788E+03  0.00000000000E+00 0.  1.
         21   -1    0    0  505  502  0.00000000000E+00 -0.00000000000E+00 -0.15743685770E+04  0.15743685770E+04  0.00000000000E+00 0. -1.
         21    1    1    2  503  504  0.22070388539E+03 -0.48220593028E+02 -0.85314849617E+01  0.22607126499E+03  0.00000000000E+00 0.  1.
         21    1    1    2  504  502  0.12476465697E+03  0.64680352376E+01 -0.13995010457E+04  0.14050662732E+04  0.00000000000E+00 0. -1.
         21    1    1    2  505  501 -0.38493914613E+02 -0.23343102520E+02  0.83307629230E+02  0.94693415745E+02  0.00000000000E+00 0. -1.
          2    1    1    2  501    0 -0.30697462775E+03  0.65095660310E+02  0.45238401230E+03  0.55056531098E+03  0.00000000000E+00 0.  1.
<scales pt_clust_3="308.87249" pt_clust_4="124.93220" pt_clust_5="34.51022" pt_clust_6="34.51022"></scales>
<clustering>
<clus scale="   34.510">  5  6 -1 -1</clus>
<clus scale="  124.932">  2  4  1 -1</clus>
<clus scale="  308.872">  2  3  1 -1</clus>
<clus scale="  124.932">  2  3  1 -1</clus>
</clustering>
</event>
<event>
 6    0  0.2117869E+002  0.1420768E+03  0.7546771E-02  0.1210561E+00
         21   -1    0    0  504  502  0.00000000000E+00  0.00000000000E+00  0.43386686453E+03  0.43386686453E+03  0.00000000000E+00 0. -1.
          1   -1    0    0  505    0 -0.00000000000E+00 -0.00000000000E+00 -0.12933603580E+04  0.12933603580E+04  0.00000000000E+00 0.  1.
         21    1    1    2  503  501  0.67593283113E+02  0.81033102118E+02 -0.55634284118E+02  0.11929119469E+03  0.00000000000E+00 0.  1.
         21    1    1    2  504  503 -0.13048108867E+03 -0.71950286591E+02  0.38023707854E+03  0.40839000250E+03  0.00000000000E+00 0. -1.
         21    1    1    2  505  502 -0.62174327067E+02 -0.11936917387E+02 -0.29698052674E+03  0.30365370113E+03  0.00000000000E+00 0.  1.
          1    1    1    2  501    0  0.12506213263E+03  0.28541018593E+01 -0.88711576118E+03  0.89589232425E+03  0.00000000000E+00 0.  1.
<scales pt_clust_3="14000.00000" pt_clust_4="142.07683" pt_clust_5="63.30985" pt_clust_6="69.69008"></scales>
<clustering>
<clus scale="   63.310">  2  5  1 -1</clus>
<clus scale="   69.690">  2  6  1 -1</clus>
<clus scale="  142.077">  1  4  2 -1</clus>
<clus scale="  142.077">  1  3  2 -1</clus>
</clustering>
</event>
<event>
 6    0  0.2117869E+002  0.9850726E+02  0.7546771E-02  0.1283467E+00
         21   -1    0    0  503  502  0.00000000000E+00  0.00000000000E+00  0.58039843978E+03  0.58039843978E+03  0.00000000000E+00 0.  1.
          1   -1    0    0  504    0 -0.00000000000E+00 -0.00000000000E+00 -0.70892947984E+02  0.70892947984E+02  0.00000000000E+00 0.  1.
         21    1    1    2  503  505 -0.59663101289E+02  0.57101848441E+01  0.34223575689E+03  0.34744439146E+03  0.00000000000E+00 0.  1.
         21    1    1    2  504  502  0.12778371733E+02  0.35437345113E+02  0.30404609734E+02  0.48410045506E+02  0.00000000000E+00 0.  1.
         21    1    1    2  505  501 -0.61692436170E+02  0.23590311631E+02  0.10667939955E+03  0.12547092800E+03  0.00000000000E+00 0.  1.
          1    1    1    2  501    0  0.10857716573E+03 -0.64737841588E+02  0.30185725622E+02  0.12996602280E+03  0.00000000000E+00 0.  1.
<scales pt_clust_3="59.56234" pt_clust_4="37.67084" pt_clust_5="14000.00000" pt_clust_6="98.50726"></scales>
<clustering>
<clus scale="   37.671">  2  4  1 -1</clus>
<clus scale="   59.562">  1  3  2 -1</clus>
<clus scale="   98.507">  2  6  1 -1</clus>
<clus scale="   59.562">  1  3  2 -1</clus>
</clustering>
</event>
<event>
 6    0  0.2117869E+002  0.1878701E+03  0.7546771E-02  0.1160396E+00
          1   -1    0    0  504    0 -0.00000000000E+00  0.00000000000E+00  0.27962378423E+03  0.27962378423E+03  0.00000000000E+00 0.  1.
         21   -1    0    0  503  502  0.00000000000E+00 -0.00000000000E+00 -0.40928358669E+03  0.40928358669E+03  0.00000000000E+00 0. -1.
         21    1    1    2  503  505 -0.40808839267E+02  0.17270913918E+02 -0.14172188740E+03  0.14848817865E+03  0.00000000000E+00 0. -1.
         21    1    1    2  504  502  0.16742345282E+02 -0.25553173080E+02 -0.10546036082E+03  0.10979598573E+03  0.00000000000E+00 0.  1.
         21    1    1    2  505  501 -0.17033779764E+03  0.19230849104E+02 -0.44741019121E+02  0.17716249506E+03  0.00000000000E+00 0. -1.
          1    1    1    2  501    0  0.19440429163E+03 -0.10948589943E+02  0.16226346488E+03  0.25346071147E+03  0.00000000000E+00 0.  1.
<scales pt_clust_3="33.13156" pt_clust_4="30.54948" pt_clust_5="14000.00000" pt_clust_6="187.87012"></scales>
<clustering>
<clus scale="   30.549">  2  4  1 -1</clus>
<clus scale="   33.132">  2  3  1 -1</clus>
<clus scale="  187.870">  1  6  2 -1</clus>
<clus scale="   30.549">  2  3  1 -1</clus>
</clustering>
</event>
<event>
 6    0  0.2117869E+002  0.2162140E+03  0.7546771E-02  0.1136738E+00
         21   -1    0    0  505  502  0.00000000000E+00  0.00000000000E+00  0.26410559036E+03  0.26410559036E+03  0.00000000000E+00 0. -1.
          2   -1    0    0  504    0 -0.00000000000E+00 -0.00000000000E+00 -0.23934286189E+04  0.23934286189E+04  0.00000000000E+00 0.  1.
         21    1    1    2  503  501 -0.63026306953E+02 -0.26723826742E+03 -0.46912550870E+03  0.54356908471E+03  0.00000000000E+00 0. -1.
         21    1    1    2  504  502  0.16035803205E+03  0.64491380777E+02  0.16708020267E+03  0.24039473947E+03  0.00000000000E+00 0. -1.
         21    1    1    2  505  503 -0.33880620001E+02  0.58439955701E+00  0.16385445154E+00  0.33886055875E+02  0.00000000000E+00 0.  1.
          2    1    1    2  501    0 -0.63451105100E+02  0.20216248709E+03 -0.18274415769E+04  0.18396843292E+04  0.00000000000E+00 0.  1.
<scales pt_clust_3="14000.00000" pt_clust_4="147.50183" pt_clust_5="33.88566" pt_clust_6="216.21398"></scales>
<clustering>
<clus scale="   33.886">  1  5  2 -1</clus>
<clus scale="  147.502">  1  4  2 -1</clus>
<clus scale="  216.214">  2  6  1 -1</clus>
<clus scale="   33.886">  1  3  2 -1</clus>
</clustering>
</event>
<event>
 6    0  0.2117869E+002  0.1346435E+03  0.7546771E-02  0.1220724E+00
          1   -1    0    0  505    0 -0.00000000000E+00  0.00000000000E+00  0.52784664408E+04  0.52784664408E+04  0.00000000000E+00 0. -1.
         21   -1    0    0  504  502  0.00000000000E+00 -0.00000000000E+00 -0.44757698412E+02  0.44757698412E+02  0.00000000000E+00 0. -1.
         21    1    1    2  503  502  0.22395004517E+02  0.45799278163E+02 -0.70907165982E+01  0.51472209681E+02  0.00000000000E+00 0. -1.
         21    1    1    2  504  501  0.12483897033E+03  0.22062755275E+02  0.33597075825E+03  0.35909314124E+03  0.00000000000E+00 0. -1.
         21    1    1    2  505  503 -0.69222649960E+02  0.47045072196E+02  0.62523508357E+03  0.63081211451E+03  0.00000000000E+00 0.  1.
          1    1    1    2  501    0 -0.78011324885E+02 -0.11490710564E+03  0.42795936172E+04  0.42818466738E+04  0.00000000000E+00 0. -1.
<scales pt_clust_3="50.98147" pt_clust_4="14000.00000" pt_clust_5="85.48212" pt_clust_6="134.64351"></scales>
<clustering>
<clus scale="   50.981">  2  3  1 -1</clus>
<clus scale="   85.482">  2  5  1 -1</clus>
<clus scale="  134.644">  1  6  2 -1</clus>
<clus scale="   50.981">  2  3  1 -1</clus>
</clustering>
</event>
<event>
 6    0  0.2117869E+002  0.1172989E+03  0.7546771E-02  0.1247621E+00
          3   -1    0    0  504    0 -0.00000000000E+00  0.00000000000E+00  0.22474225736E+04  0.22474225736E+04  0.00000000000E+00 0.  1.
         21   -1    0    0  501  502  0.00000000000E+00 -0.00000000000E+00 -0.14995871734E+03  0.14995871734E+03  0.00000000000E+00 0. -1.
         21    1    1    2  503  505 -0.77925243825E+02  0.12305598188E+03  0.17310951563E+03  0.22623444190E+03  0.00000000000E+00 0. -1.
         21    1    1    2  504  503  0.57385131447E+02 -0.16366684255E+02  0.67551521496E+03  0.67814580092E+03  0.00000000000E+00 0.  1.
         21    1    1    2  505  502 -0.11106329564E+02 -0.11648898146E+03 -0.93788731893E+02  0.14996452777E+03  0.00000000000E+00 0. -1.
          3    1    1    2  501    0  0.31646441942E+02  0.97996838389E+01  0.13426278576E+04  0.13430365203E+04  0.00000000000E+00 0.  1.
<scales pt_clust_3="117.29891" pt_clust_4="81.56544" pt_clust_5="14000.00000" pt_clust_6="33.12901"></scales>
<clustering>
<clus scale="   33.129">  1  6  2 -1</clus>
<clus scale="   81.565">  1  4  2 -1</clus>
<clus scale="  117.299">  1  3  2 -1</clus>
<clus scale="  117.299">  2  3  1 -1</clus>
</clustering>
</event>
<event>
 6    0  0.2117869E+002  0.1048481E+03  0.7546771E-02  0.1270419E+00
          2   -1    0    0  505    0 -0.00000000000E+00  0.00000000000E+00  0.13799741349E+04  0.13799741349E+04  0.00000000000E+00 0.  1.
         21   -1    0    0  504  502  0.00000000000E+00 -0.00000000000E+00 -0.21798528215E+03  0.21798528215E+03  0.00000000000E+00 0. -1.
         21    1    1    2  503  502  0.62395146445E+02  0.42826007892E+02  0.45823787040E+01  0.75817012909E+02  0.00000000000E+00 0.  1.
         21    1    1    2  504  501 -0.45979383996E+02  0.93288842959E+01 -0.16251516626E+03  0.16915173986E+03  0.00000000000E+00 0. -1.
         21    1    1    2  505  503  0.88558644046E+01  0.39830971451E+02  0.13336521864E+02  0.42927793288E+02  0.00000000000E+00 0.  1.
          2    1    1    2  501    0 -0.25271626854E+02 -0.91985863639E+02  0.13065851184E+04  0.13100628710E+04  0.00000000000E+00 0.  1.
<scales pt_clust_3="31.75599" pt_clust_4="46.91622" pt_clust_5="31.75599" pt_clust_6="95.51316"></scales>
<clustering>
<clus scale="   31.756">  3  5 -1 -1</clus>
<clus scale="   46.916">  2  4  1 -1</clus>
<clus scale="   95.513">  1  6  2 -1</clus>
<clus scale="   46.916">  2  3  1 -1</clus>
</clustering>
</event>
<event>
 6    0  0.2117869E+002  0.9277463E+02  0.7546771E-02  0.1296268E+00
         21   -1    0    0  504  502  0.00000000000E+00  0.00000000000E+00  0.17591273043E+03  0.17591273043E+03  0.00000000000E+00 0.  1.
          1   -1    0    0  503    0 -0.00000000000E+00 -0.00000000000E+00 -0.84446715309E+03  0.84446715309E+03  0.00000000000E+00 0.  1.
         21    1    1    2  503  502  0.16488221792E+02 -0.33370881227E+02 -0.26961009735E+02  0.45960561547E+02  0.00000000000E+00 0. -1.
         21    1    1    2  504  505 -0.14478678436E+02  0.61877668973E+02  0.93015772474E+02  0.11265172869E+03  0.00000000000E+00 0.  1.
         21    1    1    2  505  501 -0.79498292940E+02 -0.78116264980E+02  0.96232203463E+01  0.11186927999E+03  0.00000000000E+00 0.  1.
          1    1    1    2  501    0  0.77488749584E+02  0.49609477234E+02 -0.74423240574E+03  0.74989831330E+03  0.00000000000E+00 0.  1.
<scales pt_clust_3="37.22200" pt_clust_4="41.47880" pt_clust_5="92.77463" pt_clust_6="14000.00000"></scales>
<clustering>
<clus scale="   37.222">  1  3  2 -1</clus>
<clus scale="   41.479">  1  4  2 -1</clus>
<clus scale="   92.775">  1  5  2 -1</clus>
<clus scale="   37.222">  1  3  2 -1</clus>
</clustering>
</event>
<event>
 6    0  0.2117869E+002  0.1256635E+03  0.7546771E-02  0.1234036E+00
         21   -1    0    0  501  502  0.00000000000E+00  0.00000000000E+00  0.36496451027E+02  0.36496451027E+02  0.00000000000E+00 0. -1.
          2   -1    0    0  504    0 -0.00000000000E+00 -0.00000000000E+00 -0.24077667082E+04  0.24077667082E+04  0.00000000000E+00 0.  1.
         21    1    1    2  503  502 -0.46462918140E+02  0.18574526509E+02 -0.59498716741E+01  0.50390641691E+02  0.00000000000E+00 0. -1.
         21    1    1    2  504  505  0.31582926350E+02 -0.28024365579E+02 -0.23106807557E+03  0.23489423546E+03  0.00000000000E+00 0. -1.
         21    1    1    2  505  503 -0.79529900241E+02 -0.72742793272E+02 -0.27276460678E+03  0.29328663406E+03  0.00000000000E+00 0. -1.
          2    1    1    2  501    0  0.94409892030E+02  0.82192632342E+02 -0.18614877031E+04  0.18656916480E+04  0.00000000000E+00 0.  1.
<scales pt_clust_3="49.52387" pt_clust_4="42.22376" pt_clust_5="125.66346" pt_clust_6="14000.00000"></scales>
<clustering>
<clus scale="   42.224">  2  4  1 -1</clus>
<clus scale="   49.524">  1  3  2 -1</clus>
<clus scale="  125.663">  1  5  2 -1</clus>
<clus scale="   49.524">  1  3  2 -1</clus>
</clustering>
</event>
<event>
 6    0  0.2117869E+002  0.1079350E+03  0.7546771E-02  0.1264442E+00
         21   -1    0    0  504  502  0.00000000000E+00  0.00000000000E+00  0.87866202738E+02  0.87866202738E+02  0.00000000000E+00 0.  1.
          2   -1    0    0  503    0 -0.00000000000E+00 -0.00000000000E+00 -0.18549122148E+04  0.18549122148E+04  0.00000000000E+00 0. -1.
         21    1    1    2  503  502  0.29064030191E+02 -0.11749707965E+02  0.48991699509E+02  0.58163219555E+02  0.00000000000E+00 0.  1.
         21    1    1    2  504  505 -0.48765464303E+02 -0.43416535840E+02 -0.22979246644E+02  0.69217858023E+02  0.00000000000E+00 0.  1.
         21    1    1    2  505  501  0.68267861508E+02  0.13940880297E+03 -0.65286091892E+03  0.67106087258E+03  0.00000000000E+00 0.  1.
          2    1    1    2  501    0 -0.48566427395E+02 -0.84242559165E+02 -0.11401975460E+04  0.11443364673E+04  0.00000000000E+00 0. -1.
<scales pt_clust_3="31.34922" pt_clust_4="59.04660" pt_clust_5="14000.00000" pt_clust_6="107.93504"></scales>
<clustering>
<clus scale="   31.349">  1  3  2 -1</clus>
<clus scale="   59.047">  1  4  2 -1</clus>
<clus scale="  107.935">  2  6  1 -1</clus>
<clus scale="   31.349">  1  3  2 -1</clus>
</clustering>
</event>
<event>
 6    0  0.2117869E+002  0.1163050E+03  0.7546771E-02  0.1249320E+00
         21   -1    0    0  504  502  0.00000000000E+00  0.00000000000E+00  0.60571307355E+03  0.60571307355E+03  0.00000000000E+00 0. -1.
          2   -1    0    0  503    0 -0.00000000000E+00 -0.00000000000E+00 -0.18957749200E+04  0.18957749200E+04  0.00000000000E+00 0. -1.
         21    1    1    2  503  505  0.62186596779E+02 -0.11100488611E+03 -0.75333748845E+02  0.14786626145E+03  0.00000000000E+00 0.  1.
         21    1    1    2  504  501  0.74319106612E+02  0.73103130081E+02  0.46238775463E+03  0.47399349454E+03  0.00000000000E+00 0. -1.
         21    1    1    2  505  502 -0.45617058957E+02 -0.34497893824E+02  0.91118099592E+02  0.10758033658E+03  0.00000000000E+00 0.  1.
          2    1    1    2  501    0 -0.90888644434E+02  0.72399649852E+02 -0.17682339518E+04  0.17720479009E+04  0.00000000000E+00 0. -1.
<scales pt_clust_3="14000.00000" pt_clust_4="52.25869" pt_clust_5="57.19284" pt_clust_6="116.30497"></scales>
<clustering>
<clus scale="   57.193">  1  5  2 -1</clus>
<clus scale="   52.259">  1  4  2 -1</clus>
<clus scale="  116.305">  2  6  1 -1</clus>
<clus scale="   57.193">  1  3  2 -1</clus>
</clustering>
</event>
<event>
 6    0  0.2117869E+002  0.1479735E+03  0.7546771E-02  0.1202986E+00
         21   -1    0    0  503  502  0.00000000000E+00  0.00000000000E+00  0.78641046673E+03  0.78641046673E+03  0.00000000000E+00 0.  1.
          4   -1    0    0  504    0 -0.00000000000E+00 -0.00000000000E+00 -0.23802356207E+03  0.23802356207E+03  0.00000000000E+00 0.  1.
         21    1    1    2  503  505 -0.28291927359E+02 -0.22434109350E+02  0.23463378611E+03  0.23739573711E+03  0.00000000000E+00 0.  1.
         21    1    1    2  504  502  0.30081025931E+02  0.79207298293E+02  0.43165731115E+03  0.43989396278E+03  0.00000000000E+00 0.  1.
         21    1    1    2  505  501 -0.91029476518E+02  0.78138377386E+02  0.34575240209E+02  0.12484958491E+03  0.00000000000E+00 0.  1.
          4    1    1    2  501    0  0.89240377946E+02 -0.13491156633E+03 -0.15247943280E+03  0.22229474400E+03  0.00000000000E+00 0.  1.
<scales pt_clust_3="36.10710" pt_clust_4="61.92331" pt_clust_5="147.97346" pt_clust_6="14000.00000"></scales>
<clustering>
<clus scale="   36.107">  1  3  2 -1</clus>
<clus scale="   61.923">  1  4  2 -1</clus>
<clus scale="  147.973">  1  5  2 -1</clus>
<clus scale="   36.107">  1  3  2 -1</clus>
</clustering>
</event>
<event>
 6    0  0.2117869E+002  0.1350656E+03  0.7546771E-02  0.1220127E+00
          1   -1    0    0  503    0 -0.00000000000E+00  0.00000000000E+00  0.51331727424E+03  0.51331727424E+03  0.00000000000E+00 0.  1.
         21   -1    0    0  504  502  0.00000000000E+00 -0.00000000000E+00 -0.30802363521E+03  0.30802363521E+03  0.00000000000E+00 0. -1.
         21    1    1    2  503  502 -0.28437578050E+02  0.22926037993E+02  0.41768461758E+02  0.55487867692E+02  0.00000000000E+00 0. -1.
         21    1    1    2  504  505 -0.44054726378E+02 -0.62228073926E+02 -0.23029744638E+03  0.24259032526E+03  0.00000000000E+00 0. -1.
         21    1    1    2  505  501 -0.32020733962E+02 -0.32927870234E+02 -0.46272417705E+02  0.65197459167E+02  0.00000000000E+00 0. -1.
          1    1    1    2  501    0  0.10451303839E+03  0.72229906166E+02  0.44009504136E+03  0.45806525732E+03  0.00000000000E+00 0.  1.
<scales pt_clust_3="36.52806" pt_clust_4="45.30438" pt_clust_5="45.30438" pt_clust_6="121.82945"></scales>
<clustering>
<clus scale="   36.528">  1  3  2 -1</clus>
<clus scale="   45.304">  4  5 -1 -1</clus>
<clus scale="  121.829">  1  6  2 -1</clus>
<clus scale="  135.066">  2  3  1 -1</clus>
</clustering>
</event>
<event>
 6    0  0.2117869E+002  0.8818660E+02  0.7546771E-02  0.1307303E+00
         21   -1    0    0  505  502  0.00000000000E+00  0.00000000000E+00  0.46740259560E+03  0.46740259560E+03  0.00000000000E+00 0.  1.
          2   -1    0    0  504    0 -0.00000000000E+00 -0.00000000000E+00 -0.11795523623E+04  0.11795523623E+04  0.00000000000E+00 0.  1.
         21    1    1    2  503  502 -0.15681917258E+02 -0.38924420889E+02  0.36107767702E+03  0.36350807682E+03  0.00000000000E+00 0.  1.
         21    1    1    2  504  503  0.29420131281E+02 -0.81201801007E+01 -0.29649940657E+02  0.42551150754E+02  0.00000000000E+00 0. -1.
         21    1    1    2  505  501  0.96365715012E+02  0.50820327745E+01  0.71190559647E+02  0.11991777962E+03  0.00000000000E+00 0. -1.
          2    1    1    2  501    0 -0.11010392904E+03  0.41962568216E+02 -0.11147680627E+04  0.11209779507E+04  0.00000000000E+00 0.  1.
<scales pt_clust_3="41.96100" pt_clust_4="30.52018" pt_clust_5="88.18660" pt_clust_6="14000.00000"></scales>
<clustering>
<clus scale="   30.520">  2  4  1 -1</clus>
<clus scale="   41.961">  1  3  2 -1</clus>
<clus scale="   88.187">  1  5  2 -1</clus>
<clus scale="   41.961">  1  3  2 -1</clus>
</clustering>
</event>
<event>
 6    0  0.2117869E+002  0.8990587E+02  0.7546771E-02  0.1303080E+00
          2   -1    0    0  505    0 -0.00000000000E+00  0.00000000000E+00  0.40835254525E+03  0.40835254525E+03  0.00000000000E+00 0. -1.
         21   -1    0    0  504  502  0.00000000000E+00 -0.00000000000E+00 -0.74786593866E+03  0.74786593866E+03  0.00000000000E+00 0. -1.
         21    1    1    2  503  501  0.13776244238E+03 -0.35058841872E+02 -0.67764839423E+03  0.69239797741E+03  0.00000000000E+00 0. -1.
         21    1    1    2  504  503 -0.58977157311E+02 -0.84652592850E+01 -0.30420129866E+02  0.66898056775E+02  0.00000000000E+00 0.  1.
         21    1    1    2  505  502 -0.34454143716E+02 -0.27942109559E+02  0.47321867375E+02  0.64862998988E+02  0.00000000000E+00 0. -1.
          2    1    1    2  501    0 -0.44331141350E+02  0.71466210716E+02  0.32123326330E+03  0.33205945073E+03  0.00000000000E+00 0. -1.
<scales pt_clust_3="89.90587" pt_clust_4="61.56426" pt_clust_5="44.36045" pt_clust_6="14000.00000"></scales>
<clustering>
<clus scale="   44.360">  1  5  2 -1</clus>
<clus scale="   61.564">  2  4  1 -1</clus>
<clus scale="   89.906">  2  3  1 -1</clus>
<clus scale="   61.564">  2  3  1 -1</clus>
</clustering>
</event>
<event>
 6    0  0.2117869E+002  0.2650054E+03  0.7546771E-02  0.1104173E+00
          1   -1    0    0  503    0 -0.00000000000E+00  0.00000000000E+00  0.33498100547E+03  0.33498100547E+03  0.00000000000E+00 0.  1.
         21   -1    0    0  504  502  0.00000000000E+00 -0.00000000000E+00 -0.17185057681E+04  0.17185057681E+04  0.00000000000E+00 0.  1.
         21    1    1    2  503  505  0.23893276453E+02 -0.29218963278E+02  0.49173964631E+02  0.61989638426E+02  0.00000000000E+00 0.  1.
         21    1    1    2  504  501  0.16176945585E+03 -0.16318778386E+03 -0.11938366265E+03  0.25894414176E+03  0.00000000000E+00 0.  1.
         21    1    1    2  505  502  0.45930364112E+02 -0.65761854868E+01 -0.14111607849E+04  0.14119233710E+04  0.00000000000E+00 0.  1.
          1    1    1    2  501    0 -0.23159309642E+03  0.19898293262E+03  0.97845720314E+02  0.32062962241E+03  0.00000000000E+00 0.  1.
<scales pt_clust_3="37.74436" pt_clust_4="265.00537" pt_clust_5="46.43670" pt_clust_6="14000.00000"></scales>
<clustering>
<clus scale="   37.744">  1  3  2 -1</clus>
<clus scale="   46.437">  2  5  1 -1</clus>
<clus scale="  265.005">  2  4  1 -1</clus>
<clus scale="   46.437">  2  3  1 -1</clus>
</clustering>
</event>
<event>
 6    0  0.2117869E+002  0.6646310E+02  0.7546771E-02  0.1372551E+00
         21   -1    0    0  505  502  0.00000000000E+00  0.00000000000E+00  0.94229203564E+02  0.94229203564E+02  0.00000000000E+00 0.  1.
          2   -1    0    0  504    0 -0.00000000000E+00 -0.00000000000E+00 -0.14671406375E+04  0.14671406375E+04  0.00000000000E+00 0. -1.
         21    1    1    2  503  501  0.59530078640E+02 -0.22384514067E+02 -0.15533866667E+02  0.65469059459E+02  0.00000000000E+00 0.  1.
         21    1    1    2  504  502 -0.52186854144E+02  0.48080335524E+02 -0.14271213951E+03  0.15937986439E+03  0.00000000000E+00 0.  1.
         21    1    1    2  505  503  0.49475690027E+02  0.10672572597E+02  0.49359352812E+02  0.70697195273E+02  0.00000000000E+00 0. -1.
          2    1    1    2  501    0 -0.56818914523E+02 -0.36368394054E+02 -0.12640247806E+04  0.12658237220E+04  0.00000000000E+00 0. -1.
<scales pt_clust_3="66.46310" pt_clust_4="64.64559" pt_clust_5="50.61371" pt_clust_6="14000.00000"></scales>
<clustering>
<clus scale="   50.614">  1  5  2 -1</clus>
<clus scale="   64.646">  1  4  2 -1</clus>
<clus scale="   66.463">  1  3  2 -1</clus>
<clus scale="   50.614">  1  3  2 -1</clus>
</clustering>
</event>
<event>
 6    0  0.2117869E+002  0.1062157E+03  0.7546771E-02  0.1267743E+00
          4   -1    0    0  503    0 -0.00000000000E+00  0.00000000000E+00  0.77275023509E+02  0.77275023509E+02  0.00000000000E+00 0.  1.
         21   -1    0    0  505  502  0.00000000000E+00 -0.00000000000E+00 -0.34210776083E+03  0.34210776083E+03  0.00000000000E+00 0.  1.
         21    1    1    2  503  502 -0.72028613999E+02  0.20146870952E+02 -0.17767355664E+03  0.19277424717E+03  0.00000000000E+00 0.  1.
         21    1    1    2  504  501  0.52723775831E+02  0.93947514871E+01 -0.86544645809E-01  0.53554321799E+02  0.00000000000E+00 0.  1.
         21    1    1    2  505  504  0.78273839287E+02 -0.29975785535E+02 -0.75814682521E+02  0.11301861670E+03  0.00000000000E+00 0.  1.
          4    1    1    2  501    0 -0.58969001119E+02  0.43416309538E+00 -0.11257953518E+02  0.60035598672E+02  0.00000000000E+00 0.  1.
<scales pt_clust_3="82.94684" pt_clust_4="53.03164" pt_clust_5="53.03164" pt_clust_6="58.97060"></scales>
<clustering>
<clus scale="   53.032">  4  5 -1 -1</clus>
<clus scale="   58.971">  1  6  2 -1</clus>
<clus scale="   82.947">  2  3  1 -1</clus>
<clus scale="   82.947">  2  3  1 -1</clus>
</clustering>
</event>
<event>
 6    0  0.2117869E+002  0.1189246E+03  0.7546771E-02  0.1244882E+00
         -2   -1    0    0    0  501 -0.00000000000E+00  0.00000000000E+00  0.25403148476E+04  0.25403148476E+04  0.00000000000E+00 0.  1.
         21   -1    0    0  504  502  0.00000000000E+00 -0.00000000000E+00 -0.37022991276E+02  0.37022991276E+02  0.00000000000E+00 0. -1.
         21    1    1    2  503  505 -0.45339190367E+02 -0.72462323928E+02  0.19238342814E+03  0.21051796596E+03  0.00000000000E+00 0. -1.
         21    1    1    2  504  503 -0.82151775023E+01 -0.50978587815E+02  0.81666532914E+00  0.51642739076E+02  0.00000000000E+00 0. -1.
         21    1    1    2  505  501  0.30285118693E+01  0.30232206103E+02  0.18807452181E+03  0.19051294950E+03  0.00000000000E+00 0.  1.
         -2    1    1    2    0  502  0.50525856000E+02  0.93208705640E+02  0.21220172410E+04  0.21246641843E+04  0.00000000000E+00 0.  1.
<scales pt_clust_3="118.92455" pt_clust_4="51.29791" pt_clust_5="30.38352" pt_clust_6="14000.00000"></scales>
<clustering>
<clus scale="   30.384">  1  5  2 -1</clus>
<clus scale="   51.298">  2  4  1 -1</clus>
<clus scale="  118.925">  2  3  1 -1</clus>
<clus scale="   51.298">  2  3  1 -1</clus>
</clustering>
</event>
<event>
 6    0  0.2117869E+002  0.1210805E+03  0.7546771E-02  0.1241325E+00
         21   -1    0    0  501  502  0.00000000000E+00  0.00000000000E+00  0.11233347603E+03  0.11233347603E+03  0.00000000000E+00 0. -1.
          2   -1    0    0  504    0 -0.00000000000E+00 -0.00000000000E+00 -0.34661053298E+04  0.34661053298E+04  0.00000000000E+00 0. -1.
         21    1    1    2  503  505 -0.25121533266E+01  0.53915871259E+02 -0.30296301076E+03  0.30773335532E+03  0.00000000000E+00 0. -1.
         21    1    1    2  504  503  0.30251881307E+02 -0.69420526909E+01 -0.97083176430E+02  0.10192404802E+03  0.00000000000E+00 0. -1.
         21    1    1    2  505  502 -0.75582255493E+02  0.94311989133E+02  0.71137480686E+02  0.14024253919E+03  0.00000000000E+00 0. -1.
          2    1    1    2  501    0  0.47842527512E+02 -0.14128580770E+03 -0.30248631472E+04  0.30285388633E+04  0.00000000000E+00 0. -1.
<scales pt_clust_3="53.28674" pt_clust_4="31.03818" pt_clust_5="121.08049" pt_clust_6="14000.00000"></scales>
<clustering>
<clus scale="   31.038">  2  4  1 -1</clus>
<clus scale="   53.287">  2  3  1 -1</clus>
<clus scale="  121.080">  1  5  2 -1</clus>
<clus scale="  121.080">  1  3  2 -1</clus>
</clustering>
</event>
<event>
 6    0  0.2117869E+002  0.1049198E+03  0.7546771E-02  0.1270278E+00
          3   -1    0    0  503    0 -0.00000000000E+00  0.00000000000E+00  0.24907969744E+03  0.24907969744E+03  0.00000000000E+00 0. -1.
         21   -1    0    0  501  502  0.00000000000E+00 -0.00000000000E+00 -0.49993669850E+03  0.49993669850E+03  0.00000000000E+00 0. -1.
         21    1    1    2  503  504 -0.70352528527E+02 -0.24246602468E+02  0.82787891878E+02  0.11131581668E+03  0.00000000000E+00 0. -1.
         21    1    1    2  504  505  0.14369458390E+02 -0.76410792149E+02 -0.20178160290E+03  0.21624270106E+03  0.00000000000E+00 0. -1.
         21    1    1    2  505  502 -0.10742555122E+02 -0.32534395478E+02 -0.23678224970E+03  0.23924824587E+03  0.00000000000E+00 0. -1.
          3    1    1    2  501    0  0.66725625259E+02  0.13319179009E+03  0.10491895966E+03  0.18220963232E+03  0.00000000000E+00 0. -1.
<scales pt_clust_3="75.55854" pt_clust_4="14000.00000" pt_clust_5="34.26207" pt_clust_6="104.91977"></scales>
<clustering>
<clus scale="   34.262">  2  5  1 -1</clus>
<clus scale="   75.559">  1  3  2 -1</clus>
<clus scale="  104.920">  1  6  2 -1</clus>
<clus scale="   34.262">  2  3  1 -1</clus>
</clustering>
</event>
<event>
 6    0  0.2117869E+002  0.1868895E+03  0.7546771E-02  0.1161297E+00
         21   -1    0    0  501  502  0.00000000000E+00  0.00000000000E+00  0.58973744820E+02  0.58973744820E+02  0.00000000000E+00 0. -1.
          1   -1    0    0  505    0 -0.00000000000E+00 -0.00000000000E+00 -0.32421292956E+04  0.32421292956E+04  0.00000000000E+00 0. -1.
         21    1    1    2  503  504 -0.81448194007E+02  0.11102617549E+02 -0.97141950385E+02  0.12725421387E+03  0.00000000000E+00 0. -1.
         21    1    1    2  504  502 -0.83756590454E+02 -0.18776746852E+02 -0.11020157850E+02  0.86540028576E+02  0.00000000000E+00 0. -1.
         21    1    1    2  505  503 -0.33453563556E+02  0.29760016581E+02 -0.13550752698E+04  0.13558148053E+04  0.00000000000E+00 0. -1.
          1    1    1    2  501    0  0.19865834802E+03 -0.22085887279E+02 -0.17199181728E+04  0.17314939927E+04  0.00000000000E+00 0. -1.
<scales pt_clust_3="80.60074" pt_clust_4="80.60074" pt_clust_5="44.77499" pt_clust_6="168.13758"></scales>
<clustering>
<clus scale="   44.775">  2  5  1 -1</clus>
<clus scale="   80.601">  3  4 -1 -1</clus>
<clus scale="  168.138">  2  6  1 -1</clus>
<clus scale="  186.889">  1  3  2 -1</clus>
</clustering>
</event>
<event>
 6    0  0.2117869E+002  0.9920753E+02  0.7546771E-02  0.1281971E+00
         21   -1    0    0  504  502  0.00000000000E+00  0.00000000000E+00  0.30817086604E+03  0.30817086604E+03  0.00000000000E+00 0. -1.
          2   -1    0    0  503    0 -0.00000000000E+00 -0.00000000000E+00 -0.30921587833E+04  0.30921587833E+04  0.00000000000E+00 0.  1.
         21    1    1    2  503  505  0.26669436619E+02 -0.23872942757E+02 -0.72410506029E+02  0.80774114844E+02  0.00000000000E+00 0. -1.
         21    1    1    2  504  501  0.17307997407E+02 -0.45967040379E+02  0.22041174414E+03  0.22581822896E+03  0.00000000000E+00 0. -1.
         21    1    1    2  505  502 -0.20428868234E+02 -0.55812764429E+02  0.68406564825E+02  0.90619321570E+02  0.00000000000E+00 0. -1.
          2    1    1    2  501    0 -0.23548565792E+02  0.12565274757E+03 -0.30003957202E+04  0.30031179840E+04  0.00000000000E+00 0.  1.
<scales pt_clust_3="35.79352" pt_clust_4="49.14602" pt_clust_5="99.20753" pt_clust_6="14000.00000"></scales>
<clustering>
<clus scale="   35.794">  2  3  1 -1</clus>
<clus scale="   49.146">  1  4  2 -1</clus>
<clus scale="   99.208">  1  5  2 -1</clus>
<clus scale="   49.146">  1  3  2 -1</clus>
</clustering>
</event>
<event>
 6    0  0.2117869E+002  0.7098374E+02  0.7546771E-02  0.1356779E+00
         21   -1    0    0  503  502  0.00000000000E+00  0.00000000000E+00  0.20986389980E+04  0.20986389980E+04  0.00000000000E+00 0. -1.
         -1   -1    0    0    0  501 -0.00000000000E+00 -0.00000000000E+00 -0.48171181902E+02  0.48171181902E+02  0.00000000000E+00 0.  1.
         21    1    1    2  503  501  0.80529902362E+02  0.11578429837E+02  0.71241762145E+03  0.71704811036E+03  0.00000000000E+00 0. -1.
         21    1    1    2  504  505  0.26782373711E+02 -0.55398442101E+02  0.58148549715E+02  0.84661306172E+02  0.00000000000E+00 0. -1.
         21    1    1    2  505  502 -0.60819503168E+02  0.39503067752E+02  0.12942290011E+04  0.12962593150E+04  0.00000000000E+00 0. -1.
         -1    1    1    2    0  504 -0.46492772905E+02  0.43169445111E+01 -0.14327356217E+02  0.48841448366E+02  0.00000000000E+00 0.  1.
<scales pt_clust_3="70.98374" pt_clust_4="52.97424" pt_clust_5="14000.00000" pt_clust_6="46.69276"></scales>
<clustering>
<clus scale="   46.693">  2  6  1 -1</clus>
<clus scale="   52.974">  2  4  1 -1</clus>
<clus scale="   70.984">  2  3  1 -1</clus>
<clus scale="   70.984">  1  3  2 -1</clus>
</clustering>
</event>
<event>
 6    0  0.2117869E+002  0.1111825E+03  0.7546771E-02  0.1258396E+00
         21   -1    0    0  501  502  0.00000000000E+00  0.00000000000E+00  0.10022830248E+03  0.10022830248E+03  0.00000000000E+00 0.  1.
          1   -1    0    0  504    0 -0.00000000000E+00 -0.00000000000E+00 -0.19649074397E+04  0.19649074397E+04  0.00000000000E+00 0.  1.
         21    1    1    2  503  502  0.11329551064E+03  0.15250455998E+02 -0.12680055445E+02  0.11501840264E+03  0.00000000000E+00 0.  1.
         21    1    1    2  504  505 -0.47170526739E+02  0.61752218160E+01 -0.77922060949E+03  0.78067147393E+03  0.00000000000E+00 0.  1.
         21    1    1    2  505  503 -0.93734944956E+02 -0.65897490845E+02 -0.21151026925E+02  0.11651645869E+03  0.00000000000E+00 0.  1.
          1    1    1    2  501    0  0.27609961050E+02  0.44471813032E+02 -0.10516274453E+04  0.10529294069E+04  0.00000000000E+00 0.  1.
<scales pt_clust_3="111.18254" pt_clust_4="47.57302" pt_clust_5="14000.00000" pt_clust_6="51.95617"></scales>
<clustering>
<clus scale="   47.573">  2  4  1 -1</clus>
<clus scale="   51.956">  2  6  1 -1</clus>
<clus scale="  111.183">  1  3  2 -1</clus>
<clus scale="  111.183">  1  3  2 -1</clus>
</clustering>
</event>
<event>
 6    0  0.2117869E+002  0.8663728E+02  0.7546771E-02  0.1311206E+00
         21   -1    0    0  504  502  0.00000000000E+00  0.00000000000E+00  0.22972759579E+02  0.22972759579E+02  0.00000000000E+00 0.  1.
          2   -1    0    0  503    0 -0.00000000000E+00 -0.00000000000E+00 -0.10919777500E+04  0.10919777500E+04  0.00000000000E+00 0.  1.
         21    1    1    2  503  505  0.29126551084E+02  0.10523970117E+02 -0.19556975543E+03  0.19800666444E+03  0.00000000000E+00 0.  1.
         21    1    1    2  504  501  0.34928310816E+02 -0.51480036644E+02 -0.16433152888E+03  0.17571292626E+03  0.00000000000E+00 0.  1.
         21    1    1    2  505  502  0.37682216453E+02  0.80269391295E+02 -0.17590927151E+03  0.19699542233E+03  0.00000000000E+00 0.  1.
          2    1    1    2  501    0 -0.10173707835E+03 -0.39313324768E+02 -0.53319443461E+03  0.54423549656E+03  0.00000000000E+00 0.  1.
<scales pt_clust_3="30.96950" pt_clust_4="63.91734" pt_clust_5="14000.00000" pt_clust_6="86.63728"></scales>
<clustering>
<clus scale="   30.969">  2  3  1 -1</clus>
<clus scale="   63.917">  1  4  2 -1</clus>
<clus scale="   86.637">  2  6  1 -1</clus>
<clus scale="   63.917">  1  3  2 -1</clus>
</clustering>
</event>
<event>
 6    0  0.2117869E+002  0.1497902E+03  0.7546771E-02  0.1200731E+00
         21   -1    0    0  505  502  0.00000000000E+00  0.00000000000E+00  0.46409259133E+02  0.46409259133E+02  0.00000000000E+00 0. -1.
          1   -1    0    0  502    0 -0.00000000000E+00 -0.00000000000E+00 -0.13830332002E+04  0.13830332002E+04  0.00000000000E+00 0.  1.
         21    1    1    2  503  504  0.10425692229E+03  0.35598281127E+02 -0.60023815765E+02  0.12545757021E+03  0.00000000000E+00 0. -1.
         21    1    1    2  504  501 -0.57519386797E+02  0.27369768487E+02 -0.60849730138E+03  0.61182231887E+03  0.00000000000E+00 0. -1.
         21    1    1    2  505  503  0.27777077127E+02 -0.21847702272E+02 -0.24606065335E+02  0.43062124420E+02  0.00000000000E+00 0.  1.
          1    1    1    2  501    0 -0.74514612622E+02 -0.41120347343E+02 -0.64349675858E+03  0.64910044582E+03  0.00000000000E+00 0.  1.
<scales pt_clust_3="145.72807" pt_clust_4="60.03195" pt_clust_5="34.05151" pt_clust_6="60.03195"></scales>
<clustering>
<clus scale="   34.052">  3  5 -1 -1</clus>
<clus scale="   60.032">  4  6 -1 -1</clus>
<clus scale="  145.728">  1  3  2 -1</clus>
<clus scale="  145.728">  1  3  2 -1</clus>
</clustering>
</event>
<event>
 6    0  0.2117869E+002  0.1945337E+03  0.7546771E-02  0.1154435E+00
         21   -1    0    0  505  502  0.00000000000E+00  0.00000000000E+00  0.13946472998E+03  0.13946472998E+03  0.00000000000E+00 0.  1.
         -4   -1    0    0    0  501 -0.00000000000E+00 -0.00000000000E+00 -0.10741323488E+04  0.10741323488E+04  0.00000000000E+00 0. -1.
         21    1    1    2  503  504 -0.14263235062E+03 -0.98342576862E+01 -0.96079413822E+02  0.17225548998E+03  0.00000000000E+00 0.  1.
         21    1    1    2  504  502 -0.64053106076E+02 -0.89981365249E+02  0.47127502641E+02  0.12008516976E+03  0.00000000000E+00 0.  1.
         21    1    1    2  505  501  0.10267482398E+02  0.40578139752E+02 -0.86003907293E+02  0.95648725502E+02  0.00000000000E+00 0.  1.
         -4    1    1    2    0  503  0.19641797430E+03  0.59237483184E+02 -0.79971180034E+03  0.82560769355E+03  0.00000000000E+00 0. -1.
<scales pt_clust_3="14000.00000" pt_clust_4="109.00528" pt_clust_5="41.85698" pt_clust_6="194.53366"></scales>
<clustering>
<clus scale="   41.857">  2  5  1 -1</clus>
<clus scale="  109.005">  1  4  2 -1</clus>
<clus scale="  194.534">  2  6  1 -1</clus>
<clus scale="  109.005">  1  3  2 -1</clus>
</clustering>
</event>
<event>
 6    0  0.2117869E+002  0.8581613E+02  0.7546771E-02  0.1313312E+00
         -3   -1    0    0    0  501 -0.00000000000E+00  0.00000000000E+00  0.62975113399E+02  0.62975113399E+02  0.00000000000E+00 0.  1.
         21   -1    0    0  503  502  0.00000000000E+00 -0.00000000000E+00 -0.78126260997E+03  0.78126260997E+03  0.00000000000E+00 0.  1.
         21    1    1    2  503  505  0.12045503412E+02 -0.37787391575E+02 -0.12693945139E+03  0.13299099756E+03  0.00000000000E+00 0.  1.
         21    1    1    2  504  502 -0.41487270349E+02  0.92650776516E+02 -0.49401431251E+03  0.50433669404E+03  0.00000000000E+00 0.  1.
         21    1    1    2  505  501 -0.68921440807E+02 -0.47010046513E+02 -0.52108597821E+02  0.98363689657E+02  0.00000000000E+00 0.  1.
         -3    1    1    2    0  504  0.98363207744E+02 -0.78533384273E+01 -0.45225134849E+02  0.10854634210E+03  0.00000000000E+00 0.  1.
<scales pt_clust_3="39.66083" pt_clust_4="71.39134" pt_clust_5="85.81613" pt_clust_6="14000.00000"></scales>
<clustering>
<clus scale="   39.661">  2  3  1 -1</clus>
<clus scale="   71.391">  2  4  1 -1</clus>
<clus scale="   85.816">  1  5  2 -1</clus>
<clus scale="   39.661">  2  3  1 -1</clus>
</clustering>
</event>
<event>
 6    0  0.2117869E+002  0.9250363E+02  0.7546771E-02  0.1296900E+00
         21   -1    0    0  504  502  0.00000000000E+00  0.00000000000E+00  0.32628321564E+02  0.32628321564E+02  0.00000000000E+00 0. -1.
          2   -1    0    0  503    0 -0.00000000000E+00 -0.00000000000E+00 -0.19017169007E+04  0.19017169007E+04  0.00000000000E+00 0.  1.
         21    1    1    2  503  505  0.12653023898E+03  0.31076537389E+02 -0.86181068026E+03  0.87160386711E+03  0.00000000000E+00 0.  1.
         21    1    1    2  504  501 -0.39479739583E+02 -0.51858816533E+01 -0.71219353258E+01  0.40450774638E+02  0.00000000000E+00 0. -1.
         21    1    1    2  505  502 -0.28913307763E+02  0.33680793510E+02 -0.43941011538E+02  0.62459488569E+02  0.00000000000E+00 0. -1.
          2    1    1    2  501    0 -0.58137191635E+02 -0.59571449246E+02 -0.95621495203E+03  0.95983109196E+03  0.00000000000E+00 0.  1.
<scales pt_clust_3="92.50363" pt_clust_4="39.81888" pt_clust_5="60.21055" pt_clust_6="14000.00000"></scales>
<clustering>
<clus scale="   39.819">  1  4  2 -1</clus>
<clus scale="   60.211">  1  5  2 -1</clus>
<clus scale="   92.504">  1  3  2 -1</clus>
<clus scale="   39.819">  1  3  2 -1</clus>
</clustering>
</event>
<event>
 6    0  0.2117869E+002  0.1762744E+03  0.7546771E-02  0.1171458E+00
         21   -1    0    0  501  502  0.00000000000E+00  0.00000000000E+00  0.49223040134E+03  0.49223040134E+03  0.00000000000E+00 0. -1.
          2   -1    0    0  504    0 -0.00000000000E+00 -0.00000000000E+00 -0.26852738176E+03  0.26852738176E+03  0.00000000000E+00 0.  1.
         21    1    1    2  503  505  0.24844808397E+02 -0.48403607929E+02  0.46802025918E+02  0.71767704400E+02  0.00000000000E+00 0.  1.
         21    1    1    2  504  503  0.63674593960E+02 -0.13725613031E+03 -0.44760921248E+02  0.15778859051E+03  0.00000000000E+00 0.  1.
         21    1    1    2  505  502 -0.41737433298E+02 -0.19552550943E+02  0.30230933802E+03  0.30580263478E+03  0.00000000000E+00 0. -1.
          2    1    1    2  501    0 -0.46781969059E+02  0.20521228918E+03 -0.80647423108E+02  0.22539885340E+03  0.00000000000E+00 0.  1.
<scales pt_clust_3="55.80302" pt_clust_4="176.27437" pt_clust_5="46.09030" pt_clust_6="14000.00000"></scales>
<clustering>
<clus scale="   46.090">  1  5  2 -1</clus>
<clus scale="   55.803">  1  3  2 -1</clus>
<clus scale="  176.274">  2  4  1 -1</clus>
<clus scale="   46.090">  1  3  2 -1</clus>
</clustering>
</event>
<event>
 6    0  0.2117869E+002  0.9259581E+02  0.7546771E-02  0.1296685E+00
         -2   -1    0    0    0  501 -0.00000000000E+00  0.00000000000E+00  0.40490147131E+03  0.40490147131E+03  0.00000000000E+00 0. -1.
         21   -1    0    0  503  502  0.00000000000E+00 -0.00000000000E+00 -0.90244718913E+03  0.90244718913E+03  0.00000000000E+00 0.  1.
         21    1    1    2  503  505 -0.30065933752E+02  0.27952425147E+02 -0.23911677055E+03  0.24261518584E+03  0.00000000000E+00 0. -1.
         21    1    1    2  504  501  0.23081417917E+02  0.24132693810E+02  0.25262578077E+02  0.41872862509E+02  0.00000000000E+00 0. -1.
         21    1    1    2  505  504  0.47530598140E+02  0.63154832143E+02 -0.64068532734E+03  0.64554270134E+03  0.00000000000E+00 0.  1.
         -2    1    1    2    0  502 -0.40546082305E+02 -0.11523995110E+03  0.35699380198E+03  0.37731791075E+03  0.00000000000E+00 0. -1.
<scales pt_clust_3="41.05046" pt_clust_4="33.39369" pt_clust_5="92.59581" pt_clust_6="14000.00000"></scales>
<clustering>
<clus scale="   33.394">  1  4  2 -1</clus>
<clus scale="   41.050">  2  3  1 -1</clus>
<clus scale="   92.596">  2  5  1 -1</clus>
<clus scale="   41.050">  2  3  1 -1</clus>
</clustering>
</event>
<event>
 6    0  0.2117869E+002  0.6325553E+02  0.7546771E-02  0.1384656E+00
         21   -1    0    0  505  502  0.00000000000E+00  0.00000000000E+00  0.14681711412E+03  0.14681711412E+03  0.00000000000E+00 0.  1.
          1   -1    0    0  503    0 -0.00000000000E+00 -0.00000000000E+00 -0.33509781406E+04  0.33509781406E+04  0.00000000000E+00 0. -1.
         21    1    1    2  503  504  0.13521280760E+02 -0.53930550386E+02 -0.43763760390E+03  0.44115530331E+03  0.00000000000E+00 0. -1.
         21    1    1    2  504  502  0.22330622430E+02 -0.40690325439E+02  0.11028739218E+03  0.11965645890E+03  0.00000000000E+00 0.  1.
         21    1    1    2  505  501 -0.52033398064E+02 -0.16806341060E+02  0.31987919328E+01  0.54773715263E+02  0.00000000000E+00 0.  1.
          1    1    1    2  501    0  0.16181494874E+02  0.11142721688E+03 -0.28800096067E+04  0.28822097773E+04  0.00000000000E+00 0. -1.
<scales pt_clust_3="58.08320" pt_clust_4="46.41508" pt_clust_5="14000.00000" pt_clust_6="63.25553"></scales>
<clustering>
<clus scale="   46.415">  1  4  2 -1</clus>
<clus scale="   58.083">  2  3  1 -1</clus>
<clus scale="   63.256">  2  6  1 -1</clus>
<clus scale="   46.415">  1  3  2 -1</clus>
</clustering>
</event>
<event>
 6    0  0.2117869E+002  0.8440894E+02  0.7546771E-02  0.1316985E+00
          2   -1    0    0  504    0 -0.00000000000E+00  0.00000000000E+00  0.35016050529E+03  0.35016050529E+03  0.00000000000E+00 0.  1.
         21   -1    0    0  503  502  0.00000000000E+00 -0.00000000000E+00 -0.82003851307E+03  0.82003851307E+03  0.00000000000E+00 0. -1.
         21    1    1    2  503  505  0.67151510142E+02  0.32667745469E+02 -0.39788359125E+03  0.40483065484E+03  0.00000000000E+00 0. -1.
         21    1    1    2  504  502  0.25441595160E+01  0.67407838578E+02 -0.10109559019E+02  0.68209182908E+02  0.00000000000E+00 0. -1.
         21    1    1    2  505  501 -0.11417885181E+03 -0.76299998600E+01 -0.36217743535E+03  0.37982564655E+03  0.00000000000E+00 0. -1.
          2    1    1    2  501    0  0.44483182153E+02 -0.92445584187E+02  0.30029257785E+03  0.31733353406E+03  0.00000000000E+00 0.  1.
<scales pt_clust_3="84.40894" pt_clust_4="67.45583" pt_clust_5="14000.00000" pt_clust_6="54.45402"></scales>
<clustering>
<clus scale="   67.456">  1  4  2 -1</clus>
<clus scale="   54.454">  1  6  2 -1</clus>
<clus scale="   84.409">  2  3  1 -1</clus>
<clus scale="   84.409">  2  3  1 -1</clus>
</clustering>
</event>
<event>
 6    0  0.2117869E+002  0.6544367E+02  0.7546771E-02  0.1376310E+00
         21   -1    0    0  503  502  0.00000000000E+00  0.00000000000E+00  0.38923640172E+02  0.38923640172E+02  0.00000000000E+00 0. -1.
          2   -1    0    0  504    0 -0.00000000000E+00 -0.00000000000E+00 -0.15960256359E+04  0.15960256359E+04  0.00000000000E+00 0.  1.
         21    1    1    2  503  505  0.16164502962E+02 -0.43751153641E+02  0.98521388848E+00  0.46652173019E+02  0.00000000000E+00 0. -1.
         21    1    1    2  504  502  0.47311046841E+02  0.74749032809E+02 -0.14614879525E+03  0.17083683271E+03  0.00000000000E+00 0.  1.
         21    1    1    2  505  501 -0.56496544947E+01 -0.56444334405E+02 -0.47108423067E+03  0.47448733795E+03  0.00000000000E+00 0.  1.
          2    1    1    2  501    0 -0.57825895308E+02  0.25446455237E+02 -0.94085418373E+03  0.94297293243E+03  0.00000000000E+00 0.  1.
<scales pt_clust_3="46.64177" pt_clust_4="65.44367" pt_clust_5="14000.00000" pt_clust_6="60.94901"></scales>
<clustering>
<clus scale="   46.642">  1  3  2 -1</clus>
<clus scale="   60.949">  2  6  1 -1</clus>
<clus scale="   65.444">  1  4  2 -1</clus>
<clus scale="   46.642">  1  3  2 -1</clus>
</clustering>
</event>
<event>
 6    0  0.2117869E+002  0.1896157E+03  0.7546771E-02  0.1158808E+00
         21   -1    0    0  501  502  0.00000000000E+00  0.00000000000E+00  0.17235294371E+03  0.17235294371E+03  0.00000000000E+00 0.  1.
          2   -1    0    0  504    0 -0.00000000000E+00 -0.00000000000E+00 -0.18186218830E+04  0.18186218830E+04  0.00000000000E+00 0. -1.
         21    1    1    2  503  502 -0.76755056289E+02 -0.71401398374E+00  0.80548095876E+02  0.11126474838E+03  0.00000000000E+00 0.  1.
         21    1    1    2  504  505  0.30496697604E+02  0.27529954276E+02 -0.79260946112E+03  0.79367355053E+03  0.00000000000E+00 0. -1.
         21    1    1    2  505  503 -0.11741616142E+03 -0.59058613062E+02  0.55868321547E+01  0.13155108298E+03  0.00000000000E+00 0.  1.
          2    1    1    2  501    0  0.16367452010E+03  0.32242672770E+02 -0.93979440620E+03  0.95448544484E+03  0.00000000000E+00 0. -1.
<scales pt_clust_3="76.29891" pt_clust_4="41.08463" pt_clust_5="189.61574" pt_clust_6="14000.00000"></scales>
<clustering>
<clus scale="   41.085">  2  4  1 -1</clus>
<clus scale="   76.299">  1  3  2 -1</clus>
<clus scale="  189.616">  1  5  2 -1</clus>
<clus scale="   76.299">  1  3  2 -1</clus>
</clustering>
</event>
<event>
 6    0  0.2117869E+002  0.1385004E+03  0.7546771E-02  0.1215361E+00
         21   -1    0    0  505  502  0.00000000000E+00  0.00000000000E+00  0.29183122151E+03  0.29183122151E+03  0.00000000000E+00 0.  1.
         -1   -1    0    0    0  501 -0.00000000000E+00 -0.00000000000E+00 -0.73619858133E+03  0.73619858133E+03  0.00000000000E+00 0. -1.
         21    1    1    2  503  502 -0.85911361961E+02 -0.67020779067E+02 -0.15294865472E+02  0.11002944992E+03  0.00000000000E+00 0. -1.
         21    1    1    2  504  501  0.26298847917E+02 -0.19590504707E+02 -0.76523153620E+02  0.83253890698E+02  0.00000000000E+00 0. -1.
         21    1    1    2  505  504  0.11740315403E+03  0.92544050394E+02  0.21630311689E+03  0.26293523958E+03  0.00000000000E+00 0.  1.
         -1    1    1    2    0  503 -0.57790639982E+02 -0.59327666199E+01 -0.56885245761E+03  0.57181122263E+03  0.00000000000E+00 0. -1.
<scales pt_clust_3="14000.00000" pt_clust_4="32.79356" pt_clust_5="138.50044" pt_clust_6="41.80445"></scales>
<clustering>
<clus scale="   32.794">  2  4  1 -1</clus>
<clus scale="   41.804">  2  6  1 -1</clus>
<clus scale="  138.500">  1  5  2 -1</clus>
<clus scale="  138.500">  1  3  2 -1</clus>
</clustering>
</event>
<event>
 6    0  0.2117869E+002  0.6801541E+02  0.7546771E-02  0.1366975E+00
          2   -1    0    0  505    0 -0.00000000000E+00  0.00000000000E+00  0.10725821251E+04  0.10725821251E+04  0.00000000000E+00 0.  1.
         21   -1    0    0  504  502  0.00000000000E+00 -0.00000000000E+00 -0.81690999025E+02  0.81690999025E+02  0.00000000000E+00 0.  1.
         21    1    1    2  503  502  0.32354807147E+02  0.86275083603E+02 -0.30850108099E+02  0.97169711155E+02  0.00000000000E+00 0.  1.
         21    1    1    2  504  501 -0.18045467043E+01 -0.30010546041E+02  0.10503754234E+02  0.31846791291E+02  0.00000000000E+00 0.  1.
         21    1    1    2  505  503  0.56676415431E+02 -0.36084095870E+02  0.63354233935E+03  0.63709510577E+03  0.00000000000E+00 0.  1.
          2    1    1    2  501    0 -0.87226675874E+02 -0.20180441691E+02  0.37769514059E+03  0.38816151592E+03  0.00000000000E+00 0.  1.
<scales pt_clust_3="66.72344" pt_clust_4="30.06475" pt_clust_5="14000.00000" pt_clust_6="68.01541"></scales>
<clustering>
<clus scale="   30.065">  2  4  1 -1</clus>
<clus scale="   66.723">  2  3  1 -1</clus>
<clus scale="   68.015">  2  6  1 -1</clus>
<clus scale="   30.065">  2  3  1 -1</clus>
</clustering>
</event>
<event>
 6    0  0.2117869E+002  0.8547456E+02  0.7546771E-02  0.1314196E+00
          2   -1    0    0  504    0 -0.00000000000E+00  0.00000000000E+00  0.21204410176E+04  0.21204410176E+04  0.00000000000E+00 0. -1.
         21   -1    0    0  505  502  0.00000000000E+00 -0.00000000000E+00 -0.88131997371E+02  0.88131997371E+02  0.00000000000E+00 0.  1.
         21    1    1    2  503  502 -0.63738221731E+02 -0.35534247849E+02 -0.27294836017E+02  0.77911820367E+02  0.00000000000E+00 0.  1.
         21    1    1    2  504  503  0.34249726378E+02  0.82602340772E+02  0.33576750355E+02  0.95517478099E+02  0.00000000000E+00 0.  1.
         21    1    1    2  505  501 -0.74451054145E+01  0.30853880555E+02  0.66148974843E+02  0.73369465125E+02  0.00000000000E+00 0.  1.
          2    1    1    2  501    0  0.36933600767E+02 -0.77921973478E+02  0.19598781310E+04  0.19617742514E+04  0.00000000000E+00 0. -1.
<scales pt_clust_3="70.29532" pt_clust_4="14000.00000" pt_clust_5="31.73943" pt_clust_6="85.47456"></scales>
<clustering>
<clus scale="   31.739">  2  5  1 -1</clus>
<clus scale="   70.295">  2  3  1 -1</clus>
<clus scale="   85.475">  1  6  2 -1</clus>
<clus scale="   31.739">  2  3  1 -1</clus>
</clustering>
</event>
<event>
 6    0  0.2117869E+002  0.6941995E+02  0.7546771E-02  0.1362077E+00
         21   -1    0    0  504  502  0.00000000000E+00  0.00000000000E+00  0.31391191112E+03  0.31391191112E+03  0.00000000000E+00 0. -1.
         -2   -1    0    0    0  501 -0.00000000000E+00 -0.00000000000E+00 -0.67998784715E+03  0.67998784715E+03  0.00000000000E+00 0.  1.
         21    1    1    2  503  501 -0.14637750037E+02 -0.52242270630E+02 -0.13197730118E+03  0.14269382114E+03  0.00000000000E+00 0.  1.
         21    1    1    2  504  505 -0.14192070716E+02 -0.30689028174E+02  0.19336209276E+03  0.19629602706E+03  0.00000000000E+00 0. -1.
         21    1    1    2  505  503  0.47599449224E+02 -0.31166213945E+02  0.99930184246E+02  0.11499166136E+03  0.00000000000E+00 0. -1.
         -2    1    1    2    0  502 -0.18769628472E+02  0.11409751275E+03 -0.52739091187E+03  0.53991824871E+03  0.00000000000E+00 0.  1.
<scales pt_clust_3="55.75670" pt_clust_4="33.81170" pt_clust_5="14000.00000" pt_clust_6="69.41995"></scales>
<clustering>
<clus scale="   33.812">  1  4  2 -1</clus>
<clus scale="   55.757">  2  3  1 -1</clus>
<clus scale="   69.420">  2  6  1 -1</clus>
<clus scale="   33.812">  1  3  2 -1</clus>
</clustering>
</event>
<event>
 6    0  0.2117869E+002  0.1034894E+03  0.7546771E-02  0.1273125E+00
         21   -1    0    0  505  502  0.00000000000E+00  0.00000000000E+00  0.13298411793E+03  0.13298411793E+03  0.00000000000E+00 0. -1.
         -2   -1    0    0    0  501 -0.00000000000E+00 -0.00000000000E+00 -0.64133910645E+03  0.64133910645E+03  0.00000000000E+00 0.  1.
         21    1    1    2  503  502  0.45375245072E+02 -0.53640047186E+02 -0.17908872534E+02  0.72504449814E+02  0.00000000000E+00 0.  1.
         21    1    1    2  504  501 -0.29652763230E+01  0.31931783193E+02 -0.57241550851E+02  0.65612702927E+02  0.00000000000E+00 0.  1.
         21    1    1    2  505  504 -0.28186293100E+02  0.14617634945E+03  0.33826963056E+02  0.15266386503E+03  0.00000000000E+00 0. -1.
         -2    1    1    2    0  503 -0.14223675649E+02 -0.12446808545E+03 -0.46703152819E+03  0.48354220661E+03  0.00000000000E+00 0.  1.
<scales pt_clust_3="68.22313" pt_clust_4="32.06917" pt_clust_5="103.48942" pt_clust_6="14000.00000"></scales>
<clustering>
<clus scale="   32.069">  2  4  1 -1</clus>
<clus scale="   68.223">  1  3  2 -1</clus>
<clus scale="  103.489">  1  5  2 -1</clus>
<clus scale="   68.223">  1  3  2 -1</clus>
</clustering>
</event>
<event>
 6    0  0.2117869E+002  0.2231017E+03  0.7546771E-02  0.1131592E+00
          2   -1    0    0  505    0 -0.00000000000E+00  0.00000000000E+00  0.11846503635E+04  0.11846503635E+04  0.00000000000E+00 0. -1.
         21   -1    0    0  501  502  0.00000000000E+00 -0.00000000000E+00 -0.45148861446E+03  0.45148861446E+03  0.00000000000E+00 0.  1.
         21    1    1    2  503  502  0.16407042751E+03 -0.11614575074E+03 -0.33767035173E+03  0.39297608965E+03  0.00000000000E+00 0.  1.
         21    1    1    2  504  503 -0.25701115265E+03  0.88270891885E+02  0.23029559211E+03  0.35620575891E+03  0.00000000000E+00 0.  1.
         21    1    1    2  505  504 -0.40272840616E+02  0.49234234504E+02  0.40017050925E+02  0.75148359285E+02  0.00000000000E+00 0.  1.
          2    1    1    2  501    0  0.13321356575E+03 -0.21359375646E+02  0.80051945768E+03  0.81180877007E+03  0.00000000000E+00 0. -1.
<scales pt_clust_3="209.91032" pt_clust_4="36.56507" pt_clust_5="36.56507" pt_clust_6="134.91507"></scales>
<clustering>
<clus scale="   36.565">  4  5 -1 -1</clus>
<clus scale="  134.915">  1  6  2 -1</clus>
<clus scale="  209.910">  2  3  1 -1</clus>
<clus scale="  209.910">  2  3  1 -1</clus>
</clustering>
</event>
<event>
 6    0  0.2117869E+002  0.1444264E+03  0.7546771E-02  0.1207494E+00
          2   -1    0    0  505    0 -0.00000000000E+00  0.00000000000E+00  0.14442017633E+04  0.14442017633E+04  0.00000000000E+00 0.  1.
         21   -1    0    0  503  502  0.00000000000E+00 -0.00000000000E+00 -0.29622270729E+02  0.29622270729E+02  0.00000000000E+00 0. -1.
         21    1    1    2  503  504  0.22906893813E+02 -0.41433712741E+02  0.46141349396E+02  0.66109775826E+02  0.00000000000E+00 0. -1.
         21    1    1    2  504  501 -0.22182672207E+02 -0.91475125672E+02  0.15521054060E+03  0.18152157303E+03  0.00000000000E+00 0. -1.
         21    1    1    2  505  502 -0.29987884409E+02  0.23901476754E+01  0.87093257865E+02  0.92142398399E+02  0.00000000000E+00 0.  1.
          2    1    1    2  501    0  0.29263662803E+02  0.13051869074E+03  0.11261343447E+04  0.11340502868E+04  0.00000000000E+00 0.  1.
<scales pt_clust_3="36.73082" pt_clust_4="36.73082" pt_clust_5="30.08299" pt_clust_6="133.21251"></scales>
<clustering>
<clus scale="   30.083">  2  5  1 -1</clus>
<clus scale="   36.731">  3  4 -1 -1</clus>
<clus scale="  133.213">  1  6  2 -1</clus>
<clus scale="   30.083">  2  3  1 -1</clus>
</clustering>
</event>
<event>
 6    0  0.2117869E+002  0.8836099E+02  0.7546771E-02  0.1306870E+00
          2   -1    0    0  503    0 -0.00000000000E+00  0.00000000000E+00  0.61782233114E+03  0.61782233114E+03  0.00000000000E+00 0.  1.
         21   -1    0    0  501  502  0.00000000000E+00 -0.00000000000E+00 -0.66677192477E+02  0.66677192477E+02  0.00000000000E+00 0.  1.
         21    1    1    2  503  504 -0.35566341358E+02  0.22631290026E+02  0.10086966810E+03  0.10932442485E+03  0.00000000000E+00 0.  1.
         21    1    1    2  504  505  0.19541307645E+02  0.77049598019E+02  0.39819164659E+03  0.40604813837E+03  0.00000000000E+00 0.  1.
         21    1    1    2  505  502 -0.54553245332E+02 -0.39522342879E+02  0.13617708484E+02  0.68727826586E+02  0.00000000000E+00 0.  1.
          2    1    1    2  501    0  0.70578279045E+02 -0.60158545167E+02  0.38466115487E+02  0.10039913381E+03  0.00000000000E+00 0.  1.
<scales pt_clust_3="42.15614" pt_clust_4="88.36099" pt_clust_5="68.68402" pt_clust_6="14000.00000"></scales>
<clustering>
<clus scale="   42.156">  1  3  2 -1</clus>
<clus scale="   68.684">  2  5  1 -1</clus>
<clus scale="   88.361">  1  4  2 -1</clus>
<clus scale="   68.684">  2  3  1 -1</clus>
</clustering>
</event>
<event>
 6    0  0.2117869E+002  0.1606601E+03  0.7546771E-02  0.1187953E+00
          2   -1    0    0  503    0 -0.00000000000E+00  0.00000000000E+00  0.87734493460E+03  0.87734493460E+03  0.00000000000E+00 0. -1.
         21   -1    0    0  505  502  0.00000000000E+00 -0.00000000000E+00 -0.76073209387E+02  0.76073209387E+02  0.00000000000E+00 0. -1.
         21    1    1    2  503  504  0.10844316824E+03 -0.10483031183E+03  0.42105134959E+03  0.44725110845E+03  0.00000000000E+00 0. -1.
         21    1    1    2  504  502 -0.45344503178E+02 -0.62612582948E+02  0.81933858328E+02  0.11264819862E+03  0.00000000000E+00 0. -1.
         21    1    1    2  505  501 -0.10794863398E+02 -0.28301428211E+02 -0.30033613002E+01  0.30438792579E+02  0.00000000000E+00 0.  1.
          2    1    1    2  501    0 -0.52303801668E+02  0.19574432299E+03  0.30128987859E+03  0.36308004434E+03  0.00000000000E+00 0. -1.
<scales pt_clust_3="160.66015" pt_clust_4="84.90114" pt_clust_5="30.29026" pt_clust_6="14000.00000"></scales>
<clustering>
<clus scale="   30.290">  2  5  1 -1</clus>
<clus scale="   84.901">  2  4  1 -1</clus>
<clus scale="  160.660">  1  3  2 -1</clus>
<clus scale="   30.290">  2  3  1 -1</clus>
</clustering>
</event>
<event>
 6    0  0.2117869E+002  0.1467320E+03  0.7546771E-02  0.1204547E+00
          2   -1    0    0  505    0 -0.00000000000E+00  0.00000000000E+00  0.31074212118E+03  0.31074212118E+03  0.00000000000E+00 0. -1.
         21   -1    0    0  504  502  0.00000000000E+00 -0.00000000000E+00 -0.92510866814E+03  0.92510866814E+03  0.00000000000E+00 0.  1.
         21    1    1    2  503  502  0.60463488447E+02  0.14683767165E+03 -0.17285747229E+03  0.23472716284E+03  0.00000000000E+00 0.  1.
         21    1    1    2  504  501 -0.44440854531E+02 -0.95407761637E+01 -0.66976440604E+03  0.67130497955E+03  0.00000000000E+00 0.  1.
         21    1    1    2  505  503 -0.81140654904E+01  0.48317564905E+02  0.71851925325E+02  0.86966225111E+02  0.00000000000E+00 0. -1.
          2    1    1    2  501    0 -0.79085684251E+01 -0.18561446039E+03  0.15640340605E+03  0.24285242182E+03  0.00000000000E+00 0. -1.
<scales pt_clust_3="14000.00000" pt_clust_4="45.45345" pt_clust_5="48.95187" pt_clust_6="146.73203"></scales>
<clustering>
<clus scale="   45.453">  2  4  1 -1</clus>
<clus scale="   48.952">  1  5  2 -1</clus>
<clus scale="  146.732">  1  6  2 -1</clus>
<clus scale="   45.453">  2  3  1 -1</clus>
</clustering>
</event>
<event>
 6    0  0.2117869E+002  0.1700960E+03  0.7546771E-02  0.1177748E+00
         21   -1    0    0  504  502  0.00000000000E+00  0.00000000000E+00  0.18597064410E+03  0.18597064410E+03  0.00000000000E+00 0. -1.
          1   -1    0    0  505    0 -0.00000000000E+00 -0.00000000000E+00 -0.62811971692E+03  0.62811971692E+03  0.00000000000E+00 0. -1.
         21    1    1    2  503  502  0.26104379812E+02 -0.91906647740E+02  0.89034826272E+02  0.13059659580E+03  0.00000000000E+00 0. -1.
         21    1    1    2  504  501 -0.36628425838E+02 -0.11614172351E+02 -0.20773040291E+02  0.43681229169E+02  0.00000000000E+00 0. -1.
         21    1    1    2  505  503 -0.35181539335E+02 -0.46683097790E+02  0.37766645513E+02  0.69594337719E+02  0.00000000000E+00 0. -1.
          1    1    1    2  501    0  0.45705585362E+02  0.15020391788E+03 -0.54817750432E+03  0.57021819834E+03  0.00000000000E+00 0. -1.
<scales pt_clust_3="56.97343" pt_clust_4="38.42565" pt_clust_5="56.97343" pt_clust_6="155.64173"></scales>
<clustering>
<clus scale="   38.426">  1  4  2 -1</clus>
<clus scale="   56.973">  3  5 -1 -1</clus>
<clus scale="  155.642">  2  6  1 -1</clus>
<clus scale="   38.426">  1  3  2 -1</clus>
</clustering>
</event>
<event>
 6    0  0.2117869E+002  0.7911581E+02  0.7546771E-02  0.1331580E+00
          2   -1    0    0  505    0 -0.00000000000E+00  0.00000000000E+00  0.45451635458E+03  0.45451635458E+03  0.00000000000E+00 0. -1.
         21   -1    0    0  504  502  0.00000000000E+00 -0.00000000000E+00 -0.10286184365E+03  0.10286184365E+03  0.00000000000E+00 0. -1.
         21    1    1    2  503  501  0.11777714343E+02  0.54268386524E+02 -0.23036320578E+02  0.60120249474E+02  0.00000000000E+00 0. -1.
         21    1    1    2  504  503 -0.30293002514E+02  0.21779728194E+02  0.25866523153E+02  0.45399334594E+02  0.00000000000E+00 0. -1.
         21    1    1    2  505  502  0.51937200541E+02 -0.10873273718E+03  0.22972124687E+02  0.12267028755E+03  0.00000000000E+00 0. -1.
          2    1    1    2  501    0 -0.33421912370E+02  0.32684622462E+02  0.32585218367E+03  0.32918832661E+03  0.00000000000E+00 0. -1.
<scales pt_clust_3="14000.00000" pt_clust_4="37.30982" pt_clust_5="79.11581" pt_clust_6="47.40831"></scales>
<clustering>
<clus scale="   37.310">  2  4  1 -1</clus>
<clus scale="   47.408">  1  6  2 -1</clus>
<clus scale="   79.116">  1  5  2 -1</clus>
<clus scale="   37.310">  2  3  1 -1</clus>
</clustering>
</event>
<event>
 6    0  0.2117869E+002  0.1152984E+03  0.7546771E-02  0.1251061E+00
         21   -1    0    0  505  502  0.00000000000E+00  0.00000000000E+00  0.31093018150E+02  0.31093018150E+02  0.00000000000E+00 0.  1.
          2   -1    0    0  503    0 -0.00000000000E+00 -0.00000000000E+00 -0.32031927508E+04  0.32031927508E+04  0.00000000000E+00 0.  1.
         21    1    1    2  503  504  0.13276551626E+02  0.53533986865E+02 -0.32396656873E+03  0.32862819755E+03  0.00000000000E+00 0.  1.
         21    1    1    2  504  502  0.75091206951E+02  0.12622745588E+02 -0.37908866823E+02  0.85059421885E+02  0.00000000000E+00 0.  1.
         21    1    1    2  505  501  0.45217352491E+02 -0.17773454829E+02 -0.17709650771E+03  0.18364007653E+03  0.00000000000E+00 0.  1.
          2    1    1    2  501    0 -0.13358511107E+03 -0.48383277624E+02 -0.26331277894E+04  0.26369580730E+04  0.00000000000E+00 0.  1.
<scales pt_clust_3="54.77120" pt_clust_4="14000.00000" pt_clust_5="48.58503" pt_clust_6="115.29844"></scales>
<clustering>
<clus scale="   48.585">  1  5  2 -1</clus>
<clus scale="   54.771">  2  3  1 -1</clus>
<clus scale="  115.298">  2  6  1 -1</clus>
<clus scale="   48.585">  1  3  2 -1</clus>
</clustering>
</event>
<event>
 6    0  0.2117869E+002  0.1661334E+03  0.7546771E-02  0.1181941E+00
         -1   -1    0    0    0  501 -0.00000000000E+00  0.00000000000E+00  0.10033470200E+04  0.10033470200E+04  0.00000000000E+00 0. -1.
         21   -1    0    0  505  502  0.00000000000E+00 -0.00000000000E+00 -0.35390900431E+03  0.35390900431E+03  0.00000000000E+00 0.  1.
         21    1    1    2  503  501  0.90229883462E+02  0.14797780917E+02  0.17597746591E+03  0.19831408094E+03  0.00000000000E+00 0. -1.
         21    1    1    2  504  503  0.45137890493E+02 -0.14119635822E+03 -0.27693464809E+03  0.31411246401E+03  0.00000000000E+00 0.  1.
         21    1    1    2  505  504  0.32675517953E+02 -0.61368460087E+01 -0.24257839458E+02  0.41155718042E+02  0.00000000000E+00 0.  1.
         -1    1    1    2    0  502 -0.16804329191E+03  0.13253542332E+03  0.77465303728E+03  0.80367376127E+03  0.00000000000E+00 0. -1.
<scales pt_clust_3="92.52273" pt_clust_4="14000.00000" pt_clust_5="33.24681" pt_clust_6="166.13341"></scales>
<clustering>
<clus scale="   33.247">  2  5  1 -1</clus>
<clus scale="   92.523">  1  3  2 -1</clus>
<clus scale="  166.133">  1  6  2 -1</clus>
<clus scale="   33.247">  2  3  1 -1</clus>
</clustering>
</event>
<event>
 6    0  0.2117869E+002  0.1026563E+03  0.7546771E-02  0.1274807E+00
         21   -1    0    0  501  502  0.00000000000E+00  0.00000000000E+00  0.17684173738E+03  0.17684173738E+03  0.00000000000E+00 0. -1.
          1   -1    0    0  505    0 -0.00000000000E+00 -0.00000000000E+00 -0.55715840978E+03  0.55715840978E+03  0.00000000000E+00 0.  1.
         21    1    1    2  503  504  0.14243275264E+02 -0.39539186604E+02  0.63079464833E+01  0.42497157039E+02  0.00000000000E+00 0.  1.
         21    1    1    2  504  502 -0.25806893072E+02 -0.23981884913E+02  0.12537367025E+03  0.13022935047E+03  0.00000000000E+00 0. -1.
         21    1    1    2  505  503  0.25196729637E+02 -0.80269223220E+02 -0.21914891774E+03  0.23474299037E+03  0.00000000000E+00 0.  1.
          1    1    1    2  501    0 -0.13633111829E+02  0.14379029474E+03 -0.29284937138E+03  0.32653064928E+03  0.00000000000E+00 0.  1.
<scales pt_clust_3="51.49172" pt_clust_4="35.22963" pt_clust_5="102.65628" pt_clust_6="14000.00000"></scales>
<clustering>
<clus scale="   35.230">  1  4  2 -1</clus>
<clus scale="   51.492">  1  3  2 -1</clus>
<clus scale="  102.656">  2  5  1 -1</clus>
<clus scale="   35.230">  1  3  2 -1</clus>
</clustering>
</event>
<event>
 6    0  0.2117869E+002  0.1768521E+03  0.7546771E-02  0.1170885E+00
          2   -1    0    0  505    0 -0.00000000000E+00  0.00000000000E+00  0.11469918489E+04  0.11469918489E+04  0.00000000000E+00 0. -1.
         21   -1    0    0  501  502  0.00000000000E+00 -0.00000000000E+00 -0.97547871590E+03  0.97547871590E+03  0.00000000000E+00 0. -1.
         21    1    1    2  503  502 -0.51241233109E+02 -0.68767781449E+01 -0.11380650486E+03  0.12499949839E+03  0.00000000000E+00 0. -1.
         21    1    1    2  504  503  0.12325223770E+03  0.91524457387E+02 -0.77984031696E+03  0.79480737311E+03  0.00000000000E+00 0. -1.
         21    1    1    2  505  504  0.14845524416E+03 -0.91464971988E+02  0.92508028478E+03  0.94137045519E+03  0.00000000000E+00 0. -1.
          2    1    1    2  501    0 -0.22046624875E+03  0.68172927463E+01  0.14007967006E+03  0.26129323811E+03  0.00000000000E+00 0. -1.
<scales pt_clust_3="51.70062" pt_clust_4="114.25512" pt_clust_5="176.85214" pt_clust_6="14000.00000"></scales>
<clustering>
<clus scale="   51.701">  2  3  1 -1</clus>
<clus scale="  114.255">  2  4  1 -1</clus>
<clus scale="  176.852">  1  5  2 -1</clus>
<clus scale="   51.701">  2  3  1 -1</clus>
</clustering>
</event>
<event>
 6    0  0.2117869E+002  0.1415712E+03  0.7546771E-02  0.1211230E+00
          1   -1    0    0  503    0 -0.00000000000E+00  0.00000000000E+00  0.21127873691E+03  0.21127873691E+03  0.00000000000E+00 0. -1.
         21   -1    0    0  505  502  0.00000000000E+00 -0.00000000000E+00 -0.52467345904E+03  0.52467345904E+03  0.00000000000E+00 0. -1.
         21    1    1    2  503  504  0.11295828965E+02  0.30721490090E+02  0.93957726498E+01  0.34054166398E+02  0.00000000000E+00 0.  1.
         21    1    1    2  504  502  0.20046568195E+02  0.14407070052E+03 -0.27915442544E+03  0.31477837424E+03  0.00000000000E+00 0. -1.
         21    1    1    2  505  501  0.81630232022E+01 -0.13792120038E+03 -0.18780755730E+03  0.23315353534E+03  0.00000000000E+00 0. -1.
          1    1    1    2  501    0 -0.39505420362E+02 -0.36870990230E+02  0.14417148796E+03  0.15396611997E+03  0.00000000000E+00 0. -1.
<scales pt_clust_3="32.73233" pt_clust_4="141.57118" pt_clust_5="14000.00000" pt_clust_6="33.15549"></scales>
<clustering>
<clus scale="   32.732">  1  3  2 -1</clus>
<clus scale="   33.155">  1  6  2 -1</clus>
<clus scale="  141.571">  2  4  1 -1</clus>
<clus scale="  141.571">  2  3  1 -1</clus>
</clustering>
</event>
<event>
 6    0  0.2117869E+002  0.7436890E+02  0.7546771E-02  0.1345837E+00
         21   -1    0    0  501  502  0.00000000000E+00  0.00000000000E+00  0.12504989260E+02  0.12504989260E+02  0.00000000000E+00 0.  1.
          2   -1    0    0  504    0 -0.00000000000E+00 -0.00000000000E+00 -0.21974843194E+04  0.21974843194E+04  0.00000000000E+00 0. -1.
         21    1    1    2  503  505  0.28126370197E+02  0.90133675109E+02 -0.31986782299E+03  0.33351251292E+03  0.00000000000E+00 0.  1.
         21    1    1    2  504  503 -0.28939594108E+02  0.93606215367E+01 -0.77458777051E+03  0.77518471061E+03  0.00000000000E+00 0.  1.
         21    1    1    2  505  502 -0.42693739544E+02 -0.25703194862E+02 -0.18073540601E+03  0.18747985654E+03  0.00000000000E+00 0.  1.
          2    1    1    2  501    0  0.43506963454E+02 -0.73791101783E+02 -0.90978833062E+03  0.91381222858E+03  0.00000000000E+00 0. -1.
<scales pt_clust_3="14000.00000" pt_clust_4="30.41581" pt_clust_5="52.50169" pt_clust_6="74.36890"></scales>
<clustering>
<clus scale="   30.416">  2  4  1 -1</clus>
<clus scale="   52.502">  1  5  2 -1</clus>
<clus scale="   74.369">  2  6  1 -1</clus>
<clus scale="   52.502">  1  3  2 -1</clus>
</clustering>
</event>
<event>
 6    0  0.2117869E+002  0.8712756E+02  0.7546771E-02  0.1309961E+00
         21   -1    0    0  503  502  0.00000000000E+00  0.00000000000E+00  0.76457821735E+03  0.76457821735E+03  0.00000000000E+00 0. -1.
         -2   -1    0    0    0  501 -0.00000000000E+00 -0.00000000000E+00 -0.25236704729E+03  0.25236704729E+03  0.00000000000E+00 0.  1.
         21    1    1    2  503  505  0.85693791965E+02 -0.67857075097E+02  0.11637966689E+03  0.15966288075E+03  0.00000000000E+00 0. -1.
         21    1    1    2  504  502 -0.20734063214E+02  0.84267326460E+02  0.61029826859E+03  0.61643723146E+03  0.00000000000E+00 0. -1.
         21    1    1    2  505  501  0.83397526386E+01 -0.31606618156E+02 -0.45366956852E+02  0.55916818216E+02  0.00000000000E+00 0. -1.
         -2    1    1    2    0  504 -0.73299481390E+02  0.15196366794E+02 -0.16909980858E+03  0.18492833422E+03  0.00000000000E+00 0.  1.
<scales pt_clust_3="87.12756" pt_clust_4="14000.00000" pt_clust_5="32.68837" pt_clust_6="67.16212"></scales>
<clustering>
<clus scale="   32.688">  2  5  1 -1</clus>
<clus scale="   67.162">  2  6  1 -1</clus>
<clus scale="   87.128">  2  3  1 -1</clus>
<clus scale="   87.128">  1  3  2 -1</clus>
</clustering>
</event>
<event>
 6    0  0.2117869E+002  0.1232017E+03  0.7546771E-02  0.1237907E+00
         21   -1    0    0  503  502  0.00000000000E+00  0.00000000000E+00  0.14316678898E+03  0.14316678898E+03  0.00000000000E+00 0.  1.
          2   -1    0    0  504    0 -0.00000000000E+00 -0.00000000000E+00 -0.10257083081E+04  0.10257083081E+04  0.00000000000E+00 0.  1.
         21    1    1    2  503  501 -0.37361827368E+02 -0.14717976185E+02  0.11401262127E+03  0.12087763555E+03  0.00000000000E+00 0.  1.
         21    1    1    2  504  505  0.48771566240E+02 -0.10445495229E+03 -0.57797832643E+03  0.58936274785E+03  0.00000000000E+00 0.  1.
         21    1    1    2  505  502 -0.34863452645E+01 -0.30812248974E+02 -0.35324517233E+02  0.47003944599E+02  0.00000000000E+00 0. -1.
          2    1    1    2  501    0 -0.79233936082E+01  0.14998517744E+03 -0.38325129668E+03  0.41163076905E+03  0.00000000000E+00 0.  1.
<scales pt_clust_3="57.56977" pt_clust_4="14000.00000" pt_clust_5="31.00886" pt_clust_6="123.20166"></scales>
<clustering>
<clus scale="   31.009">  1  5  2 -1</clus>
<clus scale="   57.570">  1  3  2 -1</clus>
<clus scale="  123.202">  1  6  2 -1</clus>
<clus scale="   31.009">  1  3  2 -1</clus>
</clustering>
</event>
<event>
 6    0  0.2117869E+002  0.2589395E+03  0.7546771E-02  0.1107782E+00
         21   -1    0    0  503  502  0.00000000000E+00  0.00000000000E+00  0.54635477536E+03  0.54635477536E+03  0.00000000000E+00 0.  1.
          1   -1    0    0  504    0 -0.00000000000E+00 -0.00000000000E+00 -0.36687885452E+04  0.36687885452E+04  0.00000000000E+00 0.  1.
         21    1    1    2  503  501  0.23413428507E+03  0.14035088869E+02  0.33278084109E+03  0.40713503333E+03  0.00000000000E+00 0.  1.
         21    1    1    2  504  505 -0.21275000111E+02  0.74530529660E+02 -0.30931302036E+04  0.30941011428E+04  0.00000000000E+00 0.  1.
         21    1    1    2  505  502  0.28738445228E+02 -0.22103406354E+02  0.14437173446E+03  0.14885448101E+03  0.00000000000E+00 0.  1.
          1    1    1    2  501    0 -0.24159773019E+03 -0.66462212175E+02 -0.50645614182E+03  0.56505266344E+03  0.00000000000E+00 0.  1.
<scales pt_clust_3="14000.00000" pt_clust_4="77.47220" pt_clust_5="36.25547" pt_clust_6="258.93953"></scales>
<clustering>
<clus scale="   36.255">  1  5  2 -1</clus>
<clus scale="   77.472">  2  4  1 -1</clus>
<clus scale="  258.940">  2  6  1 -1</clus>
<clus scale="   36.255">  1  3  2 -1</clus>
</clustering>
</event>
<event>
 6    0  0.2117869E+002  0.8367777E+02  0.7546771E-02  0.1318927E+00
         21   -1    0    0  505  502  0.00000000000E+00  0.00000000000E+00  0.43174745625E+03  0.43174745625E+03  0.00000000000E+00 0. -1.
          2   -1    0    0  503    0 -0.00000000000E+00 -0.00000000000E+00 -0.86869446247E+03  0.86869446247E+03  0.00000000000E+00 0. -1.
         21    1    1    2  503  502 -0.60278437915E+01 -0.52120617915E+02  0.60304478183E+02  0.79934496943E+02  0.00000000000E+00 0. -1.
         21    1    1    2  504  501 -0.53283763554E+02 -0.61140969639E+02 -0.84254030736E+02  0.11694494141E+03  0.00000000000E+00 0.  1.
         21    1    1    2  505  504  0.50589509332E+02  0.27669192729E+02  0.34040969427E+03  0.34525880530E+03  0.00000000000E+00 0. -1.
          2    1    1    2  501    0  0.87220980131E+01  0.85592394824E+02 -0.75340714794E+03  0.75830367506E+03  0.00000000000E+00 0. -1.
<scales pt_clust_3="52.46803" pt_clust_4="83.67777" pt_clust_5="49.86487" pt_clust_6="14000.00000"></scales>
<clustering>
<clus scale="   52.468">  1  3  2 -1</clus>
<clus scale="   49.865">  1  5  2 -1</clus>
<clus scale="   83.678">  1  4  2 -1</clus>
<clus scale="   52.468">  1  3  2 -1</clus>
</clustering>
</event>
<event>
 6    0  0.2117869E+002  0.1515744E+03  0.7546771E-02  0.1198552E+00
         21   -1    0    0  505  502  0.00000000000E+00  0.00000000000E+00  0.97825715614E+02  0.97825715614E+02  0.00000000000E+00 0.  1.
          2   -1    0    0  504    0 -0.00000000000E+00 -0.00000000000E+00 -0.22204236507E+04  0.22204236507E+04  0.00000000000E+00 0.  1.
         21    1    1    2  503  502 -0.70872415461E+02  0.80574739962E+02  0.53061047455E+02  0.11971074618E+03  0.00000000000E+00 0.  1.
         21    1    1    2  504  503  0.19027893597E+02  0.27325809331E+02 -0.22169764246E+03  0.22418431092E+03  0.00000000000E+00 0. -1.
         21    1    1    2  505  501 -0.43803224160E+02  0.21623991802E+02 -0.81758960020E+02  0.95240994387E+02  0.00000000000E+00 0.  1.
          2    1    1    2  501    0  0.95647746024E+02 -0.12952454110E+03 -0.18722023801E+04  0.18791133149E+04  0.00000000000E+00 0.  1.
<scales pt_clust_3="14000.00000" pt_clust_4="33.29806" pt_clust_5="48.65182" pt_clust_6="151.57436"></scales>
<clustering>
<clus scale="   33.298">  2  4  1 -1</clus>
<clus scale="   48.652">  1  5  2 -1</clus>
<clus scale="  151.574">  2  6  1 -1</clus>
<clus scale="   48.652">  1  3  2 -1</clus>
</clustering>
</event>
<event>
 6    0  0.2117869E+002  0.2330560E+03  0.7546771E-02  0.1124507E+00
          2   -1    0    0  503    0 -0.00000000000E+00  0.00000000000E+00  0.53725825236E+03  0.53725825236E+03  0.00000000000E+00 0.  1.
         21   -1    0    0  505  502  0.00000000000E+00 -0.00000000000E+00 -0.80832687380E+03  0.80832687380E+03  0.00000000000E+00 0.  1.
         21    1    1    2  503  502  0.98026100721E+01 -0.35628872666E+02  0.10128540100E+03  0.10781576966E+03  0.00000000000E+00 0.  1.
         21    1    1    2  504  501 -0.18902986462E+03 -0.10548171651E+03 -0.44175437080E+03  0.49194065329E+03  0.00000000000E+00 0.  1.
         21    1    1    2  505  504  0.77405353597E+02 -0.10090316790E+03 -0.28072744705E+03  0.30818977528E+03  0.00000000000E+00 0.  1.
          2    1    1    2  501    0  0.10182190095E+03  0.24201375708E+03  0.35012779541E+03  0.43763892794E+03  0.00000000000E+00 0.  1.
<scales pt_clust_3="36.95278" pt_clust_4="233.05602" pt_clust_5="128.26042" pt_clust_6="14000.00000"></scales>
<clustering>
<clus scale="   36.953">  1  3  2 -1</clus>
<clus scale="  128.260">  2  5  1 -1</clus>
<clus scale="  233.056">  2  4  1 -1</clus>
<clus scale="  128.260">  2  3  1 -1</clus>
</clustering>
</event>
<event>
 6    0  0.2117869E+002  0.1042504E+03  0.7546771E-02  0.1271604E+00
         21   -1    0    0  504  502  0.00000000000E+00  0.00000000000E+00  0.64317655886E+02  0.64317655886E+02  0.00000000000E+00 0. -1.
          2   -1    0    0  505    0 -0.00000000000E+00 -0.00000000000E+00 -0.47228994078E+04  0.47228994078E+04  0.00000000000E+00 0. -1.
         21    1    1    2  503  501 -0.19062390565E+02 -0.38486338338E+02 -0.19535481146E+04  0.19540201659E+04  0.00000000000E+00 0. -1.
         21    1    1    2  504  503  0.80307178564E+02  0.99895692393E+02 -0.12594602232E+04  0.12659654206E+04  0.00000000000E+00 0.  1.
         21    1    1    2  505  502 -0.80082637474E+02 -0.95348186389E+01  0.33354988895E+02  0.87273689480E+02  0.00000000000E+00 0. -1.
          2    1    1    2  501    0  0.18837849476E+02 -0.51874535416E+02 -0.14789284030E+04  0.14799577877E+04  0.00000000000E+00 0. -1.
<scales pt_clust_3="40.85082" pt_clust_4="93.40093" pt_clust_5="80.64826" pt_clust_6="40.85082"></scales>
<clustering>
<clus scale="   40.851">  3  6 -1 -1</clus>
<clus scale="   80.648">  1  5  2 -1</clus>
<clus scale="   93.401">  1  4  2 -1</clus>
<clus scale="   80.648">  1  3  2 -1</clus>
</clustering>
</event>
<event>
 6    0  0.2117869E+002  0.1039539E+03  0.7546771E-02  0.1272195E+00
          2   -1    0    0  505    0 -0.00000000000E+00  0.00000000000E+00  0.21518247241E+04  0.21518247241E+04  0.00000000000E+00 0.  1.
         21   -1    0    0  504  502  0.00000000000E+00 -0.00000000000E+00 -0.41779518822E+02  0.41779518822E+02  0.00000000000E+00 0.  1.
         21    1    1    2  503  501  0.47035717556E+02 -0.32442551989E+02  0.15535674697E+02  0.59213470544E+02  0.00000000000E+00 0.  1.
         21    1    1    2  504  503 -0.18342046144E+00 -0.45063199632E+02  0.21015499260E+02  0.49723000848E+02  0.00000000000E+00 0.  1.
         21    1    1    2  505  502 -0.23454840557E+02 -0.57562545864E+02  0.33068457784E+03  0.33647565477E+03  0.00000000000E+00 0.  1.
          2    1    1    2  501    0 -0.23397456538E+02  0.13506829749E+03  0.17428094535E+04  0.17481921168E+04  0.00000000000E+00 0.  1.
<scales pt_clust_3="42.85686" pt_clust_4="42.85686" pt_clust_5="62.15767" pt_clust_6="92.07343"></scales>
<clustering>
<clus scale="   42.857">  3  4 -1 -1</clus>
<clus scale="   62.158">  1  5  2 -1</clus>
<clus scale="   92.073">  1  6  2 -1</clus>
<clus scale="  103.954">  2  3  1 -1</clus>
</clustering>
</event>
<event>
 6    0  0.2117869E+002  0.1251477E+03  0.7546771E-02  0.1234839E+00
         21   -1    0    0  503  502  0.00000000000E+00  0.00000000000E+00  0.16505691838E+04  0.16505691838E+04  0.00000000000E+00 0.  1.
          1   -1    0    0  504    0 -0.00000000000E+00 -0.00000000000E+00 -0.38362363109E+03  0.38362363109E+03  0.00000000000E+00 0.  1.
         21    1    1    2  503  505  0.21311889847E+02  0.48805327733E+02  0.14243193750E+04  0.14253146455E+04  0.00000000000E+00 0.  1.
         21    1    1    2  504  502 -0.10257980902E+03 -0.10162709791E+03  0.16130809764E+03  0.21649708222E+03  0.00000000000E+00 0.  1.
         21    1    1    2  505  501 -0.43382628922E+02  0.36639323520E+02 -0.81403574132E+01  0.57365128248E+02  0.00000000000E+00 0.  1.
          1    1    1    2  501    0  0.12465054809E+03  0.16182446659E+02 -0.31054156249E+03  0.33501595895E+03  0.00000000000E+00 0.  1.
<scales pt_clust_3="53.25558" pt_clust_4="14000.00000" pt_clust_5="58.70704" pt_clust_6="125.14771"></scales>
<clustering>
<clus scale="   53.256">  1  3  2 -1</clus>
<clus scale="   58.707">  1  5  2 -1</clus>
<clus scale="  125.148">  2  6  1 -1</clus>
<clus scale="   53.256">  1  3  2 -1</clus>
</clustering>
</event>
<event>
 6    0  0.2117869E+002  0.1004239E+03  0.7546771E-02  0.1279407E+00
          1   -1    0    0  504    0 -0.00000000000E+00  0.00000000000E+00  0.34348472305E+03  0.34348472305E+03  0.00000000000E+00 0.  1.
         21   -1    0    0  503  502  0.00000000000E+00 -0.00000000000E+00 -0.83738064923E+03  0.83738064923E+03  0.00000000000E+00 0.  1.
         21    1    1    2  503  501 -0.51115224073E+02  0.12290025261E+03 -0.10298485787E+03  0.16829473900E+03  0.00000000000E+00 0.  1.
         21    1    1    2  504  505  0.67282242214E+01 -0.31537466902E+02  0.37918014861E+02  0.49776065240E+02  0.00000000000E+00 0.  1.
         21    1    1    2  505  502  0.64715515597E+02 -0.21438210874E+02 -0.68913299414E+03  0.69249691585E+03  0.00000000000E+00 0.  1.
          1    1    1    2  501    0 -0.20328515745E+02 -0.69924574834E+02  0.26030391097E+03  0.27029765220E+03  0.00000000000E+00 0.  1.
<scales pt_clust_3="100.42389" pt_clust_4="32.24718" pt_clust_5="68.26570" pt_clust_6="14000.00000"></scales>
<clustering>
<clus scale="   32.247">  1  4  2 -1</clus>
<clus scale="   68.266">  2  5  1 -1</clus>
<clus scale="  100.424">  2  3  1 -1</clus>
<clus scale="   68.266">  2  3  1 -1</clus>
</clustering>
</event>
<event>
 6    0  0.2117869E+002  0.1613095E+03  0.7546771E-02  0.1187226E+00
         21   -1    0    0  505  502  0.00000000000E+00  0.00000000000E+00  0.27862238343E+03  0.27862238343E+03  0.00000000000E+00 0.  1.
          1   -1    0    0  503    0 -0.00000000000E+00 -0.00000000000E+00 -0.25796311821E+04  0.25796311821E+04  0.00000000000E+00 0.  1.
         21    1    1    2  503  502  0.24768819106E+02  0.21266895948E+02 -0.82423318783E+02  0.88653137239E+02  0.00000000000E+00 0.  1.
         21    1    1    2  504  501 -0.15980933569E+03  0.46849891177E+01 -0.73845685462E+03  0.75556568148E+03  0.00000000000E+00 0.  1.
         21    1    1    2  505  504 -0.12371969953E+02 -0.58865479566E+02  0.26025162098E+03  0.26711255408E+03  0.00000000000E+00 0.  1.
          1    1    1    2  501    0  0.14741248653E+03  0.32913594501E+02 -0.17403802462E+04  0.17469221927E+04  0.00000000000E+00 0.  1.
<scales pt_clust_3="32.64621" pt_clust_4="161.30952" pt_clust_5="60.11593" pt_clust_6="14000.00000"></scales>
<clustering>
<clus scale="   32.646">  2  3  1 -1</clus>
<clus scale="   60.116">  1  5  2 -1</clus>
<clus scale="  161.310">  1  4  2 -1</clus>
<clus scale="   60.116">  1  3  2 -1</clus>
</clustering>
</event>
<event>
 6    0  0.2117869E+002  0.1135020E+03  0.7546771E-02  0.1254219E+00
         21   -1    0    0  505  502  0.00000000000E+00  0.00000000000E+00  0.42028475547E+03  0.42028475547E+03  0.00000000000E+00 0.  1.
          2   -1    0    0  503    0 -0.00000000000E+00 -0.00000000000E+00 -0.12484751469E+04  0.12484751469E+04  0.00000000000E+00 0. -1.
         21    1    1    2  503  504  0.11500592342E+03 -0.82819048306E+02 -0.29749422829E+03  0.32952719622E+03  0.00000000000E+00 0.  1.
         21    1    1    2  504  502 -0.12907226009E+03  0.57891296890E+02  0.94698250749E+02  0.17023163418E+03  0.00000000000E+00 0.  1.
         21    1    1    2  505  501  0.31738836767E+02 -0.12520125316E+02  0.27025236141E+03  0.27239758836E+03  0.00000000000E+00 0.  1.
          2    1    1    2  501    0 -0.17672500103E+02  0.37447876732E+02 -0.89564677535E+03  0.89660348367E+03  0.00000000000E+00 0. -1.
<scales pt_clust_3="14000.00000" pt_clust_4="113.50195" pt_clust_5="34.11902" pt_clust_6="41.32867"></scales>
<clustering>
<clus scale="   34.119">  1  5  2 -1</clus>
<clus scale="   41.329">  2  6  1 -1</clus>
<clus scale="  113.502">  1  4  2 -1</clus>
<clus scale="   34.119">  1  3  2 -1</clus>
</clustering>
</event>
<event>
 6    0  0.2117869E+002  0.9041922E+02  0.7546771E-02  0.1301840E+00
          2   -1    0    0  505    0 -0.00000000000E+00  0.00000000000E+00  0.21404870900E+03  0.21404870900E+03  0.00000000000E+00 0. -1.
         21   -1    0    0  503  502  0.00000000000E+00 -0.00000000000E+00 -0.20585070477E+04  0.20585070477E+04  0.00000000000E+00 0.  1.
         21    1    1    2  503  501  0.55107530464E+02  0.85926076713E+02 -0.15533192423E+03  0.18587129218E+03  0.00000000000E+00 0. -1.
         21    1    1    2  504  502 -0.21994111658E+02 -0.87210474736E+02 -0.18710955189E+04  0.18732559486E+04  0.00000000000E+00 0.  1.
         21    1    1    2  505  504 -0.16201167555E+02  0.49972284510E+02  0.13009978986E+03  0.14030560349E+03  0.00000000000E+00 0. -1.
          2    1    1    2  501    0 -0.16912251250E+02 -0.48687886487E+02  0.51869314583E+02  0.73122912471E+02  0.00000000000E+00 0. -1.
<scales pt_clust_3="90.41922" pt_clust_4="14000.00000" pt_clust_5="31.96445" pt_clust_6="51.54158"></scales>
<clustering>
<clus scale="   51.542">  1  6  2 -1</clus>
<clus scale="   31.964">  1  5  2 -1</clus>
<clus scale="   90.419">  1  3  2 -1</clus>
<clus scale="   90.419">  2  3  1 -1</clus>
</clustering>
</event>
<event>
 6    0  0.2117869E+002  0.1203521E+03  0.7546771E-02  0.1242517E+00
         21   -1    0    0  504  502  0.00000000000E+00  0.00000000000E+00  0.68932873640E+02  0.68932873640E+02  0.00000000000E+00 0. -1.
          1   -1    0    0  505    0 -0.00000000000E+00 -0.00000000000E+00 -0.19828634635E+04  0.19828634635E+04  0.00000000000E+00 0. -1.
         21    1    1    2  503  501  0.79653109118E+02 -0.26757136150E+02 -0.56840819118E+03  0.57458544528E+03  0.00000000000E+00 0. -1.
         21    1    1    2  504  503  0.11370113179E+03 -0.14524400034E+01 -0.21931522571E+02  0.11580608203E+03  0.00000000000E+00 0. -1.
         21    1    1    2  505  502 -0.14968984976E+03  0.18132095351E+02 -0.29013011152E+03  0.32697294324E+03  0.00000000000E+00 0. -1.
          1    1    1    2  501    0 -0.43664391149E+02  0.10077480803E+02 -0.10334607646E+04  0.10344318666E+04  0.00000000000E+00 0. -1.
<scales pt_clust_3="57.22603" pt_clust_4="14000.00000" pt_clust_5="120.35209" pt_clust_6="44.81222"></scales>
<clustering>
<clus scale="   44.812">  2  6  1 -1</clus>
<clus scale="   57.226">  2  3  1 -1</clus>
<clus scale="  120.352">  2  5  1 -1</clus>
<clus scale="  120.352">  1  3  2 -1</clus>
</clustering>
</event>
<event>
 6    0  0.2117869E+002  0.1855525E+03  0.7546771E-02  0.1162535E+00
         -3   -1    0    0    0  501 -0.00000000000E+00  0.00000000000E+00  0.92154730225E+03  0.92154730225E+03  0.00000000000E+00 0.  1.
         21   -1    0    0  504  502  0.00000000000E+00 -0.00000000000E+00 -0.27257328930E+03  0.27257328930E+03  0.00000000000E+00 0.  1.
         21    1    1    2  503  501 -0.28423655171E+00 -0.30913077882E+02  0.73341299542E+02  0.79590485568E+02  0.00000000000E+00 0.  1.
         21    1    1    2  504  505  0.21873416398E+02 -0.79295211696E+02 -0.15298960264E+03  0.17370087927E+03  0.00000000000E+00 0.  1.
         21    1    1    2  505  503  0.55823757071E+02 -0.73651024055E+02 -0.71099266844E+02  0.11660133337E+03  0.00000000000E+00 0. -1.
         -3    1    1    2    0  502 -0.77412936917E+02  0.18385931363E+03  0.79972158290E+03  0.82422789334E+03  0.00000000000E+00 0.  1.
<scales pt_clust_3="30.91438" pt_clust_4="64.10967" pt_clust_5="64.10967" pt_clust_6="172.62557"></scales>
<clustering>
<clus scale="   30.914">  1  3  2 -1</clus>
<clus scale="   64.110">  4  5 -1 -1</clus>
<clus scale="  172.626">  1  6  2 -1</clus>
<clus scale="  185.553">  2  3  1 -1</clus>
</clustering>
</event>
<event>
 6    0  0.2117869E+002  0.1109954E+03  0.7546771E-02  0.1258738E+00
          1   -1    0    0  504    0 -0.00000000000E+00  0.00000000000E+00  0.65669681790E+03  0.65669681790E+03  0.00000000000E+00 0. -1.
         21   -1    0    0  505  502  0.00000000000E+00 -0.00000000000E+00 -0.93595708731E+02  0.93595708731E+02  0.00000000000E+00 0. -1.
         21    1    1    2  503  501 -0.21734591668E+02 -0.89217817619E+02  0.28111165457E+02  0.96033583079E+02  0.00000000000E+00 0.  1.
         21    1    1    2  504  502 -0.70001016056E+01  0.41259540369E+02  0.10343170795E+03  0.11157718989E+03  0.00000000000E+00 0.  1.
         21    1    1    2  505  503 -0.24200826168E+02 -0.25994166763E+02 -0.45111000603E+02  0.57414101650E+02  0.00000000000E+00 0. -1.
          1    1    1    2  501    0  0.52935519442E+02  0.73952444013E+02  0.47666923636E+03  0.48526765201E+03  0.00000000000E+00 0. -1.
<scales pt_clust_3="110.99537" pt_clust_4="39.86549" pt_clust_5="35.51587" pt_clust_6="14000.00000"></scales>
<clustering>
<clus scale="   35.516">  2  5  1 -1</clus>
<clus scale="   39.865">  1  4  2 -1</clus>
<clus scale="  110.995">  2  3  1 -1</clus>
<clus scale="   35.516">  2  3  1 -1</clus>
</clustering>
</event>
<event>
 6    0  0.2117869E+002  0.1004209E+03  0.7546771E-02  0.1279413E+00
         21   -1    0    0  503  502  0.00000000000E+00  0.00000000000E+00  0.75123201082E+02  0.75123201082E+02  0.00000000000E+00 0. -1.
          1   -1    0    0  504    0 -0.00000000000E+00 -0.00000000000E+00 -0.48268767336E+03  0.48268767336E+03  0.00000000000E+00 0.  1.
         21    1    1    2  503  501  0.29535430631E+01 -0.46568657982E+02  0.15260237653E+02  0.49094176601E+02  0.00000000000E+00 0. -1.
         21    1    1    2  504  505 -0.88322152336E+02 -0.90278537047E+00 -0.20123290418E+03  0.21976419030E+03  0.00000000000E+00 0. -1.
         21    1    1    2  505  502 -0.32959741135E+02 -0.15439568425E+01  0.15241834470E-01  0.32995887179E+02  0.00000000000E+00 0.  1.
          1    1    1    2  501    0  0.11832835041E+03  0.49015400195E+02 -0.22160704759E+03  0.25595662036E+03  0.00000000000E+00 0.  1.
<scales pt_clust_3="49.77439" pt_clust_4="100.42088" pt_clust_5="32.99588" pt_clust_6="14000.00000"></scales>
<clustering>
<clus scale="   32.996">  1  5  2 -1</clus>
<clus scale="   49.774">  1  3  2 -1</clus>
<clus scale="  100.421">  2  4  1 -1</clus>
<clus scale="   32.996">  1  3  2 -1</clus>
</clustering>
</event>
<event>
 6    0  0.2117869E+002  0.1309124E+03  0.7546771E-02  0.1226108E+00
         21   -1    0    0  504  502  0.00000000000E+00  0.00000000000E+00  0.49663912810E+03  0.49663912810E+03  0.00000000000E+00 0.  1.
          2   -1    0    0  503    0 -0.00000000000E+00 -0.00000000000E+00 -0.31634525425E+03  0.31634525425E+03  0.00000000000E+00 0. -1.
         21    1    1    2  503  502 -0.67012905354E+01  0.99662697584E+02 -0.11889884479E+03  0.15528842802E+03  0.00000000000E+00 0. -1.
         21    1    1    2  504  505  0.28673949017E+02  0.18639977017E+02  0.38067527497E+03  0.38220846284E+03  0.00000000000E+00 0.  1.
         21    1    1    2  505  501 -0.91174615318E+02 -0.14478260196E+03 -0.82322324865E+01  0.17129676576E+03  0.00000000000E+00 0.  1.
          2    1    1    2  501    0  0.69201956837E+02  0.26479927359E+02 -0.73250323854E+02  0.10419072573E+03  0.00000000000E+00 0. -1.
<scales pt_clust_3="14000.00000" pt_clust_4="34.20006" pt_clust_5="130.91240" pt_clust_6="78.59208"></scales>
<clustering>
<clus scale="   34.200">  1  4  2 -1</clus>
<clus scale="   78.592">  2  6  1 -1</clus>
<clus scale="  130.912">  1  5  2 -1</clus>
<clus scale="   34.200">  1  3  2 -1</clus>
</clustering>
</event>
<event>
 6    0  0.2117869E+002  0.1201899E+03  0.7546771E-02  0.1242784E+00
         21   -1    0    0  503  502  0.00000000000E+00  0.00000000000E+00  0.51660344944E+03  0.51660344944E+03  0.00000000000E+00 0.  1.
          2   -1    0    0  505    0 -0.00000000000E+00 -0.00000000000E+00 -0.98865824672E+03  0.98865824672E+03  0.00000000000E+00 0.  1.
         21    1    1    2  503  501  0.46716723331E+02 -0.58885907561E+02  0.42128394639E+02  0.86167302284E+02  0.00000000000E+00 0.  1.
         21    1    1    2  504  502  0.16027595730E+02 -0.53815249784E+02  0.41345571532E+03  0.41725123543E+03  0.00000000000E+00 0.  1.
         21    1    1    2  505  504 -0.17709727070E+01 -0.56272036325E+02 -0.73977857229E+03  0.74191779493E+03  0.00000000000E+00 0.  1.
          2    1    1    2  501    0 -0.60973346354E+02  0.16897319367E+03 -0.18786033496E+03  0.25992536351E+03  0.00000000000E+00 0.  1.
<scales pt_clust_3="14000.00000" pt_clust_4="56.15127" pt_clust_5="56.86311" pt_clust_6="120.18991"></scales>
<clustering>
<clus scale="   56.151">  1  4  2 -1</clus>
<clus scale="   56.863">  2  5  1 -1</clus>
<clus scale="  120.190">  2  6  1 -1</clus>
<clus scale="   56.151">  1  3  2 -1</clus>
</clustering>
</event>
<event>
 6    0  0.2117869E+002  0.1026509E+03  0.7546771E-02  0.1274818E+00
         21   -1    0    0  504  502  0.00000000000E+00  0.00000000000E+00  0.18325472107E+03  0.18325472107E+03  0.00000000000E+00 0.  1.
         -1   -1    0    0    0  501 -0.00000000000E+00 -0.00000000000E+00 -0.70646478692E+03  0.70646478692E+03  0.00000000000E+00 0.  1.
         21    1    1    2  503  501  0.70758966139E+02 -0.49162617641E+02 -0.13373507985E+03  0.15908760431E+03  0.00000000000E+00 0.  1.
         21    1    1    2  504  503  0.44783651488E+02 -0.11289913694E+03  0.11096353394E+02  0.12196277965E+03  0.00000000000E+00 0.  1.
         21    1    1    2  505  502 -0.30217596426E+02  0.89932810017E+02  0.74505031753E+02  0.12063172554E+03  0.00000000000E+00 0.  1.
         -1    1    1    2    0  505 -0.85325021202E+02  0.72128944563E+02 -0.47507637116E+03  0.48803739848E+03  0.00000000000E+00 0.  1.
<scales pt_clust_3="86.16144" pt_clust_4="102.65090" pt_clust_5="14000.00000" pt_clust_6="38.61192"></scales>
<clustering>
<clus scale="   86.161">  2  3  1 -1</clus>
<clus scale="   38.612">  2  6  1 -1</clus>
<clus scale="  102.651">  2  4  1 -1</clus>
<clus scale="  102.651">  1  3  2 -1</clus>
</clustering>
</event>
<event>
 6    0  0.2117869E+002  0.8309713E+02  0.7546771E-02  0.1320485E+00
         21   -1    0    0  501  502  0.00000000000E+00  0.00000000000E+00  0.89081266860E+02  0.89081266860E+02  0.00000000000E+00 0.  1.
          2   -1    0    0  504    0 -0.00000000000E+00 -0.00000000000E+00 -0.43559720032E+04  0.43559720032E+04  0.00000000000E+00 0. -1.
         21    1    1    2  503  502  0.38250239548E+02 -0.38417648204E+01 -0.20183614387E+02  0.43419100315E+02  0.00000000000E+00 0. -1.
         21    1    1    2  504  505  0.30029446750E+02  0.57127344320E+02 -0.29254204473E+03  0.29957661637E+03  0.00000000000E+00 0. -1.
         21    1    1    2  505  503 -0.11944184541E+03  0.11128519895E+02  0.24588900402E+02  0.12245330707E+03  0.00000000000E+00 0.  1.
          2    1    1    2  501    0  0.51162159110E+02 -0.64414099394E+02 -0.39787539777E+04  0.39796042463E+04  0.00000000000E+00 0. -1.
<scales pt_clust_3="38.44268" pt_clust_4="65.21293" pt_clust_5="83.09713" pt_clust_6="14000.00000"></scales>
<clustering>
<clus scale="   38.443">  1  3  2 -1</clus>
<clus scale="   65.213">  2  4  1 -1</clus>
<clus scale="   83.097">  1  5  2 -1</clus>
<clus scale="   38.443">  1  3  2 -1</clus>
</clustering>
</event>
<event>
 6    0  0.2117869E+002  0.1869036E+03  0.7546771E-02  0.1161284E+00
         21   -1    0    0  504  502  0.00000000000E+00  0.00000000000E+00  0.11464376244E+04  0.11464376244E+04  0.00000000000E+00 0. -1.
         -2   -1    0    0    0  501 -0.00000000000E+00 -0.00000000000E+00 -0.67007317024E+03  0.67007317024E+03  0.00000000000E+00 0. -1.
         21    1    1    2  503  502  0.50713514938E+02 -0.33468022088E+02  0.14901081261E+03  0.16092293613E+03  0.00000000000E+00 0. -1.
         21    1    1    2  504  505 -0.22962064561E+03  0.49298034673E+02  0.90551635362E+03  0.93547624437E+03  0.00000000000E+00 0. -1.
         21    1    1    2  505  501 -0.12061871528E+03 -0.29929436217E+02 -0.12150275067E+03  0.17380323371E+03  0.00000000000E+00 0.  1.
         -2    1    1    2    0  503  0.29952584595E+03  0.14099423632E+02 -0.45665996142E+03  0.54630838041E+03  0.00000000000E+00 0. -1.
<scales pt_clust_3="60.76158" pt_clust_4="14000.00000" pt_clust_5="123.19650" pt_clust_6="186.90359"></scales>
<clustering>
<clus scale="   60.762">  1  3  2 -1</clus>
<clus scale="  123.197">  2  5  1 -1</clus>
<clus scale="  186.904">  2  6  1 -1</clus>
<clus scale="   60.762">  1  3  2 -1</clus>
</clustering>
</event>
<event>
 6    0  0.2117869E+002  0.1239624E+03  0.7546771E-02  0.1236700E+00
          2   -1    0    0  504    0 -0.00000000000E+00  0.00000000000E+00  0.26260139929E+04  0.26260139929E+04  0.00000000000E+00 0. -1.
         21   -1    0    0  501  502  0.00000000000E+00 -0.00000000000E+00 -0.29196846538E+03  0.29196846538E+03  0.00000000000E+00 0. -1.
         21    1    1    2  503  502 -0.72964667276E+02 -0.26629939484E+02 -0.23510925872E+03  0.24760726944E+03  0.00000000000E+00 0. -1.
         21    1    1    2  504  505  0.82630807741E+01  0.31083471603E+02  0.21093158798E+03  0.21336962182E+03  0.00000000000E+00 0. -1.
         21    1    1    2  505  503  0.14943465550E+03 -0.70500930497E+02  0.93727815373E+02  0.18996315654E+03  0.00000000000E+00 0. -1.
          2    1    1    2  501    0 -0.84733069002E+02  0.66047398378E+02  0.22644953829E+04  0.22670424105E+04  0.00000000000E+00 0. -1.
<scales pt_clust_3="77.62471" pt_clust_4="32.16303" pt_clust_5="123.96242" pt_clust_6="14000.00000"></scales>
<clustering>
<clus scale="   32.163">  1  4  2 -1</clus>
<clus scale="   77.625">  2  3  1 -1</clus>
<clus scale="  123.962">  2  5  1 -1</clus>
<clus scale="   77.625">  2  3  1 -1</clus>
</clustering>
</event>
<event>
 6    0  0.2117869E+002  0.1081788E+03  0.7546771E-02  0.1263980E+00
         21   -1    0    0  503  502  0.00000000000E+00  0.00000000000E+00  0.36511557168E+02  0.36511557168E+02  0.00000000000E+00 0. -1.
          2   -1    0    0  505    0 -0.00000000000E+00 -0.00000000000E+00 -0.23565044950E+04  0.23565044950E+04  0.00000000000E+00 0. -1.
         21    1    1    2  503  501  0.23657105774E+02  0.12135728162E+03 -0.50402685772E+03  0.51897044401E+03  0.00000000000E+00 0. -1.
         21    1    1    2  504  502  0.54732950512E+02 -0.56795947574E+02 -0.34629757677E+02  0.86143459701E+02  0.00000000000E+00 0. -1.
         21    1    1    2  505  504 -0.25939937965E+01  0.30948433905E+02 -0.38789581889E+03  0.38913712323E+03  0.00000000000E+00 0.  1.
          2    1    1    2  501    0 -0.75796062490E+02 -0.95509767951E+02 -0.13934405035E+04  0.13987650252E+04  0.00000000000E+00 0. -1.
<scales pt_clust_3="108.17879" pt_clust_4="78.13962" pt_clust_5="31.05695" pt_clust_6="14000.00000"></scales>
<clustering>
<clus scale="   31.057">  2  5  1 -1</clus>
<clus scale="   78.140">  1  4  2 -1</clus>
<clus scale="  108.179">  1  3  2 -1</clus>
<clus scale="   78.140">  1  3  2 -1</clus>
</clustering>
</event>
<event>
 6    0  0.2117869E+002  0.3073812E+03  0.7546771E-02  0.1081608E+00
          2   -1    0    0  505    0 -0.00000000000E+00  0.00000000000E+00  0.13696815188E+04  0.13696815188E+04  0.00000000000E+00 0. -1.
         21   -1    0    0  503  502  0.00000000000E+00 -0.00000000000E+00 -0.96115635043E+03  0.96115635043E+03  0.00000000000E+00 0.  1.
         21    1    1    2  503  501 -0.38658062516E+02 -0.86775793171E+02 -0.84426463245E+03  0.84959240444E+03  0.00000000000E+00 0.  1.
         21    1    1    2  504  502  0.25313778525E+01 -0.33875774602E+02 -0.30385531381E+02  0.45576929428E+02  0.00000000000E+00 0.  1.
         21    1    1    2  505  504 -0.26220142000E+03 -0.42532109895E+02  0.32982016258E+03  0.42348542439E+03  0.00000000000E+00 0. -1.
          2    1    1    2  501    0  0.29832810467E+03  0.16318367767E+03  0.95335516960E+03  0.10121831110E+04  0.00000000000E+00 0. -1.
<scales pt_clust_3="123.32795" pt_clust_4="33.97022" pt_clust_5="14000.00000" pt_clust_6="307.38120"></scales>
<clustering>
<clus scale="   33.970">  2  4  1 -1</clus>
<clus scale="  123.328">  2  3  1 -1</clus>
<clus scale="  307.381">  1  6  2 -1</clus>
<clus scale="   33.970">  2  3  1 -1</clus>
</clustering>
</event>
<event>
 6    0  0.2117869E+002  0.2240938E+03  0.7546771E-02  0.1130867E+00
          1   -1    0    0  505    0 -0.00000000000E+00  0.00000000000E+00  0.22731437418E+04  0.22731437418E+04  0.00000000000E+00 0. -1.
         21   -1    0    0  503  502  0.00000000000E+00 -0.00000000000E+00 -0.52471240925E+03  0.52471240925E+03  0.00000000000E+00 0. -1.
         21    1    1    2  503  501  0.23660575222E+03  0.85176601439E+02 -0.22876026816E+03  0.33995381408E+03  0.00000000000E+00 0. -1.
         21    1    1    2  504  502 -0.57144673739E+02 -0.30705051649E+01 -0.15366983418E+03  0.16397975386E+03  0.00000000000E+00 0. -1.
         21    1    1    2  505  504 -0.33575686984E+03 -0.12248468378E+03  0.33193044110E+03  0.48776325316E+03  0.00000000000E+00 0. -1.
          1    1    1    2  501    0  0.15629579135E+03  0.40378587502E+02  0.17989309937E+04  0.18061593299E+04  0.00000000000E+00 0. -1.
<scales pt_clust_3="14000.00000" pt_clust_4="57.22711" pt_clust_5="224.09381" pt_clust_6="160.87333"></scales>
<clustering>
<clus scale="   57.227">  2  4  1 -1</clus>
<clus scale="  160.873">  1  6  2 -1</clus>
<clus scale="  224.094">  1  5  2 -1</clus>
<clus scale="   57.227">  2  3  1 -1</clus>
</clustering>
</event>
<event>
 6    0  0.2117869E+002  0.1326424E+03  0.7546771E-02  0.1223587E+00
         21   -1    0    0  503  502  0.00000000000E+00  0.00000000000E+00  0.54234405127E+03  0.54234405127E+03  0.00000000000E+00 0.  1.
          2   -1    0    0  505    0 -0.00000000000E+00 -0.00000000000E+00 -0.29585821162E+03  0.29585821162E+03  0.00000000000E+00 0. -1.
         21    1    1    2  503  501  0.28228359093E+02  0.36829936694E+02  0.19557077780E+03  0.20100053140E+03  0.00000000000E+00 0. -1.
         21    1    1    2  504  502  0.91675901995E+02 -0.92125652923E+02  0.29829632958E+03  0.32538025013E+03  0.00000000000E+00 0.  1.
         21    1    1    2  505  504  0.30455223075E+02  0.16081341900E+02 -0.44843470310E+02  0.56542612243E+02  0.00000000000E+00 0. -1.
          2    1    1    2  501    0 -0.15035948416E+03  0.39214374329E+02 -0.20253779742E+03  0.25527886911E+03  0.00000000000E+00 0. -1.
<scales pt_clust_3="46.75027" pt_clust_4="132.64238" pt_clust_5="34.44024" pt_clust_6="14000.00000"></scales>
<clustering>
<clus scale="   34.440">  2  5  1 -1</clus>
<clus scale="   46.750">  1  3  2 -1</clus>
<clus scale="  132.642">  1  4  2 -1</clus>
<clus scale="   46.750">  1  3  2 -1</clus>
</clustering>
</event>
<event>
 6    0  0.2117869E+002  0.6815512E+02  0.7546771E-02  0.1366481E+00
         21   -1    0    0  504  502  0.00000000000E+00  0.00000000000E+00  0.30566402417E+02  0.30566402417E+02  0.00000000000E+00 0. -1.
          2   -1    0    0  503    0 -0.00000000000E+00 -0.00000000000E+00 -0.15693126101E+04  0.15693126101E+04  0.00000000000E+00 0.  1.
         21    1    1    2  503  505  0.44616805940E+02  0.28357110726E+02 -0.57699734344E+03  0.57941411740E+03  0.00000000000E+00 0.  1.
         21    1    1    2  504  501 -0.93541614168E+01 -0.85227611474E+02 -0.37423831223E+03  0.38393431787E+03  0.00000000000E+00 0.  1.
         21    1    1    2  505  502  0.95517529655E+01  0.65323838368E+02 -0.22596210651E+02  0.69778424887E+02  0.00000000000E+00 0. -1.
          2    1    1    2  501    0 -0.44814397489E+02 -0.84533376206E+01 -0.56491434140E+03  0.56675215241E+03  0.00000000000E+00 0.  1.
<scales pt_clust_3="30.08067" pt_clust_4="68.15512" pt_clust_5="14000.00000" pt_clust_6="45.60471"></scales>
<clustering>
<clus scale="   45.605">  2  6  1 -1</clus>
<clus scale="   30.081">  2  3  1 -1</clus>
<clus scale="   68.155">  2  4  1 -1</clus>
<clus scale="   68.155">  1  3  2 -1</clus>
</clustering>
</event>
<event>
 6    0  0.2117869E+002  0.2540772E+03  0.7546771E-02  0.1110755E+00
         21   -1    0    0  503  502  0.00000000000E+00  0.00000000000E+00  0.57758885737E+03  0.57758885737E+03  0.00000000000E+00 0.  1.
          2   -1    0    0  505    0 -0.00000000000E+00 -0.00000000000E+00 -0.32223587725E+03  0.32223587725E+03  0.00000000000E+00 0.  1.
         21    1    1    2  503  504 -0.90582387741E+02 -0.50736462553E+02  0.28718892186E+03  0.30537981996E+03  0.00000000000E+00 0.  1.
         21    1    1    2  504  501  0.58683086066E+02 -0.24911570750E+03  0.10806801731E+02  0.25616230651E+03  0.00000000000E+00 0.  1.
         21    1    1    2  505  502 -0.10505003138E+02  0.42291685056E+02  0.45281988880E+02  0.62844253777E+02  0.00000000000E+00 0.  1.
          2    1    1    2  501    0  0.42404304812E+02  0.25756048500E+03 -0.87924732352E+02  0.27543835437E+03  0.00000000000E+00 0.  1.
<scales pt_clust_3="100.17943" pt_clust_4="254.07724" pt_clust_5="43.57685" pt_clust_6="14000.00000"></scales>
<clustering>
<clus scale="   43.577">  1  5  2 -1</clus>
<clus scale="  100.179">  1  3  2 -1</clus>
<clus scale="  254.077">  1  4  2 -1</clus>
<clus scale="   43.577">  1  3  2 -1</clus>
</clustering>
</event>
<event>
 6    0  0.2117869E+002  0.7438065E+02  0.7546771E-02  0.1345800E+00
         21   -1    0    0  501  502  0.00000000000E+00  0.00000000000E+00  0.72521975589E+03  0.72521975589E+03  0.00000000000E+00 0.  1.
          2   -1    0    0  505    0 -0.00000000000E+00 -0.00000000000E+00 -0.65333581941E+03  0.65333581941E+03  0.00000000000E+00 0.  1.
         21    1    1    2  503  502 -0.26540961189E+02 -0.17522744673E+02  0.65940319714E+03  0.66016970969E+03  0.00000000000E+00 0.  1.
         21    1    1    2  504  503 -0.42237325850E+02  0.15895254112E+02  0.41192288083E+02  0.61102008116E+02  0.00000000000E+00 0.  1.
         21    1    1    2  505  504  0.70433453071E+02  0.73692188050E+02 -0.22268376531E+03  0.24490706242E+03  0.00000000000E+00 0.  1.
          2    1    1    2  501    0 -0.16551660314E+01 -0.72064697489E+02 -0.40602778343E+03  0.41237679508E+03  0.00000000000E+00 0.  1.
<scales pt_clust_3="31.80360" pt_clust_4="63.02191" pt_clust_5="74.38065" pt_clust_6="14000.00000"></scales>
<clustering>
<clus scale="   31.804">  1  3  2 -1</clus>
<clus scale="   63.022">  1  4  2 -1</clus>
<clus scale="   74.381">  1  5  2 -1</clus>
<clus scale="   31.804">  1  3  2 -1</clus>
</clustering>
</event>
<event>
 6    0  0.2117869E+002  0.9937547E+02  0.7546771E-02  0.1281615E+00
         21   -1    0    0  504  502  0.00000000000E+00  0.00000000000E+00  0.24876476145E+03  0.24876476145E+03  0.00000000000E+00 0. -1.
          2   -1    0    0  505    0 -0.00000000000E+00 -0.00000000000E+00 -0.79911353665E+03  0.79911353665E+03  0.00000000000E+00 0. -1.
         21    1    1    2  503  502  0.30845374650E+02 -0.76134851822E+02  0.17807850314E+03  0.19611197333E+03  0.00000000000E+00 0. -1.
         21    1    1    2  504  501 -0.59076165934E+02 -0.21643775716E+02  0.40030302840E+02  0.74571251526E+02  0.00000000000E+00 0.  1.
         21    1    1    2  505  503 -0.15916235022E+02  0.32526603218E+02 -0.19276927811E+03  0.19614102334E+03  0.00000000000E+00 0.  1.
          2    1    1    2  501    0  0.44147026306E+02  0.65252024320E+02 -0.57568830308E+03  0.58105404991E+03  0.00000000000E+00 0. -1.
<scales pt_clust_3="14000.00000" pt_clust_4="63.03184" pt_clust_5="36.21197" pt_clust_6="99.37547"></scales>
<clustering>
<clus scale="   36.212">  2  5  1 -1</clus>
<clus scale="   63.032">  1  4  2 -1</clus>
<clus scale="   99.375">  2  6  1 -1</clus>
<clus scale="   63.032">  1  3  2 -1</clus>
</clustering>
</event>
<event>
 6    0  0.2117869E+002  0.2358968E+03  0.7546771E-02  0.1122557E+00
         21   -1    0    0  504  502  0.00000000000E+00  0.00000000000E+00  0.96329712679E+03  0.96329712679E+03  0.00000000000E+00 0. -1.
          1   -1    0    0  505    0 -0.00000000000E+00 -0.00000000000E+00 -0.68745197314E+03  0.68745197314E+03  0.00000000000E+00 0. -1.
         21    1    1    2  503  502 -0.40705825136E+02 -0.12456998292E+02 -0.54853057999E+02  0.69433413990E+02  0.00000000000E+00 0.  1.
         21    1    1    2  504  501 -0.39587375206E+02 -0.20061821206E+02  0.86816356698E+03  0.86929719658E+03  0.00000000000E+00 0. -1.
         21    1    1    2  505  503 -0.15312125117E+03  0.14927823679E+02 -0.35106612567E+02  0.15780187491E+03  0.00000000000E+00 0.  1.
          1    1    1    2  501    0  0.23341445151E+03  0.17590995819E+02 -0.50235874276E+03  0.55421661445E+03  0.00000000000E+00 0. -1.
<scales pt_clust_3="40.63694" pt_clust_4="44.38059" pt_clust_5="40.63694" pt_clust_6="222.88828"></scales>
<clustering>
<clus scale="   40.637">  3  5 -1 -1</clus>
<clus scale="   44.381">  1  4  2 -1</clus>
<clus scale="  222.888">  2  6  1 -1</clus>
<clus scale="   44.381">  1  3  2 -1</clus>
</clustering>
</event>
<event>
 6    0  0.2117869E+002  0.1561549E+03  0.7546771E-02  0.1193107E+00
         21   -1    0    0  504  502  0.00000000000E+00  0.00000000000E+00  0.52063928915E+03  0.52063928915E+03  0.00000000000E+00 0. -1.
         -4   -1    0    0    0  501 -0.00000000000E+00 -0.00000000000E+00 -0.82959690054E+02  0.82959690054E+02  0.00000000000E+00 0. -1.
         21    1    1    2  503  501 -0.17009169252E+03  0.11898018287E+01  0.26376412706E+03  0.31385365095E+03  0.00000000000E+00 0. -1.
         21    1    1    2  504  503  0.35878318029E+02 -0.23660733445E+01  0.13095170315E+03  0.13579838204E+03  0.00000000000E+00 0.  1.
         21    1    1    2  505  502  0.44064501495E+02  0.11552940657E+02  0.43805857653E+02  0.63198923207E+02  0.00000000000E+00 0. -1.
         -4    1    1    2    0  505  0.90148873001E+02 -0.10376669142E+02 -0.84208875973E+00  0.90748023005E+02  0.00000000000E+00 0. -1.
<scales pt_clust_3="143.33598" pt_clust_4="35.95625" pt_clust_5="45.10213" pt_clust_6="45.10213"></scales>
<clustering>
<clus scale="   35.956">  1  4  2 -1</clus>
<clus scale="   45.102">  5  6 -1 -1</clus>
<clus scale="  143.336">  1  3  2 -1</clus>
<clus scale="   35.956">  1  3  2 -1</clus>
</clustering>
</event>
<event>
 6    0  0.2117869E+002  0.1411279E+03  0.7546771E-02  0.1211819E+00
         21   -1    0    0  504  502  0.00000000000E+00  0.00000000000E+00  0.50044013376E+02  0.50044013376E+02  0.00000000000E+00 0. -1.
         -1   -1    0    0    0  501 -0.00000000000E+00 -0.00000000000E+00 -0.12374830267E+04  0.12374830267E+04  0.00000000000E+00 0. -1.
         21    1    1    2  503  502 -0.65686171594E+01 -0.37602804112E+02  0.25395248549E+00  0.38173054637E+02  0.00000000000E+00 0. -1.
         21    1    1    2  504  505  0.29491203119E+02  0.13758295070E+03 -0.33025837457E+03  0.35898383440E+03  0.00000000000E+00 0. -1.
         21    1    1    2  505  501  0.36075759959E+02  0.54722935341E+02 -0.36520204707E+03  0.37103718855E+03  0.00000000000E+00 0. -1.
         -1    1    1    2    0  503 -0.58998345919E+02 -0.15470308193E+03 -0.49223254416E+03  0.51933296247E+03  0.00000000000E+00 0. -1.
<scales pt_clust_3="38.17221" pt_clust_4="14000.00000" pt_clust_5="62.24790" pt_clust_6="141.12793"></scales>
<clustering>
<clus scale="   38.172">  1  3  2 -1</clus>
<clus scale="   62.248">  2  5  1 -1</clus>
<clus scale="  141.128">  2  6  1 -1</clus>
<clus scale="   38.172">  1  3  2 -1</clus>
</clustering>
</event>
<event>
 6    0  0.2117869E+002  0.7662021E+02  0.7546771E-02  0.1338926E+00
         21   -1    0    0  503  502  0.00000000000E+00  0.00000000000E+00  0.11045437917E+03  0.11045437917E+03  0.00000000000E+00 0.  1.
          1   -1    0    0  505    0 -0.00000000000E+00 -0.00000000000E+00 -0.29689906970E+04  0.29689906970E+04  0.00000000000E+00 0. -1.
         21    1    1    2  503  504  0.57477487433E+02 -0.93163232003E+01  0.32115718456E+02  0.66497178974E+02  0.00000000000E+00 0.  1.
         21    1    1    2  504  501 -0.60606177479E+02  0.61219626380E+02  0.27020189023E+02  0.90283121443E+02  0.00000000000E+00 0.  1.
         21    1    1    2  505  502  0.68165198248E+02  0.41387218633E+01 -0.69795873555E+03  0.70129167955E+03  0.00000000000E+00 0.  1.
          1    1    1    2  501    0 -0.65036508202E+02 -0.56042025043E+02 -0.22197134897E+04  0.22213730962E+04  0.00000000000E+00 0. -1.
<scales pt_clust_3="58.22762" pt_clust_4="52.56952" pt_clust_5="76.62021" pt_clust_6="14000.00000"></scales>
<clustering>
<clus scale="   58.228">  1  3  2 -1</clus>
<clus scale="   52.570">  1  4  2 -1</clus>
<clus scale="   76.620">  1  5  2 -1</clus>
<clus scale="   58.228">  1  3  2 -1</clus>
</clustering>
</event>
<event>
 6    0  0.2117869E+002  0.1099270E+03  0.7546771E-02  0.1260705E+00
          2   -1    0    0  504    0 -0.00000000000E+00  0.00000000000E+00  0.11221920815E+04  0.11221920815E+04  0.00000000000E+00 0. -1.
         21   -1    0    0  505  502  0.00000000000E+00 -0.00000000000E+00 -0.28159743605E+02  0.28159743605E+02  0.00000000000E+00 0. -1.
         21    1    1    2  503  501  0.68657176580E+02  0.18476323193E+02  0.83150122547E+02  0.10940349763E+03  0.00000000000E+00 0. -1.
         21    1    1    2  504  502 -0.29772518486E+02  0.28535069842E+02  0.45619379079E+03  0.45805395733E+03  0.00000000000E+00 0.  1.
         21    1    1    2  505  503  0.21791490123E+02  0.33709269204E+02  0.34299498722E+02  0.52798101146E+02  0.00000000000E+00 0.  1.
          2    1    1    2  501    0 -0.60676148217E+02 -0.80720662239E+02  0.52038892588E+03  0.53009626904E+03  0.00000000000E+00 0. -1.
<scales pt_clust_3="30.15452" pt_clust_4="41.23898" pt_clust_5="30.15452" pt_clust_6="102.33916"></scales>
<clustering>
<clus scale="   30.155">  3  5 -1 -1</clus>
<clus scale="   41.239">  1  4  2 -1</clus>
<clus scale="  102.339">  1  6  2 -1</clus>
<clus scale="  109.927">  2  3  1 -1</clus>
</clustering>
</event>
<event>
 6    0  0.2117869E+002  0.1543114E+03  0.7546771E-02  0.1195273E+00
         21   -1    0    0  503  502  0.00000000000E+00  0.00000000000E+00  0.13962859126E+03  0.13962859126E+03  0.00000000000E+00 0.  1.
          2   -1    0    0  505    0 -0.00000000000E+00 -0.00000000000E+00 -0.65031472880E+03  0.65031472880E+03  0.00000000000E+00 0.  1.
         21    1    1    2  503  501  0.22946312091E+02 -0.22312114415E+02  0.40164670057E+02  0.51357223533E+02  0.00000000000E+00 0. -1.
         21    1    1    2  504  502 -0.16267082164E+03  0.59414144239E+02 -0.35379627828E+02  0.17675846462E+03  0.00000000000E+00 0.  1.
         21    1    1    2  505  504 -0.30971862365E+02 -0.41159949413E+02 -0.96214676313E+02  0.10913597772E+03  0.00000000000E+00 0. -1.
          2    1    1    2  501    0  0.17069637191E+03  0.40579195889E+01 -0.41925650345E+03  0.45269165420E+03  0.00000000000E+00 0.  1.
<scales pt_clust_3="32.00568" pt_clust_4="14000.00000" pt_clust_5="51.83472" pt_clust_6="154.31145"></scales>
<clustering>
<clus scale="   32.006">  1  3  2 -1</clus>
<clus scale="   51.835">  2  5  1 -1</clus>
<clus scale="  154.311">  2  6  1 -1</clus>
<clus scale="   32.006">  1  3  2 -1</clus>
</clustering>
</event>
<event>
 6    0  0.2117869E+002  0.1297983E+03  0.7546771E-02  0.1227755E+00
          1   -1    0    0  504    0 -0.00000000000E+00  0.00000000000E+00  0.96025516977E+03  0.96025516977E+03  0.00000000000E+00 0.  1.
         21   -1    0    0  505  502  0.00000000000E+00 -0.00000000000E+00 -0.12607007304E+03  0.12607007304E+03  0.00000000000E+00 0. -1.
         21    1    1    2  503  502 -0.55394440203E+02 -0.11476717177E+03  0.25722917220E+02  0.13000660057E+03  0.00000000000E+00 0. -1.
         21    1    1    2  504  503  0.18605707881E+02 -0.32485551639E+02  0.18093220334E+03  0.18476456813E+03  0.00000000000E+00 0. -1.
         21    1    1    2  505  501  0.28756974997E+02 -0.97664922215E+01 -0.59479005686E+02  0.66783980854E+02  0.00000000000E+00 0. -1.
          1    1    1    2  501    0  0.80317573247E+01  0.15701921563E+03  0.68700898186E+03  0.70477009326E+03  0.00000000000E+00 0.  1.
<scales pt_clust_3="14000.00000" pt_clust_4="38.13445" pt_clust_5="30.37018" pt_clust_6="129.79834"></scales>
<clustering>
<clus scale="   30.370">  2  5  1 -1</clus>
<clus scale="   38.134">  1  4  2 -1</clus>
<clus scale="  129.798">  1  6  2 -1</clus>
<clus scale="   30.370">  2  3  1 -1</clus>
</clustering>
</event>
<event>
 6    0  0.2117869E+002  0.8804568E+02  0.7546771E-02  0.1307655E+00
         21   -1    0    0  504  502  0.00000000000E+00  0.00000000000E+00  0.17428558384E+03  0.17428558384E+03  0.00000000000E+00 0. -1.
          2   -1    0    0  505    0 -0.00000000000E+00 -0.00000000000E+00 -0.99286642339E+03  0.99286642339E+03  0.00000000000E+00 0.  1.
         21    1    1    2  503  502  0.23433502462E+01 -0.90274623353E+02 -0.59734640247E+02  0.10827384798E+03  0.00000000000E+00 0. -1.
         21    1    1    2  504  501 -0.36735998985E+02  0.46046468748E+01  0.14090316960E+03  0.14568609953E+03  0.00000000000E+00 0. -1.
         21    1    1    2  505  503 -0.33488758054E+02  0.36185399409E+02 -0.13281916824E+03  0.14167502073E+03  0.00000000000E+00 0. -1.
          2    1    1    2  501    0  0.67881406793E+02  0.49484577069E+02 -0.76693020066E+03  0.77151703898E+03  0.00000000000E+00 0.  1.
<scales pt_clust_3="88.04568" pt_clust_4="37.02346" pt_clust_5="53.46050" pt_clust_6="14000.00000"></scales>
<clustering>
<clus scale="   37.023">  1  4  2 -1</clus>
<clus scale="   53.460">  2  5  1 -1</clus>
<clus scale="   88.046">  1  3  2 -1</clus>
<clus scale="   37.023">  1  3  2 -1</clus>
</clustering>
</event>
<event>
 6    0  0.2117869E+002  0.1563826E+03  0.7546771E-02  0.1192842E+00
          2   -1    0    0  504    0 -0.00000000000E+00  0.00000000000E+00  0.14655755370E+04  0.14655755370E+04  0.00000000000E+00 0.  1.
         21   -1    0    0  503  502  0.00000000000E+00 -0.00000000000E+00 -0.90271841086E+02  0.90271841086E+02  0.00000000000E+00 0. -1.
         21    1    1    2  503  501  0.13534769582E+02  0.32308184792E+02 -0.42724504219E+02  0.55248457472E+02  0.00000000000E+00 0. -1.
         21    1    1    2  504  505  0.88706357979E+01 -0.33232442826E+02  0.23702236638E+03  0.23950508471E+03  0.00000000000E+00 0.  1.
         21    1    1    2  505  502  0.79038472858E+02 -0.14728576499E+03  0.18626619052E+03  0.25027039476E+03  0.00000000000E+00 0. -1.
          2    1    1    2  501    0 -0.10144387824E+03  0.14821002303E+03  0.99473964326E+03  0.10108234412E+04  0.00000000000E+00 0.  1.
<scales pt_clust_3="34.88995" pt_clust_4="34.39598" pt_clust_5="156.38259" pt_clust_6="14000.00000"></scales>
<clustering>
<clus scale="   34.396">  1  4  2 -1</clus>
<clus scale="   34.890">  2  3  1 -1</clus>
<clus scale="  156.383">  2  5  1 -1</clus>
<clus scale="   34.890">  2  3  1 -1</clus>
</clustering>
</event>
<event>
 6    0  0.2117869E+002  0.6134363E+02  0.7546771E-02  0.1392278E+00
          2   -1    0    0  503    0 -0.00000000000E+00  0.00000000000E+00  0.45072457807E+03  0.45072457807E+03  0.00000000000E+00 0. -1.
         21   -1    0    0  504  502  0.00000000000E+00 -0.00000000000E+00 -0.21314522034E+04  0.21314522034E+04  0.00000000000E+00 0. -1.
         21    1    1    2  503  502 -0.15432530422E+02  0.29171832693E+02  0.26854650652E+02  0.42547985610E+02  0.00000000000E+00 0.  1.
         21    1    1    2  504  505  0.27014965399E+02  0.40122878290E+02 -0.18358701056E+04  0.18365072008E+04  0.00000000000E+00 0. -1.
         21    1    1    2  505  501 -0.85949667284E+02 -0.50868499703E+02 -0.27502387090E+03  0.29259712769E+03  0.00000000000E+00 0.  1.
          2    1    1    2  501    0  0.74367232307E+02 -0.18426211280E+02  0.40331170057E+03  0.41052446738E+03  0.00000000000E+00 0. -1.
<scales pt_clust_3="33.00241" pt_clust_4="48.38190" pt_clust_5="61.34363" pt_clust_6="14000.00000"></scales>
<clustering>
<clus scale="   33.002">  1  3  2 -1</clus>
<clus scale="   48.382">  2  4  1 -1</clus>
<clus scale="   61.344">  2  5  1 -1</clus>
<clus scale="   48.382">  2  3  1 -1</clus>
</clustering>
</event>
<event>
 6    0  0.2117869E+002  0.8713268E+02  0.7546771E-02  0.1309948E+00
          2   -1    0    0  504    0 -0.00000000000E+00  0.00000000000E+00  0.24810718333E+04  0.24810718333E+04  0.00000000000E+00 0. -1.
         21   -1    0    0  505  502  0.00000000000E+00 -0.00000000000E+00 -0.25654486127E+03  0.25654486127E+03  0.00000000000E+00 0.  1.
         21    1    1    2  503  502 -0.22940428554E+02  0.55355048991E+02 -0.22519848339E+03  0.23303390662E+03  0.00000000000E+00 0.  1.
         21    1    1    2  504  503 -0.33294397047E+02 -0.28621155583E+02  0.27312319449E+03  0.27662965638E+03  0.00000000000E+00 0. -1.
         21    1    1    2  505  501 -0.45084743850E+02 -0.36946141937E+00 -0.36082210347E+01  0.45230408895E+02  0.00000000000E+00 0.  1.
          2    1    1    2  501    0  0.10131956945E+03 -0.26364431989E+02  0.21802104819E+04  0.21827227226E+04  0.00000000000E+00 0. -1.
<scales pt_clust_3="87.13268" pt_clust_4="43.90544" pt_clust_5="45.40331" pt_clust_6="14000.00000"></scales>
<clustering>
<clus scale="   43.905">  1  4  2 -1</clus>
<clus scale="   45.403">  2  5  1 -1</clus>
<clus scale="   87.133">  2  3  1 -1</clus>
<clus scale="   45.403">  2  3  1 -1</clus>
</clustering>
</event>
<event>
 6    0  0.2117869E+002  0.9621245E+02  0.7546771E-02  0.1288468E+00
          2   -1    0    0  502    0 -0.00000000000E+00  0.00000000000E+00  0.12808488550E+04  0.12808488550E+04  0.00000000000E+00 0.  1.
         21   -1    0    0  504  502  0.00000000000E+00 -0.00000000000E+00 -0.35378648874E+03  0.35378648874E+03  0.00000000000E+00 0.  1.
         21    1    1    2  503  501 -0.50697077302E+02  0.37683398967E+02 -0.57922235633E+01  0.63433288253E+02  0.00000000000E+00 0.  1.
         21    1    1    2  504  505 -0.17307169414E+02 -0.25434049403E+02 -0.29612739380E+03  0.29772111504E+03  0.00000000000E+00 0.  1.
         21    1    1    2  505  503  0.80253941933E+01  0.65594945167E+02  0.33727246042E+02  0.74193199883E+02  0.00000000000E+00 0. -1.
          2    1    1    2  501    0  0.59978852523E+02 -0.77844294731E+02  0.11952547376E+04  0.11992877405E+04  0.00000000000E+00 0.  1.
<scales pt_clust_3="14000.00000" pt_clust_4="30.76409" pt_clust_5="56.57570" pt_clust_6="96.21245"></scales>
<clustering>
<clus scale="   30.764">  2  4  1 -1</clus>
<clus scale="   56.576">  2  5  1 -1</clus>
<clus scale="   96.212">  1  6  2 -1</clus>
<clus scale="   30.764">  2  3  1 -1</clus>
</clustering>
</event>
<event>
 6    0  0.2117869E+002  0.1012413E+03  0.7546771E-02  0.1277707E+00
          1   -1    0    0  505    0 -0.00000000000E+00  0.00000000000E+00  0.14723352976E+04  0.14723352976E+04  0.00000000000E+00 0. -1.
         21   -1    0    0  501  502  0.00000000000E+00 -0.00000000000E+00 -0.13500398350E+03  0.13500398350E+03  0.00000000000E+00 0. -1.
         21    1    1    2  503  504  0.60959563449E+02  0.47826892673E+02 -0.33793555305E+02  0.84530967218E+02  0.00000000000E+00 0. -1.
         21    1    1    2  504  502  0.43367677473E+02 -0.24337567591E+02 -0.60487862353E+02  0.78306156448E+02  0.00000000000E+00 0. -1.
         21    1    1    2  505  503 -0.57756149289E+02  0.62037745813E+02  0.43781984248E+03  0.44594917777E+03  0.00000000000E+00 0. -1.
          1    1    1    2  501    0 -0.46571091634E+02 -0.85527070895E+02  0.99379288925E+03  0.99855297964E+03  0.00000000000E+00 0. -1.
<scales pt_clust_3="101.24127" pt_clust_4="49.73000" pt_clust_5="81.83215" pt_clust_6="14000.00000"></scales>
<clustering>
<clus scale="   49.730">  2  4  1 -1</clus>
<clus scale="   81.832">  1  5  2 -1</clus>
<clus scale="  101.241">  2  3  1 -1</clus>
<clus scale="   49.730">  2  3  1 -1</clus>
</clustering>
</event>
<event>
 6    0  0.2117869E+002  0.1053304E+03  0.7546771E-02  0.1269470E+00
         21   -1    0    0  504  502  0.00000000000E+00  0.00000000000E+00  0.37740867418E+03  0.37740867418E+03  0.00000000000E+00 0.  1.
          3   -1    0    0  503    0 -0.00000000000E+00 -0.00000000000E+00 -0.35785119402E+03  0.35785119402E+03  0.00000000000E+00 0. -1.
         21    1    1    2  503  505  0.43451096501E+02 -0.25486535449E+01 -0.32366400894E+02  0.54240919322E+02  0.00000000000E+00 0.  1.
         21    1    1    2  504  501 -0.26236239010E+02  0.15107088565E+02  0.45722135062E+02  0.54836830661E+02  0.00000000000E+00 0.  1.
         21    1    1    2  505  502  0.46531677973E+01 -0.11783785944E+03  0.29517006910E+03  0.31785654435E+03  0.00000000000E+00 0.  1.
          3    1    1    2  501    0 -0.21868025289E+02  0.10527942442E+03 -0.28896832312E+03  0.30832557387E+03  0.00000000000E+00 0. -1.
<scales pt_clust_3="42.62293" pt_clust_4="30.27481" pt_clust_5="105.33037" pt_clust_6="14000.00000"></scales>
<clustering>
<clus scale="   30.275">  1  4  2 -1</clus>
<clus scale="   42.623">  2  3  1 -1</clus>
<clus scale="  105.330">  1  5  2 -1</clus>
<clus scale="   30.275">  1  3  2 -1</clus>
</clustering>
</event>
<event>
 6    0  0.2117869E+002  0.1189582E+03  0.7546771E-02  0.1244826E+00
         21   -1    0    0  505  502  0.00000000000E+00  0.00000000000E+00  0.18674990038E+04  0.18674990038E+04  0.00000000000E+00 0. -1.
         -1   -1    0    0    0  501 -0.00000000000E+00 -0.00000000000E+00 -0.71329345104E+02  0.71329345104E+02  0.00000000000E+00 0.  1.
         21    1    1    2  503  502  0.46179659178E+02 -0.43479533624E+02  0.13886677532E+04  0.13901155202E+04  0.00000000000E+00 0. -1.
         21    1    1    2  504  503 -0.20299403468E+02  0.56859208755E+02  0.90608892591E+01  0.61050267121E+02  0.00000000000E+00 0. -1.
         21    1    1    2  505  501 -0.34160062093E+02 -0.73905564365E+02  0.41616439397E+03  0.42405394126E+03  0.00000000000E+00 0. -1.
         -1    1    1    2    0  504  0.82798063825E+01  0.60525889234E+02 -0.17723377723E+02  0.63608620321E+02  0.00000000000E+00 0.  1.
<scales pt_clust_3="63.42737" pt_clust_4="39.02588" pt_clust_5="112.29422" pt_clust_6="39.02588"></scales>
<clustering>
<clus scale="   39.026">  4  6 -1 -1</clus>
<clus scale="   63.427">  1  3  2 -1</clus>
<clus scale="  112.294">  1  5  2 -1</clus>
<clus scale="   63.427">  1  3  2 -1</clus>
</clustering>
</event>
<event>
 6    0  0.2117869E+002  0.2242336E+03  0.7546771E-02  0.1130766E+00
          2   -1    0    0  505    0 -0.00000000000E+00  0.00000000000E+00  0.33446491530E+04  0.33446491530E+04  0.00000000000E+00 0.  1.
         21   -1    0    0  504  502  0.00000000000E+00 -0.00000000000E+00 -0.29883699439E+02  0.29883699439E+02  0.00000000000E+00 0. -1.
         21    1    1    2  503  501  0.14796556031E+03  0.71657550028E+02  0.41518180670E+03  0.44654735933E+03  0.00000000000E+00 0. -1.
         21    1    1    2  504  503  0.59969155419E+02 -0.98515146513E+01  0.95495893052E+02  0.11319371684E+03  0.00000000000E+00 0. -1.
         21    1    1    2  505  502 -0.15823069569E+02 -0.30659587195E+02  0.92696960671E+03  0.92761146585E+03  0.00000000000E+00 0.  1.
          2    1    1    2  501    0 -0.19211164616E+03 -0.31146448182E+02  0.18771181471E+04  0.18871803104E+04  0.00000000000E+00 0.  1.
<scales pt_clust_3="45.44730" pt_clust_4="45.44730" pt_clust_5="34.50188" pt_clust_6="211.70543"></scales>
<clustering>
<clus scale="   34.502">  1  5  2 -1</clus>
<clus scale="   45.447">  3  4 -1 -1</clus>
<clus scale="  211.705">  1  6  2 -1</clus>
<clus scale="  224.234">  2  3  1 -1</clus>
</clustering>
</event>
<event>
 6    0  0.2117869E+002  0.1131450E+03  0.7546771E-02  0.1254854E+00
          2   -1    0    0  503    0 -0.00000000000E+00  0.00000000000E+00  0.13023992345E+04  0.13023992345E+04  0.00000000000E+00 0. -1.
         21   -1    0    0  504  502  0.00000000000E+00 -0.00000000000E+00 -0.11161472895E+03  0.11161472895E+03  0.00000000000E+00 0. -1.
         21    1    1    2  503  505  0.15968988001E+02 -0.37385346501E+02  0.90872045758E+02  0.99550999045E+02  0.00000000000E+00 0. -1.
         21    1    1    2  504  501  0.11301762821E+03 -0.14287954275E+02 -0.68751336952E+02  0.13305591402E+03  0.00000000000E+00 0. -1.
         21    1    1    2  505  502 -0.40718328594E+02 -0.24027640604E+02  0.54104051310E+03  0.54310233531E+03  0.00000000000E+00 0. -1.
          2    1    1    2  501    0 -0.88268287617E+02  0.75700941380E+02  0.62762328364E+03  0.63830471508E+03  0.00000000000E+00 0. -1.
<scales pt_clust_3="40.65308" pt_clust_4="14000.00000" pt_clust_5="52.83287" pt_clust_6="113.14495"></scales>
<clustering>
<clus scale="   40.653">  1  3  2 -1</clus>
<clus scale="   52.833">  1  5  2 -1</clus>
<clus scale="  113.145">  1  6  2 -1</clus>
<clus scale="  113.145">  2  3  1 -1</clus>
</clustering>
</event>
<event>
 6    0  0.2117869E+002  0.1564456E+03  0.7546771E-02  0.1192769E+00
          2   -1    0    0  505    0 -0.00000000000E+00  0.00000000000E+00  0.26524461131E+04  0.26524461131E+04  0.00000000000E+00 0. -1.
         21   -1    0    0  504  502  0.00000000000E+00 -0.00000000000E+00 -0.28709298828E+03  0.28709298828E+03  0.00000000000E+00 0.  1.
         21    1    1    2  503  502 -0.15159995213E+03 -0.44639292711E+02 -0.25368279923E+03  0.29888153935E+03  0.00000000000E+00 0.  1.
         21    1    1    2  504  501  0.11212695589E+03  0.60011325344E+02  0.44353304569E+03  0.46140586908E+03  0.00000000000E+00 0. -1.
         21    1    1    2  505  503 -0.41006045381E+02 -0.90704524339E+01  0.48210084353E+03  0.48392663927E+03  0.00000000000E+00 0. -1.
          2    1    1    2  501    0  0.80479041620E+02 -0.63015801996E+01  0.16934020349E+04  0.16953250537E+04  0.00000000000E+00 0. -1.
<scales pt_clust_3="14000.00000" pt_clust_4="156.44559" pt_clust_5="41.99725" pt_clust_6="50.26764"></scales>
<clustering>
<clus scale="   41.997">  1  5  2 -1</clus>
<clus scale="   50.268">  1  6  2 -1</clus>
<clus scale="  156.446">  1  4  2 -1</clus>
<clus scale="  156.446">  2  3  1 -1</clus>
</clustering>
</event>
<event>
 6    0  0.2117869E+002  0.6667646E+02  0.7546771E-02  0.1371774E+00
         -3   -1    0    0    0  501 -0.00000000000E+00  0.00000000000E+00  0.41930922884E+03  0.41930922884E+03  0.00000000000E+00 0. -1.
         21   -1    0    0  505  502  0.00000000000E+00 -0.00000000000E+00 -0.97356242558E+02  0.97356242558E+02  0.00000000000E+00 0. -1.
         21    1    1    2  503  502  0.19438445571E+02  0.26869164375E+02  0.62573037922E+01  0.33748466797E+02  0.00000000000E+00 0. -1.
         21    1    1    2  504  501 -0.44173309262E+02  0.37030079853E+02  0.15539662450E+03  0.16574262870E+03  0.00000000000E+00 0.  1.
         21    1    1    2  505  504 -0.64448773030E+02 -0.49679525343E+02 -0.44929983551E+02  0.92953768107E+02  0.00000000000E+00 0. -1.
         -3    1    1    2    0  503  0.89183636722E+02 -0.14219718885E+02  0.20522904154E+03  0.22422060779E+03  0.00000000000E+00 0. -1.
<scales pt_clust_3="33.16331" pt_clust_4="14000.00000" pt_clust_5="55.69692" pt_clust_6="66.67646"></scales>
<clustering>
<clus scale="   33.163">  2  3  1 -1</clus>
<clus scale="   55.697">  2  5  1 -1</clus>
<clus scale="   66.676">  2  6  1 -1</clus>
<clus scale="   33.163">  2  3  1 -1</clus>
</clustering>
</event>
<event>
 6    0  0.2117869E+002  0.8196179E+02  0.7546771E-02  0.1323575E+00
          2   -1    0    0  503    0 -0.00000000000E+00  0.00000000000E+00  0.23859745238E+04  0.23859745238E+04  0.00000000000E+00 0. -1.
         21   -1    0    0  501  502  0.00000000000E+00 -0.00000000000E+00 -0.33566286357E+02  0.33566286357E+02  0.00000000000E+00 0.  1.
         21    1    1    2  503  504 -0.38390252154E+02  0.76274416687E+00  0.40878809852E+03  0.41058750923E+03  0.00000000000E+00 0. -1.
         21    1    1    2  504  505 -0.58936141793E+02 -0.94190481973E+02  0.50665552544E+03  0.51869561129E+03  0.00000000000E+00 0.  1.
         21    1    1    2  505  502  0.68608211992E+01  0.79368684776E+02  0.37934767573E+02  0.88235512020E+02  0.00000000000E+00 0.  1.
          2    1    1    2  501    0  0.90465572748E+02  0.14059053031E+02  0.13990298459E+04  0.14020221776E+04  0.00000000000E+00 0. -1.
<scales pt_clust_3="38.39783" pt_clust_4="81.96179" pt_clust_5="14000.00000" pt_clust_6="64.92258"></scales>
<clustering>
<clus scale="   38.398">  1  3  2 -1</clus>
<clus scale="   64.923">  1  6  2 -1</clus>
<clus scale="   81.962">  1  4  2 -1</clus>
<clus scale="   81.962">  2  3  1 -1</clus>
</clustering>
</event>
<event>
 6    0  0.2117869E+002  0.1509843E+03  0.7546771E-02  0.1199269E+00
          2   -1    0    0  503    0 -0.00000000000E+00  0.00000000000E+00  0.30731065900E+03  0.30731065900E+03  0.00000000000E+00 0. -1.
         21   -1    0    0  504  502  0.00000000000E+00 -0.00000000000E+00 -0.41369532420E+03  0.41369532420E+03  0.00000000000E+00 0. -1.
         21    1    1    2  503  505 -0.26428768841E+02  0.29687126813E+02  0.18565536947E+02  0.43868946682E+02  0.00000000000E+00 0.  1.
         21    1    1    2  504  501  0.50592545300E+02 -0.18465297398E+03 -0.30033644525E+03  0.35617173776E+03  0.00000000000E+00 0. -1.
         21    1    1    2  505  502  0.58176877352E+01  0.10063935305E+03 -0.30989456911E+02  0.10546312774E+03  0.00000000000E+00 0.  1.
          2    1    1    2  501    0 -0.29981464194E+02  0.54326494110E+02  0.20637570001E+03  0.21550217102E+03  0.00000000000E+00 0. -1.
<scales pt_clust_3="39.74676" pt_clust_4="150.98431" pt_clust_5="14000.00000" pt_clust_6="91.91070"></scales>
<clustering>
<clus scale="   39.747">  1  3  2 -1</clus>
<clus scale="   91.911">  1  6  2 -1</clus>
<clus scale="  150.984">  2  4  1 -1</clus>
<clus scale="  150.984">  2  3  1 -1</clus>
</clustering>
</event>
<event>
 6    0  0.2117869E+002  0.6559283E+02  0.7546771E-02  0.1375755E+00
         -1   -1    0    0    0  501 -0.00000000000E+00  0.00000000000E+00  0.11552193271E+03  0.11552193271E+03  0.00000000000E+00 0.  1.
         21   -1    0    0  504  502  0.00000000000E+00 -0.00000000000E+00 -0.14883961793E+04  0.14883961793E+04  0.00000000000E+00 0.  1.
         21    1    1    2  503  502 -0.46601272006E+02 -0.90397759559E+02  0.96350197439E+01  0.10215804957E+03  0.00000000000E+00 0.  1.
         21    1    1    2  504  505 -0.14294781771E+02 -0.48852786125E+02 -0.47498660854E+03  0.47770620028E+03  0.00000000000E+00 0. -1.
         21    1    1    2  505  501  0.21629479632E+02  0.10948245126E+03 -0.95149166445E+03  0.95801389814E+03  0.00000000000E+00 0.  1.
         -1    1    1    2    0  503  0.39266574144E+02  0.29768094427E+02  0.43969006704E+02  0.66039963971E+02  0.00000000000E+00 0.  1.
<scales pt_clust_3="14000.00000" pt_clust_4="50.01584" pt_clust_5="65.59283" pt_clust_6="49.27477"></scales>
<clustering>
<clus scale="   49.275">  1  6  2 -1</clus>
<clus scale="   50.016">  2  4  1 -1</clus>
<clus scale="   65.593">  2  5  1 -1</clus>
<clus scale="   50.016">  2  3  1 -1</clus>
</clustering>
</event>
<event>
 6    0  0.2117869E+002  0.1477602E+03  0.7546771E-02  0.1203253E+00
          2   -1    0    0  504    0 -0.00000000000E+00  0.00000000000E+00  0.21053045772E+04  0.21053045772E+04  0.00000000000E+00 0. -1.
         21   -1    0    0  505  502  0.00000000000E+00 -0.00000000000E+00 -0.34132791833E+02  0.34132791833E+02  0.00000000000E+00 0.  1.
         21    1    1    2  503  502 -0.77382704775E+02 -0.13267137617E+03  0.23009576116E+03  0.27664749476E+03  0.00000000000E+00 0.  1.
         21    1    1    2  504  503 -0.37083872221E+02 -0.64095470650E+01  0.98225790678E+02  0.10518841109E+03  0.00000000000E+00 0.  1.
         21    1    1    2  505  501  0.32322495790E+02  0.47656285667E+02  0.16107800128E+03  0.17106135681E+03  0.00000000000E+00 0.  1.
          2    1    1    2  501    0  0.82144081206E+02  0.91424637565E+02  0.15817722323E+04  0.15865401064E+04  0.00000000000E+00 0. -1.
<scales pt_clust_3="36.90183" pt_clust_4="36.90183" pt_clust_5="57.58355" pt_clust_6="127.57575"></scales>
<clustering>
<clus scale="   36.902">  3  4 -1 -1</clus>
<clus scale="   57.584">  2  5  1 -1</clus>
<clus scale="  127.576">  1  6  2 -1</clus>
<clus scale="   57.584">  2  3  1 -1</clus>
</clustering>
</event>
<event>
 6    0  0.2117869E+002  0.1184588E+03  0.7546771E-02  0.1245661E+00
          2   -1    0    0  504    0 -0.00000000000E+00  0.00000000000E+00  0.46195168415E+03  0.46195168415E+03  0.00000000000E+00 0.  1.
         21   -1    0    0  503  502  0.00000000000E+00 -0.00000000000E+00 -0.37178523106E+03  0.37178523106E+03  0.00000000000E+00 0. -1.
         21    1    1    2  503  505  0.41158595008E+02 -0.28258888188E+01 -0.19966441691E+03  0.20388206142E+03  0.00000000000E+00 0. -1.
         21    1    1    2  504  502 -0.40302721319E+02  0.25933705830E+02  0.49766018577E+02  0.69090687135E+02  0.00000000000E+00 0.  1.
         21    1    1    2  505  501 -0.15027126953E+03  0.11681419133E+02 -0.10462343803E+03  0.18347744762E+03  0.00000000000E+00 0. -1.
          2    1    1    2  501    0  0.14941539584E+03 -0.34789236144E+02  0.34468828946E+03  0.37728671903E+03  0.00000000000E+00 0.  1.
<scales pt_clust_3="41.25549" pt_clust_4="45.88555" pt_clust_5="118.45876" pt_clust_6="14000.00000"></scales>
<clustering>
<clus scale="   41.255">  2  3  1 -1</clus>
<clus scale="   45.886">  1  4  2 -1</clus>
<clus scale="  118.459">  2  5  1 -1</clus>
<clus scale="   41.255">  2  3  1 -1</clus>
</clustering>
</event>
<event>
 6    0  0.2117869E+002  0.1944738E+03  0.7546771E-02  0.1154487E+00
          1   -1    0    0  504    0 -0.00000000000E+00  0.00000000000E+00  0.11703978606E+04  0.11703978606E+04  0.00000000000E+00 0.  1.
         21   -1    0    0  503  502  0.00000000000E+00 -0.00000000000E+00 -0.94974866570E+03  0.94974866570E+03  0.00000000000E+00 0. -1.
         21    1    1    2  503  501  0.11200826262E+03  0.31774177714E+02 -0.24803642938E+03  0.27400277291E+03  0.00000000000E+00 0. -1.
         21    1    1    2  504  505 -0.80625536476E+02 -0.48357694211E+02  0.20155207984E+03  0.22240095460E+03  0.00000000000E+00 0.  1.
         21    1    1    2  505  502  0.87574048373E+02 -0.74037909574E+02 -0.66747070265E+03  0.67725029709E+03  0.00000000000E+00 0. -1.
          1    1    1    2  501    0 -0.11895677452E+03  0.90621426070E+02  0.93460424713E+03  0.94649250173E+03  0.00000000000E+00 0.  1.
<scales pt_clust_3="194.47378" pt_clust_4="94.01566" pt_clust_5="114.52311" pt_clust_6="14000.00000"></scales>
<clustering>
<clus scale="   94.016">  1  4  2 -1</clus>
<clus scale="  114.523">  2  5  1 -1</clus>
<clus scale="  194.474">  2  3  1 -1</clus>
<clus scale="  114.523">  2  3  1 -1</clus>
</clustering>
</event>
<event>
 6    0  0.2117869E+002  0.6415827E+02  0.7546771E-02  0.1381166E+00
          1   -1    0    0  504    0 -0.00000000000E+00  0.00000000000E+00  0.20868533604E+04  0.20868533604E+04  0.00000000000E+00 0.  1.
         21   -1    0    0  501  502  0.00000000000E+00 -0.00000000000E+00 -0.17645677190E+03  0.17645677190E+03  0.00000000000E+00 0.  1.
         21    1    1    2  503  505 -0.28517999242E+01  0.81023222007E+02  0.21768901093E+03  0.23229593356E+03  0.00000000000E+00 0.  1.
         21    1    1    2  504  503  0.30125082542E+02  0.30272350759E+02  0.40643402316E+03  0.40867169097E+03  0.00000000000E+00 0.  1.
         21    1    1    2  505  502  0.20305631518E+02 -0.28849601317E+02 -0.16460576448E+03  0.16834392138E+03  0.00000000000E+00 0.  1.
          1    1    1    2  501    0 -0.47578914136E+02 -0.82445971450E+02  0.14508793189E+04  0.14539985864E+04  0.00000000000E+00 0.  1.
<scales pt_clust_3="64.15827" pt_clust_4="42.20096" pt_clust_5="35.27915" pt_clust_6="14000.00000"></scales>
<clustering>
<clus scale="   35.279">  2  5  1 -1</clus>
<clus scale="   42.201">  1  4  2 -1</clus>
<clus scale="   64.158">  2  3  1 -1</clus>
<clus scale="   35.279">  2  3  1 -1</clus>
</clustering>
</event>
<event>
 6    0  0.2117869E+002  0.1385329E+03  0.7546771E-02  0.1215317E+00
          4   -1    0    0  505    0 -0.00000000000E+00  0.00000000000E+00  0.12336425383E+04  0.12336425383E+04  0.00000000000E+00 0.  1.
         21   -1    0    0  503  502  0.00000000000E+00 -0.00000000000E+00 -0.36640956118E+03  0.36640956118E+03  0.00000000000E+00 0.  1.
         21    1    1    2  503  501  0.15770365615E+03  0.49859088538E+02 -0.36959069946E+01  0.16543890595E+03  0.00000000000E+00 0.  1.
         21    1    1    2  504  502 -0.38984015662E+02  0.13545706176E+02 -0.27217759196E+03  0.27528872334E+03  0.00000000000E+00 0.  1.
         21    1    1    2  505  504  0.11489553265E+02  0.29157395380E+02  0.26024125134E+03  0.26212148412E+03  0.00000000000E+00 0.  1.
          4    1    1    2  501    0 -0.13020919375E+03 -0.92562190094E+02  0.88286522469E+03  0.89720298603E+03  0.00000000000E+00 0.  1.
<scales pt_clust_3="138.53286" pt_clust_4="41.26830" pt_clust_5="31.33949" pt_clust_6="14000.00000"></scales>
<clustering>
<clus scale="   31.339">  1  5  2 -1</clus>
<clus scale="   41.268">  2  4  1 -1</clus>
<clus scale="  138.533">  2  3  1 -1</clus>
<clus scale="   41.268">  2  3  1 -1</clus>
</clustering>
</event>
<event>
 6    0  0.2117869E+002  0.1456489E+03  0.7546771E-02  0.1205924E+00
         21   -1    0    0  504  502  0.00000000000E+00  0.00000000000E+00  0.23274514472E+02  0.23274514472E+02  0.00000000000E+00 0.  1.
          2   -1    0    0  503    0 -0.00000000000E+00 -0.00000000000E+00 -0.24797874356E+04  0.24797874356E+04  0.00000000000E+00 0.  1.
         21    1    1    2  503  502 -0.35693883003E+02  0.93892436060E+01 -0.90579469571E+03  0.90654632643E+03  0.00000000000E+00 0.  1.
         21    1    1    2  504  505 -0.51007703673E+01  0.33066679174E+02 -0.12672537461E+03  0.13106770655E+03  0.00000000000E+00 0. -1.
         21    1    1    2  505  501  0.98965815783E+02  0.90150569651E+02 -0.25959186324E+03  0.29207754683E+03  0.00000000000E+00 0.  1.
          2    1    1    2  501    0 -0.58171162413E+02 -0.13260649243E+03 -0.11644009876E+04  0.11733703703E+04  0.00000000000E+00 0.  1.
<scales pt_clust_3="37.14981" pt_clust_4="33.45778" pt_clust_5="145.64887" pt_clust_6="14000.00000"></scales>
<clustering>
<clus scale="   33.458">  1  4  2 -1</clus>
<clus scale="   37.150">  2  3  1 -1</clus>
<clus scale="  145.649">  1  5  2 -1</clus>
<clus scale="   33.458">  1  3  2 -1</clus>
</clustering>
</event>
<event>
 6    0  0.2117869E+002  0.1713562E+03  0.7546771E-02  0.1176441E+00
         21   -1    0    0  504  502  0.00000000000E+00  0.00000000000E+00  0.16231530637E+04  0.16231530637E+04  0.00000000000E+00 0. -1.
         -1   -1    0    0    0  501 -0.00000000000E+00 -0.00000000000E+00 -0.41850544762E+03  0.41850544762E+03  0.00000000000E+00 0. -1.
         21    1    1    2  503  501  0.24316530150E+02  0.14581107056E+03 -0.14352627901E+03  0.20603872137E+03  0.00000000000E+00 0. -1.
         21    1    1    2  504  505 -0.27231871857E+02  0.21016567937E+02  0.13056755813E+04  0.13061286286E+04  0.00000000000E+00 0. -1.
         21    1    1    2  505  503  0.96449027934E+02  0.23916428745E+02  0.22720200878E+03  0.24798218352E+03  0.00000000000E+00 0. -1.
         -1    1    1    2    0  502 -0.93533686227E+02 -0.19074406725E+03 -0.18470369497E+03  0.28150897780E+03  0.00000000000E+00 0. -1.
<scales pt_clust_3="171.35616" pt_clust_4="34.39871" pt_clust_5="85.77255" pt_clust_6="14000.00000"></scales>
<clustering>
<clus scale="   34.399">  1  4  2 -1</clus>
<clus scale="   85.773">  1  5  2 -1</clus>
<clus scale="  171.356">  2  3  1 -1</clus>
<clus scale="   34.399">  1  3  2 -1</clus>
</clustering>
</event>
<event>
 6    0  0.2117869E+002  0.2126244E+03  0.7546771E-02  0.1139504E+00
          2   -1    0    0  505    0 -0.00000000000E+00  0.00000000000E+00  0.13358223557E+04  0.13358223557E+04  0.00000000000E+00 0. -1.
         21   -1    0    0  504  502  0.00000000000E+00 -0.00000000000E+00 -0.70574810672E+03  0.70574810672E+03  0.00000000000E+00 0.  1.
         21    1    1    2  503  501  0.38673124594E+02  0.14930241355E+03 -0.42329759339E+03  0.45051933791E+03  0.00000000000E+00 0.  1.
         21    1    1    2  504  503 -0.27411447788E+02  0.46171720450E+02 -0.25606328307E+03  0.26163260534E+03  0.00000000000E+00 0.  1.
         21    1    1    2  505  502 -0.17363381969E+02 -0.72806815583E+02  0.20613476050E+03  0.21930312108E+03  0.00000000000E+00 0. -1.
          2    1    1    2  501    0  0.61017051623E+01 -0.12266731842E+03  0.11033003650E+04  0.11101153981E+04  0.00000000000E+00 0. -1.
<scales pt_clust_3="50.38662" pt_clust_4="50.38662" pt_clust_5="74.84864" pt_clust_6="194.72268"></scales>
<clustering>
<clus scale="   50.387">  3  4 -1 -1</clus>
<clus scale="   74.849">  1  5  2 -1</clus>
<clus scale="  194.723">  1  6  2 -1</clus>
<clus scale="  212.624">  2  3  1 -1</clus>
</clustering>
</event>
<event>
 6    0  0.2117869E+002  0.1191532E+03  0.7546771E-02  0.1244501E+00
          2   -1    0    0  505    0 -0.00000000000E+00  0.00000000000E+00  0.26253288761E+04  0.26253288761E+04  0.00000000000E+00 0. -1.
         21   -1    0    0  503  502  0.00000000000E+00 -0.00000000000E+00 -0.25099384053E+03  0.25099384053E+03  0.00000000000E+00 0.  1.
         21    1    1    2  503  504 -0.99105215279E+02 -0.12408630769E+01  0.10771905299E+03  0.14637888445E+03  0.00000000000E+00 0.  1.
         21    1    1    2  504  501  0.45124669067E+02 -0.80610976647E+02  0.94356949302E+03  0.94808109014E+03  0.00000000000E+00 0.  1.
         21    1    1    2  505  502 -0.28383351498E+02  0.67648930063E+02 -0.22238482449E+03  0.23417301839E+03  0.00000000000E+00 0.  1.
          2    1    1    2  501    0  0.82363897709E+02  0.14202909661E+02  0.15454313140E+04  0.15476897236E+04  0.00000000000E+00 0. -1.
<scales pt_clust_3="14000.00000" pt_clust_4="119.15323" pt_clust_5="73.36206" pt_clust_6="82.83678"></scales>
<clustering>
<clus scale="   73.362">  2  5  1 -1</clus>
<clus scale="   82.837">  1  6  2 -1</clus>
<clus scale="  119.153">  1  4  2 -1</clus>
<clus scale="   73.362">  2  3  1 -1</clus>
</clustering>
</event>
<event>
 6    0  0.2117869E+002  0.2407292E+03  0.7546771E-02  0.1119308E+00
         21   -1    0    0  504  502  0.00000000000E+00  0.00000000000E+00  0.50165610948E+02  0.50165610948E+02  0.00000000000E+00 0. -1.
          1   -1    0    0  503    0 -0.00000000000E+00 -0.00000000000E+00 -0.26258990566E+04  0.26258990566E+04  0.00000000000E+00 0. -1.
         21    1    1    2  503  505  0.22678408766E+03  0.42177978693E+01 -0.42132187879E+03  0.47849862882E+03  0.00000000000E+00 0. -1.
         21    1    1    2  504  501 -0.67742438170E+02  0.40729126848E+02 -0.69701176688E+03  0.70147936739E+03  0.00000000000E+00 0. -1.
         21    1    1    2  505  502 -0.17921886842E+02  0.29184162153E+02 -0.45855150025E+01  0.34553383284E+02  0.00000000000E+00 0. -1.
          1    1    1    2  501    0 -0.14111976265E+03 -0.74131086870E+02 -0.14528142850E+04  0.14615332881E+04  0.00000000000E+00 0. -1.
<scales pt_clust_3="214.05125" pt_clust_4="78.42418" pt_clust_5="34.24776" pt_clust_6="78.42418"></scales>
<clustering>
<clus scale="   34.248">  1  5  2 -1</clus>
<clus scale="   78.424">  4  6 -1 -1</clus>
<clus scale="  214.051">  1  3  2 -1</clus>
<clus scale="   34.248">  1  3  2 -1</clus>
</clustering>
</event>
<event>
 6    0  0.2117869E+002  0.2849796E+03  0.7546771E-02  0.1093000E+00
         21   -1    0    0  503  502  0.00000000000E+00  0.00000000000E+00  0.31048999995E+03  0.31048999995E+03  0.00000000000E+00 0.  1.
          1   -1    0    0  504    0 -0.00000000000E+00 -0.00000000000E+00 -0.15448385813E+04  0.15448385813E+04  0.00000000000E+00 0.  1.
         21    1    1    2  503  501 -0.10903352718E+02 -0.83157560293E+02 -0.11924833337E+02  0.84712836007E+02  0.00000000000E+00 0.  1.
         21    1    1    2  504  505  0.72068990308E+02  0.25852659638E+03 -0.12278198173E+04  0.12568100270E+04  0.00000000000E+00 0.  1.
         21    1    1    2  505  502 -0.43734335315E+02  0.97617732266E+02  0.16534712048E+03  0.19693040392E+03  0.00000000000E+00 0.  1.
          1    1    1    2  501    0 -0.17431302275E+02 -0.27298676835E+03 -0.15995105118E+03  0.31687531423E+03  0.00000000000E+00 0.  1.
<scales pt_clust_3="35.41239" pt_clust_4="277.71080" pt_clust_5="106.96688" pt_clust_6="35.41239"></scales>
<clustering>
<clus scale="   35.412">  3  6 -1 -1</clus>
<clus scale="  106.967">  1  5  2 -1</clus>
<clus scale="  277.711">  2  4  1 -1</clus>
<clus scale="  106.967">  1  3  2 -1</clus>
</clustering>
</event>
<event>
 6    0  0.2117869E+002  0.8080861E+02  0.7546771E-02  0.1326772E+00
          2   -1    0    0  505    0 -0.00000000000E+00  0.00000000000E+00  0.44673046665E+04  0.44673046665E+04  0.00000000000E+00 0. -1.
         21   -1    0    0  504  502  0.00000000000E+00 -0.00000000000E+00 -0.30682862660E+02  0.30682862660E+02  0.00000000000E+00 0.  1.
         21    1    1    2  503  502 -0.25511568825E+02  0.24800737995E+02 -0.11334502770E+02  0.37341501069E+02  0.00000000000E+00 0.  1.
         21    1    1    2  504  501  0.62182874533E+02  0.82135756112E+02  0.12365051005E+04  0.12407892069E+04  0.00000000000E+00 0. -1.
         21    1    1    2  505  503 -0.39344157815E+02 -0.65494432943E+02  0.35612498736E+03  0.36422862343E+03  0.00000000000E+00 0. -1.
          2    1    1    2  501    0  0.26728521066E+01 -0.41442061165E+02  0.28553262187E+04  0.28556281978E+04  0.00000000000E+00 0. -1.
<scales pt_clust_3="35.57972" pt_clust_4="14000.00000" pt_clust_5="80.80861" pt_clust_6="40.90407"></scales>
<clustering>
<clus scale="   35.580">  2  3  1 -1</clus>
<clus scale="   40.904">  1  6  2 -1</clus>
<clus scale="   80.809">  2  5  1 -1</clus>
<clus scale="   35.580">  2  3  1 -1</clus>
</clustering>
</event>
<event>
 6    0  0.2117869E+002  0.1171477E+03  0.7546771E-02  0.1247878E+00
         21   -1    0    0  505  502  0.00000000000E+00  0.00000000000E+00  0.42117658026E+02  0.42117658026E+02  0.00000000000E+00 0. -1.
          2   -1    0    0  503    0 -0.00000000000E+00 -0.00000000000E+00 -0.35124602815E+04  0.35124602815E+04  0.00000000000E+00 0. -1.
         21    1    1    2  503  502 -0.30872633997E+02  0.34862639611E+02  0.45226945239E+01  0.46786514471E+02  0.00000000000E+00 0. -1.
         21    1    1    2  504  501 -0.59147856604E+01 -0.30769244009E+02 -0.14123080334E+03  0.14466468428E+03  0.00000000000E+00 0.  1.
         21    1    1    2  505  504  0.12882924550E+02 -0.10293336859E+03 -0.17924880205E+03  0.20710234463E+03  0.00000000000E+00 0. -1.
          2    1    1    2  501    0  0.23904495107E+02  0.98839972990E+02 -0.31543857126E+04  0.31560243961E+04  0.00000000000E+00 0. -1.
<scales pt_clust_3="46.56740" pt_clust_4="30.63850" pt_clust_5="30.63850" pt_clust_6="103.03235"></scales>
<clustering>
<clus scale="   30.638">  4  5 -1 -1</clus>
<clus scale="   46.567">  1  3  2 -1</clus>
<clus scale="  103.032">  2  6  1 -1</clus>
<clus scale="   46.567">  1  3  2 -1</clus>
</clustering>
</event>
<event>
 6    0  0.2117869E+002  0.1463421E+03  0.7546771E-02  0.1205041E+00
          1   -1    0    0  504    0 -0.00000000000E+00  0.00000000000E+00  0.26447502597E+03  0.26447502597E+03  0.00000000000E+00 0. -1.
         21   -1    0    0  501  502  0.00000000000E+00 -0.00000000000E+00 -0.72287514796E+03  0.72287514796E+03  0.00000000000E+00 0.  1.
         21    1    1    2  503  505  0.10748870540E+03 -0.59697093022E+02  0.90778009316E+00  0.12295685734E+03  0.00000000000E+00 0.  1.
         21    1    1    2  504  503  0.19387750809E+02  0.47247637056E+02  0.95492178790E+02  0.10829118292E+03  0.00000000000E+00 0. -1.
         21    1    1    2  505  502  0.86251879580E+02  0.10952545907E+03 -0.49518960849E+03  0.51443946318E+03  0.00000000000E+00 0.  1.
          1    1    1    2  501    0 -0.21312833579E+03 -0.97076003107E+02 -0.59610472383E+02  0.24166267050E+03  0.00000000000E+00 0. -1.
<scales pt_clust_3="122.20828" pt_clust_4="51.07078" pt_clust_5="14000.00000" pt_clust_6="146.34208"></scales>
<clustering>
<clus scale="   51.071">  1  4  2 -1</clus>
<clus scale="  122.208">  1  3  2 -1</clus>
<clus scale="  146.342">  1  6  2 -1</clus>
<clus scale="  146.342">  2  3  1 -1</clus>
</clustering>
</event>
<event>
 6    0  0.2117869E+002  0.1179635E+03  0.7546771E-02  0.1246495E+00
          2   -1    0    0  505    0 -0.00000000000E+00  0.00000000000E+00  0.14682825654E+04  0.14682825654E+04  0.00000000000E+00 0.  1.
         21   -1    0    0  504  502  0.00000000000E+00 -0.00000000000E+00 -0.69469862769E+03  0.69469862769E+03  0.00000000000E+00 0.  1.
         21    1    1    2  503  501 -0.19681625175E+02  0.85952953206E+02 -0.35640293564E+03  0.36714891946E+03  0.00000000000E+00 0.  1.
         21    1    1    2  504  503  0.37873950572E+02  0.21045554622E+02 -0.31032480631E+03  0.31333502344E+03  0.00000000000E+00 0.  1.
         21    1    1    2  505  502  0.11437394138E+03 -0.84447669988E+00  0.10579637597E+04  0.10641284831E+04  0.00000000000E+00 0.  1.
          2    1    1    2  501    0 -0.13256626678E+03 -0.10615403113E+03  0.38234791996E+03  0.41836876713E+03  0.00000000000E+00 0.  1.
<scales pt_clust_3="107.05749" pt_clust_4="43.32841" pt_clust_5="117.96349" pt_clust_6="14000.00000"></scales>
<clustering>
<clus scale="   43.328">  2  4  1 -1</clus>
<clus scale="  107.057">  2  3  1 -1</clus>
<clus scale="  117.963">  1  5  2 -1</clus>
<clus scale="   43.328">  2  3  1 -1</clus>
</clustering>
</event>
<event>
 6    0  0.2117869E+002  0.2220098E+03  0.7546771E-02  0.1132393E+00
         21   -1    0    0  504  502  0.00000000000E+00  0.00000000000E+00  0.14067549466E+03  0.14067549466E+03  0.00000000000E+00 0.  1.
          2   -1    0    0  505    0 -0.00000000000E+00 -0.00000000000E+00 -0.12128140703E+04  0.12128140703E+04  0.00000000000E+00 0.  1.
         21    1    1    2  503  501  0.67583966119E+02 -0.17625347075E+02 -0.90751460901E+01  0.70431552677E+02  0.00000000000E+00 0.  1.
         21    1    1    2  504  503  0.19423154712E+02 -0.38391295339E+02  0.56231158031E+02  0.70803203532E+02  0.00000000000E+00 0.  1.
         21    1    1    2  505  502  0.24925612921E+02 -0.19172278912E+03 -0.48902674934E+03  0.52585746702E+03  0.00000000000E+00 0.  1.
          2    1    1    2  501    0 -0.11193273375E+03  0.24773943153E+03 -0.63026783819E+03  0.68639734169E+03  0.00000000000E+00 0.  1.
<scales pt_clust_3="82.17557" pt_clust_4="43.02500" pt_clust_5="14000.00000" pt_clust_6="222.00982"></scales>
<clustering>
<clus scale="   43.025">  1  4  2 -1</clus>
<clus scale="   82.176">  1  3  2 -1</clus>
<clus scale="  222.010">  1  6  2 -1</clus>
<clus scale="   43.025">  1  3  2 -1</clus>
</clustering>
</event>
<event>
 6    0  0.2117869E+002  0.1043215E+03  0.7546771E-02  0.1271462E+00
          1   -1    0    0  503    0 -0.00000000000E+00  0.00000000000E+00  0.12225754290E+04  0.12225754290E+04  0.00000000000E+00 0. -1.
         21   -1    0    0  505  502  0.00000000000E+00 -0.00000000000E+00 -0.16580177602E+03  0.16580177602E+03  0.00000000000E+00 0. -1.
         21    1    1    2  503  504 -0.73296609049E+02 -0.10353434580E+02  0.29345727664E+03  0.30264956587E+03  0.00000000000E+00 0. -1.
         21    1    1    2  504  502 -0.27075274086E+02 -0.27517730227E+02 -0.11053531659E+03  0.11708267231E+03  0.00000000000E+00 0. -1.
         21    1    1    2  505  501 -0.34990950385E+02  0.17319086460E+01 -0.34726302053E+02  0.49328310033E+02  0.00000000000E+00 0.  1.
          1    1    1    2  501    0  0.13536283352E+03  0.36139256161E+02  0.90857799493E+03  0.91931665677E+03  0.00000000000E+00 0. -1.
<scales pt_clust_3="104.32149" pt_clust_4="64.67273" pt_clust_5="35.03379" pt_clust_6="14000.00000"></scales>
<clustering>
<clus scale="   35.034">  2  5  1 -1</clus>
<clus scale="   64.673">  2  4  1 -1</clus>
<clus scale="  104.321">  1  3  2 -1</clus>
<clus scale="   35.034">  2  3  1 -1</clus>
</clustering>
</event>
<event>
 6    0  0.2117869E+002  0.1793124E+03  0.7546771E-02  0.1168470E+00
         -3   -1    0    0    0  501 -0.00000000000E+00  0.00000000000E+00  0.12338623007E+04  0.12338623007E+04  0.00000000000E+00 0.  1.
         21   -1    0    0  505  502  0.00000000000E+00 -0.00000000000E+00 -0.59884742680E+02  0.59884742680E+02  0.00000000000E+00 0.  1.
         21    1    1    2  503  501  0.99459686730E+02 -0.13912399786E+03  0.81526982285E+03  0.83301416562E+03  0.00000000000E+00 0.  1.
         21    1    1    2  504  502 -0.15085232642E+02 -0.40616487796E+02  0.45450574199E+02  0.62793455230E+02  0.00000000000E+00 0.  1.
         21    1    1    2  505  503  0.29923847106E+02  0.21645984762E+01  0.18185413450E+02  0.35083206446E+02  0.00000000000E+00 0.  1.
         -3    1    1    2    0  504 -0.11429830119E+03  0.17757588718E+03  0.29507174749E+03  0.36285621606E+03  0.00000000000E+00 0.  1.
<scales pt_clust_3="179.31236" pt_clust_4="41.48492" pt_clust_5="30.00204" pt_clust_6="14000.00000"></scales>
<clustering>
<clus scale="   30.002">  2  5  1 -1</clus>
<clus scale="   41.485">  2  4  1 -1</clus>
<clus scale="  179.312">  1  3  2 -1</clus>
<clus scale="   30.002">  2  3  1 -1</clus>
</clustering>
</event>
<event>
 6    0  0.2117869E+002  0.1642562E+03  0.7546771E-02  0.1183974E+00
         21   -1    0    0  501  502  0.00000000000E+00  0.00000000000E+00  0.21588617579E+03  0.21588617579E+03  0.00000000000E+00 0.  1.
          1   -1    0    0  505    0 -0.00000000000E+00 -0.00000000000E+00 -0.22831615036E+04  0.22831615036E+04  0.00000000000E+00 0.  1.
         21    1    1    2  503  504  0.72309153643E+02 -0.12962581901E+03 -0.63355828121E+03  0.65071311831E+03  0.00000000000E+00 0.  1.
         21    1    1    2  504  502 -0.98279526934E+02 -0.30864053090E+02  0.18023664731E+03  0.20759745717E+03  0.00000000000E+00 0.  1.
         21    1    1    2  505  503  0.33385154164E+02 -0.30449012076E+02 -0.91557038030E+03  0.91668469614E+03  0.00000000000E+00 0.  1.
          1    1    1    2  501    0 -0.74147808731E+01  0.19093888418E+03 -0.69838331361E+03  0.72405240777E+03  0.00000000000E+00 0.  1.
<scales pt_clust_3="164.25624" pt_clust_4="102.78521" pt_clust_5="45.18529" pt_clust_6="14000.00000"></scales>
<clustering>
<clus scale="   45.185">  2  5  1 -1</clus>
<clus scale="  102.785">  1  4  2 -1</clus>
<clus scale="  164.256">  1  3  2 -1</clus>
<clus scale="  102.785">  1  3  2 -1</clus>
</clustering>
</event>
<event>
 6    0  0.2117869E+002  0.6453457E+02  0.7546771E-02  0.1379731E+00
         21   -1    0    0  504  502  0.00000000000E+00  0.00000000000E+00  0.52960582566E+03  0.52960582566E+03  0.00000000000E+00 0. -1.
         -4   -1    0    0    0  501 -0.00000000000E+00 -0.00000000000E+00 -0.99387198247E+03  0.99387198247E+03  0.00000000000E+00 0. -1.
         21    1    1    2  503  502  0.55519433660E+02  0.27977983863E+02  0.16430608851E+03  0.17567488670E+03  0.00000000000E+00 0. -1.
         21    1    1    2  504  501 -0.35155325423E+02 -0.43219376712E+02 -0.27609151404E+03  0.28165641401E+03  0.00000000000E+00 0. -1.
         21    1    1    2  505  503 -0.75194731595E+02  0.34082197523E+02  0.35084885278E+03  0.36043135455E+03  0.00000000000E+00 0. -1.
         -4    1    1    2    0  505  0.54830623359E+02 -0.18840804673E+02 -0.70332958405E+03  0.70571515286E+03  0.00000000000E+00 0. -1.
<scales pt_clust_3="61.76658" pt_clust_4="55.71186" pt_clust_5="14000.00000" pt_clust_6="64.53457"></scales>
<clustering>
<clus scale="   55.712">  2  4  1 -1</clus>
<clus scale="   61.767">  1  3  2 -1</clus>
<clus scale="   64.535">  2  6  1 -1</clus>
<clus scale="   61.767">  1  3  2 -1</clus>
</clustering>
</event>
<event>
 6    0  0.2117869E+002  0.8978166E+02  0.7546771E-02  0.1303381E+00
         21   -1    0    0  503  502  0.00000000000E+00  0.00000000000E+00  0.21040374194E+02  0.21040374194E+02  0.00000000000E+00 0. -1.
          2   -1    0    0  505    0 -0.00000000000E+00 -0.00000000000E+00 -0.89872620508E+03  0.89872620508E+03  0.00000000000E+00 0.  1.
         21    1    1    2  503  501 -0.15840626881E+02  0.80313360996E+02 -0.35846891892E+03  0.36769705907E+03  0.00000000000E+00 0.  1.
         21    1    1    2  504  502  0.36493117700E+02 -0.87633503895E+02 -0.19640646565E+03  0.21814416883E+03  0.00000000000E+00 0. -1.
         21    1    1    2  505  504  0.30622047499E+02 -0.42453444951E+01 -0.15584272346E+03  0.15887947381E+03  0.00000000000E+00 0.  1.
          2    1    1    2  501    0 -0.51274538318E+02  0.11565487394E+02 -0.16696772285E+03  0.17504587756E+03  0.00000000000E+00 0.  1.
<scales pt_clust_3="14000.00000" pt_clust_4="89.78166" pt_clust_5="30.91493" pt_clust_6="45.46087"></scales>
<clustering>
<clus scale="   30.915">  2  5  1 -1</clus>
<clus scale="   45.461">  2  6  1 -1</clus>
<clus scale="   89.782">  1  4  2 -1</clus>
<clus scale="   89.782">  1  3  2 -1</clus>
</clustering>
</event>
<event>
 6    0  0.2117869E+002  0.6585784E+02  0.7546771E-02  0.1374773E+00
         21   -1    0    0  503  502  0.00000000000E+00  0.00000000000E+00  0.10705217248E+03  0.10705217248E+03  0.00000000000E+00 0.  1.
          2   -1    0    0  505    0 -0.00000000000E+00 -0.00000000000E+00 -0.58807171561E+03  0.58807171561E+03  0.00000000000E+00 0.  1.
         21    1    1    2  503  501  0.13907550830E+02  0.62226484890E+02  0.75846573834E+02  0.99087124058E+02  0.00000000000E+00 0.  1.
         21    1    1    2  504  502  0.56022476693E+02 -0.39012791355E+02 -0.12675201625E+03  0.14396732063E+03  0.00000000000E+00 0.  1.
         21    1    1    2  505  504 -0.48648791729E+01 -0.57517011540E+02 -0.11741974516E+03  0.13084062908E+03  0.00000000000E+00 0.  1.
          2    1    1    2  501    0 -0.65065148350E+02  0.34303318004E+02 -0.31269435555E+03  0.32122881432E+03  0.00000000000E+00 0.  1.
<scales pt_clust_3="62.32950" pt_clust_4="14000.00000" pt_clust_5="57.72238" pt_clust_6="65.85784"></scales>
<clustering>
<clus scale="   57.722">  2  5  1 -1</clus>
<clus scale="   62.330">  1  3  2 -1</clus>
<clus scale="   65.858">  2  6  1 -1</clus>
<clus scale="   62.330">  1  3  2 -1</clus>
</clustering>
</event>
<event>
 6    0  0.2117869E+002  0.2410582E+03  0.7546771E-02  0.1119090E+00
         21   -1    0    0  505  502  0.00000000000E+00  0.00000000000E+00  0.57141743584E+03  0.57141743584E+03  0.00000000000E+00 0. -1.
          2   -1    0    0  503    0 -0.00000000000E+00 -0.00000000000E+00 -0.99484537869E+03  0.99484537869E+03  0.00000000000E+00 0. -1.
         21    1    1    2  503  504 -0.19348805160E+02 -0.26445833452E+02 -0.37775325986E+03  0.37917183928E+03  0.00000000000E+00 0.  1.
         21    1    1    2  504  502 -0.60989043244E+02 -0.30264138840E+03  0.40820185344E+03  0.51180096378E+03  0.00000000000E+00 0. -1.
         21    1    1    2  505  501 -0.71425568465E+02  0.11173847313E+03  0.18216712019E+02  0.13386167041E+03  0.00000000000E+00 0. -1.
          2    1    1    2  501    0  0.15176341687E+03  0.21734874872E+03 -0.47209324846E+03  0.54142834107E+03  0.00000000000E+00 0. -1.
<scales pt_clust_3="32.76825" pt_clust_4="14000.00000" pt_clust_5="131.53486" pt_clust_6="241.05822"></scales>
<clustering>
<clus scale="   32.768">  2  3  1 -1</clus>
<clus scale="  131.535">  1  5  2 -1</clus>
<clus scale="  241.058">  2  6  1 -1</clus>
<clus scale="  131.535">  1  3  2 -1</clus>
</clustering>
</event>
<event>
 6    0  0.2117869E+002  0.1924218E+03  0.7546771E-02  0.1156295E+00
         21   -1    0    0  501  502  0.00000000000E+00  0.00000000000E+00  0.92969623328E+03  0.92969623328E+03  0.00000000000E+00 0. -1.
          1   -1    0    0  504    0 -0.00000000000E+00 -0.00000000000E+00 -0.12488575329E+04  0.12488575329E+04  0.00000000000E+00 0.  1.
         21    1    1    2  503  505 -0.42156259395E+02  0.95928680140E+02  0.67416910249E+03  0.68226346864E+03  0.00000000000E+00 0. -1.
         21    1    1    2  504  503 -0.24038281160E+02 -0.18854253475E+02 -0.28573562059E+03  0.28736417089E+03  0.00000000000E+00 0.  1.
         21    1    1    2  505  502 -0.31028780146E+02  0.69794291265E+02  0.23650709895E+03  0.24853497972E+03  0.00000000000E+00 0. -1.
          1    1    1    2  501    0  0.97223320701E+02 -0.14686871793E+03 -0.94410188045E+03  0.96039114691E+03  0.00000000000E+00 0.  1.
<scales pt_clust_3="55.54943" pt_clust_4="30.55032" pt_clust_5="55.54943" pt_clust_6="181.08480"></scales>
<clustering>
<clus scale="   30.550">  2  4  1 -1</clus>
<clus scale="   55.549">  3  5 -1 -1</clus>
<clus scale="  181.085">  2  6  1 -1</clus>
<clus scale="  192.422">  1  3  2 -1</clus>
</clustering>
</event>
<event>
 6    0  0.2117869E+002  0.1075890E+03  0.7546771E-02  0.1265101E+00
         21   -1    0    0  503  502  0.00000000000E+00  0.00000000000E+00  0.66763896578E+02  0.66763896578E+02  0.00000000000E+00 0.  1.
          2   -1    0    0  505    0 -0.00000000000E+00 -0.00000000000E+00 -0.25166985732E+04  0.25166985732E+04  0.00000000000E+00 0. -1.
         21    1    1    2  503  501 -0.35849993065E+02  0.50000378327E+02  0.49869095669E+00  0.61526486397E+02  0.00000000000E+00 0.  1.
         21    1    1    2  504  502 -0.26401127301E+02 -0.40086075576E+02  0.10667523698E+02  0.49170204796E+02  0.00000000000E+00 0.  1.
         21    1    1    2  505  504 -0.49210497653E+02  0.49311976538E+02 -0.30002607377E+03  0.30800809900E+03  0.00000000000E+00 0.  1.
          2    1    1    2  501    0  0.11146161802E+03 -0.59226279289E+02 -0.21610748175E+04  0.21647576796E+04  0.00000000000E+00 0. -1.
<scales pt_clust_3="60.30529" pt_clust_4="47.99909" pt_clust_5="107.58905" pt_clust_6="14000.00000"></scales>
<clustering>
<clus scale="   47.999">  1  4  2 -1</clus>
<clus scale="   60.305">  1  3  2 -1</clus>
<clus scale="  107.589">  1  5  2 -1</clus>
<clus scale="   47.999">  1  3  2 -1</clus>
</clustering>
</event>
<event>
 6    0  0.2117869E+002  0.1068415E+03  0.7546771E-02  0.1266533E+00
         21   -1    0    0  503  502  0.00000000000E+00  0.00000000000E+00  0.15568734427E+04  0.15568734427E+04  0.00000000000E+00 0. -1.
         -2   -1    0    0    0  501 -0.00000000000E+00 -0.00000000000E+00 -0.95211637403E+03  0.95211637403E+03  0.00000000000E+00 0. -1.
         21    1    1    2  503  504  0.54286943198E+02 -0.93819087730E+02  0.95262992744E+03  0.95877675820E+03  0.00000000000E+00 0. -1.
         21    1    1    2  504  501  0.43677194801E+01  0.39056069828E+02 -0.61555711382E+02  0.73031220499E+02  0.00000000000E+00 0. -1.
         21    1    1    2  505  502 -0.96466596703E+02  0.58673371475E+02  0.58966385883E+03  0.60037641127E+03  0.00000000000E+00 0. -1.
         -2    1    1    2    0  505  0.37811934024E+02 -0.39103535726E+01 -0.87598100619E+03  0.87680542678E+03  0.00000000000E+00 0. -1.
<scales pt_clust_3="14000.00000" pt_clust_4="52.03610" pt_clust_5="106.84149" pt_clust_6="38.01359"></scales>
<clustering>
<clus scale="   38.014">  2  6  1 -1</clus>
<clus scale="   52.036">  2  4  1 -1</clus>
<clus scale="  106.841">  2  5  1 -1</clus>
<clus scale="  106.841">  1  3  2 -1</clus>
</clustering>
</event>
<event>
 6    0  0.2117869E+002  0.2154147E+03  0.7546771E-02  0.1137348E+00
          2   -1    0    0  505    0 -0.00000000000E+00  0.00000000000E+00  0.29349741566E+04  0.29349741566E+04  0.00000000000E+00 0.  1.
         21   -1    0    0  504  502  0.00000000000E+00 -0.00000000000E+00 -0.89401254239E+03  0.89401254239E+03  0.00000000000E+00 0.  1.
         21    1    1    2  503  501  0.11122235893E+03 -0.21630885746E+03  0.48529970420E+02  0.24802236385E+03  0.00000000000E+00 0.  1.
         21    1    1    2  504  503  0.23445392837E+02  0.53501491382E+02 -0.78354747245E+03  0.78572179403E+03  0.00000000000E+00 0.  1.
         21    1    1    2  505  502 -0.19655343657E+02 -0.63447428240E+02  0.37015574065E+03  0.37606805371E+03  0.00000000000E+00 0.  1.
          2    1    1    2  501    0 -0.11501240811E+03  0.22625479432E+03  0.24058233756E+04  0.24191744874E+04  0.00000000000E+00 0.  1.
<scales pt_clust_3="14000.00000" pt_clust_4="58.41315" pt_clust_5="64.85371" pt_clust_6="215.41472"></scales>
<clustering>
<clus scale="   58.413">  2  4  1 -1</clus>
<clus scale="   64.854">  1  5  2 -1</clus>
<clus scale="  215.415">  1  6  2 -1</clus>
<clus scale="   58.413">  2  3  1 -1</clus>
</clustering>
</event>
<event>
 6    0  0.2117869E+002  0.1482581E+03  0.7546771E-02  0.1202630E+00
          1   -1    0    0  505    0 -0.00000000000E+00  0.00000000000E+00  0.25419573392E+04  0.25419573392E+04  0.00000000000E+00 0. -1.
         21   -1    0    0  501  502  0.00000000000E+00 -0.00000000000E+00 -0.37903229730E+02  0.37903229730E+02  0.00000000000E+00 0.  1.
         21    1    1    2  503  504  0.47130956482E+02 -0.11559003290E+03  0.54618891772E+03  0.56027200234E+03  0.00000000000E+00 0.  1.
         21    1    1    2  504  502  0.47395990124E+02  0.73609041526E+01  0.10603143269E+01  0.47975900786E+02  0.00000000000E+00 0.  1.
         21    1    1    2  505  503  0.30988509215E+02 -0.33984526982E+02  0.57717723366E+03  0.57900673125E+03  0.00000000000E+00 0. -1.
          1    1    1    2  501    0 -0.12551545582E+03  0.14221365573E+03  0.13796276437E+04  0.13926059345E+04  0.00000000000E+00 0. -1.
<scales pt_clust_3="148.25807" pt_clust_4="48.28374" pt_clust_5="45.99169" pt_clust_6="14000.00000"></scales>
<clustering>
<clus scale="   45.992">  1  5  2 -1</clus>
<clus scale="   48.284">  2  4  1 -1</clus>
<clus scale="  148.258">  2  3  1 -1</clus>
<clus scale="   48.284">  2  3  1 -1</clus>
</clustering>
</event>
<event>
 6    0  0.2117869E+002  0.6786313E+02  0.7546771E-02  0.1367514E+00
          1   -1    0    0  504    0 -0.00000000000E+00  0.00000000000E+00  0.90500865052E+03  0.90500865052E+03  0.00000000000E+00 0.  1.
         21   -1    0    0  505  502  0.00000000000E+00 -0.00000000000E+00 -0.49753659340E+03  0.49753659340E+03  0.00000000000E+00 0.  1.
         21    1    1    2  503  501 -0.40031766209E+02 -0.78419701599E+02 -0.27943485856E+03  0.29297786961E+03  0.00000000000E+00 0.  1.
         21    1    1    2  504  502 -0.14074022390E+02 -0.41525367520E+02 -0.82474838718E+01  0.44614518310E+02  0.00000000000E+00 0. -1.
         21    1    1    2  505  503  0.39042179413E+02  0.53857347590E+02 -0.17755936535E+03  0.18961074306E+03  0.00000000000E+00 0. -1.
          1    1    1    2  501    0  0.15063609185E+02  0.66087721529E+02  0.87271376489E+03  0.87534211294E+03  0.00000000000E+00 0.  1.
<scales pt_clust_3="14000.00000" pt_clust_4="43.84557" pt_clust_5="50.45343" pt_clust_6="67.86313"></scales>
<clustering>
<clus scale="   43.846">  2  4  1 -1</clus>
<clus scale="   50.453">  2  5  1 -1</clus>
<clus scale="   67.863">  1  6  2 -1</clus>
<clus scale="   43.846">  2  3  1 -1</clus>
</clustering>
</event>
<event>
 6    0  0.2117869E+002  0.7826268E+02  0.7546771E-02  0.1334055E+00
          1   -1    0    0  503    0 -0.00000000000E+00  0.00000000000E+00  0.19666294301E+04  0.19666294301E+04  0.00000000000E+00 0. -1.
         21   -1    0    0  501  502  0.00000000000E+00 -0.00000000000E+00 -0.16774810493E+02  0.16774810493E+02  0.00000000000E+00 0. -1.
         21    1    1    2  503  504 -0.23048971059E+02 -0.32044875450E+02  0.11508022267E+04  0.11514790028E+04  0.00000000000E+00 0.  1.
         21    1    1    2  504  505  0.77283037254E+02 -0.10168892805E+02  0.38904504880E+03  0.39677717201E+03  0.00000000000E+00 0. -1.
         21    1    1    2  505  502  0.50833866578E+01 -0.36356874437E+02  0.50682636090E+02  0.62581089314E+02  0.00000000000E+00 0. -1.
          1    1    1    2  501    0 -0.59317452853E+02  0.78570642692E+02  0.35932470809E+03  0.37256697646E+03  0.00000000000E+00 0. -1.
<scales pt_clust_3="40.31074" pt_clust_4="78.26268" pt_clust_5="36.71053" pt_clust_6="14000.00000"></scales>
<clustering>
<clus scale="   36.711">  2  5  1 -1</clus>
<clus scale="   40.311">  1  3  2 -1</clus>
<clus scale="   78.263">  1  4  2 -1</clus>
<clus scale="   36.711">  2  3  1 -1</clus>
</clustering>
</event>
<event>
 6    0  0.2117869E+002  0.8382124E+02  0.7546771E-02  0.1318544E+00
          2   -1    0    0  503    0 -0.00000000000E+00  0.00000000000E+00  0.30807195662E+03  0.30807195662E+03  0.00000000000E+00 0. -1.
         21   -1    0    0  504  502  0.00000000000E+00 -0.00000000000E+00 -0.17414912451E+03  0.17414912451E+03  0.00000000000E+00 0. -1.
         21    1    1    2  503  505  0.62929059873E+02  0.65708746211E+02  0.56592453915E+02  0.10714668331E+03  0.00000000000E+00 0. -1.
         21    1    1    2  504  501 -0.54488476526E+02 -0.89856799698E+01 -0.45787977096E+02  0.71737545018E+02  0.00000000000E+00 0. -1.
         21    1    1    2  505  502  0.37386138384E+02  0.11099289839E+02 -0.77446928381E+02  0.86711846330E+02  0.00000000000E+00 0. -1.
          2    1    1    2  501    0 -0.45826721731E+02 -0.67822356081E+02  0.20056528368E+03  0.21662500646E+03  0.00000000000E+00 0. -1.
<scales pt_clust_3="83.82124" pt_clust_4="30.68606" pt_clust_5="38.99894" pt_clust_6="14000.00000"></scales>
<clustering>
<clus scale="   38.999">  2  5  1 -1</clus>
<clus scale="   30.686">  2  4  1 -1</clus>
<clus scale="   83.821">  2  3  1 -1</clus>
<clus scale="   38.999">  2  3  1 -1</clus>
</clustering>
</event>
<event>
 6    0  0.2117869E+002  0.8132873E+02  0.7546771E-02  0.1325322E+00
         21   -1    0    0  503  502  0.00000000000E+00  0.00000000000E+00  0.39322869637E+02  0.39322869637E+02  0.00000000000E+00 0. -1.
          1   -1    0    0  504    0 -0.00000000000E+00 -0.00000000000E+00 -0.19884721592E+04  0.19884721592E+04  0.00000000000E+00 0. -1.
         21    1    1    2  503  501 -0.29114399528E+01 -0.32128409948E+02 -0.41115306605E+02  0.52260689296E+02  0.00000000000E+00 0. -1.
         21    1    1    2  504  505 -0.44136509218E+01  0.30632861132E+02 -0.12710025421E+03  0.13081409372E+03  0.00000000000E+00 0. -1.
         21    1    1    2  505  502  0.77181039241E+02  0.60732839380E+02 -0.47902652660E+02  0.10927055747E+03  0.00000000000E+00 0. -1.
          1    1    1    2  501    0 -0.69855948366E+02 -0.59237290564E+02 -0.17330310761E+04  0.17354496883E+04  0.00000000000E+00 0. -1.
<scales pt_clust_3="31.50459" pt_clust_4="30.94919" pt_clust_5="81.32873" pt_clust_6="14000.00000"></scales>
<clustering>
<clus scale="   30.949">  2  4  1 -1</clus>
<clus scale="   31.505">  1  3  2 -1</clus>
<clus scale="   81.329">  1  5  2 -1</clus>
<clus scale="   31.505">  1  3  2 -1</clus>
</clustering>
</event>
<event>
 6    0  0.2117869E+002  0.9007150E+02  0.7546771E-02  0.1302679E+00
          2   -1    0    0  504    0 -0.00000000000E+00  0.00000000000E+00  0.18285983818E+04  0.18285983818E+04  0.00000000000E+00 0. -1.
         21   -1    0    0  505  502  0.00000000000E+00 -0.00000000000E+00 -0.13509636351E+03  0.13509636351E+03  0.00000000000E+00 0.  1.
         21    1    1    2  503  502  0.38639372779E+02  0.33819567054E+02  0.14513033736E+02  0.53360963191E+02  0.00000000000E+00 0.  1.
         21    1    1    2  504  503  0.32963585053E+02 -0.11166058716E+02  0.15080068124E+03  0.15476473846E+03  0.00000000000E+00 0.  1.
         21    1    1    2  505  501  0.49734159382E+02 -0.51178246795E+02 -0.99869845754E+02  0.12274642824E+03  0.00000000000E+00 0.  1.
          2    1    1    2  501    0 -0.12133711721E+03  0.28524738457E+02  0.16280581491E+04  0.16328226154E+04  0.00000000000E+00 0. -1.
<scales pt_clust_3="51.70641" pt_clust_4="34.80343" pt_clust_5="14000.00000" pt_clust_6="90.07150"></scales>
<clustering>
<clus scale="   34.803">  1  4  2 -1</clus>
<clus scale="   51.706">  2  3  1 -1</clus>
<clus scale="   90.072">  1  6  2 -1</clus>
<clus scale="   51.706">  2  3  1 -1</clus>
</clustering>
</event>
<event>
 6    0  0.2117869E+002  0.1585488E+03  0.7546771E-02  0.1190345E+00
         21   -1    0    0  501  502  0.00000000000E+00  0.00000000000E+00  0.65604152799E+02  0.65604152799E+02  0.00000000000E+00 0.  1.
          2   -1    0    0  504    0 -0.00000000000E+00 -0.00000000000E+00 -0.19409245248E+04  0.19409245248E+04  0.00000000000E+00 0.  1.
         21    1    1    2  503  505  0.10593524412E+03  0.28891055685E+02 -0.54676731582E+02  0.12266423285E+03  0.00000000000E+00 0.  1.
         21    1    1    2  504  503  0.24189463905E+02  0.23918198676E+02 -0.27776182648E+03  0.27983717166E+03  0.00000000000E+00 0. -1.
         21    1    1    2  505  502  0.38210853946E+02  0.64170889649E+01  0.10727000036E+02  0.40203444129E+02  0.00000000000E+00 0.  1.
          2    1    1    2  501    0 -0.16833556197E+03 -0.59226343326E+02 -0.15536088139E+04  0.15638238289E+04  0.00000000000E+00 0.  1.
<scales pt_clust_3="30.11142" pt_clust_4="34.01780" pt_clust_5="30.11142" pt_clust_6="150.22712"></scales>
<clustering>
<clus scale="   30.111">  3  5 -1 -1</clus>
<clus scale="   34.018">  2  4  1 -1</clus>
<clus scale="  150.227">  2  6  1 -1</clus>
<clus scale="  158.549">  1  3  2 -1</clus>
</clustering>
</event>
<event>
 6    0  0.2117869E+002  0.6958184E+02  0.7546771E-02  0.1361521E+00
         21   -1    0    0  503  502  0.00000000000E+00  0.00000000000E+00  0.14840354738E+04  0.14840354738E+04  0.00000000000E+00 0.  1.
          2   -1    0    0  505    0 -0.00000000000E+00 -0.00000000000E+00 -0.14636883166E+04  0.14636883166E+04  0.00000000000E+00 0. -1.
         21    1    1    2  503  504 -0.41858801765E+02  0.24204124766E+02  0.10618173220E+04  0.10629176941E+04  0.00000000000E+00 0.  1.
         21    1    1    2  504  501  0.84966866326E+02 -0.77406182861E+02  0.40390773711E+03  0.41994350289E+03  0.00000000000E+00 0.  1.
         21    1    1    2  505  502  0.53214957446E+02  0.19708928183E+02 -0.95136751101E+02  0.11077578687E+03  0.00000000000E+00 0. -1.
          2    1    1    2  501    0 -0.96323022008E+02  0.33493129911E+02 -0.13502411508E+04  0.13540868065E+04  0.00000000000E+00 0. -1.
<scales pt_clust_3="48.35286" pt_clust_4="69.58184" pt_clust_5="56.17967" pt_clust_6="14000.00000"></scales>
<clustering>
<clus scale="   48.353">  1  3  2 -1</clus>
<clus scale="   56.180">  2  5  1 -1</clus>
<clus scale="   69.582">  1  4  2 -1</clus>
<clus scale="   48.353">  1  3  2 -1</clus>
</clustering>
</event>
<event>
 6    0  0.2117869E+002  0.8437806E+02  0.7546771E-02  0.1317067E+00
         21   -1    0    0  504  502  0.00000000000E+00  0.00000000000E+00  0.11559144952E+04  0.11559144952E+04  0.00000000000E+00 0.  1.
         -1   -1    0    0    0  501 -0.00000000000E+00 -0.00000000000E+00 -0.16715571035E+03  0.16715571035E+03  0.00000000000E+00 0. -1.
         21    1    1    2  503  502 -0.68869135866E+00 -0.78496327646E+02  0.59425118665E+03  0.59941356390E+03  0.00000000000E+00 0. -1.
         21    1    1    2  504  505  0.60067272781E+02  0.19634577934E+02  0.49943153812E+03  0.50341380114E+03  0.00000000000E+00 0.  1.
         21    1    1    2  505  501 -0.10063636404E+03  0.89935611142E+02 -0.47680531023E+02  0.14314162552E+03  0.00000000000E+00 0.  1.
         -1    1    1    2    0  503  0.41257782618E+02 -0.31073861430E+02 -0.57243408894E+02  0.77101214987E+02  0.00000000000E+00 0. -1.
<scales pt_clust_3="84.37806" pt_clust_4="63.78917" pt_clust_5="14000.00000" pt_clust_6="51.65065"></scales>
<clustering>
<clus scale="   51.651">  2  6  1 -1</clus>
<clus scale="   63.789">  1  4  2 -1</clus>
<clus scale="   84.378">  1  3  2 -1</clus>
<clus scale="   63.789">  1  3  2 -1</clus>
</clustering>
</event>
<event>
 6    0  0.2117869E+002  0.1167359E+03  0.7546771E-02  0.1248581E+00
         21   -1    0    0  501  502  0.00000000000E+00  0.00000000000E+00  0.91464874922E+02  0.91464874922E+02  0.00000000000E+00 0. -1.
          2   -1    0    0  504    0 -0.00000000000E+00 -0.00000000000E+00 -0.13307729484E+04  0.13307729484E+04  0.00000000000E+00 0.  1.
         21    1    1    2  503  502  0.61893155572E+02 -0.10175452735E+03  0.42450239163E+02  0.12643879684E+03  0.00000000000E+00 0. -1.
         21    1    1    2  504  505 -0.33755761473E+02  0.24871593705E+02 -0.26793380548E+03  0.27119471183E+03  0.00000000000E+00 0.  1.
         21    1    1    2  505  503 -0.43588366172E+02 -0.21418685968E+02 -0.31049190696E+03  0.31426729079E+03  0.00000000000E+00 0.  1.
          2    1    1    2  501    0  0.15450972073E+02  0.98301619609E+02 -0.70333260020E+03  0.71033702386E+03  0.00000000000E+00 0.  1.
<scales pt_clust_3="116.73591" pt_clust_4="41.92908" pt_clust_5="55.35016" pt_clust_6="14000.00000"></scales>
<clustering>
<clus scale="   41.929">  2  4  1 -1</clus>
<clus scale="   55.350">  2  5  1 -1</clus>
<clus scale="  116.736">  1  3  2 -1</clus>
<clus scale="  116.736">  1  3  2 -1</clus>
</clustering>
</event>
<event>
 6    0  0.2117869E+002  0.6037099E+02  0.7546771E-02  0.1396281E+00
          2   -1    0    0  505    0 -0.00000000000E+00  0.00000000000E+00  0.15225479233E+04  0.15225479233E+04  0.00000000000E+00 0. -1.
         21   -1    0    0  501  502  0.00000000000E+00 -0.00000000000E+00 -0.91059290584E+03  0.91059290584E+03  0.00000000000E+00 0.  1.
         21    1    1    2  503  504 -0.11363088505E+02  0.59421017461E+02  0.16340375443E+03  0.17424340464E+03  0.00000000000E+00 0. -1.
         21    1    1    2  504  502 -0.55649164563E+02  0.23450297717E+02 -0.88679096642E+03  0.88884473565E+03  0.00000000000E+00 0.  1.
         21    1    1    2  505  503  0.59151681136E+02 -0.24918725917E+01  0.38330996938E+02  0.70529399094E+02  0.00000000000E+00 0.  1.
          2    1    1    2  501    0  0.78605719319E+01 -0.80379442586E+02  0.12970112325E+04  0.12995232897E+04  0.00000000000E+00 0. -1.
<scales pt_clust_3="59.31011" pt_clust_4="60.37099" pt_clust_5="59.20415" pt_clust_6="14000.00000"></scales>
<clustering>
<clus scale="   59.204">  1  5  2 -1</clus>
<clus scale="   59.310">  1  3  2 -1</clus>
<clus scale="   60.371">  2  4  1 -1</clus>
<clus scale="   60.371">  2  3  1 -1</clus>
</clustering>
</event>
<event>
 6    0  0.2117869E+002  0.1228946E+03  0.7546771E-02  0.1238397E+00
         21   -1    0    0  504  502  0.00000000000E+00  0.00000000000E+00  0.38234755027E+03  0.38234755027E+03  0.00000000000E+00 0.  1.
          2   -1    0    0  505    0 -0.00000000000E+00 -0.00000000000E+00 -0.68489867447E+03  0.68489867447E+03  0.00000000000E+00 0. -1.
         21    1    1    2  503  502 -0.90538254987E+02 -0.12662569461E+03  0.23072441063E+03  0.27832534167E+03  0.00000000000E+00 0.  1.
         21    1    1    2  504  501  0.40104037614E+02  0.88485453786E+02  0.10178558479E+03  0.14070648399E+03  0.00000000000E+00 0.  1.
         21    1    1    2  505  503  0.17373059286E+02  0.36165241628E+02 -0.59870180986E+02  0.72070704605E+02  0.00000000000E+00 0.  1.
          2    1    1    2  501    0  0.33061158087E+02  0.19749991966E+01 -0.57519093865E+03  0.57614369449E+03  0.00000000000E+00 0. -1.
<scales pt_clust_3="122.89455" pt_clust_4="14000.00000" pt_clust_5="52.81978" pt_clust_6="33.12010"></scales>
<clustering>
<clus scale="   33.120">  2  6  1 -1</clus>
<clus scale="   52.820">  2  5  1 -1</clus>
<clus scale="  122.895">  2  3  1 -1</clus>
<clus scale="  122.895">  1  3  2 -1</clus>
</clustering>
</event>
<event>
 6    0  0.2117869E+002  0.7368672E+02  0.7546771E-02  0.1347987E+00
         21   -1    0    0  504  502  0.00000000000E+00  0.00000000000E+00  0.34489056991E+03  0.34489056991E+03  0.00000000000E+00 0. -1.
          2   -1    0    0  503    0 -0.00000000000E+00 -0.00000000000E+00 -0.13168595271E+03  0.13168595271E+03  0.00000000000E+00 0. -1.
         21    1    1    2  503  505 -0.51027369104E+02  0.45618533892E+02 -0.25183652259E+02  0.72931881734E+02  0.00000000000E+00 0. -1.
         21    1    1    2  504  501  0.17531917992E+02  0.60650708113E+02  0.76681327359E+02  0.99327249577E+02  0.00000000000E+00 0. -1.
         21    1    1    2  505  502 -0.21184835252E+01 -0.81391379981E+02  0.21829062698E+03  0.23298034796E+03  0.00000000000E+00 0. -1.
          2    1    1    2  501    0  0.35613934638E+02 -0.24877862023E+02 -0.56583684885E+02  0.71337043353E+02  0.00000000000E+00 0. -1.
<scales pt_clust_3="37.39255" pt_clust_4="73.68672" pt_clust_5="14000.00000" pt_clust_6="43.44261"></scales>
<clustering>
<clus scale="   43.443">  2  6  1 -1</clus>
<clus scale="   37.393">  2  3  1 -1</clus>
<clus scale="   73.687">  2  4  1 -1</clus>
<clus scale="   73.687">  1  3  2 -1</clus>
</clustering>
</event>
<event>
 6    0  0.2117869E+002  0.2459793E+03  0.7546771E-02  0.1115873E+00
          4   -1    0    0  505    0 -0.00000000000E+00  0.00000000000E+00  0.31227513858E+03  0.31227513858E+03  0.00000000000E+00 0. -1.
         21   -1    0    0  501  502  0.00000000000E+00 -0.00000000000E+00 -0.14013395422E+04  0.14013395422E+04  0.00000000000E+00 0.  1.
         21    1    1    2  503  502  0.16148982274E+03  0.34943565942E+02 -0.10963232581E+04  0.11087040642E+04  0.00000000000E+00 0.  1.
         21    1    1    2  504  503  0.70314524306E+02 -0.91871063654E+00 -0.22882012470E+03  0.23938175750E+03  0.00000000000E+00 0.  1.
         21    1    1    2  505  504 -0.46799795386E+02  0.55157641865E+02  0.46245219042E+02  0.85855731250E+02  0.00000000000E+00 0.  1.
          4    1    1    2  501    0 -0.18500455166E+03 -0.89182497171E+02  0.18983376016E+03  0.27967312783E+03  0.00000000000E+00 0. -1.
<scales pt_clust_3="52.35097" pt_clust_4="52.35097" pt_clust_5="72.33662" pt_clust_6="232.52172"></scales>
<clustering>
<clus scale="   52.351">  3  4 -1 -1</clus>
<clus scale="   72.337">  1  5  2 -1</clus>
<clus scale="  232.522">  1  6  2 -1</clus>
<clus scale="  245.979">  2  3  1 -1</clus>
</clustering>
</event>
<event>
 6    0  0.2117869E+002  0.1617347E+03  0.7546771E-02  0.1186752E+00
         21   -1    0    0  504  502  0.00000000000E+00  0.00000000000E+00  0.48344924412E+03  0.48344924412E+03  0.00000000000E+00 0. -1.
          2   -1    0    0  505    0 -0.00000000000E+00 -0.00000000000E+00 -0.61470769683E+03  0.61470769683E+03  0.00000000000E+00 0. -1.
         21    1    1    2  503  502 -0.62403049226E+02 -0.16479283755E+03 -0.53029108484E+02  0.18401876591E+03  0.00000000000E+00 0. -1.
         21    1    1    2  504  501  0.19070203575E+02  0.13532034415E+03  0.39038183597E+03  0.41361001688E+03  0.00000000000E+00 0. -1.
         21    1    1    2  505  503 -0.32720265025E+02 -0.41446613967E+02 -0.65052690538E+02  0.83787171446E+02  0.00000000000E+00 0. -1.
          2    1    1    2  501    0  0.76053110675E+02  0.70919107367E+02 -0.40355848966E+03  0.41674098671E+03  0.00000000000E+00 0. -1.
<scales pt_clust_3="43.08161" pt_clust_4="141.29601" pt_clust_5="43.08161" pt_clust_6="103.98844"></scales>
<clustering>
<clus scale="   43.082">  3  5 -1 -1</clus>
<clus scale="  103.988">  2  6  1 -1</clus>
<clus scale="  141.296">  1  4  2 -1</clus>
<clus scale="  141.296">  1  3  2 -1</clus>
</clustering>
</event>
<event>
 6    0  0.2117869E+002  0.2098230E+03  0.7546771E-02  0.1141706E+00
          2   -1    0    0  503    0 -0.00000000000E+00  0.00000000000E+00  0.11228347860E+04  0.11228347860E+04  0.00000000000E+00 0.  1.
         21   -1    0    0  501  502  0.00000000000E+00 -0.00000000000E+00 -0.11871367903E+03  0.11871367903E+03  0.00000000000E+00 0.  1.
         21    1    1    2  503  504 -0.47160095204E+02 -0.12994543867E+02  0.34319409378E+03  0.34666283152E+03  0.00000000000E+00 0. -1.
         21    1    1    2  504  505 -0.70149386723E+02 -0.79475800381E+01  0.10755322865E+03  0.12865378922E+03  0.00000000000E+00 0. -1.
         21    1    1    2  505  502  0.54243945547E+02  0.21206825473E+03  0.50595458237E+02  0.22466697730E+03  0.00000000000E+00 0.  1.
          2    1    1    2  501    0  0.63065536381E+02 -0.19112613083E+03  0.50277832633E+03  0.54156486702E+03  0.00000000000E+00 0.  1.
<scales pt_clust_3="48.91761" pt_clust_4="77.94324" pt_clust_5="209.82304" pt_clust_6="14000.00000"></scales>
<clustering>
<clus scale="   48.918">  1  3  2 -1</clus>
<clus scale="   77.943">  1  4  2 -1</clus>
<clus scale="  209.823">  2  5  1 -1</clus>
<clus scale="  209.823">  2  3  1 -1</clus>
</clustering>
</event>
<event>
 6    0  0.2117869E+002  0.6669173E+02  0.7546771E-02  0.1371719E+00
         21   -1    0    0  505  502  0.00000000000E+00  0.00000000000E+00  0.31198996393E+03  0.31198996393E+03  0.00000000000E+00 0. -1.
          2   -1    0    0  504    0 -0.00000000000E+00 -0.00000000000E+00 -0.35283112541E+04  0.35283112541E+04  0.00000000000E+00 0.  1.
         21    1    1    2  503  502  0.38387131766E+02  0.64887258768E+02  0.27928627010E+03  0.28928316387E+03  0.00000000000E+00 0. -1.
         21    1    1    2  504  503  0.50087454629E+02  0.38395228589E+01 -0.12679960701E+04  0.12689907521E+04  0.00000000000E+00 0.  1.
         21    1    1    2  505  501 -0.46648229648E+02  0.13452164242E+01  0.58878970863E+01  0.47037583575E+02  0.00000000000E+00 0.  1.
          2    1    1    2  501    0 -0.41826356747E+02 -0.70071998051E+02 -0.22334993873E+04  0.22349897185E+04  0.00000000000E+00 0.  1.
<scales pt_clust_3="66.69173" pt_clust_4="50.15357" pt_clust_5="46.66762" pt_clust_6="14000.00000"></scales>
<clustering>
<clus scale="   46.668">  1  5  2 -1</clus>
<clus scale="   50.154">  2  4  1 -1</clus>
<clus scale="   66.692">  1  3  2 -1</clus>
<clus scale="   46.668">  1  3  2 -1</clus>
</clustering>
</event>
<event>
 6    0  0.2117869E+002  0.1596071E+03  0.7546771E-02  0.1189141E+00
         21   -1    0    0  504  502  0.00000000000E+00  0.00000000000E+00  0.43118926702E+03  0.43118926702E+03  0.00000000000E+00 0.  1.
          2   -1    0    0  505    0 -0.00000000000E+00 -0.00000000000E+00 -0.68368344874E+03  0.68368344874E+03  0.00000000000E+00 0.  1.
         21    1    1    2  503  502 -0.36656136542E+02  0.24468465418E+02  0.53721294185E+02  0.69486369850E+02  0.00000000000E+00 0.  1.
         21    1    1    2  504  501  0.43357732729E+02  0.13606395232E+03  0.33236619502E+03  0.36174656833E+03  0.00000000000E+00 0.  1.
         21    1    1    2  505  503 -0.40797214199E+02  0.89177067565E+01 -0.31160422746E+02  0.52104799452E+02  0.00000000000E+00 0.  1.
          2    1    1    2  501    0  0.34095618013E+02 -0.16945012450E+03 -0.60742124818E+03  0.63153497813E+03  0.00000000000E+00 0.  1.
<scales pt_clust_3="44.55018" pt_clust_4="14000.00000" pt_clust_5="41.76049" pt_clust_6="159.60706"></scales>
<clustering>
<clus scale="   41.760">  2  5  1 -1</clus>
<clus scale="   44.550">  1  3  2 -1</clus>
<clus scale="  159.607">  2  6  1 -1</clus>
<clus scale="   44.550">  1  3  2 -1</clus>
</clustering>
</event>
<event>
 6    0  0.2117869E+002  0.2340844E+03  0.7546771E-02  0.1123798E+00
         21   -1    0    0  501  502  0.00000000000E+00  0.00000000000E+00  0.41884422980E+03  0.41884422980E+03  0.00000000000E+00 0. -1.
          1   -1    0    0  503    0 -0.00000000000E+00 -0.00000000000E+00 -0.42780382317E+04  0.42780382317E+04  0.00000000000E+00 0.  1.
         21    1    1    2  503  505 -0.10234401812E+03 -0.41660616150E+02 -0.50727512379E+03  0.51917045004E+03  0.00000000000E+00 0.  1.
         21    1    1    2  504  502 -0.70205597020E+02  0.19708726695E+03  0.21852437753E+03  0.30253118884E+03  0.00000000000E+00 0. -1.
         21    1    1    2  505  504  0.83439836896E+02 -0.37152087438E+03 -0.95743848841E+02  0.39262813332E+03  0.00000000000E+00 0. -1.
          1    1    1    2  501    0  0.89109778243E+02  0.21609422358E+03 -0.34746994068E+04  0.34825526893E+04  0.00000000000E+00 0.  1.
<scales pt_clust_3="110.49844" pt_clust_4="234.08439" pt_clust_5="14000.00000" pt_clust_6="177.68425"></scales>
<clustering>
<clus scale="  110.498">  2  3  1 -1</clus>
<clus scale="  177.684">  2  6  1 -1</clus>
<clus scale="  234.084">  1  4  2 -1</clus>
<clus scale="  234.084">  1  3  2 -1</clus>
</clustering>
</event>
<event>
 6    0  0.2117869E+002  0.1077683E+03  0.7546771E-02  0.1264759E+00
          2   -1    0    0  503    0 -0.00000000000E+00  0.00000000000E+00  0.13069683718E+04  0.13069683718E+04  0.00000000000E+00 0. -1.
         21   -1    0    0  505  502  0.00000000000E+00 -0.00000000000E+00 -0.32675932273E+03  0.32675932273E+03  0.00000000000E+00 0.  1.
         21    1    1    2  503  504  0.62259909524E+02  0.50685464222E+02  0.10257288248E+03  0.13025555204E+03  0.00000000000E+00 0.  1.
         21    1    1    2  504  502  0.14690034754E+02 -0.67232478604E+02 -0.27407352342E+03  0.28258149186E+03  0.00000000000E+00 0.  1.
         21    1    1    2  505  501  0.31037604121E+02 -0.33550424642E+02 -0.15015241438E+02  0.48108433135E+02  0.00000000000E+00 0.  1.
          2    1    1    2  501    0 -0.10798754840E+03  0.50097439025E+02  0.11667249314E+04  0.11727822175E+04  0.00000000000E+00 0. -1.
<scales pt_clust_3="80.44657" pt_clust_4="107.76833" pt_clust_5="45.70518" pt_clust_6="14000.00000"></scales>
<clustering>
<clus scale="   45.705">  2  5  1 -1</clus>
<clus scale="   80.447">  1  3  2 -1</clus>
<clus scale="  107.768">  2  4  1 -1</clus>
<clus scale="   45.705">  2  3  1 -1</clus>
</clustering>
</event>
<event>
 6    0  0.2117869E+002  0.1114659E+03  0.7546771E-02  0.1257879E+00
         21   -1    0    0  501  502  0.00000000000E+00  0.00000000000E+00  0.52601879586E+03  0.52601879586E+03  0.00000000000E+00 0. -1.
          3   -1    0    0  503    0 -0.00000000000E+00 -0.00000000000E+00 -0.71215173269E+02  0.71215173269E+02  0.00000000000E+00 0. -1.
         21    1    1    2  503  505 -0.35439493667E+02 -0.86925941314E+02  0.84969421384E+02  0.12661705870E+03  0.00000000000E+00 0. -1.
         21    1    1    2  504  502  0.19391945874E+02 -0.25181166933E+02  0.74962481376E+02  0.81421817389E+02  0.00000000000E+00 0. -1.
         21    1    1    2  505  504  0.11426987988E+03  0.94182818873E+02  0.13317982793E+03  0.19916042626E+03  0.00000000000E+00 0. -1.
          3    1    1    2  501    0 -0.98222332092E+02  0.17924289374E+02  0.16169189190E+03  0.19003466678E+03  0.00000000000E+00 0. -1.
<scales pt_clust_3="111.46589" pt_clust_4="31.78268" pt_clust_5="14000.00000" pt_clust_6="90.96266"></scales>
<clustering>
<clus scale="   31.783">  1  4  2 -1</clus>
<clus scale="   90.963">  1  6  2 -1</clus>
<clus scale="  111.466">  2  3  1 -1</clus>
<clus scale="   31.783">  1  3  2 -1</clus>
</clustering>
</event>
<event>
 6    0  0.2117869E+002  0.9594918E+02  0.7546771E-02  0.1289052E+00
         -2   -1    0    0    0  501 -0.00000000000E+00  0.00000000000E+00  0.31748388638E+03  0.31748388638E+03  0.00000000000E+00 0. -1.
         21   -1    0    0  505  502  0.00000000000E+00 -0.00000000000E+00 -0.21526594420E+04  0.21526594420E+04  0.00000000000E+00 0.  1.
         21    1    1    2  503  502  0.23159793064E+02 -0.38604110512E+02 -0.16742415551E+04  0.16748466909E+04  0.00000000000E+00 0.  1.
         21    1    1    2  504  503 -0.80181874170E+01 -0.58694503823E+02 -0.43927557161E+03  0.44325203205E+03  0.00000000000E+00 0.  1.
         21    1    1    2  505  501  0.59531168996E+02 -0.34414606032E+01  0.18870938078E+03  0.19790662982E+03  0.00000000000E+00 0. -1.
         -2    1    1    2    0  504 -0.74672774644E+02  0.10074007494E+03  0.89632190309E+02  0.15413797556E+03  0.00000000000E+00 0. -1.
<scales pt_clust_3="45.01837" pt_clust_4="14000.00000" pt_clust_5="59.87544" pt_clust_6="95.94918"></scales>
<clustering>
<clus scale="   45.018">  2  3  1 -1</clus>
<clus scale="   59.875">  1  5  2 -1</clus>
<clus scale="   95.949">  1  6  2 -1</clus>
<clus scale="   45.018">  2  3  1 -1</clus>
</clustering>
</event>
<event>
 6    0  0.2117869E+002  0.1662043E+03  0.7546771E-02  0.1181865E+00
          2   -1    0    0  505    0 -0.00000000000E+00  0.00000000000E+00  0.17295368695E+04  0.17295368695E+04  0.00000000000E+00 0.  1.
         21   -1    0    0  504  502  0.00000000000E+00 -0.00000000000E+00 -0.16983008301E+03  0.16983008301E+03  0.00000000000E+00 0.  1.
         21    1    1    2  503  502  0.20848169830E+03 -0.12541248660E+03  0.13072766863E+02  0.24364689113E+03  0.00000000000E+00 0.  1.
         21    1    1    2  504  501 -0.74968083399E+02  0.39985526101E+02 -0.35555402441E+01  0.85039389065E+02  0.00000000000E+00 0. -1.
         21    1    1    2  505  503 -0.15945090698E+02 -0.50633864584E+02  0.15258486166E+03  0.16155548325E+03  0.00000000000E+00 0. -1.
          2    1    1    2  501    0 -0.11756852421E+03  0.13606082509E+03  0.13976046982E+04  0.14091251891E+04  0.00000000000E+00 0.  1.
<scales pt_clust_3="14000.00000" pt_clust_4="84.72294" pt_clust_5="53.08516" pt_clust_6="166.20432"></scales>
<clustering>
<clus scale="   53.085">  1  5  2 -1</clus>
<clus scale="   84.723">  2  4  1 -1</clus>
<clus scale="  166.204">  1  6  2 -1</clus>
<clus scale="   84.723">  2  3  1 -1</clus>
</clustering>
</event>
<event>
 6    0  0.2117869E+002  0.1586641E+03  0.7546771E-02  0.1190213E+00
         21   -1    0    0  505  502  0.00000000000E+00  0.00000000000E+00  0.93108573558E+02  0.93108573558E+02  0.00000000000E+00 0.  1.
          2   -1    0    0  503    0 -0.00000000000E+00 -0.00000000000E+00 -0.37956754273E+04  0.37956754273E+04  0.00000000000E+00 0.  1.
         21    1    1    2  503  504 -0.43887957424E+02 -0.19231820021E+02 -0.42870740981E+03  0.43137693371E+03  0.00000000000E+00 0.  1.
         21    1    1    2  504  502  0.15005072702E+03 -0.29807103234E+02 -0.12749555749E+02  0.15351298074E+03  0.00000000000E+00 0.  1.
         21    1    1    2  505  501  0.70797850804E+01  0.67600796686E+02 -0.36325071241E+02  0.77068163790E+02  0.00000000000E+00 0.  1.
          2    1    1    2  501    0 -0.11324255468E+03 -0.18561873431E+02 -0.32247848170E+04  0.32268259227E+04  0.00000000000E+00 0.  1.
<scales pt_clust_3="47.91676" pt_clust_4="14000.00000" pt_clust_5="67.57494" pt_clust_6="158.66414"></scales>
<clustering>
<clus scale="   47.917">  2  3  1 -1</clus>
<clus scale="   67.575">  1  5  2 -1</clus>
<clus scale="  158.664">  2  6  1 -1</clus>
<clus scale="   67.575">  1  3  2 -1</clus>
</clustering>
</event>
<event>
 6    0  0.2117869E+002  0.1253998E+03  0.7546771E-02  0.1234446E+00
         21   -1    0    0  504  502  0.00000000000E+00  0.00000000000E+00  0.32978279940E+02  0.32978279940E+02  0.00000000000E+00 0.  1.
          1   -1    0    0  505    0 -0.00000000000E+00 -0.00000000000E+00 -0.28782662270E+04  0.28782662270E+04  0.00000000000E+00 0. -1.
         21    1    1    2  503  502  0.31227907169E+01 -0.99323879168E+02 -0.22653468274E+03  0.24737208266E+03  0.00000000000E+00 0.  1.
         21    1    1    2  504  501 -0.19340971228E+02  0.15806366886E+03 -0.28472174072E+03  0.32622793599E+03  0.00000000000E+00 0.  1.
         21    1    1    2  505  503 -0.37043050896E+02 -0.32335825957E+02 -0.45057853824E+03  0.45325358507E+03  0.00000000000E+00 0. -1.
          1    1    1    2  501    0  0.53261231408E+02 -0.26403963732E+02 -0.18834529854E+04  0.18843909033E+04  0.00000000000E+00 0. -1.
<scales pt_clust_3="125.39980" pt_clust_4="14000.00000" pt_clust_5="49.17106" pt_clust_6="57.04027"></scales>
<clustering>
<clus scale="   49.171">  2  5  1 -1</clus>
<clus scale="   57.040">  2  6  1 -1</clus>
<clus scale="  125.400">  1  3  2 -1</clus>
<clus scale="  125.400">  1  3  2 -1</clus>
</clustering>
</event>
<event>
 6    0  0.2117869E+002  0.7585723E+02  0.7546771E-02  0.1341237E+00
         21   -1    0    0  504  502  0.00000000000E+00  0.00000000000E+00  0.99798116762E+01  0.99798116762E+01  0.00000000000E+00 0.  1.
          2   -1    0    0  505    0 -0.00000000000E+00 -0.00000000000E+00 -0.34652185970E+04  0.34652185970E+04  0.00000000000E+00 0. -1.
         21    1    1    2  503  502 -0.55080156381E+02  0.99620383552E+02 -0.86357036056E+03  0.87104064893E+03  0.00000000000E+00 0.  1.
         21    1    1    2  504  501  0.35584594940E+02 -0.42177916147E+02 -0.14649790450E+03  0.15654672156E+03  0.00000000000E+00 0.  1.
         21    1    1    2  505  503 -0.29906281306E+02  0.38233823101E+01 -0.58514485327E+03  0.58592107252E+03  0.00000000000E+00 0.  1.
          2    1    1    2  501    0  0.49401842747E+02 -0.61265849716E+02 -0.18600256670E+04  0.18616899656E+04  0.00000000000E+00 0. -1.
<scales pt_clust_3="14000.00000" pt_clust_4="54.02587" pt_clust_5="30.14969" pt_clust_6="75.85723"></scales>
<clustering>
<clus scale="   30.150">  2  5  1 -1</clus>
<clus scale="   54.026">  1  4  2 -1</clus>
<clus scale="   75.857">  2  6  1 -1</clus>
<clus scale="   54.026">  1  3  2 -1</clus>
</clustering>
</event>
<event>
 6    0  0.2117869E+002  0.1246450E+03  0.7546771E-02  0.1235625E+00
          2   -1    0    0  505    0 -0.00000000000E+00  0.00000000000E+00  0.28916098970E+04  0.28916098970E+04  0.00000000000E+00 0.  1.
         21   -1    0    0  504  502  0.00000000000E+00 -0.00000000000E+00 -0.31861699179E+02  0.31861699179E+02  0.00000000000E+00 0.  1.
         21    1    1    2  503  502 -0.10410473724E+03 -0.16068702879E+03  0.44004833546E+03  0.47989650455E+03  0.00000000000E+00 0.  1.
         21    1    1    2  504  501  0.31433518817E+02  0.66638356043E+02  0.16165008928E+03  0.17764990280E+03  0.00000000000E+00 0.  1.
         21    1    1    2  505  503 -0.34188204703E+02  0.63336761636E+02  0.63362837647E+03  0.63770314268E+03  0.00000000000E+00 0.  1.
          2    1    1    2  501    0  0.10685942312E+03  0.30711911114E+02  0.16244213966E+04  0.16282220461E+04  0.00000000000E+00 0.  1.
<scales pt_clust_3="124.64496" pt_clust_4="77.01428" pt_clust_5="71.97485" pt_clust_6="14000.00000"></scales>
<clustering>
<clus scale="   71.975">  1  5  2 -1</clus>
<clus scale="   77.014">  2  4  1 -1</clus>
<clus scale="  124.645">  2  3  1 -1</clus>
<clus scale="   77.014">  2  3  1 -1</clus>
</clustering>
</event>
<event>
 6    0  0.2117869E+002  0.1243023E+03  0.7546771E-02  0.1236164E+00
         21   -1    0    0  503  502  0.00000000000E+00  0.00000000000E+00  0.16259209963E+03  0.16259209963E+03  0.00000000000E+00 0. -1.
          2   -1    0    0  502    0 -0.00000000000E+00 -0.00000000000E+00 -0.80863160492E+03  0.80863160492E+03  0.00000000000E+00 0.  1.
         21    1    1    2  503  505  0.30391426286E+02 -0.21299153893E+02  0.77836180721E+02  0.86230874850E+02  0.00000000000E+00 0. -1.
         21    1    1    2  504  501  0.32775211009E+02  0.34872171387E+02 -0.26244569522E+03  0.26677336024E+03  0.00000000000E+00 0. -1.
         21    1    1    2  505  504 -0.60493618107E+02 -0.90290395405E+02  0.36315752002E+02  0.11458912330E+03  0.00000000000E+00 0. -1.
          2    1    1    2  501    0 -0.26730191879E+01  0.76717377911E+02 -0.49774574279E+03  0.50363034616E+03  0.00000000000E+00 0.  1.
<scales pt_clust_3="37.11189" pt_clust_4="37.89942" pt_clust_5="114.79799" pt_clust_6="37.89942"></scales>
<clustering>
<clus scale="   37.112">  1  3  2 -1</clus>
<clus scale="   37.899">  4  6 -1 -1</clus>
<clus scale="  114.798">  1  5  2 -1</clus>
<clus scale="   37.112">  1  3  2 -1</clus>
</clustering>
</event>
<event>
 6    0  0.2117869E+002  0.7430113E+02  0.7546771E-02  0.1346049E+00
         21   -1    0    0  504  502  0.00000000000E+00  0.00000000000E+00  0.35523433515E+02  0.35523433515E+02  0.00000000000E+00 0. -1.
          1   -1    0    0  505    0 -0.00000000000E+00 -0.00000000000E+00 -0.13969684939E+04  0.13969684939E+04  0.00000000000E+00 0. -1.
         21    1    1    2  503  502  0.23786515681E+02 -0.87802466013E+02 -0.59057832388E+02  0.10845689896E+03  0.00000000000E+00 0. -1.
         21    1    1    2  504  501 -0.20739016114E+02  0.25589187735E+02 -0.78316983119E+02  0.84961539317E+02  0.00000000000E+00 0.  1.
         21    1    1    2  505  503 -0.56788006581E+02  0.10648370555E+03 -0.85737344202E+03  0.86582496864E+03  0.00000000000E+00 0. -1.
          1    1    1    2  501    0  0.53740507014E+02 -0.44270427270E+02 -0.36669680282E+03  0.37324852046E+03  0.00000000000E+00 0. -1.
<scales pt_clust_3="74.30113" pt_clust_4="32.93802" pt_clust_5="14000.00000" pt_clust_6="66.34671"></scales>
<clustering>
<clus scale="   32.938">  1  4  2 -1</clus>
<clus scale="   66.347">  2  6  1 -1</clus>
<clus scale="   74.301">  1  3  2 -1</clus>
<clus scale="   32.938">  1  3  2 -1</clus>
</clustering>
</event>
<event>
 6    0  0.2117869E+002  0.1083840E+03  0.7546771E-02  0.1263592E+00
         21   -1    0    0  501  502  0.00000000000E+00  0.00000000000E+00  0.57223094779E+03  0.57223094779E+03  0.00000000000E+00 0.  1.
          2   -1    0    0  504    0 -0.00000000000E+00 -0.00000000000E+00 -0.20992825293E+04  0.20992825293E+04  0.00000000000E+00 0. -1.
         21    1    1    2  503  502 -0.36957363989E+02 -0.88384069638E+01  0.90394916547E+02  0.98057152356E+02  0.00000000000E+00 0.  1.
         21    1    1    2  504  505 -0.38215915264E+02  0.10747492204E+02 -0.66196419666E+03  0.66315349839E+03  0.00000000000E+00 0. -1.
         21    1    1    2  505  503 -0.60903589245E+02 -0.37961981760E+02  0.47122948347E+03  0.47666296829E+03  0.00000000000E+00 0.  1.
          2    1    1    2  501    0  0.13607686850E+03  0.36052896519E+02 -0.14267117849E+04  0.14336398580E+04  0.00000000000E+00 0. -1.
<scales pt_clust_3="37.99953" pt_clust_4="39.73971" pt_clust_5="14000.00000" pt_clust_6="108.38400"></scales>
<clustering>
<clus scale="   38.000">  1  3  2 -1</clus>
<clus scale="   39.740">  2  4  1 -1</clus>
<clus scale="  108.384">  2  6  1 -1</clus>
<clus scale="   38.000">  1  3  2 -1</clus>
</clustering>
</event>
<event>
 6    0  0.2117869E+002  0.1186854E+03  0.7546771E-02  0.1245282E+00
         -1   -1    0    0    0  501 -0.00000000000E+00  0.00000000000E+00  0.24441185768E+03  0.24441185768E+03  0.00000000000E+00 0. -1.
         21   -1    0    0  504  502  0.00000000000E+00 -0.00000000000E+00 -0.33489411596E+03  0.33489411596E+03  0.00000000000E+00 0. -1.
         21    1    1    2  503  505  0.34851317140E+02 -0.73840772692E+02  0.96926525043E+02  0.12673525664E+03  0.00000000000E+00 0. -1.
         21    1    1    2  504  503  0.81499338163E+02  0.67442279342E+02 -0.18442050666E+03  0.21260650611E+03  0.00000000000E+00 0. -1.
         21    1    1    2  505  501  0.49153617343E+02 -0.44737281903E+02 -0.58055646836E+01  0.66717367088E+02  0.00000000000E+00 0. -1.
         -1    1    1    2    0  502 -0.16550427265E+03  0.51135775253E+02  0.28172880306E+01  0.17324684380E+03  0.00000000000E+00 0. -1.
<scales pt_clust_3="14000.00000" pt_clust_4="106.48958" pt_clust_5="66.46429" pt_clust_6="118.68541"></scales>
<clustering>
<clus scale="   66.464">  1  5  2 -1</clus>
<clus scale="  106.490">  2  4  1 -1</clus>
<clus scale="  118.685">  2  6  1 -1</clus>
<clus scale="  106.490">  2  3  1 -1</clus>
</clustering>
</event>
<event>
 6    0  0.2117869E+002  0.1463897E+03  0.7546771E-02  0.1204981E+00
         -2   -1    0    0    0  501 -0.00000000000E+00  0.00000000000E+00  0.49921357085E+03  0.49921357085E+03  0.00000000000E+00 0. -1.
         21   -1    0    0  504  502  0.00000000000E+00 -0.00000000000E+00 -0.21291523708E+03  0.21291523708E+03  0.00000000000E+00 0. -1.
         21    1    1    2  503  501  0.11236006794E+03 -0.12238214704E+02  0.17850047211E+03  0.21127464900E+03  0.00000000000E+00 0.  1.
         21    1    1    2  504  503  0.77102665195E+01 -0.35127556711E+02 -0.43632511243E+02  0.56543695384E+02  0.00000000000E+00 0. -1.
         21    1    1    2  505  502  0.83568635721E+02  0.12267006522E+03 -0.41217471089E+02  0.15404720607E+03  0.00000000000E+00 0. -1.
         -2    1    1    2    0  505 -0.20363897018E+03 -0.75304293800E+02  0.19264784399E+03  0.29026325747E+03  0.00000000000E+00 0. -1.
<scales pt_clust_3="114.23032" pt_clust_4="35.96378" pt_clust_5="146.38969" pt_clust_6="14000.00000"></scales>
<clustering>
<clus scale="   35.964">  2  4  1 -1</clus>
<clus scale="  114.230">  1  3  2 -1</clus>
<clus scale="  146.390">  2  5  1 -1</clus>
<clus scale="   35.964">  2  3  1 -1</clus>
</clustering>
</event>
<event>
 6    0  0.2117869E+002  0.1161295E+03  0.7546771E-02  0.1249622E+00
          4   -1    0    0  504    0 -0.00000000000E+00  0.00000000000E+00  0.27574208700E+02  0.27574208700E+02  0.00000000000E+00 0.  1.
         21   -1    0    0  505  502  0.00000000000E+00 -0.00000000000E+00 -0.13142966403E+04  0.13142966403E+04  0.00000000000E+00 0.  1.
         21    1    1    2  503  502 -0.11021968658E+03  0.23757736048E+02 -0.49500698177E+03  0.50768565208E+03  0.00000000000E+00 0.  1.
         21    1    1    2  504  503 -0.35587070708E+02 -0.16506697590E+02 -0.68849054552E+02  0.79240791135E+02  0.00000000000E+00 0. -1.
         21    1    1    2  505  501  0.12115385649E+03  0.47094277450E+02 -0.63855507075E+03  0.65165075485E+03  0.00000000000E+00 0.  1.
          4    1    1    2  501    0  0.24652900798E+02 -0.54345315907E+02 -0.84311324494E+02  0.10329365090E+03  0.00000000000E+00 0.  1.
<scales pt_clust_3="14000.00000" pt_clust_4="39.22895" pt_clust_5="116.12955" pt_clust_6="62.08655"></scales>
<clustering>
<clus scale="   39.229">  1  4  2 -1</clus>
<clus scale="   62.087">  1  6  2 -1</clus>
<clus scale="  116.130">  1  5  2 -1</clus>
<clus scale="  116.130">  2  3  1 -1</clus>
</clustering>
</event>
<event>
 6    0  0.2117869E+002  0.8163431E+02  0.7546771E-02  0.1324476E+00
         21   -1    0    0  503  502  0.00000000000E+00  0.00000000000E+00  0.15633805440E+03  0.15633805440E+03  0.00000000000E+00 0.  1.
          2   -1    0    0  504    0 -0.00000000000E+00 -0.00000000000E+00 -0.41344369249E+03  0.41344369249E+03  0.00000000000E+00 0. -1.
         21    1    1    2  503  501  0.42562842288E+02  0.60059669818E+02  0.10051830062E+03  0.12459008083E+03  0.00000000000E+00 0.  1.
         21    1    1    2  504  505  0.42577672220E+02  0.28493459814E+02 -0.11630490097E+03  0.12708880916E+03  0.00000000000E+00 0. -1.
         21    1    1    2  505  502  0.33049135459E+02 -0.53068750164E+02 -0.21677899018E+02  0.66170000033E+02  0.00000000000E+00 0.  1.
          2    1    1    2  501    0 -0.11818964997E+03 -0.35484379468E+02 -0.21964113873E+03  0.25193285687E+03  0.00000000000E+00 0. -1.
<scales pt_clust_3="14000.00000" pt_clust_4="51.23217" pt_clust_5="62.74096" pt_clust_6="81.63431"></scales>
<clustering>
<clus scale="   51.232">  2  4  1 -1</clus>
<clus scale="   62.741">  1  5  2 -1</clus>
<clus scale="   81.634">  2  6  1 -1</clus>
<clus scale="   62.741">  1  3  2 -1</clus>
</clustering>
</event>
<event>
 6    0  0.2117869E+002  0.1243966E+03  0.7546771E-02  0.1236015E+00
         21   -1    0    0  503  502  0.00000000000E+00  0.00000000000E+00  0.58364385823E+02  0.58364385823E+02  0.00000000000E+00 0.  1.
          2   -1    0    0  504    0 -0.00000000000E+00 -0.00000000000E+00 -0.10248961248E+04  0.10248961248E+04  0.00000000000E+00 0. -1.
         21    1    1    2  503  501 -0.13989368001E+02  0.54470702618E+02 -0.65682650403E+02  0.86469476838E+02  0.00000000000E+00 0.  1.
         21    1    1    2  504  505  0.32743559149E+02  0.15706109194E+01 -0.90617744644E+02  0.96364843842E+02  0.00000000000E+00 0. -1.
         21    1    1    2  505  502 -0.11321058504E+03 -0.12718779138E+02 -0.36324562489E+02  0.11957373352E+03  0.00000000000E+00 0.  1.
          2    1    1    2  501    0  0.94456393896E+02 -0.43322534399E+02 -0.77390678148E+03  0.78085245646E+03  0.00000000000E+00 0. -1.
<scales pt_clust_3="55.75910" pt_clust_4="32.78121" pt_clust_5="14000.00000" pt_clust_6="124.39658"></scales>
<clustering>
<clus scale="   32.781">  2  4  1 -1</clus>
<clus scale="   55.759">  1  3  2 -1</clus>
<clus scale="  124.397">  2  6  1 -1</clus>
<clus scale="   55.759">  1  3  2 -1</clus>
</clustering>
</event>
<event>
 6    0  0.2117869E+002  0.1602613E+03  0.7546771E-02  0.1188402E+00
         21   -1    0    0  501  502  0.00000000000E+00  0.00000000000E+00  0.11289869805E+03  0.11289869805E+03  0.00000000000E+00 0.  1.
          2   -1    0    0  505    0 -0.00000000000E+00 -0.00000000000E+00 -0.14977036415E+04  0.14977036415E+04  0.00000000000E+00 0.  1.
         21    1    1    2  503  502 -0.23957101668E+02 -0.55728840499E+02  0.74586524813E+02  0.96139461551E+02  0.00000000000E+00 0.  1.
         21    1    1    2  504  503  0.56167585238E+02 -0.12758915223E+03 -0.25173142959E+03  0.28775423896E+03  0.00000000000E+00 0.  1.
         21    1    1    2  505  504  0.37482999689E+02  0.40086655353E+02 -0.36854996661E+03  0.37261373175E+03  0.00000000000E+00 0.  1.
          2    1    1    2  501    0 -0.69693483259E+02  0.14323133738E+03 -0.83911007210E+03  0.85409490732E+03  0.00000000000E+00 0.  1.
<scales pt_clust_3="60.16670" pt_clust_4="160.26134" pt_clust_5="54.88092" pt_clust_6="14000.00000"></scales>
<clustering>
<clus scale="   54.881">  2  5  1 -1</clus>
<clus scale="   60.167">  1  3  2 -1</clus>
<clus scale="  160.261">  1  4  2 -1</clus>
<clus scale="   60.167">  1  3  2 -1</clus>
</clustering>
</event>
<event>
 6    0  0.2117869E+002  0.8603554E+02  0.7546771E-02  0.1312746E+00
         21   -1    0    0  505  502  0.00000000000E+00  0.00000000000E+00  0.26299472145E+03  0.26299472145E+03  0.00000000000E+00 0.  1.
          2   -1    0    0  504    0 -0.00000000000E+00 -0.00000000000E+00 -0.27875788970E+04  0.27875788970E+04  0.00000000000E+00 0.  1.
         21    1    1    2  503  501  0.33332354007E+02  0.11959024113E+03  0.10224902178E+03  0.16083449273E+03  0.00000000000E+00 0.  1.
         21    1    1    2  504  502 -0.37240125588E+02  0.30415889460E+02 -0.34975517132E+03  0.35304480332E+03  0.00000000000E+00 0.  1.
         21    1    1    2  505  503 -0.60799561962E+01 -0.39023669114E+02  0.12548253944E+03  0.13155105595E+03  0.00000000000E+00 0.  1.
          2    1    1    2  501    0  0.99877277774E+01 -0.11098246147E+03 -0.24025605655E+04  0.24051432665E+04  0.00000000000E+00 0.  1.
<scales pt_clust_3="86.03554" pt_clust_4="47.84026" pt_clust_5="39.49446" pt_clust_6="14000.00000"></scales>
<clustering>
<clus scale="   39.494">  1  5  2 -1</clus>
<clus scale="   47.840">  2  4  1 -1</clus>
<clus scale="   86.036">  1  3  2 -1</clus>
<clus scale="   39.494">  1  3  2 -1</clus>
</clustering>
</event>
<event>
 6    0  0.2117869E+002  0.1868944E+03  0.7546771E-02  0.1161293E+00
          2   -1    0    0  504    0 -0.00000000000E+00  0.00000000000E+00  0.19145387087E+04  0.19145387087E+04  0.00000000000E+00 0. -1.
         21   -1    0    0  501  502  0.00000000000E+00 -0.00000000000E+00 -0.10222471647E+03  0.10222471647E+03  0.00000000000E+00 0. -1.
         21    1    1    2  503  502 -0.33394432292E+02 -0.39861374959E+02 -0.13758230845E+02  0.53790391686E+02  0.00000000000E+00 0. -1.
         21    1    1    2  504  505 -0.18964605509E+02 -0.39943015493E+02  0.15808428421E+03  0.16415158136E+03  0.00000000000E+00 0. -1.
         21    1    1    2  505  503 -0.15536335107E+03  0.17700812020E+02  0.46830072903E+02  0.16323034440E+03  0.00000000000E+00 0. -1.
          2    1    1    2  501    0  0.20772238888E+03  0.62103578433E+02  0.16211578659E+04  0.16355911077E+04  0.00000000000E+00 0. -1.
<scales pt_clust_3="52.48983" pt_clust_4="44.21652" pt_clust_5="14000.00000" pt_clust_6="186.89436"></scales>
<clustering>
<clus scale="   44.217">  1  4  2 -1</clus>
<clus scale="   52.490">  2  3  1 -1</clus>
<clus scale="  186.894">  1  6  2 -1</clus>
<clus scale="   52.490">  2  3  1 -1</clus>
</clustering>
</event>
<event>
 6    0  0.2117869E+002  0.9653711E+02  0.7546771E-02  0.1287751E+00
         21   -1    0    0  501  502  0.00000000000E+00  0.00000000000E+00  0.29061643225E+03  0.29061643225E+03  0.00000000000E+00 0. -1.
          1   -1    0    0  505    0 -0.00000000000E+00 -0.00000000000E+00 -0.19981061048E+03  0.19981061048E+03  0.00000000000E+00 0. -1.
         21    1    1    2  503  502 -0.46784565194E+02 -0.10381690211E+03  0.22353229060E+03  0.25086536159E+03  0.00000000000E+00 0. -1.
         21    1    1    2  504  503  0.22655553167E+02  0.57108512395E+02  0.63406007341E+01  0.61764548852E+02  0.00000000000E+00 0.  1.
         21    1    1    2  505  504 -0.31654000424E+02  0.17302023377E+01 -0.16297218505E+02  0.35645037158E+02  0.00000000000E+00 0.  1.
          1    1    1    2  501    0  0.55783012451E+02  0.44978187380E+02 -0.12276985106E+03  0.14215209512E+03  0.00000000000E+00 0. -1.
<scales pt_clust_3="14000.00000" pt_clust_4="96.53711" pt_clust_5="31.70125" pt_clust_6="56.08877"></scales>
<clustering>
<clus scale="   31.701">  2  5  1 -1</clus>
<clus scale="   56.089">  2  6  1 -1</clus>
<clus scale="   96.537">  2  4  1 -1</clus>
<clus scale="   96.537">  1  3  2 -1</clus>
</clustering>
</event>
<event>
 6    0  0.2117869E+002  0.1708131E+03  0.7546771E-02  0.1177003E+00
          1   -1    0    0  504    0 -0.00000000000E+00  0.00000000000E+00  0.14899235439E+04  0.14899235439E+04  0.00000000000E+00 0.  1.
         21   -1    0    0  505  502  0.00000000000E+00 -0.00000000000E+00 -0.43250531124E+03  0.43250531124E+03  0.00000000000E+00 0. -1.
         21    1    1    2  503  501  0.11842054849E+02 -0.10269563016E+03  0.29365242924E+03  0.31131716290E+03  0.00000000000E+00 0.  1.
         21    1    1    2  504  502  0.38773567445E+02  0.27261702165E+02  0.66712893561E+02  0.81836422849E+02  0.00000000000E+00 0. -1.
         21    1    1    2  505  503 -0.72372057447E+02  0.15959378071E+03 -0.39585928074E+03  0.43291160725E+03  0.00000000000E+00 0. -1.
          1    1    1    2  501    0  0.21756435153E+02 -0.84159852713E+02  0.10929121906E+04  0.10963636621E+04  0.00000000000E+00 0.  1.
<scales pt_clust_3="170.81312" pt_clust_4="47.39821" pt_clust_5="14000.00000" pt_clust_6="81.58357"></scales>
<clustering>
<clus scale="   47.398">  1  4  2 -1</clus>
<clus scale="   81.584">  1  6  2 -1</clus>
<clus scale="  170.813">  1  3  2 -1</clus>
<clus scale="  170.813">  2  3  1 -1</clus>
</clustering>
</event>
<event>
 6    0  0.2117869E+002  0.1108126E+03  0.7546771E-02  0.1259072E+00
          1   -1    0    0  502    0 -0.00000000000E+00  0.00000000000E+00  0.11483266994E+04  0.11483266994E+04  0.00000000000E+00 0. -1.
         21   -1    0    0  505  502  0.00000000000E+00 -0.00000000000E+00 -0.17320493214E+03  0.17320493214E+03  0.00000000000E+00 0. -1.
         21    1    1    2  503  504 -0.56427337792E+02 -0.20973990386E+02  0.63723888710E+02  0.87662344911E+02  0.00000000000E+00 0. -1.
         21    1    1    2  504  501 -0.42566691666E+02  0.15087612678E+02  0.21024500750E+03  0.21504074608E+03  0.00000000000E+00 0.  1.
         21    1    1    2  505  503  0.12371432543E+03  0.33752306887E+02 -0.13247149857E+03  0.18437231482E+03  0.00000000000E+00 0. -1.
          1    1    1    2  501    0 -0.24720295976E+02 -0.27865929178E+02  0.83362436963E+03  0.83445622575E+03  0.00000000000E+00 0. -1.
<scales pt_clust_3="110.81259" pt_clust_4="59.41168" pt_clust_5="14000.00000" pt_clust_6="37.25054"></scales>
<clustering>
<clus scale="   37.251">  1  6  2 -1</clus>
<clus scale="   59.412">  1  4  2 -1</clus>
<clus scale="  110.813">  1  3  2 -1</clus>
<clus scale="  110.813">  2  3  1 -1</clus>
</clustering>
</event>
<event>
 6    0  0.2117869E+002  0.1513578E+03  0.7546771E-02  0.1198814E+00
          2   -1    0    0  503    0 -0.00000000000E+00  0.00000000000E+00  0.28706206020E+04  0.28706206020E+04  0.00000000000E+00 0.  1.
         21   -1    0    0  501  502  0.00000000000E+00 -0.00000000000E+00 -0.36496513766E+03  0.36496513766E+03  0.00000000000E+00 0. -1.
         21    1    1    2  503  504  0.36190134376E+02 -0.20947434673E+02  0.18672303056E+03  0.19134787949E+03  0.00000000000E+00 0. -1.
         21    1    1    2  504  505 -0.47117625689E+02  0.14754769018E+03 -0.85910943081E+02  0.17711883488E+03  0.00000000000E+00 0. -1.
         21    1    1    2  505  502 -0.51492658847E+02 -0.31367581005E+02 -0.22595315554E+03  0.23385946111E+03  0.00000000000E+00 0. -1.
          2    1    1    2  501    0  0.62420150160E+02 -0.95232674501E+02  0.26307965324E+04  0.26332595642E+04  0.00000000000E+00 0.  1.
<scales pt_clust_3="41.81532" pt_clust_4="14000.00000" pt_clust_5="60.26496" pt_clust_6="151.35782"></scales>
<clustering>
<clus scale="   41.815">  1  3  2 -1</clus>
<clus scale="   60.265">  2  5  1 -1</clus>
<clus scale="  151.358">  1  6  2 -1</clus>
<clus scale="   60.265">  2  3  1 -1</clus>
</clustering>
</event>
<event>
 6    0  0.2117869E+002  0.1084359E+03  0.7546771E-02  0.1263494E+00
          2   -1    0    0  504    0 -0.00000000000E+00  0.00000000000E+00  0.11891301317E+04  0.11891301317E+04  0.00000000000E+00 0. -1.
         21   -1    0    0  503  502  0.00000000000E+00 -0.00000000000E+00 -0.50811434342E+02  0.50811434342E+02  0.00000000000E+00 0. -1.
         21    1    1    2  503  501  0.53292204420E+02  0.10545082696E+03  0.41062775911E+02  0.12508432166E+03  0.00000000000E+00 0. -1.
         21    1    1    2  504  505 -0.31317970934E+02 -0.17927727264E+02  0.29390053340E+03  0.29610765313E+03  0.00000000000E+00 0.  1.
         21    1    1    2  505  502 -0.55295533430E+02 -0.60808280401E+02  0.23816765978E+03  0.25195054504E+03  0.00000000000E+00 0.  1.
          2    1    1    2  501    0  0.33321299944E+02 -0.26714819299E+02  0.56518772822E+03  0.56679904616E+03  0.00000000000E+00 0. -1.
<scales pt_clust_3="108.43589" pt_clust_4="36.08627" pt_clust_5="14000.00000" pt_clust_6="40.38532"></scales>
<clustering>
<clus scale="   36.086">  1  4  2 -1</clus>
<clus scale="   40.385">  1  6  2 -1</clus>
<clus scale="  108.436">  2  3  1 -1</clus>
<clus scale="  108.436">  2  3  1 -1</clus>
</clustering>
</event>
<event>
 6    0  0.2117869E+002  0.2484943E+03  0.7546771E-02  0.1114260E+00
          1   -1    0    0  505    0 -0.00000000000E+00  0.00000000000E+00  0.38678751193E+03  0.38678751193E+03  0.00000000000E+00 0. -1.
         21   -1    0    0  503  502  0.00000000000E+00 -0.00000000000E+00 -0.43424549853E+03  0.43424549853E+03  0.00000000000E+00 0.  1.
         21    1    1    2  503  501 -0.43666191234E+02 -0.22113735977E+02 -0.26954299857E+02  0.55877436023E+02  0.00000000000E+00 0.  1.
         21    1    1    2  504  502  0.24129326880E+03 -0.92781955331E+02 -0.18736079125E+03  0.31927260906E+03  0.00000000000E+00 0.  1.
         21    1    1    2  505  504  0.36767669184E+02  0.60891912639E+01  0.18319671123E+03  0.18694912344E+03  0.00000000000E+00 0.  1.
          1    1    1    2  501    0 -0.23439474675E+03  0.10880650004E+03 -0.16339606730E+02  0.25893384194E+03  0.00000000000E+00 0. -1.
<scales pt_clust_3="46.40450" pt_clust_4="14000.00000" pt_clust_5="37.26848" pt_clust_6="248.49435"></scales>
<clustering>
<clus scale="   37.268">  1  5  2 -1</clus>
<clus scale="   46.404">  2  3  1 -1</clus>
<clus scale="  248.494">  1  6  2 -1</clus>
<clus scale="   46.404">  2  3  1 -1</clus>
</clustering>
</event>
<event>
 6    0  0.2117869E+002  0.1175601E+03  0.7546771E-02  0.1247177E+00
          1   -1    0    0  504    0 -0.00000000000E+00  0.00000000000E+00  0.48194078192E+04  0.48194078192E+04  0.00000000000E+00 0. -1.
         21   -1    0    0  505  502  0.00000000000E+00 -0.00000000000E+00 -0.44235376032E+03  0.44235376032E+03  0.00000000000E+00 0.  1.
         21    1    1    2  503  502 -0.12187754142E+03  0.50513583455E+02 -0.97654837025E+02  0.16414086758E+03  0.00000000000E+00 0. -1.
         21    1    1    2  504  503  0.82913285194E+02  0.82233180147E+01  0.22669518439E+03  0.24152213656E+03  0.00000000000E+00 0. -1.
         21    1    1    2  505  501  0.90109196826E+02  0.65147468489E+02 -0.29285427870E+03  0.31325307430E+03  0.00000000000E+00 0.  1.
          1    1    1    2  501    0 -0.51144940598E+02 -0.12388436996E+03  0.45408679902E+04  0.45428455010E+04  0.00000000000E+00 0. -1.
<scales pt_clust_3="14000.00000" pt_clust_4="83.32008" pt_clust_5="111.35311" pt_clust_6="117.56008"></scales>
<clustering>
<clus scale="   83.320">  1  4  2 -1</clus>
<clus scale="  111.353">  2  5  1 -1</clus>
<clus scale="  117.560">  1  6  2 -1</clus>
<clus scale="  111.353">  2  3  1 -1</clus>
</clustering>
</event>
<event>
 6    0  0.2117869E+002  0.9706657E+02  0.7546771E-02  0.1286588E+00
          1   -1    0    0  505    0 -0.00000000000E+00  0.00000000000E+00  0.39038323934E+03  0.39038323934E+03  0.00000000000E+00 0.  1.
         21   -1    0    0  503  502  0.00000000000E+00 -0.00000000000E+00 -0.74634583882E+03  0.74634583882E+03  0.00000000000E+00 0.  1.
         21    1    1    2  503  501 -0.69114377929E+02  0.17909334724E+02 -0.28783487985E+03  0.29655768337E+03  0.00000000000E+00 0.  1.
         21    1    1    2  504  502 -0.28933701433E+02  0.92224807803E+01 -0.41642383963E+03  0.41752967253E+03  0.00000000000E+00 0.  1.
         21    1    1    2  505  504  0.28098072441E+02  0.51338922203E+02  0.30227264248E+03  0.30788624035E+03  0.00000000000E+00 0.  1.
          1    1    1    2  501    0  0.69950006921E+02 -0.78470737707E+02  0.46023477526E+02  0.11475548191E+03  0.00000000000E+00 0.  1.
<scales pt_clust_3="97.06657" pt_clust_4="30.36796" pt_clust_5="58.47621" pt_clust_6="14000.00000"></scales>
<clustering>
<clus scale="   30.368">  2  4  1 -1</clus>
<clus scale="   58.476">  1  5  2 -1</clus>
<clus scale="   97.067">  2  3  1 -1</clus>
<clus scale="   30.368">  2  3  1 -1</clus>
</clustering>
</event>
<event>
 6    0  0.2117869E+002  0.7667725E+02  0.7546771E-02  0.1338754E+00
         21   -1    0    0  504  502  0.00000000000E+00  0.00000000000E+00  0.22168551760E+03  0.22168551760E+03  0.00000000000E+00 0. -1.
          2   -1    0    0  505    0 -0.00000000000E+00 -0.00000000000E+00 -0.26162035301E+03  0.26162035301E+03  0.00000000000E+00 0.  1.
         21    1    1    2  503  501 -0.10850357432E+02  0.89715056655E+02 -0.13778670640E+02  0.91413201517E+02  0.00000000000E+00 0. -1.
         21    1    1    2  504  503  0.42417795848E+02 -0.22581888203E+02  0.15661954568E+03  0.16382580129E+03  0.00000000000E+00 0. -1.
         21    1    1    2  505  502  0.38470375847E+02 -0.12669865544E+02 -0.94947546891E+02  0.10322563621E+03  0.00000000000E+00 0. -1.
          2    1    1    2  501    0 -0.70037814263E+02 -0.54463302908E+02 -0.87828163558E+02  0.12484123159E+03  0.00000000000E+00 0.  1.
<scales pt_clust_3="14000.00000" pt_clust_4="48.93928" pt_clust_5="40.50303" pt_clust_6="76.67725"></scales>
<clustering>
<clus scale="   40.503">  2  5  1 -1</clus>
<clus scale="   48.939">  1  4  2 -1</clus>
<clus scale="   76.677">  2  6  1 -1</clus>
<clus scale="   48.939">  1  3  2 -1</clus>
</clustering>
</event>
<event>
 6    0  0.2117869E+002  0.1282304E+03  0.7546771E-02  0.1230105E+00
         21   -1    0    0  504  502  0.00000000000E+00  0.00000000000E+00  0.96937717432E+03  0.96937717432E+03  0.00000000000E+00 0. -1.
          2   -1    0    0  505    0 -0.00000000000E+00 -0.00000000000E+00 -0.59268136883E+03  0.59268136883E+03  0.00000000000E+00 0. -1.
         21    1    1    2  503  501 -0.53424663826E+02 -0.14340243479E+03 -0.13809167799E+03  0.20612560379E+03  0.00000000000E+00 0.  1.
         21    1    1    2  504  503 -0.14712294882E+02  0.31691495348E+02  0.18458883747E+02  0.39516235743E+02  0.00000000000E+00 0. -1.
         21    1    1    2  505  502 -0.57027199165E+02  0.65879574632E+02  0.89336466589E+03  0.89760383581E+03  0.00000000000E+00 0. -1.
          2    1    1    2  501    0  0.12516415787E+03  0.45831364806E+02 -0.39703606615E+03  0.41881286781E+03  0.00000000000E+00 0. -1.
<scales pt_clust_3="128.23039" pt_clust_4="34.93998" pt_clust_5="119.47108" pt_clust_6="14000.00000"></scales>
<clustering>
<clus scale="   34.940">  1  4  2 -1</clus>
<clus scale="  119.471">  1  5  2 -1</clus>
<clus scale="  128.230">  1  3  2 -1</clus>
<clus scale="   34.940">  1  3  2 -1</clus>
</clustering>
</event>
<event>
 6    0  0.2117869E+002  0.2612556E+03  0.7546771E-02  0.1106391E+00
         21   -1    0    0  504  502  0.00000000000E+00  0.00000000000E+00  0.19327861004E+03  0.19327861004E+03  0.00000000000E+00 0.  1.
          2   -1    0    0  505    0 -0.00000000000E+00 -0.00000000000E+00 -0.24223699889E+04  0.24223699889E+04  0.00000000000E+00 0.  1.
         21    1    1    2  503  502 -0.21568257765E+02 -0.33492637214E+02  0.12958042467E+03  0.13556560386E+03  0.00000000000E+00 0.  1.
         21    1    1    2  504  501  0.29024245898E+02 -0.10354098809E+02  0.11477047322E+01  0.30837176237E+02  0.00000000000E+00 0.  1.
         21    1    1    2  505  503  0.22515069993E+03  0.15692487578E+03 -0.48997854074E+03  0.56160237242E+03  0.00000000000E+00 0.  1.
          2    1    1    2  501    0 -0.23260668806E+03 -0.11307813975E+03 -0.18698409675E+04  0.18876434464E+04  0.00000000000E+00 0.  1.
<scales pt_clust_3="41.23556" pt_clust_4="30.81581" pt_clust_5="261.25558" pt_clust_6="14000.00000"></scales>
<clustering>
<clus scale="   30.816">  1  4  2 -1</clus>
<clus scale="   41.236">  1  3  2 -1</clus>
<clus scale="  261.256">  1  5  2 -1</clus>
<clus scale="   30.816">  1  3  2 -1</clus>
</clustering>
</event>
<event>
 6    0  0.2117869E+002  0.1082094E+03  0.7546771E-02  0.1263922E+00
         21   -1    0    0  504  502  0.00000000000E+00  0.00000000000E+00  0.35391087508E+03  0.35391087508E+03  0.00000000000E+00 0.  1.
         -3   -1    0    0    0  501 -0.00000000000E+00 -0.00000000000E+00 -0.12140030948E+03  0.12140030948E+03  0.00000000000E+00 0.  1.
         21    1    1    2  503  501  0.14234494690E+02  0.28903688215E+02 -0.55168688352E+01  0.32687610394E+02  0.00000000000E+00 0.  1.
         21    1    1    2  504  503  0.38883564840E+02 -0.26641146316E+02  0.19332322730E+03  0.19898631236E+03  0.00000000000E+00 0.  1.
         21    1    1    2  505  502  0.80141110953E+02  0.18770608120E+02  0.67957926173E+02  0.10673899533E+03  0.00000000000E+00 0.  1.
         -3    1    1    2    0  505 -0.13325917048E+03 -0.21033150019E+02 -0.23253719032E+02  0.13689826648E+03  0.00000000000E+00 0.  1.
<scales pt_clust_3="32.21869" pt_clust_4="47.01585" pt_clust_5="14000.00000" pt_clust_6="108.20937"></scales>
<clustering>
<clus scale="   32.219">  2  3  1 -1</clus>
<clus scale="   47.016">  1  4  2 -1</clus>
<clus scale="  108.209">  2  6  1 -1</clus>
<clus scale="   47.016">  1  3  2 -1</clus>
</clustering>
</event>
<event>
 6    0  0.2117869E+002  0.9480530E+02  0.7546771E-02  0.1291615E+00
          1   -1    0    0  503    0 -0.00000000000E+00  0.00000000000E+00  0.12408853888E+03  0.12408853888E+03  0.00000000000E+00 0. -1.
         21   -1    0    0  501  502  0.00000000000E+00 -0.00000000000E+00 -0.12342687621E+04  0.12342687621E+04  0.00000000000E+00 0. -1.
         21    1    1    2  503  505 -0.37005799217E+02 -0.35386075986E+02 -0.16816085087E+02  0.53892339595E+02  0.00000000000E+00 0.  1.
         21    1    1    2  504  502 -0.10095624687E+02  0.30621423157E+02 -0.92621701958E+03  0.92677805356E+03  0.00000000000E+00 0. -1.
         21    1    1    2  505  504 -0.34183614381E+02  0.61286234745E+02 -0.24302225382E+03  0.25295125600E+03  0.00000000000E+00 0. -1.
          1    1    1    2  501    0  0.81285038285E+02 -0.56521581915E+02  0.75875135304E+02  0.12473565179E+03  0.00000000000E+00 0. -1.
<scales pt_clust_3="49.72132" pt_clust_4="32.24272" pt_clust_5="94.80530" pt_clust_6="14000.00000"></scales>
<clustering>
<clus scale="   32.243">  2  4  1 -1</clus>
<clus scale="   49.721">  1  3  2 -1</clus>
<clus scale="   94.805">  2  5  1 -1</clus>
<clus scale="   32.243">  2  3  1 -1</clus>
</clustering>
</event>
<event>
 6    0  0.2117869E+002  0.1322469E+03  0.7546771E-02  0.1224159E+00
          2   -1    0    0  503    0 -0.00000000000E+00  0.00000000000E+00  0.10845794059E+04  0.10845794059E+04  0.00000000000E+00 0.  1.
         21   -1    0    0  504  502  0.00000000000E+00 -0.00000000000E+00 -0.14936297714E+03  0.14936297714E+03  0.00000000000E+00 0. -1.
         21    1    1    2  503  505 -0.52095019453E+02  0.16487491341E+02  0.42363059091E+03  0.42714003088E+03  0.00000000000E+00 0.  1.
         21    1    1    2  504  501 -0.66928448106E+02 -0.30095838531E+02  0.21618905358E+03  0.22830436604E+03  0.00000000000E+00 0. -1.
         21    1    1    2  505  502  0.10552060926E+03  0.95947561605E+02 -0.10013384857E+03  0.17426221962E+03  0.00000000000E+00 0. -1.
          2    1    1    2  501    0  0.13502858295E+02 -0.82339214416E+02  0.39553063281E+03  0.40423576648E+03  0.00000000000E+00 0.  1.
<scales pt_clust_3="54.64182" pt_clust_4="14000.00000" pt_clust_5="132.24686" pt_clust_6="74.56740"></scales>
<clustering>
<clus scale="   54.642">  1  3  2 -1</clus>
<clus scale="   74.567">  1  6  2 -1</clus>
<clus scale="  132.247">  2  5  1 -1</clus>
<clus scale="  132.247">  2  3  1 -1</clus>
</clustering>
</event>
<event>
 6    0  0.2117869E+002  0.6680855E+02  0.7546771E-02  0.1371295E+00
         21   -1    0    0  503  502  0.00000000000E+00  0.00000000000E+00  0.47445206431E+03  0.47445206431E+03  0.00000000000E+00 0.  1.
          1   -1    0    0  504    0 -0.00000000000E+00 -0.00000000000E+00 -0.35635202292E+03  0.35635202292E+03  0.00000000000E+00 0.  1.
         21    1    1    2  503  501  0.54112725946E+02  0.24016029677E+02  0.18294023800E+03  0.19228127176E+03  0.00000000000E+00 0.  1.
         21    1    1    2  504  505 -0.25159819854E+02 -0.25293813724E+02 -0.23746121712E-01  0.35676240156E+02  0.00000000000E+00 0.  1.
         21    1    1    2  505  502 -0.11544123135E+03 -0.15391716945E+02  0.25007721494E+03  0.27586626520E+03  0.00000000000E+00 0.  1.
          1    1    1    2  501    0  0.86488325258E+02  0.16669500991E+02 -0.31489366543E+03  0.32698031010E+03  0.00000000000E+00 0.  1.
<scales pt_clust_3="58.74407" pt_clust_4="35.67623" pt_clust_5="66.80855" pt_clust_6="14000.00000"></scales>
<clustering>
<clus scale="   35.676">  2  4  1 -1</clus>
<clus scale="   58.744">  1  3  2 -1</clus>
<clus scale="   66.809">  1  5  2 -1</clus>
<clus scale="   58.744">  1  3  2 -1</clus>
</clustering>
</event>
<event>
 6    0  0.2117869E+002  0.1022802E+03  0.7546771E-02  0.1275573E+00
         21   -1    0    0  503  502  0.00000000000E+00  0.00000000000E+00  0.27617625500E+04  0.27617625500E+04  0.00000000000E+00 0. -1.
          4   -1    0    0  504    0 -0.00000000000E+00 -0.00000000000E+00 -0.10397165568E+04  0.10397165568E+04  0.00000000000E+00 0. -1.
         21    1    1    2  503  505 -0.38013796624E+01  0.37255763183E+02  0.26185797771E+04  0.26188475503E+04  0.00000000000E+00 0. -1.
         21    1    1    2  504  502 -0.15847658955E+00  0.57839239415E+02 -0.23174190978E+03  0.23885082265E+03  0.00000000000E+00 0. -1.
         21    1    1    2  505  501 -0.74541543456E+02  0.29931236714E+02  0.12045253249E+03  0.14477960221E+03  0.00000000000E+00 0.  1.
          4    1    1    2  501    0  0.78501399708E+02 -0.12502623931E+03 -0.78524440661E+03  0.79900113165E+03  0.00000000000E+00 0. -1.
<scales pt_clust_3="37.44920" pt_clust_4="58.76551" pt_clust_5="14000.00000" pt_clust_6="102.28025"></scales>
<clustering>
<clus scale="   37.449">  1  3  2 -1</clus>
<clus scale="   58.766">  2  4  1 -1</clus>
<clus scale="  102.280">  2  6  1 -1</clus>
<clus scale="   37.449">  1  3  2 -1</clus>
</clustering>
</event>
<event>
 6    0  0.2117869E+002  0.1197912E+03  0.7546771E-02  0.1243442E+00
          2   -1    0    0  503    0 -0.00000000000E+00  0.00000000000E+00  0.12132574478E+04  0.12132574478E+04  0.00000000000E+00 0.  1.
         21   -1    0    0  505  502  0.00000000000E+00 -0.00000000000E+00 -0.20448408019E+03  0.20448408019E+03  0.00000000000E+00 0. -1.
         21    1    1    2  503  502  0.29404252935E+02  0.43034220808E+02  0.11163198919E+03  0.12320006194E+03  0.00000000000E+00 0. -1.
         21    1    1    2  504  501  0.95187674791E+01 -0.93061714574E+02  0.17057350585E+03  0.19454153940E+03  0.00000000000E+00 0.  1.
         21    1    1    2  505  504  0.15943339646E+02 -0.58202306830E+02 -0.17767923236E+03  0.18764756383E+03  0.00000000000E+00 0. -1.
          2    1    1    2  501    0 -0.54866360059E+02  0.10822980060E+03  0.90424710494E+03  0.91235236284E+03  0.00000000000E+00 0.  1.
<scales pt_clust_3="52.12057" pt_clust_4="119.79116" pt_clust_5="60.19332" pt_clust_6="14000.00000"></scales>
<clustering>
<clus scale="   52.121">  1  3  2 -1</clus>
<clus scale="   60.193">  2  5  1 -1</clus>
<clus scale="  119.791">  2  4  1 -1</clus>
<clus scale="   60.193">  2  3  1 -1</clus>
</clustering>
</event>
<event>
 6    0  0.2117869E+002  0.2225377E+03  0.7546771E-02  0.1132005E+00
         21   -1    0    0  503  502  0.00000000000E+00  0.00000000000E+00  0.65742255952E+03  0.65742255952E+03  0.00000000000E+00 0.  1.
          1   -1    0    0  504    0 -0.00000000000E+00 -0.00000000000E+00 -0.12514283012E+04  0.12514283012E+04  0.00000000000E+00 0.  1.
         21    1    1    2  503  501  0.43405271460E+02  0.10940356978E+03  0.38211971413E+03  0.39983575953E+03  0.00000000000E+00 0.  1.
         21    1    1    2  504  505 -0.16486193452E+02  0.19679126188E+03 -0.23821045545E+03  0.30942336113E+03  0.00000000000E+00 0.  1.
         21    1    1    2  505  502  0.69632238229E+02 -0.85555794238E+02  0.20154172258E+03  0.22975532305E+03  0.00000000000E+00 0.  1.
          1    1    1    2  501    0 -0.96551316236E+02 -0.22063903742E+03 -0.93945672289E+03  0.96983641697E+03  0.00000000000E+00 0.  1.
<scales pt_clust_3="110.30053" pt_clust_4="14000.00000" pt_clust_5="110.31066" pt_clust_6="222.53767"></scales>
<clustering>
<clus scale="  110.311">  1  5  2 -1</clus>
<clus scale="  110.301">  1  3  2 -1</clus>
<clus scale="  222.538">  2  6  1 -1</clus>
<clus scale="  110.311">  1  3  2 -1</clus>
</clustering>
</event>
<event>
 6    0  0.2117869E+002  0.3537199E+03  0.7546771E-02  0.1061099E+00
         21   -1    0    0  504  502  0.00000000000E+00  0.00000000000E+00  0.17729845482E+04  0.17729845482E+04  0.00000000000E+00 0. -1.
          1   -1    0    0  503    0 -0.00000000000E+00 -0.00000000000E+00 -0.52660702651E+03  0.52660702651E+03  0.00000000000E+00 0.  1.
         21    1    1    2  503  505  0.57655433541E+02  0.13086151744E+02 -0.48766287104E+02  0.76639070598E+02  0.00000000000E+00 0.  1.
         21    1    1    2  504  501 -0.53062537867E+01 -0.48769578497E+02  0.11043987794E+04  0.11054878072E+04  0.00000000000E+00 0. -1.
         21    1    1    2  505  502 -0.14084665428E+03  0.36636804222E+03  0.51393800237E+03  0.64668044092E+03  0.00000000000E+00 0. -1.
          1    1    1    2  501    0  0.88497474529E+02 -0.33068461547E+03 -0.32319297293E+03  0.47078425596E+03  0.00000000000E+00 0.  1.
<scales pt_clust_3="58.79669" pt_clust_4="49.05740" pt_clust_5="353.71992" pt_clust_6="14000.00000"></scales>
<clustering>
<clus scale="   49.057">  1  4  2 -1</clus>
<clus scale="   58.797">  2  3  1 -1</clus>
<clus scale="  353.720">  1  5  2 -1</clus>
<clus scale="   49.057">  1  3  2 -1</clus>
</clustering>
</event>
<event>
 6    0  0.2117869E+002  0.8546291E+02  0.7546771E-02  0.1314226E+00
         21   -1    0    0  505  502  0.00000000000E+00  0.00000000000E+00  0.68152461517E+02  0.68152461517E+02  0.00000000000E+00 0. -1.
          4   -1    0    0  504    0 -0.00000000000E+00 -0.00000000000E+00 -0.29192727675E+03  0.29192727675E+03  0.00000000000E+00 0. -1.
         21    1    1    2  503  501  0.11153892445E+02  0.82956819011E+02 -0.72330156995E+02  0.11062501864E+03  0.00000000000E+00 0. -1.
         21    1    1    2  504  502  0.50349762295E+02  0.17210073169E+02 -0.31853038600E+02  0.62015330764E+02  0.00000000000E+00 0. -1.
         21    1    1    2  505  503  0.79987341150E+01 -0.33333912472E+02 -0.60040457062E+00  0.34285418968E+02  0.00000000000E+00 0. -1.
          4    1    1    2  501    0 -0.69502388855E+02 -0.66832979708E+02 -0.11899121507E+03  0.15315396990E+03  0.00000000000E+00 0. -1.
<scales pt_clust_3="85.46291" pt_clust_4="53.21951" pt_clust_5="34.28016" pt_clust_6="14000.00000"></scales>
<clustering>
<clus scale="   34.280">  1  5  2 -1</clus>
<clus scale="   53.220">  1  4  2 -1</clus>
<clus scale="   85.463">  1  3  2 -1</clus>
<clus scale="   34.280">  1  3  2 -1</clus>
</clustering>
</event>
<event>
 6    0  0.2117869E+002  0.8175970E+02  0.7546771E-02  0.1324131E+00
          2   -1    0    0  505    0 -0.00000000000E+00  0.00000000000E+00  0.60770043348E+03  0.60770043348E+03  0.00000000000E+00 0. -1.
         21   -1    0    0  504  502  0.00000000000E+00 -0.00000000000E+00 -0.38238594500E+03  0.38238594500E+03  0.00000000000E+00 0. -1.
         21    1    1    2  503  501 -0.51809625225E+02 -0.10395870152E+03 -0.80473188593E+02  0.14130669825E+03  0.00000000000E+00 0. -1.
         21    1    1    2  504  503  0.25210430204E+02  0.32868205683E+02 -0.25684113322E+03  0.26016005160E+03  0.00000000000E+00 0. -1.
         21    1    1    2  505  502 -0.99265337844E+01 -0.45597649356E+02  0.10433780502E+03  0.11429811572E+03  0.00000000000E+00 0. -1.
          2    1    1    2  501    0  0.36525728806E+02  0.11668814519E+03  0.45829100528E+03  0.47432151291E+03  0.00000000000E+00 0. -1.
<scales pt_clust_3="81.75970" pt_clust_4="41.42324" pt_clust_5="45.16457" pt_clust_6="14000.00000"></scales>
<clustering>
<clus scale="   41.423">  2  4  1 -1</clus>
<clus scale="   45.165">  1  5  2 -1</clus>
<clus scale="   81.760">  2  3  1 -1</clus>
<clus scale="   41.423">  2  3  1 -1</clus>
</clustering>
</event>
<event>
 6    0  0.2117869E+002  0.1110796E+03  0.7546771E-02  0.1258584E+00
         21   -1    0    0  501  502  0.00000000000E+00  0.00000000000E+00  0.76306276063E+02  0.76306276063E+02  0.00000000000E+00 0.  1.
          2   -1    0    0  504    0 -0.00000000000E+00 -0.00000000000E+00 -0.23837361221E+04  0.23837361221E+04  0.00000000000E+00 0.  1.
         21    1    1    2  503  505  0.11603621056E+03 -0.55966795827E+02 -0.45554280173E+03  0.47340883875E+03  0.00000000000E+00 0.  1.
         21    1    1    2  504  503 -0.36886954844E+02  0.47329122812E+01 -0.13266616557E+03  0.13778011244E+03  0.00000000000E+00 0. -1.
         21    1    1    2  505  502 -0.10955808088E+03  0.10107447726E+02  0.17476806423E+02  0.11140274839E+03  0.00000000000E+00 0.  1.
          2    1    1    2  501    0  0.30408825165E+02  0.41126435820E+02 -0.17366976852E+04  0.17374506986E+04  0.00000000000E+00 0.  1.
<scales pt_clust_3="14000.00000" pt_clust_4="37.18935" pt_clust_5="111.07965" pt_clust_6="44.82362"></scales>
<clustering>
<clus scale="   37.189">  2  4  1 -1</clus>
<clus scale="   44.824">  2  6  1 -1</clus>
<clus scale="  111.080">  1  5  2 -1</clus>
<clus scale="  111.080">  1  3  2 -1</clus>
</clustering>
</event>
<event>
 6    0  0.2117869E+002  0.1146481E+03  0.7546771E-02  0.1252197E+00
         21   -1    0    0  505  502  0.00000000000E+00  0.00000000000E+00  0.31343681078E+02  0.31343681078E+02  0.00000000000E+00 0.  1.
          2   -1    0    0  504    0 -0.00000000000E+00 -0.00000000000E+00 -0.26932515351E+04  0.26932515351E+04  0.00000000000E+00 0. -1.
         21    1    1    2  503  501  0.14146597543E+02  0.72244349569E+02 -0.81433797035E+03  0.81765867097E+03  0.00000000000E+00 0.  1.
         21    1    1    2  504  502 -0.54645855900E+02 -0.14695007583E+03 -0.27644702094E+03  0.31781039905E+03  0.00000000000E+00 0.  1.
         21    1    1    2  505  503  0.14321710604E+02  0.32253441909E+02 -0.27609322143E+02  0.44807037157E+02  0.00000000000E+00 0.  1.
          2    1    1    2  501    0  0.26177547753E+02  0.42452284351E+02 -0.15435135406E+04  0.15443191090E+04  0.00000000000E+00 0. -1.
<scales pt_clust_3="114.64813" pt_clust_4="14000.00000" pt_clust_5="35.29017" pt_clust_6="50.49381"></scales>
<clustering>
<clus scale="   35.290">  1  5  2 -1</clus>
<clus scale="   50.494">  2  6  1 -1</clus>
<clus scale="  114.648">  2  3  1 -1</clus>
<clus scale="   35.290">  1  3  2 -1</clus>
</clustering>
</event>
<event>
 6    0  0.2117869E+002  0.6632643E+02  0.7546771E-02  0.1373050E+00
         21   -1    0    0  504  502  0.00000000000E+00  0.00000000000E+00  0.14322120848E+03  0.14322120848E+03  0.00000000000E+00 0. -1.
          2   -1    0    0  505    0 -0.00000000000E+00 -0.00000000000E+00 -0.16642693286E+04  0.16642693286E+04  0.00000000000E+00 0.  1.
         21    1    1    2  503  502 -0.51527883296E+01 -0.48312790990E+02 -0.20392654984E+03  0.20963471737E+03  0.00000000000E+00 0. -1.
         21    1    1    2  504  501  0.47113104997E+02 -0.46383204175E+02  0.12664728211E+03  0.14286560243E+03  0.00000000000E+00 0. -1.
         21    1    1    2  505  503  0.30634503938E+02  0.23514808122E+02 -0.97233648544E+02  0.10462218427E+03  0.00000000000E+00 0. -1.
          2    1    1    2  501    0 -0.72594820605E+02  0.71181187043E+02 -0.13465352039E+04  0.13503680330E+04  0.00000000000E+00 0.  1.
<scales pt_clust_3="45.21593" pt_clust_4="14000.00000" pt_clust_5="38.61889" pt_clust_6="66.32643"></scales>
<clustering>
<clus scale="   38.619">  2  5  1 -1</clus>
<clus scale="   45.216">  2  3  1 -1</clus>
<clus scale="   66.326">  2  6  1 -1</clus>
<clus scale="   66.326">  1  3  2 -1</clus>
</clustering>
</event>
<event>
 6    0  0.2117869E+002  0.1986800E+03  0.7546771E-02  0.1150858E+00
         21   -1    0    0  504  502  0.00000000000E+00  0.00000000000E+00  0.84533906488E+03  0.84533906488E+03  0.00000000000E+00 0. -1.
          1   -1    0    0  503    0 -0.00000000000E+00 -0.00000000000E+00 -0.90228956663E+03  0.90228956663E+03  0.00000000000E+00 0.  1.
         21    1    1    2  503  505 -0.42702050681E+02 -0.32394477318E+01 -0.10894769301E+03  0.11706220127E+03  0.00000000000E+00 0. -1.
         21    1    1    2  504  501  0.21905190473E+02 -0.56093895953E+02  0.37977812458E+02  0.71194640051E+02  0.00000000000E+00 0. -1.
         21    1    1    2  505  502 -0.77981091224E+02  0.24485640328E+03  0.75061085811E+03  0.79338034330E+03  0.00000000000E+00 0. -1.
          1    1    1    2  501    0  0.98777951432E+02 -0.18552305960E+03 -0.73659147931E+03  0.76599144690E+03  0.00000000000E+00 0.  1.
<scales pt_clust_3="42.82475" pt_clust_4="59.96212" pt_clust_5="198.67995" pt_clust_6="14000.00000"></scales>
<clustering>
<clus scale="   42.825">  2  3  1 -1</clus>
<clus scale="   59.962">  1  4  2 -1</clus>
<clus scale="  198.680">  1  5  2 -1</clus>
<clus scale="   59.962">  1  3  2 -1</clus>
</clustering>
</event>
<event>
 6    0  0.2117869E+002  0.7179479E+02  0.7546771E-02  0.1354094E+00
          2   -1    0    0  505    0 -0.00000000000E+00  0.00000000000E+00  0.38512205599E+03  0.38512205599E+03  0.00000000000E+00 0.  1.
         21   -1    0    0  504  502  0.00000000000E+00 -0.00000000000E+00 -0.18099997395E+03  0.18099997395E+03  0.00000000000E+00 0. -1.
         21    1    1    2  503  501  0.12536120651E+01 -0.91184441199E+02  0.12759121899E+03  0.15683014067E+03  0.00000000000E+00 0.  1.
         21    1    1    2  504  503 -0.10419335443E+02  0.69965670848E+02 -0.14693334167E+03  0.16307410751E+03  0.00000000000E+00 0. -1.
         21    1    1    2  505  502 -0.42926007145E+02  0.26717549184E+01  0.13692869456E+03  0.14352438036E+03  0.00000000000E+00 0.  1.
          2    1    1    2  501    0  0.52091730523E+02  0.18547015433E+02  0.86535510159E+02  0.10269340139E+03  0.00000000000E+00 0.  1.
<scales pt_clust_3="14000.00000" pt_clust_4="71.79479" pt_clust_5="43.00907" pt_clust_6="40.54780"></scales>
<clustering>
<clus scale="   43.009">  1  5  2 -1</clus>
<clus scale="   40.548">  1  6  2 -1</clus>
<clus scale="   71.795">  2  4  1 -1</clus>
<clus scale="   71.795">  2  3  1 -1</clus>
</clustering>
</event>
<event>
 6    0  0.2117869E+002  0.8901907E+02  0.7546771E-02  0.1305245E+00
          3   -1    0    0  504    0 -0.00000000000E+00  0.00000000000E+00  0.64387795502E+03  0.64387795502E+03  0.00000000000E+00 0.  1.
         21   -1    0    0  503  502  0.00000000000E+00 -0.00000000000E+00 -0.15781209488E+03  0.15781209488E+03  0.00000000000E+00 0. -1.
         21    1    1    2  503  501 -0.91490893794E+02 -0.21507461415E+02  0.80993120138E+02  0.12406869087E+03  0.00000000000E+00 0.  1.
         21    1    1    2  504  505  0.36895028350E+02 -0.27578763172E+02  0.15568436267E+03  0.16235594253E+03  0.00000000000E+00 0. -1.
         21    1    1    2  505  502  0.88608386926E+02 -0.62159798303E+01 -0.11490314397E+03  0.14523366391E+03  0.00000000000E+00 0. -1.
          3    1    1    2  501    0 -0.34012521481E+02  0.55302204418E+02  0.36429152131E+03  0.37003175259E+03  0.00000000000E+00 0.  1.
<scales pt_clust_3="89.01907" pt_clust_4="46.06334" pt_clust_5="14000.00000" pt_clust_6="34.94978"></scales>
<clustering>
<clus scale="   46.063">  1  4  2 -1</clus>
<clus scale="   34.950">  1  6  2 -1</clus>
<clus scale="   89.019">  1  3  2 -1</clus>
<clus scale="   89.019">  2  3  1 -1</clus>
</clustering>
</event>
<event>
 6    0  0.2117869E+002  0.2069034E+03  0.7546771E-02  0.1144042E+00
         -3   -1    0    0    0  501 -0.00000000000E+00  0.00000000000E+00  0.84737725481E+02  0.84737725481E+02  0.00000000000E+00 0. -1.
         21   -1    0    0  503  502  0.00000000000E+00 -0.00000000000E+00 -0.13354681748E+04  0.13354681748E+04  0.00000000000E+00 0. -1.
         21    1    1    2  503  505  0.20285882883E+03 -0.68469350845E+01 -0.12125353915E+03  0.23643393519E+03  0.00000000000E+00 0. -1.
         21    1    1    2  504  502 -0.13509745423E+02 -0.67515892952E+02 -0.35352652886E+03  0.36016928746E+03  0.00000000000E+00 0. -1.
         21    1    1    2  505  501  0.86485888409E+01  0.51434650624E+02 -0.55811991461E+02  0.76389133812E+02  0.00000000000E+00 0. -1.
         -3    1    1    2    0  504 -0.19799767224E+03  0.22928177412E+02 -0.72013838985E+03  0.74721354382E+03  0.00000000000E+00 0. -1.
<scales pt_clust_3="14000.00000" pt_clust_4="66.52856" pt_clust_5="52.15670" pt_clust_6="206.90342"></scales>
<clustering>
<clus scale="   52.157">  1  5  2 -1</clus>
<clus scale="   66.529">  2  4  1 -1</clus>
<clus scale="  206.903">  2  6  1 -1</clus>
<clus scale="   66.529">  2  3  1 -1</clus>
</clustering>
</event>
<event>
 6    0  0.2117869E+002  0.7779506E+02  0.7546771E-02  0.1335428E+00
         21   -1    0    0  501  502  0.00000000000E+00  0.00000000000E+00  0.37284274333E+03  0.37284274333E+03  0.00000000000E+00 0.  1.
          2   -1    0    0  503    0 -0.00000000000E+00 -0.00000000000E+00 -0.43936104842E+03  0.43936104842E+03  0.00000000000E+00 0.  1.
         21    1    1    2  503  504  0.24132892882E+02 -0.22657078662E+02 -0.81709379426E+02  0.88159868526E+02  0.00000000000E+00 0.  1.
         21    1    1    2  504  505 -0.72476612086E+02 -0.58722959208E+02 -0.16826551066E+03  0.19239159887E+03  0.00000000000E+00 0. -1.
         21    1    1    2  505  502 -0.13754903662E+02  0.57139420662E+02  0.34862214221E+03  0.35354138203E+03  0.00000000000E+00 0.  1.
          2    1    1    2  501    0  0.62098622865E+02  0.24240617208E+02 -0.16516555722E+03  0.17811094233E+03  0.00000000000E+00 0.  1.
<scales pt_clust_3="33.10196" pt_clust_4="77.79506" pt_clust_5="58.57976" pt_clust_6="14000.00000"></scales>
<clustering>
<clus scale="   33.102">  2  3  1 -1</clus>
<clus scale="   58.580">  1  5  2 -1</clus>
<clus scale="   77.795">  1  4  2 -1</clus>
<clus scale="   58.580">  1  3  2 -1</clus>
</clustering>
</event>
<event>
 6    0  0.2117869E+002  0.1520495E+03  0.7546771E-02  0.1197977E+00
         21   -1    0    0  503  502  0.00000000000E+00  0.00000000000E+00  0.58983197402E+02  0.58983197402E+02  0.00000000000E+00 0. -1.
          2   -1    0    0  504    0 -0.00000000000E+00 -0.00000000000E+00 -0.10240911791E+04  0.10240911791E+04  0.00000000000E+00 0. -1.
         21    1    1    2  503  501 -0.37188486413E+02  0.53735422338E+00 -0.66393321544E+02  0.76100889725E+02  0.00000000000E+00 0. -1.
         21    1    1    2  504  505 -0.36489024864E+02 -0.53013549818E+01 -0.46150956775E+03  0.46298016634E+03  0.00000000000E+00 0. -1.
         21    1    1    2  505  502  0.14851490562E+03 -0.16402195826E+02 -0.63619372335E+02  0.16239807189E+03  0.00000000000E+00 0. -1.
          2    1    1    2  501    0 -0.74837394341E+02  0.21166196585E+02 -0.37358572009E+03  0.38159524857E+03  0.00000000000E+00 0. -1.
<scales pt_clust_3="34.56673" pt_clust_4="36.87212" pt_clust_5="142.25221" pt_clust_6="34.56673"></scales>
<clustering>
<clus scale="   36.872">  2  4  1 -1</clus>
<clus scale="   34.567">  3  6 -1 -1</clus>
<clus scale="  142.252">  1  5  2 -1</clus>
<clus scale="  142.252">  1  3  2 -1</clus>
</clustering>
</event>
<event>
 6    0  0.2117869E+002  0.8082836E+02  0.7546771E-02  0.1326717E+00
          2   -1    0    0  503    0 -0.00000000000E+00  0.00000000000E+00  0.21187223141E+03  0.21187223141E+03  0.00000000000E+00 0.  1.
         21   -1    0    0  504  502  0.00000000000E+00 -0.00000000000E+00 -0.63630873827E+03  0.63630873827E+03  0.00000000000E+00 0. -1.
         21    1    1    2  503  505  0.79543260144E+02  0.32260201430E+02 -0.17346801029E+03  0.19354328050E+03  0.00000000000E+00 0. -1.
         21    1    1    2  504  501 -0.51178845623E+02  0.12000598610E+02 -0.19496098269E+03  0.20192343445E+03  0.00000000000E+00 0. -1.
         21    1    1    2  505  502  0.27801005166E+02  0.13995561405E+02 -0.24508206787E+03  0.24705058514E+03  0.00000000000E+00 0. -1.
          2    1    1    2  501    0 -0.56165419687E+02 -0.58256361445E+02  0.18907455400E+03  0.20566366958E+03  0.00000000000E+00 0.  1.
<scales pt_clust_3="80.82836" pt_clust_4="41.68417" pt_clust_5="31.12510" pt_clust_6="14000.00000"></scales>
<clustering>
<clus scale="   31.125">  2  5  1 -1</clus>
<clus scale="   41.684">  2  4  1 -1</clus>
<clus scale="   80.828">  2  3  1 -1</clus>
<clus scale="   31.125">  2  3  1 -1</clus>
</clustering>
</event>
<event>
 6    0  0.2117869E+002  0.2938900E+03  0.7546771E-02  0.1088335E+00
          1   -1    0    0  504    0 -0.00000000000E+00  0.00000000000E+00  0.27322265853E+04  0.27322265853E+04  0.00000000000E+00 0. -1.
         21   -1    0    0  503  502  0.00000000000E+00 -0.00000000000E+00 -0.10396602056E+04  0.10396602056E+04  0.00000000000E+00 0.  1.
         21    1    1    2  503  505 -0.12706672634E+03  0.34175325897E+01 -0.46463292454E+03  0.48170674382E+03  0.00000000000E+00 0.  1.
         21    1    1    2  504  502  0.38661530176E+02  0.42742285997E+02 -0.31506468233E+03  0.32029263335E+03  0.00000000000E+00 0.  1.
         21    1    1    2  505  501 -0.18592617766E+03  0.68110951743E+02 -0.19983055362E+03  0.28131813921E+03  0.00000000000E+00 0. -1.
          1    1    1    2  501    0  0.27433137383E+03 -0.11427077033E+03  0.26720945403E+04  0.26885692745E+04  0.00000000000E+00 0. -1.
<scales pt_clust_3="106.47345" pt_clust_4="57.63347" pt_clust_5="14000.00000" pt_clust_6="293.88998"></scales>
<clustering>
<clus scale="   57.633">  2  4  1 -1</clus>
<clus scale="  106.473">  2  3  1 -1</clus>
<clus scale="  293.890">  1  6  2 -1</clus>
<clus scale="   57.633">  2  3  1 -1</clus>
</clustering>
</event>
<event>
 6    0  0.2117869E+002  0.9349180E+02  0.7546771E-02  0.1294610E+00
         -4   -1    0    0    0  501 -0.00000000000E+00  0.00000000000E+00  0.21846799276E+04  0.21846799276E+04  0.00000000000E+00 0. -1.
         21   -1    0    0  505  502  0.00000000000E+00 -0.00000000000E+00 -0.17334432048E+03  0.17334432048E+03  0.00000000000E+00 0.  1.
         21    1    1    2  503  502  0.39249382469E+02 -0.34366591146E+02 -0.13200755554E+03  0.14194214078E+03  0.00000000000E+00 0.  1.
         21    1    1    2  504  503 -0.28126078057E+02 -0.61043519836E+02  0.60256103631E+01  0.67481075577E+02  0.00000000000E+00 0.  1.
         21    1    1    2  505  501  0.48783898671E+02 -0.41384482858E+02  0.90699271376E+03  0.90924602116E+03  0.00000000000E+00 0. -1.
         -4    1    1    2    0  504 -0.59907203083E+02  0.13679459384E+03  0.12303248386E+04  0.12393550106E+04  0.00000000000E+00 0. -1.
<scales pt_clust_3="52.16873" pt_clust_4="14000.00000" pt_clust_5="65.58889" pt_clust_6="93.49180"></scales>
<clustering>
<clus scale="   52.169">  2  3  1 -1</clus>
<clus scale="   65.589">  1  5  2 -1</clus>
<clus scale="   93.492">  1  6  2 -1</clus>
<clus scale="   52.169">  2  3  1 -1</clus>
</clustering>
</event>
<event>
 6    0  0.2117869E+002  0.6553790E+02  0.7546771E-02  0.1375959E+00
         21   -1    0    0  503  502  0.00000000000E+00  0.00000000000E+00  0.34626389648E+03  0.34626389648E+03  0.00000000000E+00 0.  1.
          1   -1    0    0  504    0 -0.00000000000E+00 -0.00000000000E+00 -0.12080273982E+03  0.12080273982E+03  0.00000000000E+00 0.  1.
         21    1    1    2  503  501  0.19036830842E+02 -0.29758042254E+02  0.22255556364E+03  0.22534178688E+03  0.00000000000E+00 0.  1.
         21    1    1    2  504  505  0.52576946024E+02  0.95141156988E+01 -0.34859428817E+02  0.63796813621E+02  0.00000000000E+00 0.  1.
         21    1    1    2  505  502  0.46275256763E+02  0.12474201456E+02  0.35705529714E+02  0.59765290450E+02  0.00000000000E+00 0.  1.
          1    1    1    2  501    0 -0.11788903363E+03  0.77697250998E+01  0.20594921155E+01  0.11816274534E+03  0.00000000000E+00 0.  1.
<scales pt_clust_3="35.32622" pt_clust_4="65.53790" pt_clust_5="53.71157" pt_clust_6="14000.00000"></scales>
<clustering>
<clus scale="   35.326">  1  3  2 -1</clus>
<clus scale="   53.712">  1  5  2 -1</clus>
<clus scale="   65.538">  2  4  1 -1</clus>
<clus scale="   35.326">  1  3  2 -1</clus>
</clustering>
</event>
<event>
 6    0  0.2117869E+002  0.1849616E+03  0.7546771E-02  0.1163086E+00
         21   -1    0    0  503  502  0.00000000000E+00  0.00000000000E+00  0.14752713042E+03  0.14752713042E+03  0.00000000000E+00 0. -1.
          2   -1    0    0  505    0 -0.00000000000E+00 -0.00000000000E+00 -0.22176521602E+04  0.22176521602E+04  0.00000000000E+00 0.  1.
         21    1    1    2  503  504  0.40414404723E+02  0.29517563492E+02 -0.24993709908E+02  0.55940112608E+02  0.00000000000E+00 0. -1.
         21    1    1    2  504  501  0.19634221698E+02  0.13319707464E+03 -0.99503140496E+03  0.10040988299E+04  0.00000000000E+00 0.  1.
         21    1    1    2  505  502 -0.59070378788E+02 -0.21770054897E+03  0.26511859358E+02  0.22712489375E+03  0.00000000000E+00 0. -1.
          2    1    1    2  501    0 -0.97824763231E+00  0.54985910835E+02 -0.10766117743E+04  0.10780154544E+04  0.00000000000E+00 0.  1.
<scales pt_clust_3="50.04609" pt_clust_4="14000.00000" pt_clust_5="184.96161" pt_clust_6="55.14808"></scales>
<clustering>
<clus scale="   50.046">  1  3  2 -1</clus>
<clus scale="   55.148">  2  6  1 -1</clus>
<clus scale="  184.962">  1  5  2 -1</clus>
<clus scale="   50.046">  1  3  2 -1</clus>
</clustering>
</event>
<event>
 6    0  0.2117869E+002  0.8960035E+02  0.7546771E-02  0.1303822E+00
          2   -1    0    0  504    0 -0.00000000000E+00  0.00000000000E+00  0.44302378641E+03  0.44302378641E+03  0.00000000000E+00 0. -1.
         21   -1    0    0  503  502  0.00000000000E+00 -0.00000000000E+00 -0.57319908069E+03  0.57319908069E+03  0.00000000000E+00 0. -1.
         21    1    1    2  503  505 -0.35120775620E+02  0.18288382988E+02 -0.50665198129E+02  0.64303158040E+02  0.00000000000E+00 0. -1.
         21    1    1    2  504  502 -0.62249956758E+02 -0.10947751751E+02 -0.43744488508E+01  0.63356500752E+02  0.00000000000E+00 0. -1.
         21    1    1    2  505  501  0.48618132517E+02  0.71804114148E+02 -0.47254079021E+03  0.48043142282E+03  0.00000000000E+00 0. -1.
          2    1    1    2  501    0  0.48752599861E+02 -0.79144745384E+02  0.39740514291E+03  0.40813178549E+03  0.00000000000E+00 0. -1.
<scales pt_clust_3="39.59714" pt_clust_4="65.28788" pt_clust_5="89.60035" pt_clust_6="14000.00000"></scales>
<clustering>
<clus scale="   39.597">  2  3  1 -1</clus>
<clus scale="   65.288">  1  4  2 -1</clus>
<clus scale="   89.600">  2  5  1 -1</clus>
<clus scale="   39.597">  2  3  1 -1</clus>
</clustering>
</event>
<event>
 6    0  0.2117869E+002  0.7180754E+02  0.7546771E-02  0.1354052E+00
         21   -1    0    0  505  502  0.00000000000E+00  0.00000000000E+00  0.86038194895E+02  0.86038194895E+02  0.00000000000E+00 0.  1.
          2   -1    0    0  503    0 -0.00000000000E+00 -0.00000000000E+00 -0.33756156650E+03  0.33756156650E+03  0.00000000000E+00 0. -1.
         21    1    1    2  503  504 -0.41639401783E+02 -0.30347981059E+02 -0.99657039163E+02  0.11218897089E+03  0.00000000000E+00 0.  1.
         21    1    1    2  504  502 -0.63072153751E+02 -0.88747216777E+01 -0.65353909131E+01  0.64027873603E+02  0.00000000000E+00 0.  1.
         21    1    1    2  505  501  0.12815219287E+02 -0.31961096983E+02  0.24014213170E+02  0.41981233901E+02  0.00000000000E+00 0. -1.
          2    1    1    2  501    0  0.91896336248E+02  0.71183799720E+02 -0.16934515470E+03  0.20540168299E+03  0.00000000000E+00 0. -1.
<scales pt_clust_3="52.67335" pt_clust_4="71.80754" pt_clust_5="34.43460" pt_clust_6="14000.00000"></scales>
<clustering>
<clus scale="   34.435">  1  5  2 -1</clus>
<clus scale="   52.673">  2  3  1 -1</clus>
<clus scale="   71.808">  1  4  2 -1</clus>
<clus scale="   34.435">  1  3  2 -1</clus>
</clustering>
</event>
<event>
 6    0  0.2117869E+002  0.1177241E+03  0.7546771E-02  0.1246900E+00
         21   -1    0    0  504  502  0.00000000000E+00  0.00000000000E+00  0.21099328924E+03  0.21099328924E+03  0.00000000000E+00 0.  1.
          2   -1    0    0  503    0 -0.00000000000E+00 -0.00000000000E+00 -0.45856091294E+04  0.45856091294E+04  0.00000000000E+00 0.  1.
         21    1    1    2  503  505 -0.33904185224E+02 -0.90117189439E+01 -0.19191643676E+03  0.19509644679E+03  0.00000000000E+00 0.  1.
         21    1    1    2  504  501  0.81043836148E+02 -0.61694896673E+02  0.12823011573E+03  0.16375996529E+03  0.00000000000E+00 0.  1.
         21    1    1    2  505  502 -0.17908868725E+03  0.11761587609E+03 -0.12215953774E+03  0.24663577370E+03  0.00000000000E+00 0.  1.
          2    1    1    2  501    0  0.13194903633E+03 -0.46909260476E+02 -0.41887699814E+04  0.41911102329E+04  0.00000000000E+00 0.  1.
<scales pt_clust_3="35.08140" pt_clust_4="101.76765" pt_clust_5="117.72405" pt_clust_6="14000.00000"></scales>
<clustering>
<clus scale="   35.081">  2  3  1 -1</clus>
<clus scale="  101.768">  1  4  2 -1</clus>
<clus scale="  117.724">  1  5  2 -1</clus>
<clus scale="  101.768">  1  3  2 -1</clus>
</clustering>
</event>
<event>
 6    0  0.2117869E+002  0.3512231E+03  0.7546771E-02  0.1062114E+00
         21   -1    0    0  505  502  0.00000000000E+00  0.00000000000E+00  0.21129237713E+03  0.21129237713E+03  0.00000000000E+00 0.  1.
          2   -1    0    0  503    0 -0.00000000000E+00 -0.00000000000E+00 -0.14291795763E+04  0.14291795763E+04  0.00000000000E+00 0. -1.
         21    1    1    2  503  502  0.26335873868E+03 -0.11380364818E+03 -0.27581696758E+03  0.39797499316E+03  0.00000000000E+00 0. -1.
         21    1    1    2  504  501  0.78019686664E+02  0.12326161450E+02 -0.34970439709E+03  0.35851383670E+03  0.00000000000E+00 0. -1.
         21    1    1    2  505  504 -0.39465155168E+03  0.10382223724E+03 -0.14443000618E+03  0.43288443131E+03  0.00000000000E+00 0.  1.
          2    1    1    2  501    0  0.53273126331E+02 -0.23447505095E+01 -0.44793582838E+03  0.45109869230E+03  0.00000000000E+00 0. -1.
<scales pt_clust_3="351.22311" pt_clust_4="35.86268" pt_clust_5="14000.00000" pt_clust_6="138.71740"></scales>
<clustering>
<clus scale="   35.863">  4  6 -1 -1</clus>
<clus scale="  138.717">  2  4  1 -1</clus>
<clus scale="  351.223">  2  3  1 -1</clus>
<clus scale="  351.223">  1  3  2 -1</clus>
</clustering>
</event>
<event>
 6    0  0.2117869E+002  0.1338881E+03  0.7546771E-02  0.1221798E+00
          2   -1    0    0  504    0 -0.00000000000E+00  0.00000000000E+00  0.33286240468E+04  0.33286240468E+04  0.00000000000E+00 0. -1.
         21   -1    0    0  501  502  0.00000000000E+00 -0.00000000000E+00 -0.44101285226E+02  0.44101285226E+02  0.00000000000E+00 0.  1.
         21    1    1    2  503  505 -0.31027963362E+02 -0.18232721639E+02  0.15172268753E+02  0.39055913610E+02  0.00000000000E+00 0.  1.
         21    1    1    2  504  503  0.36455590181E+02  0.16002768551E+03  0.21396631770E+03  0.26966545068E+03  0.00000000000E+00 0.  1.
         21    1    1    2  505  502  0.28406711864E+02 -0.13900483557E+02  0.85283899179E+02  0.90958826846E+02  0.00000000000E+00 0.  1.
          2    1    1    2  501    0 -0.33834338684E+02 -0.12789448031E+03  0.29701002759E+04  0.29730451409E+04  0.00000000000E+00 0. -1.
<scales pt_clust_3="31.86643" pt_clust_4="133.88812" pt_clust_5="31.62538" pt_clust_6="14000.00000"></scales>
<clustering>
<clus scale="   31.625">  2  5  1 -1</clus>
<clus scale="   31.866">  2  3  1 -1</clus>
<clus scale="  133.888">  2  4  1 -1</clus>
<clus scale="   31.625">  2  3  1 -1</clus>
</clustering>
</event>
<event>
 6    0  0.2117869E+002  0.1335772E+03  0.7546771E-02  0.1222242E+00
          1   -1    0    0  505    0 -0.00000000000E+00  0.00000000000E+00  0.15519915672E+04  0.15519915672E+04  0.00000000000E+00 0.  1.
         21   -1    0    0  503  502  0.00000000000E+00 -0.00000000000E+00 -0.85206523358E+02  0.85206523358E+02  0.00000000000E+00 0.  1.
         21    1    1    2  503  504 -0.31910689724E+02 -0.48194913223E+01 -0.44343743951E+02  0.54844208836E+02  0.00000000000E+00 0.  1.
         21    1    1    2  504  501 -0.34036167147E+02  0.28085271909E+01  0.22685821135E+03  0.22941446457E+03  0.00000000000E+00 0. -1.
         21    1    1    2  505  502  0.13987079361E+03  0.56935085546E+02  0.14305800202E+03  0.20801690992E+03  0.00000000000E+00 0.  1.
          1    1    1    2  501    0 -0.73923936736E+02 -0.54924121415E+02  0.11412125744E+04  0.11449225072E+04  0.00000000000E+00 0.  1.
<scales pt_clust_3="32.27258" pt_clust_4="32.56529" pt_clust_5="122.59630" pt_clust_6="32.56529"></scales>
<clustering>
<clus scale="   32.273">  2  3  1 -1</clus>
<clus scale="   32.565">  4  6 -1 -1</clus>
<clus scale="  122.596">  2  5  1 -1</clus>
<clus scale="   32.273">  2  3  1 -1</clus>
</clustering>
</event>
<event>
 6    0  0.2117869E+002  0.8116716E+02  0.7546771E-02  0.1325771E+00
         21   -1    0    0  503  502  0.00000000000E+00  0.00000000000E+00  0.15811956346E+04  0.15811956346E+04  0.00000000000E+00 0.  1.
         -3   -1    0    0    0  501 -0.00000000000E+00 -0.00000000000E+00 -0.24976756381E+04  0.24976756381E+04  0.00000000000E+00 0.  1.
         21    1    1    2  503  505 -0.80073747465E+02 -0.77685182919E+02  0.33039367260E+01  0.11161410608E+03  0.00000000000E+00 0. -1.
         21    1    1    2  504  502  0.16677241935E+01  0.59049793896E+02  0.15184471137E+04  0.15195957675E+04  0.00000000000E+00 0.  1.
         21    1    1    2  505  501  0.20482530088E+02  0.57458933775E+02 -0.21904954942E+03  0.22738462616E+03  0.00000000000E+00 0.  1.
         -3    1    1    2    0  504  0.57923493183E+02 -0.38823544752E+02 -0.22191815045E+04  0.22202767729E+04  0.00000000000E+00 0.  1.
<scales pt_clust_3="14000.00000" pt_clust_4="59.07334" pt_clust_5="64.77792" pt_clust_6="81.16716"></scales>
<clustering>
<clus scale="   59.073">  1  4  2 -1</clus>
<clus scale="   64.778">  2  5  1 -1</clus>
<clus scale="   81.167">  2  6  1 -1</clus>
<clus scale="   59.073">  1  3  2 -1</clus>
</clustering>
</event>
<event>
 6    0  0.2117869E+002  0.1301830E+03  0.7546771E-02  0.1227184E+00
         21   -1    0    0  504  502  0.00000000000E+00  0.00000000000E+00  0.38824138297E+03  0.38824138297E+03  0.00000000000E+00 0.  1.
          1   -1    0    0  503    0 -0.00000000000E+00 -0.00000000000E+00 -0.12678700373E+03  0.12678700373E+03  0.00000000000E+00 0. -1.
         21    1    1    2  503  505  0.37894915439E+02 -0.52990212199E+01 -0.46952372925E+02  0.60569213015E+02  0.00000000000E+00 0. -1.
         21    1    1    2  504  501  0.29155234483E+02  0.13428937789E+02  0.69331018316E+02  0.76401270727E+02  0.00000000000E+00 0.  1.
         21    1    1    2  505  502  0.76336387101E+01  0.11684262617E+03  0.19229360484E+03  0.22513840675E+03  0.00000000000E+00 0.  1.
          1    1    1    2  501    0 -0.74683788632E+02 -0.12497254274E+03  0.46782129015E+02  0.15291949620E+03  0.00000000000E+00 0. -1.
<scales pt_clust_3="38.84862" pt_clust_4="32.09928" pt_clust_5="14000.00000" pt_clust_6="130.18302"></scales>
<clustering>
<clus scale="   32.099">  1  4  2 -1</clus>
<clus scale="   38.849">  2  3  1 -1</clus>
<clus scale="  130.183">  2  6  1 -1</clus>
<clus scale="   32.099">  1  3  2 -1</clus>
</clustering>
</event>
<event>
 6    0  0.2117869E+002  0.5823070E+02  0.7546771E-02  0.1405410E+00
         21   -1    0    0  505  502  0.00000000000E+00  0.00000000000E+00  0.24840710074E+03  0.24840710074E+03  0.00000000000E+00 0.  1.
          2   -1    0    0  504    0 -0.00000000000E+00 -0.00000000000E+00 -0.23462988206E+03  0.23462988206E+03  0.00000000000E+00 0.  1.
         21    1    1    2  503  502  0.57692211700E+02  0.56625516410E+02  0.12440242704E+03  0.14836038640E+03  0.00000000000E+00 0. -1.
         21    1    1    2  504  503  0.23957568370E+01  0.38188349959E+02 -0.34819772581E+02  0.51734961931E+02  0.00000000000E+00 0. -1.
         21    1    1    2  505  501 -0.53709932018E+02 -0.32287131998E+01  0.83348004834E+02  0.99207213932E+02  0.00000000000E+00 0.  1.
          2    1    1    2  501    0 -0.63780365186E+01 -0.91585153169E+02 -0.15915344062E+03  0.18373442054E+03  0.00000000000E+00 0.  1.
<scales pt_clust_3="14000.00000" pt_clust_4="38.26343" pt_clust_5="53.63592" pt_clust_6="58.23070"></scales>
<clustering>
<clus scale="   38.263">  2  4  1 -1</clus>
<clus scale="   53.636">  1  5  2 -1</clus>
<clus scale="   58.231">  2  6  1 -1</clus>
<clus scale="   53.636">  1  3  2 -1</clus>
</clustering>
</event>
<event>
 6    0  0.2117869E+002  0.9645960E+02  0.7546771E-02  0.1287922E+00
         21   -1    0    0  503  502  0.00000000000E+00  0.00000000000E+00  0.35560291706E+03  0.35560291706E+03  0.00000000000E+00 0. -1.
          1   -1    0    0  504    0 -0.00000000000E+00 -0.00000000000E+00 -0.41606904268E+03  0.41606904268E+03  0.00000000000E+00 0. -1.
         21    1    1    2  503  501  0.78712483443E+02 -0.35182917610E+02  0.19700013106E+03  0.21504079701E+03  0.00000000000E+00 0. -1.
         21    1    1    2  504  505  0.42940562613E+02 -0.25132813018E+02  0.95537638960E+01  0.50663839297E+02  0.00000000000E+00 0. -1.
         21    1    1    2  505  502 -0.28908695984E+02  0.32641156450E+02  0.10915478608E+03  0.11754116353E+03  0.00000000000E+00 0. -1.
          1    1    1    2  501    0 -0.92744350072E+02  0.27674574178E+02 -0.37617480667E+03  0.38842615991E+03  0.00000000000E+00 0. -1.
<scales pt_clust_3="96.45960" pt_clust_4="44.63668" pt_clust_5="43.60227" pt_clust_6="14000.00000"></scales>
<clustering>
<clus scale="   43.602">  1  5  2 -1</clus>
<clus scale="   44.637">  1  4  2 -1</clus>
<clus scale="   96.460">  1  3  2 -1</clus>
<clus scale="   43.602">  1  3  2 -1</clus>
</clustering>
</event>
<event>
 6    0  0.2117869E+002  0.2256933E+03  0.7546771E-02  0.1129708E+00
          2   -1    0    0  504    0 -0.00000000000E+00  0.00000000000E+00  0.70559681245E+03  0.70559681245E+03  0.00000000000E+00 0. -1.
         21   -1    0    0  503  502  0.00000000000E+00 -0.00000000000E+00 -0.68554894359E+03  0.68554894359E+03  0.00000000000E+00 0.  1.
         21    1    1    2  503  505 -0.19784315979E+02  0.39241585440E+02 -0.29718705496E+03  0.30041881902E+03  0.00000000000E+00 0.  1.
         21    1    1    2  504  502 -0.44177461905E+02 -0.81810585752E+01  0.10058783118E+03  0.11016573715E+03  0.00000000000E+00 0.  1.
         21    1    1    2  505  501 -0.33967261936E+02  0.18304597934E+03 -0.33361559551E+03  0.38204577082E+03  0.00000000000E+00 0.  1.
          2    1    1    2  501    0  0.97929039819E+02 -0.21410650620E+03  0.55026268815E+03  0.59851542905E+03  0.00000000000E+00 0. -1.
<scales pt_clust_3="43.94680" pt_clust_4="45.08402" pt_clust_5="14000.00000" pt_clust_6="225.69325"></scales>
<clustering>
<clus scale="   43.947">  2  3  1 -1</clus>
<clus scale="   45.084">  1  4  2 -1</clus>
<clus scale="  225.693">  1  6  2 -1</clus>
<clus scale="   43.947">  2  3  1 -1</clus>
</clustering>
</event>
<event>
 6    0  0.2117869E+002  0.1853058E+03  0.7546771E-02  0.1162765E+00
          2   -1    0    0  503    0 -0.00000000000E+00  0.00000000000E+00  0.10802629680E+04  0.10802629680E+04  0.00000000000E+00 0. -1.
         21   -1    0    0  505  502  0.00000000000E+00 -0.00000000000E+00 -0.21316614108E+03  0.21316614108E+03  0.00000000000E+00 0. -1.
         21    1    1    2  503  504 -0.84599935302E+02 -0.79370166564E+02  0.15092657435E+03  0.19035651615E+03  0.00000000000E+00 0. -1.
         21    1    1    2  504  502 -0.66274078264E+02 -0.18213497477E+03 -0.94992358470E+02  0.21584473737E+03  0.00000000000E+00 0. -1.
         21    1    1    2  505  501  0.77837957626E+02  0.13725422879E+03  0.17800001441E+03  0.23786861100E+03  0.00000000000E+00 0. -1.
          2    1    1    2  501    0  0.73036055940E+02  0.12425091254E+03  0.63316259660E+03  0.64935924454E+03  0.00000000000E+00 0. -1.
<scales pt_clust_3="116.00333" pt_clust_4="185.30578" pt_clust_5="14000.00000" pt_clust_6="69.59809"></scales>
<clustering>
<clus scale="  116.003">  1  3  2 -1</clus>
<clus scale="   69.598">  1  6  2 -1</clus>
<clus scale="  185.306">  2  4  1 -1</clus>
<clus scale="  185.306">  2  3  1 -1</clus>
</clustering>
</event>
<event>
 6    0  0.2117869E+002  0.6080647E+02  0.7546771E-02  0.1394478E+00
          2   -1    0    0  503    0 -0.00000000000E+00  0.00000000000E+00  0.93440989450E+03  0.93440989450E+03  0.00000000000E+00 0.  1.
         21   -1    0    0  505  502  0.00000000000E+00 -0.00000000000E+00 -0.32980379952E+03  0.32980379952E+03  0.00000000000E+00 0. -1.
         21    1    1    2  503  504  0.18894031082E+02 -0.36411908229E+02  0.25535152344E+02  0.48320342265E+02  0.00000000000E+00 0.  1.
         21    1    1    2  504  502 -0.42782130643E+02  0.26947692370E+02 -0.18822986167E+03  0.19490246189E+03  0.00000000000E+00 0. -1.
         21    1    1    2  505  501  0.54408100212E+02 -0.82257962202E+02 -0.10459122312E+03  0.14375652217E+03  0.00000000000E+00 0. -1.
          2    1    1    2  501    0 -0.30520000651E+02  0.91722178061E+02  0.87189202742E+03  0.87723436770E+03  0.00000000000E+00 0.  1.
<scales pt_clust_3="41.02209" pt_clust_4="50.43022" pt_clust_5="14000.00000" pt_clust_6="60.80647"></scales>
<clustering>
<clus scale="   41.022">  1  3  2 -1</clus>
<clus scale="   50.430">  2  4  1 -1</clus>
<clus scale="   60.806">  1  6  2 -1</clus>
<clus scale="   50.430">  2  3  1 -1</clus>
</clustering>
</event>
<event>
 6    0  0.2117869E+002  0.9822558E+02  0.7546771E-02  0.1284072E+00
         21   -1    0    0  505  502  0.00000000000E+00  0.00000000000E+00  0.43508123152E+03  0.43508123152E+03  0.00000000000E+00 0. -1.
          2   -1    0    0  503    0 -0.00000000000E+00 -0.00000000000E+00 -0.28065191025E+03  0.28065191025E+03  0.00000000000E+00 0. -1.
         21    1    1    2  503  504  0.28310593172E+02 -0.19526520986E+02 -0.98889695240E+01  0.35785002806E+02  0.00000000000E+00 0. -1.
         21    1    1    2  504  502  0.63373140589E+02  0.39256640902E+01  0.20591386786E+02  0.66750063643E+02  0.00000000000E+00 0. -1.
         21    1    1    2  505  501 -0.38294905759E+02 -0.59377623154E+02  0.36592818912E+03  0.37268705576E+03  0.00000000000E+00 0. -1.
          2    1    1    2  501    0 -0.53388828002E+02  0.74978480050E+02 -0.22220128511E+03  0.24051101956E+03  0.00000000000E+00 0. -1.
<scales pt_clust_3="30.78414" pt_clust_4="30.78414" pt_clust_5="70.65552" pt_clust_6="88.87440"></scales>
<clustering>
<clus scale="   30.784">  3  4 -1 -1</clus>
<clus scale="   70.656">  1  5  2 -1</clus>
<clus scale="   88.874">  2  6  1 -1</clus>
<clus scale="   70.656">  1  3  2 -1</clus>
</clustering>
</event>
<event>
 6    0  0.2117869E+002  0.9165243E+02  0.7546771E-02  0.1298899E+00
         21   -1    0    0  504  502  0.00000000000E+00  0.00000000000E+00  0.58450918851E+03  0.58450918851E+03  0.00000000000E+00 0. -1.
         -1   -1    0    0    0  501 -0.00000000000E+00 -0.00000000000E+00 -0.96779684449E+02  0.96779684449E+02  0.00000000000E+00 0. -1.
         21    1    1    2  503  502 -0.87162488812E+02  0.83391946178E+02  0.45487009834E+03  0.47059358528E+03  0.00000000000E+00 0. -1.
         21    1    1    2  504  505  0.10780728674E+02 -0.34692959210E+02  0.47595022784E+02  0.59875802486E+02  0.00000000000E+00 0.  1.
         21    1    1    2  505  501  0.46009325890E+02  0.36896590013E+02 -0.11739905423E+01  0.58988089283E+02  0.00000000000E+00 0. -1.
         -1    1    1    2    0  503  0.30372434248E+02 -0.85595576981E+02 -0.13561626521E+02  0.91831395909E+02  0.00000000000E+00 0. -1.
<scales pt_clust_3="91.65243" pt_clust_4="36.32940" pt_clust_5="58.28148" pt_clust_6="14000.00000"></scales>
<clustering>
<clus scale="   36.329">  1  4  2 -1</clus>
<clus scale="   58.281">  2  5  1 -1</clus>
<clus scale="   91.652">  1  3  2 -1</clus>
<clus scale="   36.329">  1  3  2 -1</clus>
</clustering>
</event>
<event>
 6    0  0.2117869E+002  0.1149830E+03  0.7546771E-02  0.1251611E+00
          2   -1    0    0  503    0 -0.00000000000E+00  0.00000000000E+00  0.24820933386E+04  0.24820933386E+04  0.00000000000E+00 0. -1.
         21   -1    0    0  504  502  0.00000000000E+00 -0.00000000000E+00 -0.22640398024E+02  0.22640398024E+02  0.00000000000E+00 0. -1.
         21    1    1    2  503  502 -0.62446782289E+01 -0.10006922298E+03  0.34901259997E+03  0.36312895827E+03  0.00000000000E+00 0. -1.
         21    1    1    2  504  505  0.71390822825E+02  0.25725107624E+02  0.13467878085E+03  0.15458591384E+03  0.00000000000E+00 0. -1.
         21    1    1    2  505  501  0.36816974537E+02  0.37479425260E+02  0.16833072564E+03  0.17633896372E+03  0.00000000000E+00 0. -1.
          2    1    1    2  501    0 -0.10196311913E+03  0.36864690094E+02  0.18074308341E+04  0.18106799008E+04  0.00000000000E+00 0. -1.
<scales pt_clust_3="100.26388" pt_clust_4="37.14394" pt_clust_5="37.14394" pt_clust_6="105.96373"></scales>
<clustering>
<clus scale="   37.144">  4  5 -1 -1</clus>
<clus scale="  100.264">  2  3  1 -1</clus>
<clus scale="  105.964">  1  6  2 -1</clus>
<clus scale="  100.264">  2  3  1 -1</clus>
</clustering>
</event>
<event>
 6    0  0.2117869E+002  0.1605979E+03  0.7546771E-02  0.1188023E+00
          3   -1    0    0  504    0 -0.00000000000E+00  0.00000000000E+00  0.92692315180E+03  0.92692315180E+03  0.00000000000E+00 0. -1.
         21   -1    0    0  503  502  0.00000000000E+00 -0.00000000000E+00 -0.43163583182E+03  0.43163583182E+03  0.00000000000E+00 0. -1.
         21    1    1    2  503  505  0.80280860018E+02 -0.16843690531E+01 -0.21821415414E+02  0.83210743026E+02  0.00000000000E+00 0.  1.
         21    1    1    2  504  502 -0.10132638478E+03  0.15582972724E+02 -0.30538462895E+03  0.32213294909E+03  0.00000000000E+00 0. -1.
         21    1    1    2  505  501 -0.10825853949E+03 -0.11091656800E+03  0.48326529589E+02  0.16235100829E+03  0.00000000000E+00 0. -1.
          3    1    1    2  501    0  0.12930406425E+03  0.97017964332E+02  0.77416683476E+03  0.79086428322E+03  0.00000000000E+00 0. -1.
<scales pt_clust_3="80.29853" pt_clust_4="37.66122" pt_clust_5="14000.00000" pt_clust_6="160.59791"></scales>
<clustering>
<clus scale="   80.299">  2  3  1 -1</clus>
<clus scale="   37.661">  2  4  1 -1</clus>
<clus scale="  160.598">  1  6  2 -1</clus>
<clus scale="   80.299">  2  3  1 -1</clus>
</clustering>
</event>
<event>
 6    0  0.2117869E+002  0.1758319E+03  0.7546771E-02  0.1171899E+00
         21   -1    0    0  503  502  0.00000000000E+00  0.00000000000E+00  0.24162776733E+03  0.24162776733E+03  0.00000000000E+00 0. -1.
          2   -1    0    0  505    0 -0.00000000000E+00 -0.00000000000E+00 -0.16095455997E+04  0.16095455997E+04  0.00000000000E+00 0. -1.
         21    1    1    2  503  501  0.15611367149E+03  0.53167394851E+02  0.21425719420E+02  0.16630487592E+03  0.00000000000E+00 0.  1.
         21    1    1    2  504  502 -0.33251780267E+02  0.78771798832E+02  0.12647174291E+03  0.15266230359E+03  0.00000000000E+00 0. -1.
         21    1    1    2  505  504  0.85914076845E+01 -0.43604821234E+02 -0.13035300590E+03  0.13772109086E+03  0.00000000000E+00 0. -1.
          2    1    1    2  501    0 -0.13145329891E+03 -0.88334372448E+02 -0.13854622888E+04  0.13944850967E+04  0.00000000000E+00 0. -1.
<scales pt_clust_3="175.83185" pt_clust_4="85.11635" pt_clust_5="44.44314" pt_clust_6="14000.00000"></scales>
<clustering>
<clus scale="   44.443">  2  5  1 -1</clus>
<clus scale="   85.116">  1  4  2 -1</clus>
<clus scale="  175.832">  1  3  2 -1</clus>
<clus scale="   85.116">  1  3  2 -1</clus>
</clustering>
</event>
<event>
 6    0  0.2117869E+002  0.1483493E+03  0.7546771E-02  0.1202516E+00
         21   -1    0    0  505  502  0.00000000000E+00  0.00000000000E+00  0.40229293328E+03  0.40229293328E+03  0.00000000000E+00 0.  1.
          2   -1    0    0  503    0 -0.00000000000E+00 -0.00000000000E+00 -0.73820686837E+03  0.73820686837E+03  0.00000000000E+00 0.  1.
         21    1    1    2  503  504  0.24198176801E+02  0.43105122051E+02 -0.43288330723E+03  0.43569663871E+03  0.00000000000E+00 0.  1.
         21    1    1    2  504  502  0.18163427165E+03  0.81479360009E+02  0.21778155512E+03  0.29505711396E+03  0.00000000000E+00 0.  1.
         21    1    1    2  505  501 -0.10191252823E+03 -0.52562210365E+02  0.10205816597E+03  0.15350836658E+03  0.00000000000E+00 0.  1.
          2    1    1    2  501    0 -0.10391992023E+03 -0.72022271694E+02 -0.22287034896E+03  0.25623768241E+03  0.00000000000E+00 0.  1.
<scales pt_clust_3="49.43282" pt_clust_4="148.34927" pt_clust_5="14000.00000" pt_clust_6="92.98600"></scales>
<clustering>
<clus scale="   49.433">  2  3  1 -1</clus>
<clus scale="   92.986">  2  6  1 -1</clus>
<clus scale="  148.349">  2  4  1 -1</clus>
<clus scale="  148.349">  1  3  2 -1</clus>
</clustering>
</event>
<event>
 6    0  0.2117869E+002  0.1570347E+03  0.7546771E-02  0.1192086E+00
          2   -1    0    0  504    0 -0.00000000000E+00  0.00000000000E+00  0.30929126814E+04  0.30929126814E+04  0.00000000000E+00 0.  1.
         21   -1    0    0  501  502  0.00000000000E+00 -0.00000000000E+00 -0.37506534035E+03  0.37506534035E+03  0.00000000000E+00 0. -1.
         21    1    1    2  503  505 -0.11695355255E+03  0.79946263405E+02  0.89427701551E+02  0.16753164564E+03  0.00000000000E+00 0. -1.
         21    1    1    2  504  503 -0.28703532277E+02  0.15186354097E+02  0.23006030598E+03  0.23234083262E+03  0.00000000000E+00 0.  1.
         21    1    1    2  505  502  0.52539665179E+01  0.30408193082E+02 -0.33090973229E+03  0.33234547280E+03  0.00000000000E+00 0. -1.
          2    1    1    2  501    0  0.14040311831E+03 -0.12554081058E+03  0.27292690658E+04  0.27357600707E+04  0.00000000000E+00 0.  1.
<scales pt_clust_3="157.03471" pt_clust_4="32.73379" pt_clust_5="30.85875" pt_clust_6="14000.00000"></scales>
<clustering>
<clus scale="   30.859">  2  5  1 -1</clus>
<clus scale="   32.734">  1  4  2 -1</clus>
<clus scale="  157.035">  2  3  1 -1</clus>
<clus scale="   30.859">  2  3  1 -1</clus>
</clustering>
</event>
<event>
 6    0  0.2117869E+002  0.2340577E+03  0.7546771E-02  0.1123816E+00
          1   -1    0    0  505    0 -0.00000000000E+00  0.00000000000E+00  0.12269300997E+04  0.12269300997E+04  0.00000000000E+00 0.  1.
         21   -1    0    0  503  502  0.00000000000E+00 -0.00000000000E+00 -0.21343646018E+03  0.21343646018E+03  0.00000000000E+00 0.  1.
         21    1    1    2  503  501  0.36049453262E+02  0.86799138549E+02 -0.58181429455E+02  0.11053837463E+03  0.00000000000E+00 0.  1.
         21    1    1    2  504  502 -0.15319700448E+03  0.12608212610E+03 -0.26510103557E+02  0.20017195182E+03  0.00000000000E+00 0.  1.
         21    1    1    2  505  504 -0.17452633267E+02 -0.26080524893E+02  0.19911671899E+03  0.20157444275E+03  0.00000000000E+00 0. -1.
          1    1    1    2  501    0  0.13460018448E+03 -0.18680073976E+03  0.89906845355E+03  0.92808179069E+03  0.00000000000E+00 0.  1.
<scales pt_clust_3="93.20274" pt_clust_4="234.05769" pt_clust_5="31.38134" pt_clust_6="14000.00000"></scales>
<clustering>
<clus scale="   31.381">  1  5  2 -1</clus>
<clus scale="   93.203">  2  3  1 -1</clus>
<clus scale="  234.058">  2  4  1 -1</clus>
<clus scale="   93.203">  2  3  1 -1</clus>
</clustering>
</event>
<event>
 6    0  0.2117869E+002  0.1038335E+03  0.7546771E-02  0.1272435E+00
         21   -1    0    0  503  502  0.00000000000E+00  0.00000000000E+00  0.98378838797E+03  0.98378838797E+03  0.00000000000E+00 0.  1.
          2   -1    0    0  504    0 -0.00000000000E+00 -0.00000000000E+00 -0.22376200132E+03  0.22376200132E+03  0.00000000000E+00 0.  1.
         21    1    1    2  503  505 -0.17096673382E+02 -0.39168226056E+02  0.72724422380E+03  0.72849887249E+03  0.00000000000E+00 0.  1.
         21    1    1    2  504  502 -0.48842301091E+02  0.46900283766E+02  0.19464643131E+03  0.20608842814E+03  0.00000000000E+00 0.  1.
         21    1    1    2  505  501 -0.65066337558E+02  0.12708087207E+02 -0.34532018545E+01  0.66385603611E+02  0.00000000000E+00 0.  1.
          2    1    1    2  501    0  0.13100531203E+03 -0.20440144917E+02 -0.15841106660E+03  0.20657748505E+03  0.00000000000E+00 0.  1.
<scales pt_clust_3="42.73694" pt_clust_4="64.31065" pt_clust_5="103.83349" pt_clust_6="14000.00000"></scales>
<clustering>
<clus scale="   42.737">  1  3  2 -1</clus>
<clus scale="   64.311">  1  4  2 -1</clus>
<clus scale="  103.833">  1  5  2 -1</clus>
<clus scale="   42.737">  1  3  2 -1</clus>
</clustering>
</event>
<event>
 6    0  0.2117869E+002  0.6375555E+02  0.7546771E-02  0.1382715E+00
         -1   -1    0    0    0  501 -0.00000000000E+00  0.00000000000E+00  0.10285851909E+04  0.10285851909E+04  0.00000000000E+00 0. -1.
         21   -1    0    0  504  502  0.00000000000E+00 -0.00000000000E+00 -0.21009857942E+03  0.21009857942E+03  0.00000000000E+00 0.  1.
         21    1    1    2  503  501  0.39195154632E+02  0.31780601253E+02  0.45344057430E+03  0.45623965324E+03  0.00000000000E+00 0.  1.
         21    1    1    2  504  503  0.58232235705E+02  0.63610133673E+02  0.10556398216E+03  0.13631212973E+03  0.00000000000E+00 0.  1.
         21    1    1    2  505  502 -0.36111108803E+02 -0.21977408654E+02 -0.18587373375E+03  0.19062020766E+03  0.00000000000E+00 0.  1.
         -1    1    1    2    0  505 -0.61316281535E+02 -0.73413326272E+02  0.44535578875E+03  0.45551177968E+03  0.00000000000E+00 0. -1.
<scales pt_clust_3="47.77893" pt_clust_4="63.75555" pt_clust_5="42.27314" pt_clust_6="14000.00000"></scales>
<clustering>
<clus scale="   42.273">  2  5  1 -1</clus>
<clus scale="   47.779">  1  3  2 -1</clus>
<clus scale="   63.756">  2  4  1 -1</clus>
<clus scale="   42.273">  2  3  1 -1</clus>
</clustering>
</event>
<event>
 6    0  0.2117869E+002  0.2336178E+03  0.7546771E-02  0.1124119E+00
         21   -1    0    0  504  502  0.00000000000E+00  0.00000000000E+00  0.89882213619E+02  0.89882213619E+02  0.00000000000E+00 0.  1.
          1   -1    0    0  503    0 -0.00000000000E+00 -0.00000000000E+00 -0.13548131684E+04  0.13548131684E+04  0.00000000000E+00 0.  1.
         21    1    1    2  503  505  0.21802046443E+02  0.33769366289E+02 -0.49382717056E+03  0.49546036543E+03  0.00000000000E+00 0.  1.
         21    1    1    2  504  501  0.26298080126E+02  0.22626143364E+02 -0.21789384269E+02  0.40967165495E+02  0.00000000000E+00 0. -1.
         21    1    1    2  505  502 -0.50018467740E+02 -0.26035317623E+03 -0.23235583196E+03  0.35252639069E+03  0.00000000000E+00 0.  1.
          1    1    1    2  501    0  0.19183411716E+01  0.20395766658E+03 -0.51695856801E+03  0.55574146042E+03  0.00000000000E+00 0.  1.
<scales pt_clust_3="40.53428" pt_clust_4="34.69195" pt_clust_5="233.61782" pt_clust_6="14000.00000"></scales>
<clustering>
<clus scale="   34.692">  1  4  2 -1</clus>
<clus scale="   40.534">  2  3  1 -1</clus>
<clus scale="  233.618">  1  5  2 -1</clus>
<clus scale="   34.692">  1  3  2 -1</clus>
</clustering>
</event>
<event>
 6    0  0.2117869E+002  0.9268011E+02  0.7546771E-02  0.1296488E+00
          2   -1    0    0  504    0 -0.00000000000E+00  0.00000000000E+00  0.19320201385E+03  0.19320201385E+03  0.00000000000E+00 0. -1.
         21   -1    0    0  503  502  0.00000000000E+00 -0.00000000000E+00 -0.53555586221E+03  0.53555586221E+03  0.00000000000E+00 0.  1.
         21    1    1    2  503  501  0.40497149043E+02  0.80342141346E+02 -0.39322017779E+03  0.40338193685E+03  0.00000000000E+00 0.  1.
         21    1    1    2  504  505  0.36490785703E+02  0.36308106487E+02  0.17073928527E+02  0.54234445450E+02  0.00000000000E+00 0. -1.
         21    1    1    2  505  502  0.71612619005E+02 -0.12909627128E+02 -0.30423744599E+02  0.78870970000E+02  0.00000000000E+00 0. -1.
          2    1    1    2  501    0 -0.14860055375E+03 -0.10374062071E+03  0.64216145506E+02  0.19227052375E+03  0.00000000000E+00 0. -1.
<scales pt_clust_3="14000.00000" pt_clust_4="51.47675" pt_clust_5="77.57005" pt_clust_6="92.68011"></scales>
<clustering>
<clus scale="   51.477">  1  4  2 -1</clus>
<clus scale="   77.570">  1  5  2 -1</clus>
<clus scale="   92.680">  1  6  2 -1</clus>
<clus scale="   92.680">  2  3  1 -1</clus>
</clustering>
</event>
<event>
 6    0  0.2117869E+002  0.2378703E+03  0.7546771E-02  0.1121220E+00
         21   -1    0    0  505  502  0.00000000000E+00  0.00000000000E+00  0.51498868955E+03  0.51498868955E+03  0.00000000000E+00 0. -1.
          1   -1    0    0  504    0 -0.00000000000E+00 -0.00000000000E+00 -0.10853321564E+04  0.10853321564E+04  0.00000000000E+00 0. -1.
         21    1    1    2  503  502 -0.16111638741E+03 -0.18531905137E+03  0.40193279064E+03  0.47101126238E+03  0.00000000000E+00 0. -1.
         21    1    1    2  504  503 -0.33498071862E+02 -0.15350934723E+02 -0.60951067713E+02  0.71223624387E+02  0.00000000000E+00 0.  1.
         21    1    1    2  505  501  0.79366195438E+02  0.19620202783E+03 -0.92159965033E+02  0.23084126117E+03  0.00000000000E+00 0.  1.
          1    1    1    2  501    0  0.11524826383E+03  0.44679582585E+01 -0.81916522475E+03  0.82724469802E+03  0.00000000000E+00 0. -1.
<scales pt_clust_3="14000.00000" pt_clust_4="36.84796" pt_clust_5="237.87028" pt_clust_6="88.54899"></scales>
<clustering>
<clus scale="   36.848">  2  4  1 -1</clus>
<clus scale="   88.549">  2  6  1 -1</clus>
<clus scale="  237.870">  2  5  1 -1</clus>
<clus scale="  237.870">  1  3  2 -1</clus>
</clustering>
</event>
<event>
 6    0  0.2117869E+002  0.1527455E+03  0.7546771E-02  0.1197139E+00
         21   -1    0    0  501  502  0.00000000000E+00  0.00000000000E+00  0.97462161785E+02  0.97462161785E+02  0.00000000000E+00 0. -1.
          1   -1    0    0  505    0 -0.00000000000E+00 -0.00000000000E+00 -0.63741307461E+03  0.63741307461E+03  0.00000000000E+00 0. -1.
         21    1    1    2  503  502  0.25191871009E+02  0.38088002694E+02  0.26756871377E+02  0.52926897510E+02  0.00000000000E+00 0. -1.
         21    1    1    2  504  503  0.63863756229E+01  0.13419546422E+03 -0.77454641815E+02  0.15507556207E+03  0.00000000000E+00 0. -1.
         21    1    1    2  505  504  0.24880277978E+02 -0.36794750332E+02 -0.72473309346E+02  0.85001543820E+02  0.00000000000E+00 0. -1.
          1    1    1    2  501    0 -0.56458524610E+02 -0.13548871658E+03 -0.41677983304E+03  0.44187123300E+03  0.00000000000E+00 0. -1.
<scales pt_clust_3="45.27827" pt_clust_4="14000.00000" pt_clust_5="44.41714" pt_clust_6="152.74552"></scales>
<clustering>
<clus scale="   44.417">  2  5  1 -1</clus>
<clus scale="   45.278">  1  3  2 -1</clus>
<clus scale="  152.746">  2  6  1 -1</clus>
<clus scale="   45.278">  1  3  2 -1</clus>
</clustering>
</event>
<event>
 6    0  0.2117869E+002  0.1171100E+03  0.7546771E-02  0.1247942E+00
         21   -1    0    0  503  502  0.00000000000E+00  0.00000000000E+00  0.51241818478E+02  0.51241818478E+02  0.00000000000E+00 0.  1.
          1   -1    0    0  504    0 -0.00000000000E+00 -0.00000000000E+00 -0.18722526617E+04  0.18722526617E+04  0.00000000000E+00 0. -1.
         21    1    1    2  503  501 -0.32258543563E+02  0.76715051202E+01 -0.19599190660E+02  0.38517449269E+02  0.00000000000E+00 0. -1.
         21    1    1    2  504  505 -0.64622491723E+02 -0.45590477730E+02 -0.35492362656E+03  0.36362802255E+03  0.00000000000E+00 0.  1.
         21    1    1    2  505  502 -0.14557957451E+02 -0.66558070562E+02 -0.13344559344E+01  0.68144637755E+02  0.00000000000E+00 0.  1.
          1    1    1    2  501    0  0.11143899274E+03  0.10447704317E+03 -0.14451535701E+04  0.14532043706E+04  0.00000000000E+00 0. -1.
<scales pt_clust_3="33.15819" pt_clust_4="14000.00000" pt_clust_5="72.65778" pt_clust_6="117.11001"></scales>
<clustering>
<clus scale="   33.158">  1  3  2 -1</clus>
<clus scale="   72.658">  1  5  2 -1</clus>
<clus scale="  117.110">  2  6  1 -1</clus>
<clus scale="   33.158">  1  3  2 -1</clus>
</clustering>
</event>
<event>
 6    0  0.2117869E+002  0.8043978E+02  0.7546771E-02  0.1327808E+00
         -2   -1    0    0    0  501 -0.00000000000E+00  0.00000000000E+00  0.35459867177E+03  0.35459867177E+03  0.00000000000E+00 0. -1.
         21   -1    0    0  503  502  0.00000000000E+00 -0.00000000000E+00 -0.54743223032E+03  0.54743223032E+03  0.00000000000E+00 0.  1.
         21    1    1    2  503  501 -0.27673252745E+01  0.31595661518E+02  0.13157558772E+03  0.13534429874E+03  0.00000000000E+00 0. -1.
         21    1    1    2  504  502  0.24286271390E+02  0.30718822111E+02 -0.35700910353E+03  0.35915034319E+03  0.00000000000E+00 0.  1.
         21    1    1    2  505  504 -0.73135121792E+02  0.32294926908E+02 -0.16449804680E+03  0.18289700857E+03  0.00000000000E+00 0. -1.
         -2    1    1    2    0  505  0.51616175676E+02 -0.94609410536E+02  0.19709800406E+03  0.22463925159E+03  0.00000000000E+00 0. -1.
<scales pt_clust_3="31.71662" pt_clust_4="39.27136" pt_clust_5="14000.00000" pt_clust_6="80.43978"></scales>
<clustering>
<clus scale="   31.717">  1  3  2 -1</clus>
<clus scale="   39.271">  2  4  1 -1</clus>
<clus scale="   80.440">  1  6  2 -1</clus>
<clus scale="   39.271">  2  3  1 -1</clus>
</clustering>
</event>
<event>
 6    0  0.2117869E+002  0.8603607E+02  0.7546771E-02  0.1312745E+00
          2   -1    0    0  504    0 -0.00000000000E+00  0.00000000000E+00  0.20382457716E+04  0.20382457716E+04  0.00000000000E+00 0. -1.
         21   -1    0    0  501  502  0.00000000000E+00 -0.00000000000E+00 -0.16374262835E+03  0.16374262835E+03  0.00000000000E+00 0. -1.
         21    1    1    2  503  502 -0.23973890875E+02  0.36928569365E+02 -0.14823949156E+03  0.15463962474E+03  0.00000000000E+00 0. -1.
         21    1    1    2  504  505  0.43288644948E+01  0.40206681105E+02  0.19682448464E+03  0.20093579578E+03  0.00000000000E+00 0. -1.
         21    1    1    2  505  503 -0.44864316244E+02 -0.93209670314E+02  0.27096781673E+03  0.29004207835E+03  0.00000000000E+00 0. -1.
          2    1    1    2  501    0  0.64509342624E+02  0.16074419844E+02  0.15549503334E+04  0.15563709011E+04  0.00000000000E+00 0. -1.
<scales pt_clust_3="44.08261" pt_clust_4="40.43904" pt_clust_5="14000.00000" pt_clust_6="86.03607"></scales>
<clustering>
<clus scale="   40.439">  1  4  2 -1</clus>
<clus scale="   44.083">  2  3  1 -1</clus>
<clus scale="   86.036">  1  6  2 -1</clus>
<clus scale="   44.083">  2  3  1 -1</clus>
</clustering>
</event>
<event>
 6    0  0.2117869E+002  0.9858600E+02  0.7546771E-02  0.1283298E+00
          2   -1    0    0  505    0 -0.00000000000E+00  0.00000000000E+00  0.26709801096E+04  0.26709801096E+04  0.00000000000E+00 0. -1.
         21   -1    0    0  503  502  0.00000000000E+00 -0.00000000000E+00 -0.11933610089E+03  0.11933610089E+03  0.00000000000E+00 0.  1.
         21    1    1    2  503  501  0.10163738309E+03  0.12419828230E+03 -0.38776150238E+02  0.16510287943E+03  0.00000000000E+00 0.  1.
         21    1    1    2  504  502 -0.25122189937E+02 -0.60486519901E+02  0.50256171222E+02  0.82555594982E+02  0.00000000000E+00 0.  1.
         21    1    1    2  505  504 -0.35929091996E+02 -0.13274675110E+02  0.49922379072E+03  0.50069103235E+03  0.00000000000E+00 0. -1.
          2    1    1    2  501    0 -0.40586101153E+02 -0.50437087294E+02  0.20409401970E+04  0.20419667037E+04  0.00000000000E+00 0. -1.
<scales pt_clust_3="14000.00000" pt_clust_4="66.29821" pt_clust_5="38.30296" pt_clust_6="98.58600"></scales>
<clustering>
<clus scale="   38.303">  1  5  2 -1</clus>
<clus scale="   66.298">  2  4  1 -1</clus>
<clus scale="   98.586">  1  6  2 -1</clus>
<clus scale="   66.298">  2  3  1 -1</clus>
</clustering>
</event>
<event>
 6    0  0.2117869E+002  0.1083799E+03  0.7546771E-02  0.1263600E+00
         21   -1    0    0  504  502  0.00000000000E+00  0.00000000000E+00  0.94870201149E+03  0.94870201149E+03  0.00000000000E+00 0.  1.
          2   -1    0    0  505    0 -0.00000000000E+00 -0.00000000000E+00 -0.11571419952E+03  0.11571419952E+03  0.00000000000E+00 0.  1.
         21    1    1    2  503  502 -0.40084141764E+02 -0.55854376916E+02  0.14822073067E+03  0.16338860071E+03  0.00000000000E+00 0.  1.
         21    1    1    2  504  501 -0.82395801685E+01  0.15602024898E+03  0.74545570979E+03  0.76165242994E+03  0.00000000000E+00 0.  1.
         21    1    1    2  505  503  0.31689389465E+02 -0.22713116521E+02  0.95165109621E+00  0.39000111622E+02  0.00000000000E+00 0.  1.
          2    1    1    2  501    0  0.16634332468E+02 -0.77452755542E+02 -0.61640279582E+02  0.10037506874E+03  0.00000000000E+00 0.  1.
<scales pt_clust_3="68.81532" pt_clust_4="108.37986" pt_clust_5="38.98850" pt_clust_6="14000.00000"></scales>
<clustering>
<clus scale="   38.988">  2  5  1 -1</clus>
<clus scale="   68.815">  1  3  2 -1</clus>
<clus scale="  108.380">  1  4  2 -1</clus>
<clus scale="   68.815">  1  3  2 -1</clus>
</clustering>
</event>
<event>
 6    0  0.2117869E+002  0.9350503E+02  0.7546771E-02  0.1294579E+00
         21   -1    0    0  503  502  0.00000000000E+00  0.00000000000E+00  0.70030602915E+02  0.70030602915E+02  0.00000000000E+00 0. -1.
          2   -1    0    0  504    0 -0.00000000000E+00 -0.00000000000E+00 -0.10737313801E+04  0.10737313801E+04  0.00000000000E+00 0.  1.
         21    1    1    2  503  501 -0.89718181927E+02 -0.28414298351E+02  0.19669305196E+02  0.96143674186E+02  0.00000000000E+00 0. -1.
         21    1    1    2  504  505 -0.21339228234E+02  0.26567263244E+02 -0.24719792792E+03  0.24953556401E+03  0.00000000000E+00 0.  1.
         21    1    1    2  505  502  0.38804448344E+02 -0.43370247180E+02 -0.93651645891E+02  0.11026057468E+03  0.00000000000E+00 0. -1.
          2    1    1    2  501    0  0.72252961817E+02  0.45217282286E+02 -0.68252050859E+03  0.68782217015E+03  0.00000000000E+00 0.  1.
<scales pt_clust_3="93.50503" pt_clust_4="34.07612" pt_clust_5="53.99295" pt_clust_6="14000.00000"></scales>
<clustering>
<clus scale="   34.076">  2  4  1 -1</clus>
<clus scale="   53.993">  2  5  1 -1</clus>
<clus scale="   93.505">  1  3  2 -1</clus>
<clus scale="   93.505">  1  3  2 -1</clus>
</clustering>
</event>
<event>
 6    0  0.2117869E+002  0.1232394E+03  0.7546771E-02  0.1237847E+00
         21   -1    0    0  504  502  0.00000000000E+00  0.00000000000E+00  0.18722417857E+03  0.18722417857E+03  0.00000000000E+00 0.  1.
         -2   -1    0    0    0  501 -0.00000000000E+00 -0.00000000000E+00 -0.28985718343E+03  0.28985718343E+03  0.00000000000E+00 0.  1.
         21    1    1    2  503  505  0.98784980784E+02  0.26252416165E+02  0.82850383714E+02  0.13157449549E+03  0.00000000000E+00 0.  1.
         21    1    1    2  504  503 -0.64225216773E-01  0.48596977600E+02  0.18962213796E+02  0.52165466631E+02  0.00000000000E+00 0.  1.
         21    1    1    2  505  501  0.44015592018E+02 -0.75464345905E+00 -0.19202407239E+02  0.48027848913E+02  0.00000000000E+00 0.  1.
         -2    1    1    2    0  502 -0.14273634758E+03 -0.74094750306E+02 -0.18524319513E+03  0.24531355097E+03  0.00000000000E+00 0.  1.
<scales pt_clust_3="14000.00000" pt_clust_4="48.62804" pt_clust_5="44.02206" pt_clust_6="123.23945"></scales>
<clustering>
<clus scale="   44.022">  2  5  1 -1</clus>
<clus scale="   48.628">  1  4  2 -1</clus>
<clus scale="  123.239">  2  6  1 -1</clus>
<clus scale="   48.628">  1  3  2 -1</clus>
</clustering>
</event>
<event>
 6    0  0.2117869E+002  0.9274259E+02  0.7546771E-02  0.1296343E+00
          2   -1    0    0  504    0 -0.00000000000E+00  0.00000000000E+00  0.26547700570E+04  0.26547700570E+04  0.00000000000E+00 0. -1.
         21   -1    0    0  505  502  0.00000000000E+00 -0.00000000000E+00 -0.58826172395E+03  0.58826172395E+03  0.00000000000E+00 0.  1.
         21    1    1    2  503  501  0.69206004961E+01  0.38514097405E+02  0.37649432960E+02  0.54302027700E+02  0.00000000000E+00 0. -1.
         21    1    1    2  504  502  0.10510136188E+03 -0.60888845955E+02 -0.69647169157E+02  0.14001598481E+03  0.00000000000E+00 0. -1.
         21    1    1    2  505  503 -0.19588925002E+02  0.29139164174E+02 -0.47361939363E+03  0.47491909510E+03  0.00000000000E+00 0.  1.
          2    1    1    2  501    0 -0.92433037377E+02 -0.67644156237E+01  0.25721254629E+04  0.25737946734E+04  0.00000000000E+00 0. -1.
<scales pt_clust_3="41.01158" pt_clust_4="92.74259" pt_clust_5="35.11149" pt_clust_6="14000.00000"></scales>
<clustering>
<clus scale="   35.111">  2  5  1 -1</clus>
<clus scale="   41.012">  2  3  1 -1</clus>
<clus scale="   92.743">  2  4  1 -1</clus>
<clus scale="   35.111">  2  3  1 -1</clus>
</clustering>
</event>
<event>
 6    0  0.2117869E+002  0.1030115E+03  0.7546771E-02  0.1274088E+00
          2   -1    0    0  504    0 -0.00000000000E+00  0.00000000000E+00  0.24213111321E+04  0.24213111321E+04  0.00000000000E+00 0.  1.
         21   -1    0    0  505  502  0.00000000000E+00 -0.00000000000E+00 -0.57187942166E+02  0.57187942166E+02  0.00000000000E+00 0.  1.
         21    1    1    2  503  502  0.23580782842E+02  0.73921030477E+02  0.16038229865E+03  0.17816524293E+03  0.00000000000E+00 0.  1.
         21    1    1    2  504  503 -0.65319072404E+02 -0.23147373559E+02  0.42178944034E+03  0.42744439885E+03  0.00000000000E+00 0.  1.
         21    1    1    2  505  501  0.70292618589E+02 -0.12517249519E+03  0.71132690273E+02  0.16021568402E+03  0.00000000000E+00 0.  1.
          2    1    1    2  501    0 -0.28554329027E+02  0.74398838276E+02  0.17108187607E+04  0.17126737485E+04  0.00000000000E+00 0.  1.
<scales pt_clust_3="74.18630" pt_clust_4="69.29922" pt_clust_5="103.01146" pt_clust_6="14000.00000"></scales>
<clustering>
<clus scale="   69.299">  1  4  2 -1</clus>
<clus scale="   74.186">  2  3  1 -1</clus>
<clus scale="  103.011">  2  5  1 -1</clus>
<clus scale="   74.186">  2  3  1 -1</clus>
</clustering>
</event>
<event>
 6    0  0.2117869E+002  0.7174021E+02  0.7546771E-02  0.1354273E+00
         21   -1    0    0  503  502  0.00000000000E+00  0.00000000000E+00  0.17358744360E+03  0.17358744360E+03  0.00000000000E+00 0. -1.
          1   -1    0    0  504    0 -0.00000000000E+00 -0.00000000000E+00 -0.28202826634E+03  0.28202826634E+03  0.00000000000E+00 0. -1.
         21    1    1    2  503  501 -0.17473837706E+02 -0.50642720887E+02  0.34258627142E+02  0.63589886906E+02  0.00000000000E+00 0. -1.
         21    1    1    2  504  505  0.52300702990E+02  0.34005086707E+02 -0.13845816909E+03  0.15186301078E+03  0.00000000000E+00 0.  1.
         21    1    1    2  505  502 -0.56888574987E+02  0.74802482281E+02  0.88104543541E+02  0.12881821266E+03  0.00000000000E+00 0. -1.
          1    1    1    2  501    0  0.22061709703E+02 -0.58164848101E+02 -0.92345824332E+02  0.11134459960E+03  0.00000000000E+00 0. -1.
<scales pt_clust_3="53.57257" pt_clust_4="60.13784" pt_clust_5="14000.00000" pt_clust_6="71.74021"></scales>
<clustering>
<clus scale="   53.573">  1  3  2 -1</clus>
<clus scale="   60.138">  2  4  1 -1</clus>
<clus scale="   71.740">  2  6  1 -1</clus>
<clus scale="   53.573">  1  3  2 -1</clus>
</clustering>
</event>
<event>
 6    0  0.2117869E+002  0.5270415E+02  0.7546771E-02  0.1431279E+00
         21   -1    0    0  505  502  0.00000000000E+00  0.00000000000E+00  0.88078905005E+03  0.88078905005E+03  0.00000000000E+00 0.  1.
         -3   -1    0    0    0  501 -0.00000000000E+00 -0.00000000000E+00 -0.15520060208E+04  0.15520060208E+04  0.00000000000E+00 0.  1.
         21    1    1    2  503  502  0.84921393935E+02  0.39815670991E+02  0.65641701111E+03  0.66308387349E+03  0.00000000000E+00 0.  1.
         21    1    1    2  504  501 -0.81589037363E+02 -0.43177751160E+02 -0.95310933573E+02  0.13268482683E+03  0.00000000000E+00 0. -1.
         21    1    1    2  505  504 -0.36433574279E+02 -0.27152779786E+02  0.19944251876E+03  0.20455316442E+03  0.00000000000E+00 0.  1.
         -3    1    1    2    0  503  0.33101217707E+02  0.30514859954E+02 -0.14317655671E+04  0.14324732062E+04  0.00000000000E+00 0.  1.
<scales pt_clust_3="52.70415" pt_clust_4="14000.00000" pt_clust_5="44.48447" pt_clust_6="45.02052"></scales>
<clustering>
<clus scale="   45.021">  2  6  1 -1</clus>
<clus scale="   44.484">  1  5  2 -1</clus>
<clus scale="   52.704">  1  3  2 -1</clus>
<clus scale="   44.484">  1  3  2 -1</clus>
</clustering>
</event>
<event>
 6    0  0.2117869E+002  0.1015256E+03  0.7546771E-02  0.1277120E+00
          2   -1    0    0  505    0 -0.00000000000E+00  0.00000000000E+00  0.21030632119E+04  0.21030632119E+04  0.00000000000E+00 0.  1.
         21   -1    0    0  503  502  0.00000000000E+00 -0.00000000000E+00 -0.39489652613E+02  0.39489652613E+02  0.00000000000E+00 0.  1.
         21    1    1    2  503  501  0.92142534350E+02 -0.44397071397E+02  0.45379104574E+02  0.11189553037E+03  0.00000000000E+00 0.  1.
         21    1    1    2  504  502 -0.24598843042E+02  0.46905409339E+02  0.20547790733E+03  0.21219422920E+03  0.00000000000E+00 0.  1.
         21    1    1    2  505  504  0.35485733975E+02  0.12061387586E+02  0.33567755156E+03  0.33776342758E+03  0.00000000000E+00 0.  1.
          2    1    1    2  501    0 -0.10302942528E+03 -0.14569725527E+02  0.14770389958E+04  0.14806996774E+04  0.00000000000E+00 0.  1.
<scales pt_clust_3="101.52562" pt_clust_4="52.46164" pt_clust_5="37.47952" pt_clust_6="14000.00000"></scales>
<clustering>
<clus scale="   37.480">  1  5  2 -1</clus>
<clus scale="   52.462">  1  4  2 -1</clus>
<clus scale="  101.526">  2  3  1 -1</clus>
<clus scale="  101.526">  2  3  1 -1</clus>
</clustering>
</event>
<event>
 6    0  0.2117869E+002  0.1071652E+03  0.7546771E-02  0.1265911E+00
          2   -1    0    0  503    0 -0.00000000000E+00  0.00000000000E+00  0.83166838722E+03  0.83166838722E+03  0.00000000000E+00 0. -1.
         21   -1    0    0  505  502  0.00000000000E+00 -0.00000000000E+00 -0.89823557852E+03  0.89823557852E+03  0.00000000000E+00 0.  1.
         21    1    1    2  503  504 -0.30843121389E+02 -0.27147986210E+02  0.25747625172E+02  0.48489705034E+02  0.00000000000E+00 0.  1.
         21    1    1    2  504  502 -0.50865316707E+02 -0.88863719017E+02 -0.57824697026E+03  0.58724236872E+03  0.00000000000E+00 0.  1.
         21    1    1    2  505  501  0.31100234066E+02  0.11957630821E+03 -0.29070887480E+03  0.31587555767E+03  0.00000000000E+00 0.  1.
          2    1    1    2  501    0  0.50608204031E+02 -0.35646029812E+01  0.77664102859E+03  0.77829633431E+03  0.00000000000E+00 0. -1.
<scales pt_clust_3="41.08907" pt_clust_4="14000.00000" pt_clust_5="107.16518" pt_clust_6="36.40142"></scales>
<clustering>
<clus scale="   41.089">  1  3  2 -1</clus>
<clus scale="   36.401">  1  6  2 -1</clus>
<clus scale="  107.165">  1  5  2 -1</clus>
<clus scale="  107.165">  2  3  1 -1</clus>
</clustering>
</event>
<event>
 6    0  0.2117869E+002  0.1123078E+03  0.7546771E-02  0.1256355E+00
         21   -1    0    0  504  502  0.00000000000E+00  0.00000000000E+00  0.36422494405E+03  0.36422494405E+03  0.00000000000E+00 0.  1.
          2   -1    0    0  503    0 -0.00000000000E+00 -0.00000000000E+00 -0.73038943334E+03  0.73038943334E+03  0.00000000000E+00 0.  1.
         21    1    1    2  503  505 -0.10897811868E+02 -0.73407610247E+02 -0.11336942810E+03  0.13549932389E+03  0.00000000000E+00 0. -1.
         21    1    1    2  504  501 -0.36637415506E+02 -0.25828341221E+02  0.32382422703E+03  0.32691211883E+03  0.00000000000E+00 0.  1.
         21    1    1    2  505  502  0.21169003530E+02 -0.41109046621E+02 -0.92713564645E+01  0.47159712417E+02  0.00000000000E+00 0. -1.
          2    1    1    2  501    0  0.26366223843E+02  0.14034499809E+03 -0.56734793175E+03  0.58504322226E+03  0.00000000000E+00 0.  1.
<scales pt_clust_3="112.30776" pt_clust_4="44.82637" pt_clust_5="53.80308" pt_clust_6="14000.00000"></scales>
<clustering>
<clus scale="   44.826">  1  4  2 -1</clus>
<clus scale="   53.803">  1  5  2 -1</clus>
<clus scale="  112.308">  1  3  2 -1</clus>
<clus scale="   44.826">  1  3  2 -1</clus>
</clustering>
</event>
<event>
 6    0  0.2117869E+002  0.9297271E+02  0.7546771E-02  0.1295808E+00
         21   -1    0    0  503  502  0.00000000000E+00  0.00000000000E+00  0.18013622986E+03  0.18013622986E+03  0.00000000000E+00 0. -1.
          2   -1    0    0  502    0 -0.00000000000E+00 -0.00000000000E+00 -0.11661073656E+04  0.11661073656E+04  0.00000000000E+00 0. -1.
         21    1    1    2  503  504  0.31694038143E+02  0.16502269882E+02  0.96587201601E+02  0.10298506920E+03  0.00000000000E+00 0.  1.
         21    1    1    2  504  505  0.35817566294E+02  0.39099905492E+02  0.59656032013E+02  0.79815680291E+02  0.00000000000E+00 0. -1.
         21    1    1    2  505  501  0.87957177900E+01 -0.87627965089E+02 -0.21214127017E+03  0.22969532739E+03  0.00000000000E+00 0. -1.
          2    1    1    2  501    0 -0.76307322226E+02  0.32025789716E+02 -0.93007309923E+03  0.93374751863E+03  0.00000000000E+00 0. -1.
<scales pt_clust_3="30.21487" pt_clust_4="30.21487" pt_clust_5="85.37668" pt_clust_6="82.75541"></scales>
<clustering>
<clus scale="   30.215">  3  4 -1 -1</clus>
<clus scale="   82.755">  2  6  1 -1</clus>
<clus scale="   85.377">  2  5  1 -1</clus>
<clus scale="   92.973">  1  3  2 -1</clus>
</clustering>
</event>
<event>
 6    0  0.2117869E+002  0.8530424E+02  0.7546771E-02  0.1314639E+00
          1   -1    0    0  504    0 -0.00000000000E+00  0.00000000000E+00  0.36132681240E+03  0.36132681240E+03  0.00000000000E+00 0.  1.
         21   -1    0    0  505  502  0.00000000000E+00 -0.00000000000E+00 -0.28122485032E+03  0.28122485032E+03  0.00000000000E+00 0. -1.
         21    1    1    2  503  502 -0.10142491352E+03 -0.28810442670E+02 -0.24497102813E+02  0.10824584396E+03  0.00000000000E+00 0. -1.
         21    1    1    2  504  503  0.31160970012E+02  0.22554414681E+02  0.28961657216E+02  0.48150651734E+02  0.00000000000E+00 0.  1.
         21    1    1    2  505  501  0.16311283675E+02  0.50009145452E+02 -0.19746806689E+03  0.20435412901E+03  0.00000000000E+00 0. -1.
          1    1    1    2  501    0  0.53952659831E+02 -0.43753117463E+02  0.27310547456E+03  0.28180103801E+03  0.00000000000E+00 0.  1.
<scales pt_clust_3="14000.00000" pt_clust_4="38.46697" pt_clust_5="52.93438" pt_clust_6="85.30424"></scales>
<clustering>
<clus scale="   38.467">  1  4  2 -1</clus>
<clus scale="   52.934">  2  5  1 -1</clus>
<clus scale="   85.304">  1  6  2 -1</clus>
<clus scale="   52.934">  2  3  1 -1</clus>
</clustering>
</event>
<event>
 6    0  0.2117869E+002  0.6478961E+02  0.7546771E-02  0.1378765E+00
          2   -1    0    0  505    0 -0.00000000000E+00  0.00000000000E+00  0.12951886905E+04  0.12951886905E+04  0.00000000000E+00 0.  1.
         21   -1    0    0  504  502  0.00000000000E+00 -0.00000000000E+00 -0.39300196976E+03  0.39300196976E+03  0.00000000000E+00 0. -1.
         21    1    1    2  503  502 -0.15838983873E+02  0.49990342928E+02 -0.10167958058E+03  0.11440561570E+03  0.00000000000E+00 0. -1.
         21    1    1    2  504  501  0.58485169890E+02 -0.82409894064E+00 -0.27717049885E+03  0.28327491888E+03  0.00000000000E+00 0. -1.
         21    1    1    2  505  503 -0.26174433830E+02  0.40820475184E+02  0.20786275491E+03  0.21344399045E+03  0.00000000000E+00 0.  1.
          2    1    1    2  501    0 -0.16471752187E+02 -0.89986719171E+02  0.10731740452E+04  0.10770661352E+04  0.00000000000E+00 0.  1.
<scales pt_clust_3="52.71431" pt_clust_4="64.78961" pt_clust_5="48.49136" pt_clust_6="14000.00000"></scales>
<clustering>
<clus scale="   48.491">  1  5  2 -1</clus>
<clus scale="   52.714">  2  3  1 -1</clus>
<clus scale="   64.790">  2  4  1 -1</clus>
<clus scale="   52.714">  2  3  1 -1</clus>
</clustering>
</event>
<event>
 6    0  0.2117869E+002  0.1273834E+03  0.7546771E-02  0.1231391E+00
          2   -1    0    0  505    0 -0.00000000000E+00  0.00000000000E+00  0.91057385548E+03  0.91057385548E+03  0.00000000000E+00 0. -1.
         21   -1    0    0  504  502  0.00000000000E+00 -0.00000000000E+00 -0.20065125971E+03  0.20065125971E+03  0.00000000000E+00 0. -1.
         21    1    1    2  503  502 -0.10339605002E+03  0.22444142231E+02 -0.16607973356E+03  0.19691866488E+03  0.00000000000E+00 0. -1.
         21    1    1    2  504  501  0.19931688225E+02 -0.31245094302E+02  0.12668022405E+03  0.13199017872E+03  0.00000000000E+00 0. -1.
         21    1    1    2  505  503 -0.61207439756E+02  0.17202091963E+02  0.11258596382E+03  0.12929757112E+03  0.00000000000E+00 0.  1.
          2    1    1    2  501    0  0.14467180155E+03 -0.84011398914E+01  0.63673614146E+03  0.65301870047E+03  0.00000000000E+00 0. -1.
<scales pt_clust_3="107.04329" pt_clust_4="34.92062" pt_clust_5="63.57879" pt_clust_6="34.92062"></scales>
<clustering>
<clus scale="   34.921">  4  6 -1 -1</clus>
<clus scale="   63.579">  1  5  2 -1</clus>
<clus scale="  107.043">  2  3  1 -1</clus>
<clus scale="  107.043">  2  3  1 -1</clus>
</clustering>
</event>
<event>
 6    0  0.2117869E+002  0.8862730E+02  0.7546771E-02  0.1306210E+00
         -4   -1    0    0    0  501 -0.00000000000E+00  0.00000000000E+00  0.28770530662E+03  0.28770530662E+03  0.00000000000E+00 0.  1.
         21   -1    0    0  503  502  0.00000000000E+00 -0.00000000000E+00 -0.93665605486E+02  0.93665605486E+02  0.00000000000E+00 0.  1.
         21    1    1    2  503  505  0.32127440768E+02  0.58002085868E+01 -0.40929866415E+02  0.52355217837E+02  0.00000000000E+00 0.  1.
         21    1    1    2  504  502  0.30255772502E+02  0.24096207310E+01  0.47015424691E+01  0.30713556345E+02  0.00000000000E+00 0.  1.
         21    1    1    2  505  501 -0.41150994951E+02  0.83781763691E+02  0.93537223730E+02  0.13214386303E+03  0.00000000000E+00 0.  1.
         -4    1    1    2    0  504 -0.21232218319E+02 -0.91991593008E+02  0.13673080135E+03  0.16615827490E+03  0.00000000000E+00 0.  1.
<scales pt_clust_3="50.14196" pt_clust_4="30.35157" pt_clust_5="14000.00000" pt_clust_6="88.62730"></scales>
<clustering>
<clus scale="   30.352">  2  4  1 -1</clus>
<clus scale="   50.142">  2  3  1 -1</clus>
<clus scale="   88.627">  1  6  2 -1</clus>
<clus scale="   30.352">  2  3  1 -1</clus>
</clustering>
</event>
<event>
 6    0  0.2117869E+002  0.1042175E+03  0.7546771E-02  0.1271669E+00
         21   -1    0    0  503  502  0.00000000000E+00  0.00000000000E+00  0.13160866576E+03  0.13160866576E+03  0.00000000000E+00 0.  1.
          2   -1    0    0  505    0 -0.00000000000E+00 -0.00000000000E+00 -0.23977519868E+04  0.23977519868E+04  0.00000000000E+00 0. -1.
         21    1    1    2  503  501  0.48575747133E+02 -0.93558419715E+02  0.10495794242E+03  0.14875802763E+03  0.00000000000E+00 0.  1.
         21    1    1    2  504  502  0.36654585218E+02  0.28588268983E+02 -0.14144192753E+04  0.14151829331E+04  0.00000000000E+00 0. -1.
         21    1    1    2  505  504 -0.64279735988E+01  0.37819964090E+02 -0.16691121503E+03  0.17126302062E+03  0.00000000000E+00 0. -1.
          2    1    1    2  501    0 -0.78802358753E+02  0.27150186642E+02 -0.78977077309E+03  0.79415667120E+03  0.00000000000E+00 0. -1.
<scales pt_clust_3="104.21749" pt_clust_4="61.86698" pt_clust_5="38.36233" pt_clust_6="14000.00000"></scales>
<clustering>
<clus scale="   38.362">  2  5  1 -1</clus>
<clus scale="   61.867">  2  4  1 -1</clus>
<clus scale="  104.217">  1  3  2 -1</clus>
<clus scale="  104.217">  1  3  2 -1</clus>
</clustering>
</event>
<event>
 6    0  0.2117869E+002  0.1299006E+03  0.7546771E-02  0.1227603E+00
         21   -1    0    0  503  502  0.00000000000E+00  0.00000000000E+00  0.16113310184E+03  0.16113310184E+03  0.00000000000E+00 0. -1.
         -2   -1    0    0    0  501 -0.00000000000E+00 -0.00000000000E+00 -0.63706618156E+03  0.63706618156E+03  0.00000000000E+00 0. -1.
         21    1    1    2  503  501  0.53383047975E+02  0.13037767588E+02 -0.11260289439E+03  0.12529622907E+03  0.00000000000E+00 0. -1.
         21    1    1    2  504  505 -0.48290181301E+01  0.55334659527E+02  0.34976362989E+02  0.65639850160E+02  0.00000000000E+00 0. -1.
         21    1    1    2  505  502 -0.56683751070E+02  0.45494833192E+02  0.84318247759E+02  0.11132113181E+03  0.00000000000E+00 0. -1.
         -2    1    1    2    0  504  0.81297212250E+01 -0.11386726031E+03 -0.48262479609E+03  0.49594207236E+03  0.00000000000E+00 0. -1.
<scales pt_clust_3="54.95210" pt_clust_4="48.93572" pt_clust_5="48.93572" pt_clust_6="117.22028"></scales>
<clustering>
<clus scale="   48.936">  4  5 -1 -1</clus>
<clus scale="   54.952">  2  3  1 -1</clus>
<clus scale="  117.220">  2  6  1 -1</clus>
<clus scale="  129.901">  1  3  2 -1</clus>
</clustering>
</event>
<event>
 6    0  0.2117869E+002  0.7650343E+02  0.7546771E-02  0.1339278E+00
          1   -1    0    0  505    0 -0.00000000000E+00  0.00000000000E+00  0.32835812287E+04  0.32835812287E+04  0.00000000000E+00 0.  1.
         21   -1    0    0  504  502  0.00000000000E+00 -0.00000000000E+00 -0.46902031331E+02  0.46902031331E+02  0.00000000000E+00 0.  1.
         21    1    1    2  503  502  0.40897632979E+02 -0.31956836727E+02  0.13271179830E+03  0.14250009545E+03  0.00000000000E+00 0. -1.
         21    1    1    2  504  501 -0.81726830313E+02  0.90961854942E+02  0.55190175006E+02  0.13416142987E+03  0.00000000000E+00 0.  1.
         21    1    1    2  505  503  0.49307615933E+01  0.41245428212E+02  0.28679720670E+03  0.28978981267E+03  0.00000000000E+00 0.  1.
          1    1    1    2  501    0  0.35898435741E+02 -0.10025044643E+03  0.27619800174E+04  0.27640319221E+04  0.00000000000E+00 0.  1.
<scales pt_clust_3="50.94035" pt_clust_4="76.50343" pt_clust_5="41.53911" pt_clust_6="14000.00000"></scales>
<clustering>
<clus scale="   41.539">  1  5  2 -1</clus>
<clus scale="   50.940">  2  3  1 -1</clus>
<clus scale="   76.503">  2  4  1 -1</clus>
<clus scale="   50.940">  2  3  1 -1</clus>
</clustering>
</event>
<event>
 6    0  0.2117869E+002  0.8771813E+02  0.7546771E-02  0.1308474E+00
         -2   -1    0    0    0  501 -0.00000000000E+00  0.00000000000E+00  0.52871650812E+03  0.52871650812E+03  0.00000000000E+00 0. -1.
         21   -1    0    0  505  502  0.00000000000E+00 -0.00000000000E+00 -0.21022154985E+03  0.21022154985E+03  0.00000000000E+00 0.  1.
         21    1    1    2  503  501  0.15941131795E+02 -0.31000314047E+02  0.23333902908E+03  0.23592846722E+03  0.00000000000E+00 0. -1.
         21    1    1    2  504  502 -0.40448411068E+02  0.61924593640E+00 -0.13919263634E+03  0.14495187972E+03  0.00000000000E+00 0.  1.
         21    1    1    2  505  503  0.36952893901E+01 -0.79852436429E+02 -0.25724765803E+02  0.83975176945E+02  0.00000000000E+00 0. -1.
         -2    1    1    2    0  504  0.20811989883E+02  0.11023350454E+03  0.25007333133E+03  0.27408253408E+03  0.00000000000E+00 0. -1.
<scales pt_clust_3="34.85885" pt_clust_4="40.29355" pt_clust_5="87.71813" pt_clust_6="14000.00000"></scales>
<clustering>
<clus scale="   34.859">  1  3  2 -1</clus>
<clus scale="   40.294">  2  4  1 -1</clus>
<clus scale="   87.718">  2  5  1 -1</clus>
<clus scale="   40.294">  2  3  1 -1</clus>
</clustering>
</event>
<event>
 6    0  0.2117869E+002  0.8589550E+02  0.7546771E-02  0.1313107E+00
          1   -1    0    0  505    0 -0.00000000000E+00  0.00000000000E+00  0.18368799377E+04  0.18368799377E+04  0.00000000000E+00 0.  1.
         21   -1    0    0  503  502  0.00000000000E+00 -0.00000000000E+00 -0.14918160305E+03  0.14918160305E+03  0.00000000000E+00 0. -1.
         21    1    1    2  503  501 -0.26244435704E+02 -0.36608598314E+02 -0.35109293061E+02  0.57110614908E+02  0.00000000000E+00 0. -1.
         21    1    1    2  504  502  0.57516966425E+02  0.17394661945E+02 -0.89638408787E+02  0.10791580061E+03  0.00000000000E+00 0. -1.
         21    1    1    2  505  504 -0.11725410033E+02 -0.77298417851E+02  0.79600899424E+03  0.79983926483E+03  0.00000000000E+00 0. -1.
          1    1    1    2  501    0 -0.19547120688E+02  0.96512354220E+02  0.10164370422E+04  0.10211958604E+04  0.00000000000E+00 0.  1.
<scales pt_clust_3="45.04398" pt_clust_4="36.88423" pt_clust_5="85.89550" pt_clust_6="14000.00000"></scales>
<clustering>
<clus scale="   45.044">  2  3  1 -1</clus>
<clus scale="   36.884">  2  4  1 -1</clus>
<clus scale="   85.896">  1  5  2 -1</clus>
<clus scale="   45.044">  2  3  1 -1</clus>
</clustering>
</event>
<event>
 6    0  0.2117869E+002  0.1552647E+03  0.7546771E-02  0.1194149E+00
         -3   -1    0    0    0  501 -0.00000000000E+00  0.00000000000E+00  0.22466330521E+03  0.22466330521E+03  0.00000000000E+00 0. -1.
         21   -1    0    0  503  502  0.00000000000E+00 -0.00000000000E+00 -0.72665911970E+03  0.72665911970E+03  0.00000000000E+00 0. -1.
         21    1    1    2  503  501  0.12677102179E+03 -0.60812274108E+01 -0.74211602516E+01  0.12713357901E+03  0.00000000000E+00 0. -1.
         21    1    1    2  504  505  0.27672364025E+01 -0.92672906358E+02 -0.12424774584E+03  0.15502718315E+03  0.00000000000E+00 0. -1.
         21    1    1    2  505  502  0.18878819677E+02 -0.45585596621E+02 -0.44601038281E+03  0.44873123139E+03  0.00000000000E+00 0. -1.
         -3    1    1    2    0  504 -0.14841707787E+03  0.14433973039E+03  0.75683474412E+02  0.22043043136E+03  0.00000000000E+00 0. -1.
<scales pt_clust_3="155.26465" pt_clust_4="116.10800" pt_clust_5="49.34021" pt_clust_6="14000.00000"></scales>
<clustering>
<clus scale="   49.340">  2  5  1 -1</clus>
<clus scale="  116.108">  2  4  1 -1</clus>
<clus scale="  155.265">  1  3  2 -1</clus>
<clus scale="   49.340">  2  3  1 -1</clus>
</clustering>
</event>
<event>
 6    0  0.2117869E+002  0.1019795E+03  0.7546771E-02  0.1276188E+00
         21   -1    0    0  503  502  0.00000000000E+00  0.00000000000E+00  0.48253176505E+03  0.48253176505E+03  0.00000000000E+00 0.  1.
          2   -1    0    0  504    0 -0.00000000000E+00 -0.00000000000E+00 -0.71303465933E+03  0.71303465933E+03  0.00000000000E+00 0.  1.
         21    1    1    2  503  501 -0.90451906021E+01 -0.77844343857E+02  0.44684541103E+03  0.45366549208E+03  0.00000000000E+00 0.  1.
         21    1    1    2  504  505 -0.24956889400E+02  0.33870884781E+02 -0.17091399086E+02  0.45411442249E+02  0.00000000000E+00 0. -1.
         21    1    1    2  505  502 -0.66368742251E+02  0.65677162592E+02 -0.48032291800E+03  0.48931421928E+03  0.00000000000E+00 0. -1.
          2    1    1    2  501    0  0.10037082225E+03 -0.21703703516E+02 -0.17993398821E+03  0.20717527077E+03  0.00000000000E+00 0.  1.
<scales pt_clust_3="78.21435" pt_clust_4="42.07236" pt_clust_5="14000.00000" pt_clust_6="101.97947"></scales>
<clustering>
<clus scale="   42.072">  2  4  1 -1</clus>
<clus scale="   78.214">  1  3  2 -1</clus>
<clus scale="  101.979">  1  6  2 -1</clus>
<clus scale="   78.214">  1  3  2 -1</clus>
</clustering>
</event>
<event>
 6    0  0.2117869E+002  0.1371407E+03  0.7546771E-02  0.1217229E+00
         21   -1    0    0  505  502  0.00000000000E+00  0.00000000000E+00  0.24745334086E+03  0.24745334086E+03  0.00000000000E+00 0. -1.
          1   -1    0    0  503    0 -0.00000000000E+00 -0.00000000000E+00 -0.72110986601E+03  0.72110986601E+03  0.00000000000E+00 0. -1.
         21    1    1    2  503  502  0.84996120695E+02 -0.15317800186E+03  0.11903805360E+03  0.21179683424E+03  0.00000000000E+00 0. -1.
         21    1    1    2  504  501 -0.88163577966E+02 -0.10877943863E+03 -0.17272378029E+03  0.22234947048E+03  0.00000000000E+00 0. -1.
         21    1    1    2  505  504 -0.41400774076E+02  0.13069539943E+03 -0.61847606127E+02  0.15040092390E+03  0.00000000000E+00 0.  1.
          1    1    1    2  501    0  0.44568231347E+02  0.13126204106E+03 -0.35812319234E+03  0.38401597826E+03  0.00000000000E+00 0. -1.
<scales pt_clust_3="69.41318" pt_clust_4="137.14072" pt_clust_5="137.09599" pt_clust_6="14000.00000"></scales>
<clustering>
<clus scale="  137.096">  1  5  2 -1</clus>
<clus scale="   69.413">  1  3  2 -1</clus>
<clus scale="  137.141">  1  4  2 -1</clus>
<clus scale="  137.096">  1  3  2 -1</clus>
</clustering>
</event>
<event>
 6    0  0.2117869E+002  0.1147611E+03  0.7546771E-02  0.1251999E+00
         21   -1    0    0  503  502  0.00000000000E+00  0.00000000000E+00  0.17827888605E+03  0.17827888605E+03  0.00000000000E+00 0. -1.
          2   -1    0    0  505    0 -0.00000000000E+00 -0.00000000000E+00 -0.12108084097E+04  0.12108084097E+04  0.00000000000E+00 0. -1.
         21    1    1    2  503  504  0.30853132363E+02  0.13766438990E+02  0.86674884322E+02  0.93026696122E+02  0.00000000000E+00 0. -1.
         21    1    1    2  504  501 -0.13371393485E+03  0.37065558308E+02  0.26057103543E+02  0.14118160160E+03  0.00000000000E+00 0. -1.
         21    1    1    2  505  502  0.33034405252E+02  0.62918617905E+01 -0.95493852263E+02  0.10124196400E+03  0.00000000000E+00 0. -1.
          2    1    1    2  501    0  0.69826397238E+02 -0.57123859089E+02 -0.10497676593E+04  0.10536370341E+04  0.00000000000E+00 0. -1.
<scales pt_clust_3="33.87852" pt_clust_4="114.76109" pt_clust_5="33.62825" pt_clust_6="14000.00000"></scales>
<clustering>
<clus scale="   33.628">  2  5  1 -1</clus>
<clus scale="   33.879">  1  3  2 -1</clus>
<clus scale="  114.761">  1  4  2 -1</clus>
<clus scale="   33.879">  1  3  2 -1</clus>
</clustering>
</event>
<event>
 6    0  0.2117869E+002  0.5019362E+02  0.7546771E-02  0.1444300E+00
          2   -1    0    0  503    0 -0.00000000000E+00  0.00000000000E+00  0.38404453037E+03  0.38404453037E+03  0.00000000000E+00 0.  1.
         21   -1    0    0  504  502  0.00000000000E+00 -0.00000000000E+00 -0.32920193463E+03  0.32920193463E+03  0.00000000000E+00 0.  1.
         21    1    1    2  503  505 -0.39219476734E+02  0.14214729944E+02  0.16625744639E+03  0.17141109761E+03  0.00000000000E+00 0. -1.
         21    1    1    2  504  501  0.27714946423E+02 -0.26406804036E+02 -0.65969851181E+02  0.76272267696E+02  0.00000000000E+00 0.  1.
         21    1    1    2  505  502 -0.73757035517E+02  0.35827239212E+02 -0.23903749956E+03  0.25271054104E+03  0.00000000000E+00 0.  1.
          2    1    1    2  501    0  0.85261565828E+02 -0.23635165121E+02  0.19359250008E+03  0.21285255865E+03  0.00000000000E+00 0.  1.
<scales pt_clust_3="41.36630" pt_clust_4="38.28103" pt_clust_5="50.19362" pt_clust_6="14000.00000"></scales>
<clustering>
<clus scale="   38.281">  2  4  1 -1</clus>
<clus scale="   41.366">  1  3  2 -1</clus>
<clus scale="   50.194">  2  5  1 -1</clus>
<clus scale="   38.281">  2  3  1 -1</clus>
</clustering>
</event>
<event>
 6    0  0.2117869E+002  0.1016222E+03  0.7546771E-02  0.1276921E+00
         21   -1    0    0  505  502  0.00000000000E+00  0.00000000000E+00  0.41582768755E+02  0.41582768755E+02  0.00000000000E+00 0.  1.
          1   -1    0    0  504    0 -0.00000000000E+00 -0.00000000000E+00 -0.37889587448E+04  0.37889587448E+04  0.00000000000E+00 0.  1.
         21    1    1    2  503  502  0.81051609207E+02  0.29187677177E+02 -0.14262401474E+03  0.16662200765E+03  0.00000000000E+00 0. -1.
         21    1    1    2  504  503 -0.31403492161E+02  0.36750704591E+02 -0.48121518976E+03  0.48363710824E+03  0.00000000000E+00 0. -1.
         21    1    1    2  505  501 -0.28372453610E+02  0.63858496739E+02 -0.18263835157E+02  0.72225143851E+02  0.00000000000E+00 0.  1.
          1    1    1    2  501    0 -0.21275663435E+02 -0.12979687851E+03 -0.31052729364E+04  0.31080572538E+04  0.00000000000E+00 0.  1.
<scales pt_clust_3="14000.00000" pt_clust_4="48.34039" pt_clust_5="70.51206" pt_clust_6="101.62225"></scales>
<clustering>
<clus scale="   48.340">  2  4  1 -1</clus>
<clus scale="   70.512">  1  5  2 -1</clus>
<clus scale="  101.622">  2  6  1 -1</clus>
<clus scale="   70.512">  1  3  2 -1</clus>
</clustering>
</event>
<event>
 6    0  0.2117869E+002  0.9855452E+02  0.7546771E-02  0.1283365E+00
         21   -1    0    0  501  502  0.00000000000E+00  0.00000000000E+00  0.59491532625E+02  0.59491532625E+02  0.00000000000E+00 0.  1.
          1   -1    0    0  504    0 -0.00000000000E+00 -0.00000000000E+00 -0.21476259899E+04  0.21476259899E+04  0.00000000000E+00 0. -1.
         21    1    1    2  503  505 -0.30764256083E+02  0.99643476692E+02 -0.41672916754E+03  0.42957940008E+03  0.00000000000E+00 0. -1.
         21    1    1    2  504  503  0.25391954011E+02 -0.23376610974E+02 -0.58320266640E+03  0.58422304590E+03  0.00000000000E+00 0. -1.
         21    1    1    2  505  502  0.89376473907E+02  0.38719506604E+02 -0.15950687238E+01  0.97416110187E+02  0.00000000000E+00 0.  1.
          1    1    1    2  501    0 -0.84004171835E+02 -0.11498637232E+03 -0.10866075546E+04  0.10958989663E+04  0.00000000000E+00 0. -1.
<scales pt_clust_3="96.32879" pt_clust_4="34.51402" pt_clust_5="14000.00000" pt_clust_6="98.55452"></scales>
<clustering>
<clus scale="   34.514">  2  4  1 -1</clus>
<clus scale="   96.329">  2  3  1 -1</clus>
<clus scale="   98.555">  2  6  1 -1</clus>
<clus scale="   98.555">  1  3  2 -1</clus>
</clustering>
</event>
<event>
 6    0  0.2117869E+002  0.1108506E+03  0.7546771E-02  0.1259003E+00
         -1   -1    0    0    0  501 -0.00000000000E+00  0.00000000000E+00  0.10525190321E+04  0.10525190321E+04  0.00000000000E+00 0.  1.
         21   -1    0    0  503  502  0.00000000000E+00 -0.00000000000E+00 -0.89229137697E+02  0.89229137697E+02  0.00000000000E+00 0.  1.
         21    1    1    2  503  504 -0.36757820929E+02 -0.55280956060E+02 -0.28302600976E+02  0.72167573912E+02  0.00000000000E+00 0.  1.
         21    1    1    2  504  505  0.30363103331E+02 -0.69651717039E+02  0.12423729909E+02  0.76991095558E+02  0.00000000000E+00 0.  1.
         21    1    1    2  505  501  0.19122808760E+02  0.37982209870E+02  0.95229371972E+02  0.10429268128E+03  0.00000000000E+00 0.  1.
         -1    1    1    2    0  502 -0.12728091162E+02  0.86950463228E+02  0.88393939350E+03  0.88829681905E+03  0.00000000000E+00 0.  1.
<scales pt_clust_3="65.41443" pt_clust_4="14000.00000" pt_clust_5="42.52446" pt_clust_6="110.85065"></scales>
<clustering>
<clus scale="   42.524">  1  5  2 -1</clus>
<clus scale="   65.414">  2  3  1 -1</clus>
<clus scale="  110.851">  1  6  2 -1</clus>
<clus scale="   65.414">  2  3  1 -1</clus>
</clustering>
</event>
<event>
 6    0  0.2117869E+002  0.1464542E+03  0.7546771E-02  0.1204899E+00
         21   -1    0    0  501  502  0.00000000000E+00  0.00000000000E+00  0.38662554879E+03  0.38662554879E+03  0.00000000000E+00 0.  1.
          1   -1    0    0  504    0 -0.00000000000E+00 -0.00000000000E+00 -0.14196218588E+03  0.14196218588E+03  0.00000000000E+00 0.  1.
         21    1    1    2  503  502  0.30408751938E+02 -0.94485318823E+02  0.18377257517E+03  0.20886485356E+03  0.00000000000E+00 0.  1.
         21    1    1    2  504  505  0.22718041657E+02  0.40995629764E+02 -0.83513142205E+01  0.47607725483E+02  0.00000000000E+00 0.  1.
         21    1    1    2  505  503  0.41015736598E+02 -0.26583482222E+02  0.12671532677E+03  0.13581511777E+03  0.00000000000E+00 0. -1.
          1    1    1    2  501    0 -0.94142530192E+02  0.80073171281E+02 -0.57473224816E+02  0.13630003786E+03  0.00000000000E+00 0.  1.
<scales pt_clust_3="36.07213" pt_clust_4="46.86951" pt_clust_5="36.07213" pt_clust_6="137.13647"></scales>
<clustering>
<clus scale="   36.072">  3  5 -1 -1</clus>
<clus scale="   46.870">  2  4  1 -1</clus>
<clus scale="  137.136">  2  6  1 -1</clus>
<clus scale="  146.454">  1  3  2 -1</clus>
</clustering>
</event>
<event>
 6    0  0.2117869E+002  0.5942599E+02  0.7546771E-02  0.1400257E+00
         -4   -1    0    0    0  501 -0.00000000000E+00  0.00000000000E+00  0.13526462551E+04  0.13526462551E+04  0.00000000000E+00 0. -1.
         21   -1    0    0  505  502  0.00000000000E+00 -0.00000000000E+00 -0.14896177510E+03  0.14896177510E+03  0.00000000000E+00 0.  1.
         21    1    1    2  503  501  0.39669937280E+02 -0.34064715139E+02  0.80496512726E+02  0.95988526931E+02  0.00000000000E+00 0. -1.
         21    1    1    2  504  503  0.57397898658E+02  0.74152235245E+02 -0.10373307306E+03  0.13983427051E+03  0.00000000000E+00 0.  1.
         21    1    1    2  505  504 -0.92752758775E+01 -0.43986738466E+02  0.10461101180E+02  0.46155157257E+02  0.00000000000E+00 0.  1.
         -4    1    1    2    0  502 -0.87792560060E+02  0.38992183599E+01  0.12164599391E+04  0.12196300755E+04  0.00000000000E+00 0. -1.
<scales pt_clust_3="53.61652" pt_clust_4="59.42599" pt_clust_5="44.95402" pt_clust_6="14000.00000"></scales>
<clustering>
<clus scale="   44.954">  2  5  1 -1</clus>
<clus scale="   53.617">  1  3  2 -1</clus>
<clus scale="   59.426">  2  4  1 -1</clus>
<clus scale="   44.954">  2  3  1 -1</clus>
</clustering>
</event>
<event>
 6    0  0.2117869E+002  0.9582161E+02  0.7546771E-02  0.1289336E+00
          4   -1    0    0  505    0 -0.00000000000E+00  0.00000000000E+00  0.18597083839E+03  0.18597083839E+03  0.00000000000E+00 0. -1.
         21   -1    0    0  503  502  0.00000000000E+00 -0.00000000000E+00 -0.15471024523E+03  0.15471024523E+03  0.00000000000E+00 0.  1.
         21    1    1    2  503  501  0.29812161794E+02  0.95718624753E+02 -0.70193716861E+02  0.12238454969E+03  0.00000000000E+00 0.  1.
         21    1    1    2  504  502  0.49571887121E+02 -0.29758250735E+02  0.26625357921E+01  0.57879310434E+02  0.00000000000E+00 0. -1.
         21    1    1    2  505  504 -0.39108376664E+02  0.27996720144E+01  0.87414599822E+01  0.40171089247E+02  0.00000000000E+00 0. -1.
          4    1    1    2  501    0 -0.40275672251E+02 -0.68760046033E+02  0.90050314248E+02  0.12024613425E+03  0.00000000000E+00 0. -1.
<scales pt_clust_3="95.82161" pt_clust_4="51.37125" pt_clust_5="39.20846" pt_clust_6="14000.00000"></scales>
<clustering>
<clus scale="   39.208">  1  5  2 -1</clus>
<clus scale="   51.371">  1  4  2 -1</clus>
<clus scale="   95.822">  2  3  1 -1</clus>
<clus scale="   95.822">  2  3  1 -1</clus>
</clustering>
</event>
<event>
 6    0  0.2117869E+002  0.8534640E+02  0.7546771E-02  0.1314529E+00
         21   -1    0    0  503  502  0.00000000000E+00  0.00000000000E+00  0.13654743302E+03  0.13654743302E+03  0.00000000000E+00 0.  1.
          1   -1    0    0  504    0 -0.00000000000E+00 -0.00000000000E+00 -0.11103923355E+04  0.11103923355E+04  0.00000000000E+00 0. -1.
         21    1    1    2  503  505  0.33443322861E+02  0.24872410360E+02 -0.45977891207E+02  0.62056902283E+02  0.00000000000E+00 0. -1.
         21    1    1    2  504  502 -0.14615985399E+03  0.31809764900E+02  0.63603644175E+02  0.16254226409E+03  0.00000000000E+00 0.  1.
         21    1    1    2  505  501  0.28687989580E+02 -0.64105378112E+02 -0.77906184946E+02  0.10488981791E+03  0.00000000000E+00 0. -1.
          1    1    1    2  501    0  0.84028541554E+02  0.74232028520E+01 -0.91356447051E+03  0.91745078424E+03  0.00000000000E+00 0. -1.
<scales pt_clust_3="41.67844" pt_clust_4="85.34640" pt_clust_5="69.41401" pt_clust_6="14000.00000"></scales>
<clustering>
<clus scale="   41.678">  1  3  2 -1</clus>
<clus scale="   69.414">  1  5  2 -1</clus>
<clus scale="   85.346">  1  4  2 -1</clus>
<clus scale="   41.678">  1  3  2 -1</clus>
</clustering>
</event>
<event>
 6    0  0.2117869E+002  0.1923115E+03  0.7546771E-02  0.1156393E+00
         21   -1    0    0  503  502  0.00000000000E+00  0.00000000000E+00  0.99667997327E+03  0.99667997327E+03  0.00000000000E+00 0. -1.
          2   -1    0    0  505    0 -0.00000000000E+00 -0.00000000000E+00 -0.61003298877E+03  0.61003298877E+03  0.00000000000E+00 0.  1.
         21    1    1    2  503  504  0.12115956548E+03  0.36871816243E+02  0.86026796858E+03  0.86954019395E+03  0.00000000000E+00 0. -1.
         21    1    1    2  504  501  0.10736678483E+03  0.54741817299E+02  0.20693758933E+02  0.12228051645E+03  0.00000000000E+00 0. -1.
         21    1    1    2  505  502 -0.30442949190E+02 -0.12520203831E+02  0.32671877278E+02  0.46378661302E+02  0.00000000000E+00 0.  1.
          2    1    1    2  501    0 -0.19808340112E+03 -0.79093429711E+02 -0.52698662029E+03  0.56851359032E+03  0.00000000000E+00 0.  1.
<scales pt_clust_3="97.07565" pt_clust_4="192.31149" pt_clust_5="32.91700" pt_clust_6="14000.00000"></scales>
<clustering>
<clus scale="   32.917">  1  5  2 -1</clus>
<clus scale="   97.076">  1  3  2 -1</clus>
<clus scale="  192.311">  1  4  2 -1</clus>
<clus scale="   32.917">  1  3  2 -1</clus>
</clustering>
</event>
<event>
 6    0  0.2117869E+002  0.1589754E+03  0.7546771E-02  0.1189858E+00
         21   -1    0    0  504  502  0.00000000000E+00  0.00000000000E+00  0.29496276683E+03  0.29496276683E+03  0.00000000000E+00 0.  1.
          2   -1    0    0  505    0 -0.00000000000E+00 -0.00000000000E+00 -0.69606522979E+03  0.69606522979E+03  0.00000000000E+00 0.  1.
         21    1    1    2  503  502 -0.10805897801E+03  0.22102479302E+02 -0.17662889488E+02  0.11170156662E+03  0.00000000000E+00 0.  1.
         21    1    1    2  504  501  0.18412062679E+03 -0.30285829736E+02  0.20083164819E+03  0.27413680455E+03  0.00000000000E+00 0.  1.
         21    1    1    2  505  503 -0.28645608393E+02 -0.35837013733E+02 -0.53449452888E+02  0.70439381368E+02  0.00000000000E+00 0.  1.
          2    1    1    2  501    0 -0.47416040391E+02  0.44020364167E+02 -0.53082176878E+03  0.53475024409E+03  0.00000000000E+00 0.  1.
<scales pt_clust_3="158.97540" pt_clust_4="14000.00000" pt_clust_5="45.87878" pt_clust_6="72.82481"></scales>
<clustering>
<clus scale="   45.879">  2  5  1 -1</clus>
<clus scale="   72.825">  2  6  1 -1</clus>
<clus scale="  158.975">  2  3  1 -1</clus>
<clus scale="  158.975">  1  3  2 -1</clus>
</clustering>
</event>
<event>
 6    0  0.2117869E+002  0.1664203E+03  0.7546771E-02  0.1181633E+00
         21   -1    0    0  501  502  0.00000000000E+00  0.00000000000E+00  0.18687583273E+03  0.18687583273E+03  0.00000000000E+00 0. -1.
          1   -1    0    0  504    0 -0.00000000000E+00 -0.00000000000E+00 -0.14119754646E+04  0.14119754646E+04  0.00000000000E+00 0. -1.
         21    1    1    2  503  505 -0.16001621072E+02 -0.22089278424E+03 -0.15678145690E+03  0.27134866728E+03  0.00000000000E+00 0. -1.
         21    1    1    2  504  503  0.82255322171E+02  0.65838331111E+02 -0.49326475752E+03  0.50439145996E+03  0.00000000000E+00 0. -1.
         21    1    1    2  505  502  0.48703004822E+02  0.57194978129E+02  0.10354356023E+03  0.12792387216E+03  0.00000000000E+00 0. -1.
          1    1    1    2  501    0 -0.11495670592E+03  0.97859474998E+02 -0.67859697769E+03  0.69518729794E+03  0.00000000000E+00 0. -1.
<scales pt_clust_3="14000.00000" pt_clust_4="111.13342" pt_clust_5="75.12156" pt_clust_6="166.42029"></scales>
<clustering>
<clus scale="   75.122">  1  5  2 -1</clus>
<clus scale="  111.133">  2  4  1 -1</clus>
<clus scale="  166.420">  2  6  1 -1</clus>
<clus scale="   75.122">  1  3  2 -1</clus>
</clustering>
</event>
<event>
 6    0  0.2117869E+002  0.1256827E+03  0.7546771E-02  0.1234006E+00
         21   -1    0    0  505  502  0.00000000000E+00  0.00000000000E+00  0.10610551522E+03  0.10610551522E+03  0.00000000000E+00 0. -1.
         -1   -1    0    0    0  501 -0.00000000000E+00 -0.00000000000E+00 -0.66473537414E+03  0.66473537414E+03  0.00000000000E+00 0.  1.
         21    1    1    2  503  504  0.61312477672E+02  0.27544902912E+02 -0.89286376459E+02  0.11175866238E+03  0.00000000000E+00 0.  1.
         21    1    1    2  504  501 -0.21822494920E+02 -0.29941647493E+02 -0.60344509246E+02  0.70810898421E+02  0.00000000000E+00 0. -1.
         21    1    1    2  505  503  0.73376414011E+02 -0.98876643671E+02  0.27516966413E+02  0.12616605026E+03  0.00000000000E+00 0. -1.
         -1    1    1    2    0  502 -0.11286639676E+03  0.10127338825E+03 -0.43651593963E+03  0.46210527830E+03  0.00000000000E+00 0.  1.
<scales pt_clust_3="61.89414" pt_clust_4="37.05028" pt_clust_5="14000.00000" pt_clust_6="125.68274"></scales>
<clustering>
<clus scale="   37.050">  2  4  1 -1</clus>
<clus scale="   61.894">  2  3  1 -1</clus>
<clus scale="  125.683">  2  6  1 -1</clus>
<clus scale="  125.683">  1  3  2 -1</clus>
</clustering>
</event>
<event>
 6    0  0.2117869E+002  0.1026925E+03  0.7546771E-02  0.1274734E+00
          2   -1    0    0  504    0 -0.00000000000E+00  0.00000000000E+00  0.85832442284E+03  0.85832442284E+03  0.00000000000E+00 0.  1.
         21   -1    0    0  503  502  0.00000000000E+00 -0.00000000000E+00 -0.10837472777E+03  0.10837472777E+03  0.00000000000E+00 0. -1.
         21    1    1    2  503  501 -0.22308670574E+02  0.40101286395E+02  0.46803872190E+00  0.45891273828E+02  0.00000000000E+00 0. -1.
         21    1    1    2  504  505 -0.85271736638E+00 -0.34693598291E+02  0.72854737533E+02  0.80698114416E+02  0.00000000000E+00 0. -1.
         21    1    1    2  505  502  0.10253318409E+03  0.27604668686E+02 -0.43588323540E+02  0.11478246173E+03  0.00000000000E+00 0. -1.
          2    1    1    2  501    0 -0.79371796146E+02 -0.33012356790E+02  0.72021524236E+03  0.72532730064E+03  0.00000000000E+00 0.  1.
<scales pt_clust_3="45.00502" pt_clust_4="34.70408" pt_clust_5="102.69248" pt_clust_6="14000.00000"></scales>
<clustering>
<clus scale="   34.704">  1  4  2 -1</clus>
<clus scale="   45.005">  2  3  1 -1</clus>
<clus scale="  102.692">  2  5  1 -1</clus>
<clus scale="   45.005">  2  3  1 -1</clus>
</clustering>
</event>
<event>
 6    0  0.2117869E+002  0.9028459E+02  0.7546771E-02  0.1302164E+00
          2   -1    0    0  505    0 -0.00000000000E+00  0.00000000000E+00  0.12508231055E+04  0.12508231055E+04  0.00000000000E+00 0. -1.
         21   -1    0    0  504  502  0.00000000000E+00 -0.00000000000E+00 -0.99390508040E+02  0.99390508040E+02  0.00000000000E+00 0.  1.
         21    1    1    2  503  502  0.11471857027E+02 -0.42965968788E+02 -0.31401082395E+02  0.54439929767E+02  0.00000000000E+00 0.  1.
         21    1    1    2  504  501  0.72529998016E+02  0.66850317439E+02  0.48593370967E+01  0.98758183007E+02  0.00000000000E+00 0.  1.
         21    1    1    2  505  503  0.55766273164E+02 -0.22174039641E+02  0.19138774226E+03  0.20057625269E+03  0.00000000000E+00 0. -1.
          2    1    1    2  501    0 -0.13976812821E+03 -0.17103090095E+01  0.98658660055E+03  0.99643924812E+03  0.00000000000E+00 0. -1.
<scales pt_clust_3="44.47109" pt_clust_4="90.28459" pt_clust_5="62.23965" pt_clust_6="14000.00000"></scales>
<clustering>
<clus scale="   44.471">  2  3  1 -1</clus>
<clus scale="   62.240">  1  5  2 -1</clus>
<clus scale="   90.285">  2  4  1 -1</clus>
<clus scale="   44.471">  2  3  1 -1</clus>
</clustering>
</event>
<event>
 6    0  0.2117869E+002  0.8674556E+02  0.7546771E-02  0.1310930E+00
          2   -1    0    0  504    0 -0.00000000000E+00  0.00000000000E+00  0.77239296605E+03  0.77239296605E+03  0.00000000000E+00 0. -1.
         21   -1    0    0  503  502  0.00000000000E+00 -0.00000000000E+00 -0.28227876344E+03  0.28227876344E+03  0.00000000000E+00 0.  1.
         21    1    1    2  503  501  0.32766437798E+02 -0.17490297622E+02 -0.24112805060E+03  0.24397189744E+03  0.00000000000E+00 0.  1.
         21    1    1    2  504  505 -0.64055231004E+02  0.74499348521E+02  0.57831496439E+03  0.58660158847E+03  0.00000000000E+00 0. -1.
         21    1    1    2  505  502 -0.40276823577E+02 -0.40015076697E+02  0.27110873923E+01  0.56839940846E+02  0.00000000000E+00 0. -1.
          2    1    1    2  501    0  0.71565616783E+02 -0.16993974203E+02  0.15021620142E+03  0.16725830274E+03  0.00000000000E+00 0. -1.
<scales pt_clust_3="37.14229" pt_clust_4="14000.00000" pt_clust_5="54.94650" pt_clust_6="86.74556"></scales>
<clustering>
<clus scale="   37.142">  2  3  1 -1</clus>
<clus scale="   54.947">  2  5  1 -1</clus>
<clus scale="   86.746">  2  6  1 -1</clus>
<clus scale="   37.142">  2  3  1 -1</clus>
</clustering>
</event>
<event>
 6    0  0.2117869E+002  0.1138102E+03  0.7546771E-02  0.1253672E+00
         21   -1    0    0  505  502  0.00000000000E+00  0.00000000000E+00  0.45779314745E+02  0.45779314745E+02  0.00000000000E+00 0. -1.
          1   -1    0    0  504    0 -0.00000000000E+00 -0.00000000000E+00 -0.10586485596E+04  0.10586485596E+04  0.00000000000E+00 0. -1.
         21    1    1    2  503  501 -0.75187855111E+02 -0.58889315136E+02 -0.97344338564E+02  0.13637113054E+03  0.00000000000E+00 0. -1.
         21    1    1    2  504  502  0.89344760531E+02 -0.32098768653E+02 -0.12623065598E+03  0.15794617974E+03  0.00000000000E+00 0. -1.
         21    1    1    2  505  503  0.10523016077E+01 -0.39866056165E+02 -0.88900685377E+02  0.97435833415E+02  0.00000000000E+00 0.  1.
          1    1    1    2  501    0 -0.15209207027E+02  0.13085413995E+03 -0.70039356496E+03  0.71267473069E+03  0.00000000000E+00 0. -1.
<scales pt_clust_3="113.81020" pt_clust_4="101.46135" pt_clust_5="39.87994" pt_clust_6="14000.00000"></scales>
<clustering>
<clus scale="   39.880">  1  5  2 -1</clus>
<clus scale="  101.461">  1  4  2 -1</clus>
<clus scale="  113.810">  1  3  2 -1</clus>
<clus scale="   39.880">  1  3  2 -1</clus>
</clustering>
</event>
<event>
 6    0  0.2117869E+002  0.1076186E+03  0.7546771E-02  0.1265045E+00
          2   -1    0    0  504    0 -0.00000000000E+00  0.00000000000E+00  0.19862381586E+04  0.19862381586E+04  0.00000000000E+00 0. -1.
         21   -1    0    0  503  502  0.00000000000E+00 -0.00000000000E+00 -0.37193237993E+03  0.37193237993E+03  0.00000000000E+00 0.  1.
         21    1    1    2  503  505  0.86803299404E+02  0.26085403552E+02 -0.17168861390E+03  0.19414489745E+03  0.00000000000E+00 0.  1.
         21    1    1    2  504  502 -0.79343673244E+02 -0.11309577191E+03  0.64982756388E+03  0.66435076194E+03  0.00000000000E+00 0. -1.
         21    1    1    2  505  501 -0.82055833604E+02  0.82293927871E+02 -0.16199192126E+03  0.19936607772E+03  0.00000000000E+00 0.  1.
          2    1    1    2  501    0  0.74596207444E+02  0.47164404899E+01  0.12981587500E+04  0.13003088014E+04  0.00000000000E+00 0. -1.
<scales pt_clust_3="91.82827" pt_clust_4="14000.00000" pt_clust_5="107.61858" pt_clust_6="74.74516"></scales>
<clustering>
<clus scale="   74.745">  1  6  2 -1</clus>
<clus scale="   91.828">  2  3  1 -1</clus>
<clus scale="  107.619">  2  5  1 -1</clus>
<clus scale="   91.828">  2  3  1 -1</clus>
</clustering>
</event>
<event>
 6    0  0.2117869E+002  0.1956810E+03  0.7546771E-02  0.1153435E+00
         21   -1    0    0  505  502  0.00000000000E+00  0.00000000000E+00  0.83641250289E+03  0.83641250289E+03  0.00000000000E+00 0.  1.
          2   -1    0    0  504    0 -0.00000000000E+00 -0.00000000000E+00 -0.10019400674E+04  0.10019400674E+04  0.00000000000E+00 0.  1.
         21    1    1    2  503  501  0.15441310969E+03  0.69009926613E+02  0.63504432072E+03  0.65718115288E+03  0.00000000000E+00 0.  1.
         21    1    1    2  504  502  0.61936824106E+02  0.35900462685E+02  0.35293072000E+02  0.79816128273E+02  0.00000000000E+00 0. -1.
         21    1    1    2  505  503 -0.85553757615E+02  0.41502188879E+02  0.10416658892E+03  0.14104097054E+03  0.00000000000E+00 0.  1.
          2    1    1    2  501    0 -0.13079617618E+03 -0.14641257818E+03 -0.94003154614E+03  0.96031431859E+03  0.00000000000E+00 0.  1.
<scales pt_clust_3="195.68101" pt_clust_4="71.58920" pt_clust_5="89.27313" pt_clust_6="14000.00000"></scales>
<clustering>
<clus scale="   71.589">  1  4  2 -1</clus>
<clus scale="   89.273">  1  5  2 -1</clus>
<clus scale="  195.681">  1  3  2 -1</clus>
<clus scale="   71.589">  1  3  2 -1</clus>
</clustering>
</event>
<event>
 6    0  0.2117869E+002  0.8125658E+02  0.7546771E-02  0.1325523E+00
          2   -1    0    0  503    0 -0.00000000000E+00  0.00000000000E+00  0.23667706721E+04  0.23667706721E+04  0.00000000000E+00 0.  1.
         21   -1    0    0  505  502  0.00000000000E+00 -0.00000000000E+00 -0.17331773284E+02  0.17331773284E+02  0.00000000000E+00 0. -1.
         21    1    1    2  503  504  0.28429722441E+02  0.15368755521E+02  0.22110228156E+03  0.22345170994E+03  0.00000000000E+00 0. -1.
         21    1    1    2  504  502  0.51126813121E+02 -0.41077598142E+02  0.39153403684E+03  0.39698894455E+03  0.00000000000E+00 0. -1.
         21    1    1    2  505  501 -0.55321858943E+02 -0.62887940835E+02  0.13264063692E+03  0.15687236768E+03  0.00000000000E+00 0. -1.
          2    1    1    2  501    0 -0.24234676618E+02  0.88596783456E+02  0.16041619435E+04  0.16067894232E+04  0.00000000000E+00 0.  1.
<scales pt_clust_3="32.31792" pt_clust_4="68.10981" pt_clust_5="81.25658" pt_clust_6="14000.00000"></scales>
<clustering>
<clus scale="   32.318">  1  3  2 -1</clus>
<clus scale="   68.110">  1  4  2 -1</clus>
<clus scale="   81.257">  2  5  1 -1</clus>
<clus scale="   81.257">  2  3  1 -1</clus>
</clustering>
</event>
<event>
 6    0  0.2117869E+002  0.3568526E+03  0.7546771E-02  0.1059837E+00
         21   -1    0    0  501  502  0.00000000000E+00  0.00000000000E+00  0.82786021504E+03  0.82786021504E+03  0.00000000000E+00 0. -1.
          2   -1    0    0  505    0 -0.00000000000E+00 -0.00000000000E+00 -0.11588485254E+04  0.11588485254E+04  0.00000000000E+00 0. -1.
         21    1    1    2  503  502 -0.20420170830E+03 -0.31074955829E+03  0.73076224820E+03  0.81992505087E+03  0.00000000000E+00 0. -1.
         21    1    1    2  504  503  0.23999112751E+02  0.33081045053E+02 -0.34167184498E+02  0.53270155351E+02  0.00000000000E+00 0. -1.
         21    1    1    2  505  504 -0.15653080694E+02  0.17894550897E+03 -0.26595977357E+03  0.32093786825E+03  0.00000000000E+00 0. -1.
          2    1    1    2  501    0  0.19585567624E+03  0.98723004266E+02 -0.76162360048E+03  0.79257566597E+03  0.00000000000E+00 0. -1.
<scales pt_clust_3="349.87599" pt_clust_4="33.49335" pt_clust_5="33.49335" pt_clust_6="219.33007"></scales>
<clustering>
<clus scale="   33.493">  4  5 -1 -1</clus>
<clus scale="  219.330">  2  6  1 -1</clus>
<clus scale="  349.876">  1  3  2 -1</clus>
<clus scale="  349.876">  1  3  2 -1</clus>
</clustering>
</event>
<event>
 6    0  0.2117869E+002  0.1653655E+03  0.7546771E-02  0.1182769E+00
         -4   -1    0    0    0  501 -0.00000000000E+00  0.00000000000E+00  0.33663808273E+03  0.33663808273E+03  0.00000000000E+00 0.  1.
         21   -1    0    0  505  502  0.00000000000E+00 -0.00000000000E+00 -0.19406022222E+03  0.19406022222E+03  0.00000000000E+00 0. -1.
         21    1    1    2  503  501 -0.10952375542E+03  0.98870210061E+01 -0.13239149215E+02  0.11076317645E+03  0.00000000000E+00 0. -1.
         21    1    1    2  504  502  0.51628120732E+02 -0.13255016279E+03 -0.44131855270E+01  0.14231825151E+03  0.00000000000E+00 0. -1.
         21    1    1    2  505  503 -0.31253343311E+02 -0.31269341004E+02  0.11331371290E+02  0.45639271798E+02  0.00000000000E+00 0. -1.
         -4    1    1    2    0  504  0.89148977998E+02  0.15393248279E+03  0.14889882396E+03  0.23197760520E+03  0.00000000000E+00 0.  1.
<scales pt_clust_3="41.00661" pt_clust_4="142.24981" pt_clust_5="41.00661" pt_clust_6="152.19418"></scales>
<clustering>
<clus scale="   41.007">  3  5 -1 -1</clus>
<clus scale="  142.250">  2  4  1 -1</clus>
<clus scale="  152.194">  1  6  2 -1</clus>
<clus scale="  142.250">  2  3  1 -1</clus>
</clustering>
</event>
<event>
 6    0  0.2117869E+002  0.1141890E+03  0.7546771E-02  0.1253003E+00
         21   -1    0    0  504  502  0.00000000000E+00  0.00000000000E+00  0.14724778552E+03  0.14724778552E+03  0.00000000000E+00 0.  1.
         -1   -1    0    0    0  501 -0.00000000000E+00 -0.00000000000E+00 -0.58204516584E+03  0.58204516584E+03  0.00000000000E+00 0.  1.
         21    1    1    2  503  502  0.39365023759E+02  0.31818116235E+01  0.90418348010E+02  0.98667150955E+02  0.00000000000E+00 0.  1.
         21    1    1    2  504  505 -0.13239048009E+03  0.82951250518E+02 -0.17889956483E+03  0.23751463845E+03  0.00000000000E+00 0.  1.
         21    1    1    2  505  501  0.91143053249E+02  0.71548262517E+01 -0.14835940864E+03  0.17426635311E+03  0.00000000000E+00 0.  1.
         -1    1    1    2    0  503  0.18824030813E+01 -0.93287888393E+02 -0.19795675486E+03  0.21884480884E+03  0.00000000000E+00 0.  1.
<scales pt_clust_3="39.49340" pt_clust_4="114.18904" pt_clust_5="14000.00000" pt_clust_6="93.16196"></scales>
<clustering>
<clus scale="   39.493">  1  3  2 -1</clus>
<clus scale="   93.162">  2  6  1 -1</clus>
<clus scale="  114.189">  1  4  2 -1</clus>
<clus scale="   39.493">  1  3  2 -1</clus>
</clustering>
</event>
<event>
 6    0  0.2117869E+002  0.9039750E+02  0.7546771E-02  0.1301892E+00
         21   -1    0    0  505  502  0.00000000000E+00  0.00000000000E+00  0.25751625205E+02  0.25751625205E+02  0.00000000000E+00 0.  1.
          2   -1    0    0  503    0 -0.00000000000E+00 -0.00000000000E+00 -0.18768801218E+04  0.18768801218E+04  0.00000000000E+00 0.  1.
         21    1    1    2  503  504  0.33275275038E+02  0.55502267422E+02 -0.31154494018E+03  0.31819490154E+03  0.00000000000E+00 0.  1.
         21    1    1    2  504  502  0.12183376259E+03 -0.60519691043E+02 -0.31542598525E+03  0.34351077258E+03  0.00000000000E+00 0.  1.
         21    1    1    2  505  501 -0.65782336233E+02  0.53051049526E+01 -0.16070395229E+03  0.17372743071E+03  0.00000000000E+00 0.  1.
          2    1    1    2  501    0 -0.89326701395E+02 -0.28768133150E+00 -0.10634536189E+04  0.10671986422E+04  0.00000000000E+00 0.  1.
<scales pt_clust_3="64.71279" pt_clust_4="14000.00000" pt_clust_5="63.22845" pt_clust_6="90.39750"></scales>
<clustering>
<clus scale="   64.713">  2  3  1 -1</clus>
<clus scale="   63.228">  1  5  2 -1</clus>
<clus scale="   90.397">  2  6  1 -1</clus>
<clus scale="   63.228">  1  3  2 -1</clus>
</clustering>
</event>
<event>
 6    0  0.2117869E+002  0.1336291E+03  0.7546771E-02  0.1222168E+00
         21   -1    0    0  503  502  0.00000000000E+00  0.00000000000E+00  0.13360490562E+04  0.13360490562E+04  0.00000000000E+00 0. -1.
          2   -1    0    0  504    0 -0.00000000000E+00 -0.00000000000E+00 -0.15261474645E+04  0.15261474645E+04  0.00000000000E+00 0.  1.
         21    1    1    2  503  505  0.13631068778E+02 -0.44706970925E+02  0.12491289144E+04  0.12500030257E+04  0.00000000000E+00 0. -1.
         21    1    1    2  504  502 -0.21780942495E+02  0.11768774527E+03  0.27359735819E+02  0.12277365347E+03  0.00000000000E+00 0. -1.
         21    1    1    2  505  501 -0.42712783006E+02  0.51383719612E+02 -0.13066990731E+03  0.14676271035E+03  0.00000000000E+00 0. -1.
          2    1    1    2  501    0  0.50862656723E+02 -0.12436449395E+03 -0.13359171512E+04  0.13426571313E+04  0.00000000000E+00 0.  1.
<scales pt_clust_3="46.73884" pt_clust_4="133.62906" pt_clust_5="62.83131" pt_clust_6="14000.00000"></scales>
<clustering>
<clus scale="   46.739">  1  3  2 -1</clus>
<clus scale="   62.831">  1  5  2 -1</clus>
<clus scale="  133.629">  1  4  2 -1</clus>
<clus scale="   46.739">  1  3  2 -1</clus>
</clustering>
</event>
<event>
 6    0  0.2117869E+002  0.8830311E+02  0.7546771E-02  0.1307014E+00
         21   -1    0    0  504  502  0.00000000000E+00  0.00000000000E+00  0.43290722815E+02  0.43290722815E+02  0.00000000000E+00 0. -1.
          2   -1    0    0  503    0 -0.00000000000E+00 -0.00000000000E+00 -0.16818286646E+04  0.16818286646E+04  0.00000000000E+00 0.  1.
         21    1    1    2  503  505  0.23825806158E+02 -0.50264453000E+02 -0.31082115132E+03  0.31575935835E+03  0.00000000000E+00 0.  1.
         21    1    1    2  504  501  0.54689304987E+02 -0.75302462696E+01 -0.54616655637E+01  0.55474809415E+02  0.00000000000E+00 0. -1.
         21    1    1    2  505  502 -0.75951502396E+01 -0.70363233844E+02 -0.97910912302E+02  0.12081066895E+03  0.00000000000E+00 0.  1.
          2    1    1    2  501    0 -0.70919960905E+02  0.12815793311E+03 -0.12243442126E+04  0.12330745507E+04  0.00000000000E+00 0.  1.
<scales pt_clust_3="60.03256" pt_clust_4="55.20530" pt_clust_5="88.30311" pt_clust_6="14000.00000"></scales>
<clustering>
<clus scale="   55.205">  1  4  2 -1</clus>
<clus scale="   60.033">  2  3  1 -1</clus>
<clus scale="   88.303">  1  5  2 -1</clus>
<clus scale="   55.205">  1  3  2 -1</clus>
</clustering>
</event>
<event>
 6    0  0.2117869E+002  0.8324830E+02  0.7546771E-02  0.1320078E+00
          1   -1    0    0  505    0 -0.00000000000E+00  0.00000000000E+00  0.20434736396E+04  0.20434736396E+04  0.00000000000E+00 0.  1.
         21   -1    0    0  501  502  0.00000000000E+00 -0.00000000000E+00 -0.61966598956E+02  0.61966598956E+02  0.00000000000E+00 0.  1.
         21    1    1    2  503  504 -0.42783796244E+02 -0.46271254625E+02  0.11933161584E+01  0.63030994194E+02  0.00000000000E+00 0.  1.
         21    1    1    2  504  502 -0.31406437638E+02  0.10184913235E+02 -0.10987125210E+01  0.33034889918E+02  0.00000000000E+00 0.  1.
         21    1    1    2  505  503 -0.26544736057E+02 -0.25542553544E+02  0.17423082514E+04  0.17426976467E+04  0.00000000000E+00 0.  1.
          1    1    1    2  501    0  0.10073496994E+03  0.61628894934E+02  0.23910418563E+03  0.26667670773E+03  0.00000000000E+00 0.  1.
<scales pt_clust_3="83.24830" pt_clust_4="33.01661" pt_clust_5="36.90582" pt_clust_6="14000.00000"></scales>
<clustering>
<clus scale="   33.017">  2  4  1 -1</clus>
<clus scale="   36.906">  1  5  2 -1</clus>
<clus scale="   83.248">  2  3  1 -1</clus>
<clus scale="   33.017">  2  3  1 -1</clus>
</clustering>
</event>
<event>
 6    0  0.2117869E+002  0.1642291E+03  0.7546771E-02  0.1184003E+00
         21   -1    0    0  501  502  0.00000000000E+00  0.00000000000E+00  0.15841751951E+02  0.15841751951E+02  0.00000000000E+00 0.  1.
          2   -1    0    0  505    0 -0.00000000000E+00 -0.00000000000E+00 -0.31430064047E+04  0.31430064047E+04  0.00000000000E+00 0. -1.
         21    1    1    2  503  504 -0.24426790592E+02  0.96292093303E+02 -0.89899998371E+03  0.90447211458E+03  0.00000000000E+00 0.  1.
         21    1    1    2  504  502 -0.10366676938E+02  0.61790660546E+02 -0.15826226791E+03  0.17021309928E+03  0.00000000000E+00 0.  1.
         21    1    1    2  505  503 -0.33662054962E+02  0.25395225067E+02 -0.56516470798E+03  0.56673556315E+03  0.00000000000E+00 0. -1.
          2    1    1    2  501    0  0.68455522492E+02 -0.18347797892E+03 -0.15047376932E+04  0.15174273797E+04  0.00000000000E+00 0. -1.
<scales pt_clust_3="32.52107" pt_clust_4="62.65424" pt_clust_5="32.52107" pt_clust_6="156.45936"></scales>
<clustering>
<clus scale="   32.521">  3  5 -1 -1</clus>
<clus scale="   62.654">  1  4  2 -1</clus>
<clus scale="  156.459">  1  6  2 -1</clus>
<clus scale="   62.654">  1  3  2 -1</clus>
</clustering>
</event>
<event>
 6    0  0.2117869E+002  0.7853024E+02  0.7546771E-02  0.1333275E+00
          2   -1    0    0  503    0 -0.00000000000E+00  0.00000000000E+00  0.35316376347E+04  0.35316376347E+04  0.00000000000E+00 0.  1.
         21   -1    0    0  501  502  0.00000000000E+00 -0.00000000000E+00 -0.44597294938E+02  0.44597294938E+02  0.00000000000E+00 0. -1.
         21    1    1    2  503  504 -0.36289230108E+02 -0.69649914557E+01  0.51305891804E+03  0.51438786213E+03  0.00000000000E+00 0. -1.
         21    1    1    2  504  505  0.13137071827E+03  0.21428946068E+02  0.33217932742E+03  0.35785551681E+03  0.00000000000E+00 0. -1.
         21    1    1    2  505  502 -0.54950660697E+02 -0.39820882275E+02  0.64015029800E+01  0.68163458074E+02  0.00000000000E+00 0. -1.
          2    1    1    2  501    0 -0.40130827470E+02  0.25356927663E+02  0.26354005913E+04  0.26358280926E+04  0.00000000000E+00 0.  1.
<scales pt_clust_3="36.95158" pt_clust_4="14000.00000" pt_clust_5="68.27597" pt_clust_6="78.53024"></scales>
<clustering>
<clus scale="   36.952">  1  3  2 -1</clus>
<clus scale="   68.276">  2  5  1 -1</clus>
<clus scale="   78.530">  1  6  2 -1</clus>
<clus scale="   68.276">  2  3  1 -1</clus>
</clustering>
</event>
<event>
 6    0  0.2117869E+002  0.1210081E+03  0.7546771E-02  0.1241443E+00
          2   -1    0    0  502    0 -0.00000000000E+00  0.00000000000E+00  0.37715597601E+04  0.37715597601E+04  0.00000000000E+00 0.  1.
         21   -1    0    0  503  502  0.00000000000E+00 -0.00000000000E+00 -0.36055308775E+03  0.36055308775E+03  0.00000000000E+00 0. -1.
         21    1    1    2  503  505  0.30331088153E+02 -0.11730918456E+02 -0.34924680022E+03  0.35075763259E+03  0.00000000000E+00 0. -1.
         21    1    1    2  504  501  0.75088698219E+02 -0.80634957864E+02  0.48728074025E+03  0.49958265468E+03  0.00000000000E+00 0. -1.
         21    1    1    2  505  504  0.19974480340E+02  0.68266903679E+02  0.42283130554E+03  0.42877227399E+03  0.00000000000E+00 0. -1.
          2    1    1    2  501    0 -0.12539426671E+03  0.24098972641E+02  0.28501414268E+04  0.28530002866E+04  0.00000000000E+00 0.  1.
<scales pt_clust_3="32.52060" pt_clust_4="14000.00000" pt_clust_5="70.94637" pt_clust_6="121.00809"></scales>
<clustering>
<clus scale="   32.521">  2  3  1 -1</clus>
<clus scale="   70.946">  2  5  1 -1</clus>
<clus scale="  121.008">  1  6  2 -1</clus>
<clus scale="   32.521">  2  3  1 -1</clus>
</clustering>
</event>
<event>
 6    0  0.2117869E+002  0.1238364E+03  0.7546771E-02  0.1236899E+00
          2   -1    0    0  505    0 -0.00000000000E+00  0.00000000000E+00  0.22712472646E+04  0.22712472646E+04  0.00000000000E+00 0. -1.
         21   -1    0    0  501  502  0.00000000000E+00 -0.00000000000E+00 -0.55163223515E+02  0.55163223515E+02  0.00000000000E+00 0. -1.
         21    1    1    2  503  502  0.35679097914E+02 -0.34068926561E+02  0.83856163893E+01  0.50040067418E+02  0.00000000000E+00 0. -1.
         21    1    1    2  504  503  0.51538439210E+01 -0.75511591198E+02  0.12874959444E+02  0.76774521119E+02  0.00000000000E+00 0. -1.
         21    1    1    2  505  504  0.10024416464E+02  0.39799586739E+02  0.29859750246E+03  0.30140498421E+03  0.00000000000E+00 0.  1.
          2    1    1    2  501    0 -0.50857358299E+02  0.69780931020E+02  0.18962259628E+04  0.18981909154E+04  0.00000000000E+00 0. -1.
<scales pt_clust_3="35.69406" pt_clust_4="35.69406" pt_clust_5="41.04261" pt_clust_6="115.67513"></scales>
<clustering>
<clus scale="   35.694">  3  4 -1 -1</clus>
<clus scale="   41.043">  1  5  2 -1</clus>
<clus scale="  115.675">  1  6  2 -1</clus>
<clus scale="  123.836">  2  3  1 -1</clus>
</clustering>
</event>
<event>
 6    0  0.2117869E+002  0.1075915E+03  0.7546771E-02  0.1265096E+00
         21   -1    0    0  501  502  0.00000000000E+00  0.00000000000E+00  0.95571810036E+03  0.95571810036E+03  0.00000000000E+00 0. -1.
          2   -1    0    0  505    0 -0.00000000000E+00 -0.00000000000E+00 -0.78867161060E+03  0.78867161060E+03  0.00000000000E+00 0. -1.
         21    1    1    2  503  502  0.96274131139E+01  0.28993415731E+02  0.70765103612E+03  0.70831016805E+03  0.00000000000E+00 0. -1.
         21    1    1    2  504  503  0.40378875446E+02 -0.45525998481E+02  0.22736474151E+03  0.23536736351E+03  0.00000000000E+00 0. -1.
         21    1    1    2  505  504 -0.13136448548E+03  0.47305805271E+02 -0.47930666726E+03  0.49922875372E+03  0.00000000000E+00 0. -1.
          2    1    1    2  501    0  0.81358196916E+02 -0.30773222521E+02 -0.28866262060E+03  0.30148342569E+03  0.00000000000E+00 0. -1.
<scales pt_clust_3="30.55004" pt_clust_4="52.70440" pt_clust_5="107.59150" pt_clust_6="14000.00000"></scales>
<clustering>
<clus scale="   30.550">  1  3  2 -1</clus>
<clus scale="   52.704">  1  4  2 -1</clus>
<clus scale="  107.591">  1  5  2 -1</clus>
<clus scale="   30.550">  1  3  2 -1</clus>
</clustering>
</event>
<event>
 6    0  0.2117869E+002  0.1353246E+03  0.7546771E-02  0.1219762E+00
         21   -1    0    0  503  502  0.00000000000E+00  0.00000000000E+00  0.90446743807E+03  0.90446743807E+03  0.00000000000E+00 0.  1.
          2   -1    0    0  504    0 -0.00000000000E+00 -0.00000000000E+00 -0.17089183110E+03  0.17089183110E+03  0.00000000000E+00 0.  1.
         21    1    1    2  503  501  0.74001859451E+02  0.12363850093E+03  0.39803305227E+03  0.42331201827E+03  0.00000000000E+00 0.  1.
         21    1    1    2  504  505  0.77013502259E+01 -0.55719165263E+02  0.53095018251E+02  0.77349965326E+02  0.00000000000E+00 0.  1.
         21    1    1    2  505  502  0.40729159225E+02 -0.79602444892E+01  0.39545253542E+03  0.39762411607E+03  0.00000000000E+00 0.  1.
          2    1    1    2  501    0 -0.12243236890E+03 -0.59959091182E+02 -0.11300499897E+03  0.17707316952E+03  0.00000000000E+00 0.  1.
<scales pt_clust_3="14000.00000" pt_clust_4="58.19620" pt_clust_5="41.49976" pt_clust_6="135.32459"></scales>
<clustering>
<clus scale="   41.500">  1  5  2 -1</clus>
<clus scale="   58.196">  1  4  2 -1</clus>
<clus scale="  135.325">  2  6  1 -1</clus>
<clus scale="   41.500">  1  3  2 -1</clus>
</clustering>
</event>
<event>
 6    0  0.2117869E+002  0.9020984E+02  0.7546771E-02  0.1302344E+00
         21   -1    0    0  504  502  0.00000000000E+00  0.00000000000E+00  0.23199469438E+03  0.23199469438E+03  0.00000000000E+00 0.  1.
          1   -1    0    0  505    0 -0.00000000000E+00 -0.00000000000E+00 -0.19512767825E+04  0.19512767825E+04  0.00000000000E+00 0. -1.
         21    1    1    2  503  501 -0.55151882054E+02  0.32385885831E+02 -0.24823476451E+03  0.25634171335E+03  0.00000000000E+00 0. -1.
         21    1    1    2  504  503 -0.48137997580E+02 -0.23360009670E+02 -0.43275201994E+02  0.68816422244E+02  0.00000000000E+00 0.  1.
         21    1    1    2  505  502  0.22003357505E+02  0.49584590024E+02  0.21019561347E+03  0.21708287641E+03  0.00000000000E+00 0.  1.
          1    1    1    2  501    0  0.81286522129E+02 -0.58610466185E+02 -0.16379677351E+04  0.16410304649E+04  0.00000000000E+00 0. -1.
<scales pt_clust_3="14000.00000" pt_clust_4="53.50661" pt_clust_5="36.60217" pt_clust_6="90.20984"></scales>
<clustering>
<clus scale="   53.507">  1  4  2 -1</clus>
<clus scale="   36.602">  1  5  2 -1</clus>
<clus scale="   90.210">  2  6  1 -1</clus>
<clus scale="   53.507">  1  3  2 -1</clus>
</clustering>
</event>
<event>
 6    0  0.2117869E+002  0.1020616E+03  0.7546771E-02  0.1276019E+00
         21   -1    0    0  503  502  0.00000000000E+00  0.00000000000E+00  0.22499552024E+03  0.22499552024E+03  0.00000000000E+00 0.  1.
          1   -1    0    0  504    0 -0.00000000000E+00 -0.00000000000E+00 -0.12108727282E+04  0.12108727282E+04  0.00000000000E+00 0.  1.
         21    1    1    2  503  505  0.18860622719E+02  0.35052268167E+02  0.12168587973E+03  0.12803061321E+03  0.00000000000E+00 0.  1.
         21    1    1    2  504  502  0.14834544094E+02 -0.36520835204E+02  0.80991699649E+02  0.90074916123E+02  0.00000000000E+00 0.  1.
         21    1    1    2  505  501  0.63170222854E+02 -0.45719746513E+02 -0.11578604851E+03  0.13959649461E+03  0.00000000000E+00 0.  1.
          1    1    1    2  501    0 -0.96865389667E+02  0.47188313551E+02 -0.10727687388E+04  0.10781662245E+04  0.00000000000E+00 0.  1.
<scales pt_clust_3="32.22796" pt_clust_4="39.41872" pt_clust_5="14000.00000" pt_clust_6="102.06160"></scales>
<clustering>
<clus scale="   39.419">  1  4  2 -1</clus>
<clus scale="   32.228">  1  3  2 -1</clus>
<clus scale="  102.062">  2  6  1 -1</clus>
<clus scale="   39.419">  1  3  2 -1</clus>
</clustering>
</event>
<event>
 6    0  0.2193724E+002  0.1108134E+03  0.7546771E-02  0.1259071E+00
          2   -1    0    0  504    0 -0.00000000000E+00  0.00000000000E+00  0.13795695920E+04  0.13795695920E+04  0.00000000000E+00 0.  1.
         21   -1    0    0  505  502  0.00000000000E+00 -0.00000000000E+00 -0.22633670437E+03  0.22633670437E+03  0.00000000000E+00 0. -1.
         21    1    1    2  503  502 -0.15150587854E+03  0.41320183214E+02 -0.18054138988E+03  0.23928347672E+03  0.00000000000E+00 0. -1.
         21    1    1    2  504  503  0.20326292365E+02 -0.27878835577E+02  0.89432597412E+02  0.95857066064E+02  0.00000000000E+00 0. -1.
         21    1    1    2  505  501  0.43366603183E+02 -0.15925740940E+02  0.34299951195E+02  0.57539361728E+02  0.00000000000E+00 0. -1.
          2    1    1    2  501    0  0.87812982995E+02  0.24843933034E+01  0.12100417289E+04  0.12132263918E+04  0.00000000000E+00 0.  1.
<scales pt_clust_3="14000.00000" pt_clust_4="34.50199" pt_clust_5="47.22708" pt_clust_6="110.81339"></scales>
<clustering>
<clus scale="   34.502">  1  4  2 -1</clus>
<clus scale="   47.227">  2  5  1 -1</clus>
<clus scale="  110.813">  1  6  2 -1</clus>
<clus scale="   47.227">  2  3  1 -1</clus>
</clustering>
</event>
<event>
 6    0  0.2117869E+002  0.1858214E+03  0.7546771E-02  0.1162285E+00
          2   -1    0    0  503    0 -0.00000000000E+00  0.00000000000E+00  0.38904636441E+04  0.38904636441E+04  0.00000000000E+00 0. -1.
         21   -1    0    0  504  502  0.00000000000E+00 -0.00000000000E+00 -0.13411429681E+03  0.13411429681E+03  0.00000000000E+00 0. -1.
         21    1    1    2  503  505  0.13418271012E+02 -0.42315023061E+02  0.17996227337E+03  0.18535649708E+03  0.00000000000E+00 0. -1.
         21    1    1    2  504  501 -0.11263206665E+03 -0.15627118848E+03 -0.50856345902E+02  0.19923110878E+03  0.00000000000E+00 0. -1.
         21    1    1    2  505  502  0.10638148180E+03  0.61103387005E+02  0.79568030924E+03  0.80508247906E+03  0.00000000000E+00 0.  1.
          2    1    1    2  501    0 -0.71676861552E+01  0.13748282454E+03  0.28315631106E+04  0.28349078560E+04  0.00000000000E+00 0. -1.
<scales pt_clust_3="44.39157" pt_clust_4="14000.00000" pt_clust_5="185.82135" pt_clust_6="105.19401"></scales>
<clustering>
<clus scale="   44.392">  1  3  2 -1</clus>
<clus scale="  105.194">  1  6  2 -1</clus>
<clus scale="  185.821">  1  5  2 -1</clus>
<clus scale="  185.821">  2  3  1 -1</clus>
</clustering>
</event>
<event>
 6    0  0.2117869E+002  0.7571163E+02  0.7546771E-02  0.1341681E+00
          2   -1    0    0  503    0 -0.00000000000E+00  0.00000000000E+00  0.30847372780E+03  0.30847372780E+03  0.00000000000E+00 0. -1.
         21   -1    0    0  505  502  0.00000000000E+00 -0.00000000000E+00 -0.12352480567E+03  0.12352480567E+03  0.00000000000E+00 0. -1.
         21    1    1    2  503  504 -0.26556332882E+02 -0.31622059903E+02  0.67384226371E+02  0.79030547589E+02  0.00000000000E+00 0. -1.
         21    1    1    2  504  502 -0.95686300848E+02  0.22357608280E+02 -0.27433851871E+02  0.10202130683E+03  0.00000000000E+00 0. -1.
         21    1    1    2  505  501  0.34350780433E+02 -0.42293864687E+02 -0.19140383793E+02  0.57750336780E+02  0.00000000000E+00 0. -1.
          2    1    1    2  501    0  0.87891853298E+02  0.51558316310E+02  0.16413893143E+03  0.19319634227E+03  0.00000000000E+00 0. -1.
<scales pt_clust_3="41.29399" pt_clust_4="75.71163" pt_clust_5="55.22687" pt_clust_6="14000.00000"></scales>
<clustering>
<clus scale="   41.294">  1  3  2 -1</clus>
<clus scale="   55.227">  2  5  1 -1</clus>
<clus scale="   75.712">  2  4  1 -1</clus>
<clus scale="   55.227">  2  3  1 -1</clus>
</clustering>
</event>
<event>
 6    0  0.2117869E+002  0.6586658E+02  0.7546771E-02  0.1374741E+00
          2   -1    0    0  503    0 -0.00000000000E+00  0.00000000000E+00  0.11009275200E+04  0.11009275200E+04  0.00000000000E+00 0.  1.
         21   -1    0    0  504  502  0.00000000000E+00 -0.00000000000E+00 -0.19683928698E+04  0.19683928698E+04  0.00000000000E+00 0.  1.
         21    1    1    2  503  505 -0.69149560980E+01  0.42230054409E+02  0.14054798017E+03  0.14691810250E+03  0.00000000000E+00 0.  1.
         21    1    1    2  504  501  0.37916902691E+02  0.39033677509E+02 -0.37135604498E+03  0.37532203723E+03  0.00000000000E+00 0. -1.
         21    1    1    2  505  502 -0.86307409749E+02 -0.83632145898E+02 -0.15887954215E+04  0.15933343014E+04  0.00000000000E+00 0.  1.
          2    1    1    2  501    0  0.55305463155E+02  0.23684139808E+01  0.95213813646E+03  0.95374594864E+03  0.00000000000E+00 0.  1.
<scales pt_clust_3="42.79245" pt_clust_4="54.47083" pt_clust_5="14000.00000" pt_clust_6="65.86658"></scales>
<clustering>
<clus scale="   42.792">  1  3  2 -1</clus>
<clus scale="   54.471">  2  4  1 -1</clus>
<clus scale="   65.867">  1  6  2 -1</clus>
<clus scale="   54.471">  2  3  1 -1</clus>
</clustering>
</event>
<event>
 6    0  0.2117869E+002  0.1092628E+03  0.7546771E-02  0.1261941E+00
         21   -1    0    0  505  502  0.00000000000E+00  0.00000000000E+00  0.95122200726E+03  0.95122200726E+03  0.00000000000E+00 0.  1.
          2   -1    0    0  503    0 -0.00000000000E+00 -0.00000000000E+00 -0.20072350757E+04  0.20072350757E+04  0.00000000000E+00 0.  1.
         21    1    1    2  503  504 -0.15348186283E+02  0.40018985375E+02 -0.20051732435E+03  0.20504702724E+03  0.00000000000E+00 0. -1.
         21    1    1    2  504  502 -0.47943921755E+02  0.54738312420E+02  0.17737323822E+03  0.19171898215E+03  0.00000000000E+00 0.  1.
         21    1    1    2  505  501 -0.60915974576E+02 -0.36698945113E+02  0.76013402925E+03  0.76345354211E+03  0.00000000000E+00 0.  1.
          2    1    1    2  501    0  0.12420808261E+03 -0.58058352682E+02 -0.17930030116E+04  0.17982375315E+04  0.00000000000E+00 0.  1.
<scales pt_clust_3="42.86124" pt_clust_4="109.26279" pt_clust_5="71.10969" pt_clust_6="14000.00000"></scales>
<clustering>
<clus scale="   42.861">  2  3  1 -1</clus>
<clus scale="   71.110">  1  5  2 -1</clus>
<clus scale="  109.263">  1  4  2 -1</clus>
<clus scale="   71.110">  1  3  2 -1</clus>
</clustering>
</event>
<event>
 6    0  0.2117869E+002  0.1303238E+03  0.7546771E-02  0.1226976E+00
          1   -1    0    0  504    0 -0.00000000000E+00  0.00000000000E+00  0.11041021613E+04  0.11041021613E+04  0.00000000000E+00 0.  1.
         21   -1    0    0  501  502  0.00000000000E+00 -0.00000000000E+00 -0.69224130746E+02  0.69224130746E+02  0.00000000000E+00 0.  1.
         21    1    1    2  503  505  0.12350583876E+01  0.68956205549E+02 -0.39854475464E+01  0.69082323680E+02  0.00000000000E+00 0.  1.
         21    1    1    2  504  503  0.16494980707E+01 -0.39507746596E+02  0.13169026822E+03  0.13749876228E+03  0.00000000000E+00 0.  1.
         21    1    1    2  505  502 -0.51815180363E+02  0.35942434774E+02  0.76513572575E+01  0.63523340603E+02  0.00000000000E+00 0.  1.
          1    1    1    2  501    0  0.48930623904E+02 -0.65390893727E+02  0.89952185266E+03  0.90322186552E+03  0.00000000000E+00 0.  1.
<scales pt_clust_3="60.71200" pt_clust_4="39.54217" pt_clust_5="60.71200" pt_clust_6="113.91030"></scales>
<clustering>
<clus scale="   39.542">  1  4  2 -1</clus>
<clus scale="   60.712">  3  5 -1 -1</clus>
<clus scale="  113.910">  1  6  2 -1</clus>
<clus scale="  130.324">  2  3  1 -1</clus>
</clustering>
</event>
<event>
 6    0  0.2117869E+002  0.1729292E+03  0.7546771E-02  0.1174827E+00
         21   -1    0    0  505  502  0.00000000000E+00  0.00000000000E+00  0.60624551777E+03  0.60624551777E+03  0.00000000000E+00 0. -1.
          2   -1    0    0  503    0 -0.00000000000E+00 -0.00000000000E+00 -0.31938698936E+04  0.31938698936E+04  0.00000000000E+00 0. -1.
         21    1    1    2  503  502  0.17802307316E+02 -0.17966875756E+03 -0.14789847663E+03  0.23339182500E+03  0.00000000000E+00 0. -1.
         21    1    1    2  504  501 -0.99832155388E+02  0.40834393518E+02 -0.58513125727E+03  0.59498949165E+03  0.00000000000E+00 0. -1.
         21    1    1    2  505  504  0.38836750343E+02  0.16859900627E+03  0.54487862154E+03  0.57168752855E+03  0.00000000000E+00 0. -1.
          2    1    1    2  501    0  0.43193097729E+02 -0.29764642231E+02 -0.23994732635E+04  0.24000465661E+04  0.00000000000E+00 0. -1.
<scales pt_clust_3="14000.00000" pt_clust_4="70.27627" pt_clust_5="172.92917" pt_clust_6="52.45548"></scales>
<clustering>
<clus scale="   52.455">  2  6  1 -1</clus>
<clus scale="   70.276">  2  4  1 -1</clus>
<clus scale="  172.929">  1  5  2 -1</clus>
<clus scale="  172.929">  1  3  2 -1</clus>
</clustering>
</event>
<event>
 6    0  0.2117869E+002  0.9286297E+02  0.7546771E-02  0.1296063E+00
          1   -1    0    0  503    0 -0.00000000000E+00  0.00000000000E+00  0.24913552006E+04  0.24913552006E+04  0.00000000000E+00 0. -1.
         21   -1    0    0  505  502  0.00000000000E+00 -0.00000000000E+00 -0.16792824057E+03  0.16792824057E+03  0.00000000000E+00 0. -1.
         21    1    1    2  503  502  0.55815154754E+02  0.70406435175E+02  0.19286096289E+04  0.19307012971E+04  0.00000000000E+00 0. -1.
         21    1    1    2  504  501  0.30512245412E+02 -0.24917355193E+02  0.16060181511E+02  0.42541757605E+02  0.00000000000E+00 0. -1.
         21    1    1    2  505  504  0.32370910730E+02  0.45890761032E+01 -0.14398853263E+03  0.14765376057E+03  0.00000000000E+00 0. -1.
          1    1    1    2  501    0 -0.11869831090E+03 -0.50078156085E+02  0.52274568219E+03  0.53838662592E+03  0.00000000000E+00 0. -1.
<scales pt_clust_3="92.86297" pt_clust_4="54.60318" pt_clust_5="32.69458" pt_clust_6="14000.00000"></scales>
<clustering>
<clus scale="   32.695">  2  5  1 -1</clus>
<clus scale="   54.603">  2  4  1 -1</clus>
<clus scale="   92.863">  1  3  2 -1</clus>
<clus scale="   32.695">  2  3  1 -1</clus>
</clustering>
</event>
<event>
 6    0  0.2117869E+002  0.1229313E+03  0.7546771E-02  0.1238338E+00
         21   -1    0    0  503  502  0.00000000000E+00  0.00000000000E+00  0.73998842054E+03  0.73998842054E+03  0.00000000000E+00 0.  1.
         -1   -1    0    0    0  501 -0.00000000000E+00 -0.00000000000E+00 -0.84627343366E+03  0.84627343366E+03  0.00000000000E+00 0. -1.
         21    1    1    2  503  505 -0.83358728928E+02  0.91424450129E+02  0.71104209771E+03  0.72172569061E+03  0.00000000000E+00 0.  1.
         21    1    1    2  504  501 -0.65638826976E+02  0.11827594865E+02 -0.10491233722E+03  0.12431792352E+03  0.00000000000E+00 0.  1.
         21    1    1    2  505  504  0.39962790077E+02 -0.76847478879E+02 -0.25764151941E+03  0.27181190578E+03  0.00000000000E+00 0.  1.
         -1    1    1    2    0  502  0.10903476583E+03 -0.26404566115E+02 -0.45477325419E+03  0.46840633429E+03  0.00000000000E+00 0. -1.
<scales pt_clust_3="122.93131" pt_clust_4="66.69593" pt_clust_5="14000.00000" pt_clust_6="70.22743"></scales>
<clustering>
<clus scale="   66.696">  2  4  1 -1</clus>
<clus scale="   70.227">  2  6  1 -1</clus>
<clus scale="  122.931">  1  3  2 -1</clus>
<clus scale="  122.931">  1  3  2 -1</clus>
</clustering>
</event>
<event>
 6    0  0.1848450E+003  0.1524930E+03  0.7546771E-02  0.1197443E+00
          1   -1    0    0  503    0 -0.00000000000E+00  0.00000000000E+00  0.17820692705E+04  0.17820692705E+04  0.00000000000E+00 0.  1.
         21   -1    0    0  505  502  0.00000000000E+00 -0.00000000000E+00 -0.11569637696E+04  0.11569637696E+04  0.00000000000E+00 0.  1.
         21    1    1    2  503  504  0.16119811792E+02 -0.38560097018E+02  0.10385548242E+02  0.43064939644E+02  0.00000000000E+00 0.  1.
         21    1    1    2  504  502  0.57326336576E+02 -0.99761182540E+02  0.19786507758E+03  0.22888685268E+03  0.00000000000E+00 0.  1.
         21    1    1    2  505  501 -0.10938639588E+03  0.10770818658E+03 -0.11195124407E+04  0.11299887353E+04  0.00000000000E+00 0.  1.
          1    1    1    2  501    0  0.35940247512E+02  0.30613092978E+02  0.15363673158E+04  0.15370925125E+04  0.00000000000E+00 0.  1.
<scales pt_clust_3="41.79389" pt_clust_4="14000.00000" pt_clust_5="152.49300" pt_clust_6="50.15115"></scales>
<clustering>
<clus scale="   41.794">  1  3  2 -1</clus>
<clus scale="   50.151">  1  6  2 -1</clus>
<clus scale="  152.493">  2  5  1 -1</clus>
<clus scale="  152.493">  2  3  1 -1</clus>
</clustering>
</event>
<event>
 6    0  0.2117869E+002  0.1644519E+03  0.7546771E-02  0.1183760E+00
         21   -1    0    0  505  502  0.00000000000E+00  0.00000000000E+00  0.29002080996E+03  0.29002080996E+03  0.00000000000E+00 0. -1.
          2   -1    0    0  504    0 -0.00000000000E+00 -0.00000000000E+00 -0.94461629877E+03  0.94461629877E+03  0.00000000000E+00 0.  1.
         21    1    1    2  503  502 -0.12909048131E+03  0.17018588306E+02 -0.29847677441E+01  0.13024167363E+03  0.00000000000E+00 0.  1.
         21    1    1    2  504  503  0.35218217210E+02  0.20899825954E+02 -0.15014464037E+03  0.15562949136E+03  0.00000000000E+00 0. -1.
         21    1    1    2  505  501  0.18435440109E+03 -0.78507477758E+01  0.18170764182E+03  0.25897074456E+03  0.00000000000E+00 0. -1.
          2    1    1    2  501    0 -0.90482136992E+02 -0.30067666484E+02 -0.68317372252E+03  0.68979519919E+03  0.00000000000E+00 0.  1.
<scales pt_clust_3="14000.00000" pt_clust_4="40.95272" pt_clust_5="164.45193" pt_clust_6="61.12422"></scales>
<clustering>
<clus scale="   40.953">  2  4  1 -1</clus>
<clus scale="   61.124">  2  6  1 -1</clus>
<clus scale="  164.452">  1  5  2 -1</clus>
<clus scale="  164.452">  1  3  2 -1</clus>
</clustering>
</event>
<event>
 6    0  0.2117869E+002  0.8483671E+02  0.7546771E-02  0.1315860E+00
          2   -1    0    0  505    0 -0.00000000000E+00  0.00000000000E+00  0.11240221822E+04  0.11240221822E+04  0.00000000000E+00 0.  1.
         21   -1    0    0  504  502  0.00000000000E+00 -0.00000000000E+00 -0.41076455911E+03  0.41076455911E+03  0.00000000000E+00 0.  1.
         21    1    1    2  503  501  0.74037298920E+02  0.40537982507E+02 -0.23543601067E+03  0.25010990539E+03  0.00000000000E+00 0.  1.
         21    1    1    2  504  503 -0.67080702366E+02  0.13363410840E+02 -0.14492180888E+03  0.16025208913E+03  0.00000000000E+00 0.  1.
         21    1    1    2  505  502  0.15747586345E+02  0.28023952034E+02  0.50439997255E+01  0.32538750691E+02  0.00000000000E+00 0. -1.
          2    1    1    2  501    0 -0.22704182898E+02 -0.81925345382E+02  0.10885714430E+04  0.10918859961E+04  0.00000000000E+00 0.  1.
<scales pt_clust_3="84.83671" pt_clust_4="65.62706" pt_clust_5="32.14543" pt_clust_6="14000.00000"></scales>
<clustering>
<clus scale="   32.145">  2  5  1 -1</clus>
<clus scale="   65.627">  2  4  1 -1</clus>
<clus scale="   84.837">  2  3  1 -1</clus>
<clus scale="   32.145">  2  3  1 -1</clus>
</clustering>
</event>
<event>
 6    0  0.2117869E+002  0.9859651E+02  0.7546771E-02  0.1283275E+00
         21   -1    0    0  504  502  0.00000000000E+00  0.00000000000E+00  0.22882012901E+03  0.22882012901E+03  0.00000000000E+00 0. -1.
          2   -1    0    0  505    0 -0.00000000000E+00 -0.00000000000E+00 -0.99559932637E+03  0.99559932637E+03  0.00000000000E+00 0.  1.
         21    1    1    2  503  502  0.21026922185E+02 -0.25863234816E+02  0.11149105489E+03  0.11636706447E+03  0.00000000000E+00 0. -1.
         21    1    1    2  504  501 -0.11232837591E+03  0.61213361670E+02  0.69274515666E+02  0.14547748349E+03  0.00000000000E+00 0. -1.
         21    1    1    2  505  503  0.24645585972E+02  0.23280584715E+02 -0.67678929330E+03  0.67763791073E+03  0.00000000000E+00 0.  1.
          2    1    1    2  501    0  0.66655867754E+02 -0.58630711569E+02 -0.27075547461E+03  0.28493699668E+03  0.00000000000E+00 0.  1.
<scales pt_clust_3="33.33224" pt_clust_4="98.59651" pt_clust_5="33.89375" pt_clust_6="14000.00000"></scales>
<clustering>
<clus scale="   33.332">  1  3  2 -1</clus>
<clus scale="   33.894">  2  5  1 -1</clus>
<clus scale="   98.597">  1  4  2 -1</clus>
<clus scale="   33.332">  1  3  2 -1</clus>
</clustering>
</event>
<event>
 6    0  0.2117869E+002  0.1087027E+03  0.7546771E-02  0.1262991E+00
          2   -1    0    0  504    0 -0.00000000000E+00  0.00000000000E+00  0.17209977443E+04  0.17209977443E+04  0.00000000000E+00 0.  1.
         21   -1    0    0  501  502  0.00000000000E+00 -0.00000000000E+00 -0.56313770901E+02  0.56313770901E+02  0.00000000000E+00 0.  1.
         21    1    1    2  503  502  0.30573248747E+02 -0.27218375121E+02 -0.29376424970E+02  0.50383904446E+02  0.00000000000E+00 0.  1.
         21    1    1    2  504  505 -0.65549992171E+02 -0.47693032739E+02  0.30585578126E+03  0.31641615916E+03  0.00000000000E+00 0. -1.
         21    1    1    2  505  503 -0.11237985127E+02 -0.49044787108E+02  0.72943110453E+02  0.88613660429E+02  0.00000000000E+00 0. -1.
          2    1    1    2  501    0  0.46214728551E+02  0.12395619497E+03  0.13152615067E+04  0.13218977912E+04  0.00000000000E+00 0.  1.
<scales pt_clust_3="40.93365" pt_clust_4="14000.00000" pt_clust_5="62.11187" pt_clust_6="108.70271"></scales>
<clustering>
<clus scale="   40.934">  2  3  1 -1</clus>
<clus scale="   62.112">  2  5  1 -1</clus>
<clus scale="  108.703">  1  6  2 -1</clus>
<clus scale="   40.934">  2  3  1 -1</clus>
</clustering>
</event>
<event>
 6    0  0.2117869E+002  0.8185277E+02  0.7546771E-02  0.1323874E+00
         21   -1    0    0  505  502  0.00000000000E+00  0.00000000000E+00  0.12990628295E+02  0.12990628295E+02  0.00000000000E+00 0. -1.
          2   -1    0    0  503    0 -0.00000000000E+00 -0.00000000000E+00 -0.19550204312E+04  0.19550204312E+04  0.00000000000E+00 0. -1.
         21    1    1    2  503  504  0.70305808245E+02 -0.16655489870E+02 -0.21936559113E+03  0.23095794982E+03  0.00000000000E+00 0. -1.
         21    1    1    2  504  502  0.55716768737E+02  0.17902887662E+02 -0.43229159389E+03  0.43623490673E+03  0.00000000000E+00 0.  1.
         21    1    1    2  505  501 -0.47038429077E+02 -0.32144905782E+02 -0.22595343564E+03  0.23302545753E+03  0.00000000000E+00 0. -1.
          2    1    1    2  501    0 -0.78984147905E+02  0.30897507990E+02 -0.10644191823E+04  0.10677927455E+04  0.00000000000E+00 0. -1.
<scales pt_clust_3="81.85277" pt_clust_4="47.25377" pt_clust_5="56.97288" pt_clust_6="14000.00000"></scales>
<clustering>
<clus scale="   56.973">  1  5  2 -1</clus>
<clus scale="   47.254">  1  4  2 -1</clus>
<clus scale="   81.853">  1  3  2 -1</clus>
<clus scale="   56.973">  1  3  2 -1</clus>
</clustering>
</event>
<event>
 6    0  0.2117869E+002  0.2416507E+03  0.7546771E-02  0.1118698E+00
          2   -1    0    0  504    0 -0.00000000000E+00  0.00000000000E+00  0.11100053164E+04  0.11100053164E+04  0.00000000000E+00 0.  1.
         21   -1    0    0  505  502  0.00000000000E+00 -0.00000000000E+00 -0.48242234932E+03  0.48242234932E+03  0.00000000000E+00 0.  1.
         21    1    1    2  503  501  0.42337339281E+02  0.19839710736E+02 -0.15832257116E+03  0.16508210368E+03  0.00000000000E+00 0.  1.
         21    1    1    2  504  502 -0.15761744170E+02 -0.10147958819E+03  0.21090971194E+03  0.23458355865E+03  0.00000000000E+00 0.  1.
         21    1    1    2  505  503  0.10734624723E+03  0.15284832388E+03 -0.27329234343E+03  0.33102044028E+03  0.00000000000E+00 0.  1.
          2    1    1    2  501    0 -0.13392184234E+03 -0.71208446426E+02  0.84828816973E+03  0.86174156312E+03  0.00000000000E+00 0.  1.
<scales pt_clust_3="43.61735" pt_clust_4="102.69635" pt_clust_5="43.61735" pt_clust_6="225.37765"></scales>
<clustering>
<clus scale="   43.617">  3  5 -1 -1</clus>
<clus scale="  102.696">  1  4  2 -1</clus>
<clus scale="  225.378">  1  6  2 -1</clus>
<clus scale="  241.651">  2  3  1 -1</clus>
</clustering>
</event>
<event>
 6    0  0.2117869E+002  0.1304742E+03  0.7546771E-02  0.1226754E+00
          1   -1    0    0  505    0 -0.00000000000E+00  0.00000000000E+00  0.11204963186E+04  0.11204963186E+04  0.00000000000E+00 0.  1.
         21   -1    0    0  503  502  0.00000000000E+00 -0.00000000000E+00 -0.70729656020E+02  0.70729656020E+02  0.00000000000E+00 0.  1.
         21    1    1    2  503  501 -0.31488375643E+02  0.15113268044E+02 -0.37544201738E+02  0.51278609144E+02  0.00000000000E+00 0.  1.
         21    1    1    2  504  502 -0.97692508256E+01  0.10652120227E+03  0.34454973202E+03  0.36077239727E+03  0.00000000000E+00 0.  1.
         21    1    1    2  505  504 -0.11667593648E+02  0.28832721036E+02  0.39901297839E+03  0.40022345692E+03  0.00000000000E+00 0. -1.
          1    1    1    2  501    0  0.52925220116E+02 -0.15046719135E+03  0.34374815393E+03  0.37895151132E+03  0.00000000000E+00 0.  1.
<scales pt_clust_3="35.14710" pt_clust_4="130.47420" pt_clust_5="31.10400" pt_clust_6="14000.00000"></scales>
<clustering>
<clus scale="   31.104">  1  5  2 -1</clus>
<clus scale="   35.147">  2  3  1 -1</clus>
<clus scale="  130.474">  1  4  2 -1</clus>
<clus scale="   35.147">  2  3  1 -1</clus>
</clustering>
</event>
<event>
 6    0  0.2117869E+002  0.1000105E+03  0.7546771E-02  0.1280274E+00
          2   -1    0    0  505    0 -0.00000000000E+00  0.00000000000E+00  0.63778490962E+03  0.63778490962E+03  0.00000000000E+00 0. -1.
         21   -1    0    0  504  502  0.00000000000E+00 -0.00000000000E+00 -0.72530991579E+02  0.72530991579E+02  0.00000000000E+00 0. -1.
         21    1    1    2  503  502 -0.28005159490E+01 -0.11478514889E+03  0.29614731767E+02  0.11857700297E+03  0.00000000000E+00 0. -1.
         21    1    1    2  504  501  0.71150433875E+01  0.83626662543E+02  0.59163884725E+02  0.10268596684E+03  0.00000000000E+00 0. -1.
         21    1    1    2  505  503 -0.87663465659E+01 -0.36713597309E+02  0.10938662482E+03  0.11571590535E+03  0.00000000000E+00 0.  1.
          2    1    1    2  501    0  0.44518191274E+01  0.67872083659E+02  0.36708867672E+03  0.37333702604E+03  0.00000000000E+00 0. -1.
<scales pt_clust_3="14000.00000" pt_clust_4="100.01050" pt_clust_5="37.74569" pt_clust_6="42.02987"></scales>
<clustering>
<clus scale="   37.746">  1  5  2 -1</clus>
<clus scale="   42.030">  1  6  2 -1</clus>
<clus scale="  100.010">  1  4  2 -1</clus>
<clus scale="  100.010">  2  3  1 -1</clus>
</clustering>
</event>
<event>
 6    0  0.2117869E+002  0.7185533E+02  0.7546771E-02  0.1353895E+00
         21   -1    0    0  505  502  0.00000000000E+00  0.00000000000E+00  0.46216876237E+03  0.46216876237E+03  0.00000000000E+00 0.  1.
         -1   -1    0    0    0  501 -0.00000000000E+00 -0.00000000000E+00 -0.45164682679E+03  0.45164682679E+03  0.00000000000E+00 0.  1.
         21    1    1    2  503  502  0.47485132341E+02 -0.96762520656E+01  0.29289396790E+03  0.29687597424E+03  0.00000000000E+00 0.  1.
         21    1    1    2  504  503  0.65127307180E+02 -0.39229440001E+02 -0.22665496598E+02  0.79336245432E+02  0.00000000000E+00 0.  1.
         21    1    1    2  505  501 -0.84545857023E+02 -0.18440381539E+02  0.12167374819E+03  0.14930690074E+03  0.00000000000E+00 0.  1.
         -1    1    1    2    0  504 -0.28066582498E+02  0.67346073605E+02 -0.38138028391E+03  0.38829646874E+03  0.00000000000E+00 0.  1.
<scales pt_clust_3="48.46099" pt_clust_4="14000.00000" pt_clust_5="53.05088" pt_clust_6="71.85533"></scales>
<clustering>
<clus scale="   48.461">  1  3  2 -1</clus>
<clus scale="   53.051">  1  5  2 -1</clus>
<clus scale="   71.855">  2  6  1 -1</clus>
<clus scale="   48.461">  1  3  2 -1</clus>
</clustering>
</event>
<event>
 6    0  0.2117869E+002  0.1245618E+03  0.7546771E-02  0.1235756E+00
          2   -1    0    0  504    0 -0.00000000000E+00  0.00000000000E+00  0.32519880804E+04  0.32519880804E+04  0.00000000000E+00 0.  1.
         21   -1    0    0  503  502  0.00000000000E+00 -0.00000000000E+00 -0.31776584466E+02  0.31776584466E+02  0.00000000000E+00 0.  1.
         21    1    1    2  503  501  0.97026489446E+02 -0.19324099288E+02  0.68058358163E+02  0.12008122494E+03  0.00000000000E+00 0.  1.
         21    1    1    2  504  505 -0.17950589159E+02  0.46150746006E+02  0.19774496404E+04  0.19780695628E+04  0.00000000000E+00 0.  1.
         21    1    1    2  505  502  0.31663787090E+02 -0.26266044814E+02  0.17379960646E+03  0.17860236205E+03  0.00000000000E+00 0.  1.
          2    1    1    2  501    0 -0.11073968738E+03 -0.56060190478E+00  0.10009038909E+04  0.10070115151E+04  0.00000000000E+00 0.  1.
<scales pt_clust_3="14000.00000" pt_clust_4="49.13987" pt_clust_5="41.14001" pt_clust_6="124.56182"></scales>
<clustering>
<clus scale="   41.140">  2  5  1 -1</clus>
<clus scale="   49.140">  1  4  2 -1</clus>
<clus scale="  124.562">  1  6  2 -1</clus>
<clus scale="   41.140">  2  3  1 -1</clus>
</clustering>
</event>
<event>
 6    0  0.2117869E+002  0.2023220E+03  0.7546771E-02  0.1147795E+00
          1   -1    0    0  503    0 -0.00000000000E+00  0.00000000000E+00  0.85232869002E+03  0.85232869002E+03  0.00000000000E+00 0. -1.
         21   -1    0    0  505  502  0.00000000000E+00 -0.00000000000E+00 -0.43901825750E+03  0.43901825750E+03  0.00000000000E+00 0.  1.
         21    1    1    2  503  502  0.10544475795E+03 -0.77217038653E+02  0.44717690863E+02  0.13813305148E+03  0.00000000000E+00 0.  1.
         21    1    1    2  504  501  0.31577576810E+02 -0.49886276769E+02 -0.95048053131E+02  0.11189243214E+03  0.00000000000E+00 0.  1.
         21    1    1    2  505  504  0.31677590594E+02 -0.28443122379E+02 -0.26963770666E+03  0.27297797312E+03  0.00000000000E+00 0.  1.
          1    1    1    2  501    0 -0.16869992535E+03  0.15554643780E+03  0.73327850145E+03  0.76834349077E+03  0.00000000000E+00 0. -1.
<scales pt_clust_3="202.32197" pt_clust_4="84.62150" pt_clust_5="42.57324" pt_clust_6="14000.00000"></scales>
<clustering>
<clus scale="   42.573">  2  5  1 -1</clus>
<clus scale="   84.621">  2  4  1 -1</clus>
<clus scale="  202.322">  2  3  1 -1</clus>
<clus scale="   42.573">  2  3  1 -1</clus>
</clustering>
</event>
<event>
 6    0  0.2117869E+002  0.8528070E+02  0.7546771E-02  0.1314700E+00
         21   -1    0    0  505  502  0.00000000000E+00  0.00000000000E+00  0.14518978862E+02  0.14518978862E+02  0.00000000000E+00 0. -1.
          2   -1    0    0  503    0 -0.00000000000E+00 -0.00000000000E+00 -0.24170347177E+04  0.24170347177E+04  0.00000000000E+00 0. -1.
         21    1    1    2  503  504  0.17805794788E+02 -0.28100848583E+02 -0.45057669055E+03  0.45180311872E+03  0.00000000000E+00 0. -1.
         21    1    1    2  504  502  0.83563813698E+02 -0.83149725256E+02 -0.43730979395E+03  0.45292012944E+03  0.00000000000E+00 0. -1.
         21    1    1    2  505  501 -0.56693069561E+02  0.21358148186E+02 -0.21623236553E+03  0.22455892441E+03  0.00000000000E+00 0. -1.
          2    1    1    2  501    0 -0.44676538925E+02  0.89892425653E+02 -0.12983968888E+04  0.13022715240E+04  0.00000000000E+00 0. -1.
<scales pt_clust_3="33.26716" pt_clust_4="14000.00000" pt_clust_5="57.64774" pt_clust_6="85.28070"></scales>
<clustering>
<clus scale="   33.267">  2  3  1 -1</clus>
<clus scale="   57.648">  1  5  2 -1</clus>
<clus scale="   85.281">  2  6  1 -1</clus>
<clus scale="   57.648">  1  3  2 -1</clus>
</clustering>
</event>
<event>
 6    0  0.2117869E+002  0.9377946E+02  0.7546771E-02  0.1293949E+00
          2   -1    0    0  504    0 -0.00000000000E+00  0.00000000000E+00  0.39582762093E+04  0.39582762093E+04  0.00000000000E+00 0. -1.
         21   -1    0    0  501  502  0.00000000000E+00 -0.00000000000E+00 -0.44476182391E+02  0.44476182391E+02  0.00000000000E+00 0.  1.
         21    1    1    2  503  502  0.40650430762E+02  0.67828682330E+02  0.76197931050E+02  0.10981490046E+03  0.00000000000E+00 0.  1.
         21    1    1    2  504  505 -0.53054744168E+02 -0.28517763545E+02  0.49179174336E+03  0.49546663616E+03  0.00000000000E+00 0.  1.
         21    1    1    2  505  503 -0.84931613519E+02 -0.81679542186E+02  0.11412032960E+03  0.16403772802E+03  0.00000000000E+00 0.  1.
          2    1    1    2  501    0  0.97335926925E+02  0.42368623402E+02  0.32316900229E+04  0.32334331270E+04  0.00000000000E+00 0. -1.
<scales pt_clust_3="93.77946" pt_clust_4="60.23345" pt_clust_5="14000.00000" pt_clust_6="50.36483"></scales>
<clustering>
<clus scale="   60.233">  1  4  2 -1</clus>
<clus scale="   50.365">  1  6  2 -1</clus>
<clus scale="   93.779">  2  3  1 -1</clus>
<clus scale="   93.779">  2  3  1 -1</clus>
</clustering>
</event>
<event>
 6    0  0.2117869E+002  0.8724716E+02  0.7546771E-02  0.1309658E+00
          1   -1    0    0  503    0 -0.00000000000E+00  0.00000000000E+00  0.33573390399E+03  0.33573390399E+03  0.00000000000E+00 0.  1.
         21   -1    0    0  505  502  0.00000000000E+00 -0.00000000000E+00 -0.77640352788E+03  0.77640352788E+03  0.00000000000E+00 0.  1.
         21    1    1    2  503  502 -0.52191415626E+02  0.30336709014E+02  0.62912808434E+02  0.87191061720E+02  0.00000000000E+00 0. -1.
         21    1    1    2  504  501 -0.59048324826E+02 -0.33181436169E+02 -0.25412039516E+03  0.26299218165E+03  0.00000000000E+00 0.  1.
         21    1    1    2  505  504  0.76962417244E+01 -0.39916622724E+02 -0.49258679350E+03  0.49426138636E+03  0.00000000000E+00 0.  1.
          1    1    1    2  501    0  0.10354349873E+03  0.42761349879E+02  0.24312475634E+03  0.26769280214E+03  0.00000000000E+00 0.  1.
<scales pt_clust_3="59.23636" pt_clust_4="87.24716" pt_clust_5="40.65180" pt_clust_6="14000.00000"></scales>
<clustering>
<clus scale="   40.652">  2  5  1 -1</clus>
<clus scale="   59.236">  1  3  2 -1</clus>
<clus scale="   87.247">  2  4  1 -1</clus>
<clus scale="   40.652">  2  3  1 -1</clus>
</clustering>
</event>
<event>
 6    0  0.2117869E+002  0.8614562E+02  0.7546771E-02  0.1312464E+00
         -4   -1    0    0    0  501 -0.00000000000E+00  0.00000000000E+00  0.13295167684E+04  0.13295167684E+04  0.00000000000E+00 0. -1.
         21   -1    0    0  504  502  0.00000000000E+00 -0.00000000000E+00 -0.63362843411E+02  0.63362843411E+02  0.00000000000E+00 0.  1.
         21    1    1    2  503  502 -0.71669081281E+02 -0.44101895836E+02 -0.17833219497E+02  0.86020103148E+02  0.00000000000E+00 0.  1.
         21    1    1    2  504  505  0.22668856125E+02 -0.25713529963E+02  0.33857302777E+02  0.48180697510E+02  0.00000000000E+00 0.  1.
         21    1    1    2  505  501  0.97815701602E+01 -0.32277603153E+02  0.19491240208E+03  0.19780891604E+03  0.00000000000E+00 0. -1.
         -4    1    1    2    0  503  0.39218654996E+02  0.10209302895E+03  0.10552174397E+04  0.10608698952E+04  0.00000000000E+00 0. -1.
<scales pt_clust_3="86.14562" pt_clust_4="35.39343" pt_clust_5="33.72718" pt_clust_6="14000.00000"></scales>
<clustering>
<clus scale="   33.727">  1  5  2 -1</clus>
<clus scale="   35.393">  2  4  1 -1</clus>
<clus scale="   86.146">  2  3  1 -1</clus>
<clus scale="   35.393">  2  3  1 -1</clus>
</clustering>
</event>
<event>
 6    0  0.2117869E+002  0.1146805E+03  0.7546771E-02  0.1252140E+00
         -3   -1    0    0    0  501 -0.00000000000E+00  0.00000000000E+00  0.16678147051E+04  0.16678147051E+04  0.00000000000E+00 0.  1.
         21   -1    0    0  503  502  0.00000000000E+00 -0.00000000000E+00 -0.17086319008E+04  0.17086319008E+04  0.00000000000E+00 0. -1.
         21    1    1    2  503  505 -0.83851764665E+01  0.42482269296E+02 -0.11138977419E+03  0.11951040199E+03  0.00000000000E+00 0.  1.
         21    1    1    2  504  502  0.85337657860E+02 -0.68555775088E+02 -0.15548946985E+04  0.15587430620E+04  0.00000000000E+00 0. -1.
         21    1    1    2  505  501  0.71405671921E+00 -0.58315044332E+02 -0.96036353293E+01  0.59104856687E+02  0.00000000000E+00 0. -1.
         -3    1    1    2    0  504 -0.77666538113E+02  0.84388550125E+02  0.16350709123E+04  0.16390882852E+04  0.00000000000E+00 0.  1.
<scales pt_clust_3="43.30190" pt_clust_4="14000.00000" pt_clust_5="57.40146" pt_clust_6="114.68047"></scales>
<clustering>
<clus scale="   43.302">  2  3  1 -1</clus>
<clus scale="   57.401">  2  5  1 -1</clus>
<clus scale="  114.680">  1  6  2 -1</clus>
<clus scale="   43.302">  2  3  1 -1</clus>
</clustering>
</event>
<event>
 6    0  0.2117869E+002  0.1115553E+03  0.7546771E-02  0.1257716E+00
         -3   -1    0    0    0  501 -0.00000000000E+00  0.00000000000E+00  0.14861621059E+03  0.14861621059E+03  0.00000000000E+00 0. -1.
         21   -1    0    0  503  502  0.00000000000E+00 -0.00000000000E+00 -0.52731257218E+03  0.52731257218E+03  0.00000000000E+00 0. -1.
         21    1    1    2  503  501 -0.19368738644E+01  0.64900790491E+02 -0.32421605064E+02  0.72574269281E+02  0.00000000000E+00 0. -1.
         21    1    1    2  504  502  0.37035268772E+02 -0.49171443647E+02 -0.28466528679E+03  0.29124520169E+03  0.00000000000E+00 0. -1.
         21    1    1    2  505  504  0.56549754819E+02  0.57858647441E+02 -0.14634115896E+03  0.16721612560E+03  0.00000000000E+00 0. -1.
         -3    1    1    2    0  505 -0.91648149727E+02 -0.73587994285E+02  0.84731689220E+02  0.14489318621E+03  0.00000000000E+00 0. -1.
<scales pt_clust_3="54.46850" pt_clust_4="61.55844" pt_clust_5="14000.00000" pt_clust_6="111.55533"></scales>
<clustering>
<clus scale="   61.558">  2  4  1 -1</clus>
<clus scale="   54.468">  2  3  1 -1</clus>
<clus scale="  111.555">  1  6  2 -1</clus>
<clus scale="   61.558">  2  3  1 -1</clus>
</clustering>
</event>
<event>
 6    0  0.2117869E+002  0.1074037E+03  0.7546771E-02  0.1265455E+00
          2   -1    0    0  505    0 -0.00000000000E+00  0.00000000000E+00  0.19705834450E+04  0.19705834450E+04  0.00000000000E+00 0. -1.
         21   -1    0    0  503  502  0.00000000000E+00 -0.00000000000E+00 -0.79033260247E+02  0.79033260247E+02  0.00000000000E+00 0. -1.
         21    1    1    2  503  504  0.47430400900E+02 -0.20761520582E+02 -0.40326217171E+02  0.65626880603E+02  0.00000000000E+00 0. -1.
         21    1    1    2  504  501  0.12836909006E+02  0.11399084896E+03  0.12638640728E+03  0.17068164466E+03  0.00000000000E+00 0. -1.
         21    1    1    2  505  502 -0.75296780056E+00 -0.33509774213E+02  0.94965174894E+02  0.10070678414E+03  0.00000000000E+00 0. -1.
          2    1    1    2  501    0 -0.59514342105E+02 -0.59719554169E+02  0.17105248198E+04  0.17126013958E+04  0.00000000000E+00 0. -1.
<scales pt_clust_3="51.86185" pt_clust_4="107.40366" pt_clust_5="33.51823" pt_clust_6="14000.00000"></scales>
<clustering>
<clus scale="   33.518">  1  5  2 -1</clus>
<clus scale="   51.862">  2  3  1 -1</clus>
<clus scale="  107.404">  2  4  1 -1</clus>
<clus scale="   51.862">  2  3  1 -1</clus>
</clustering>
</event>
<event>
 6    0  0.2117869E+002  0.6048180E+02  0.7546771E-02  0.1395821E+00
         21   -1    0    0  503  502  0.00000000000E+00  0.00000000000E+00  0.21667532707E+04  0.21667532707E+04  0.00000000000E+00 0.  1.
          2   -1    0    0  505    0 -0.00000000000E+00 -0.00000000000E+00 -0.21850377149E+04  0.21850377149E+04  0.00000000000E+00 0. -1.
         21    1    1    2  503  501  0.50527266776E+02  0.79049704859E+02 -0.69296244693E+02  0.11663545796E+03  0.00000000000E+00 0. -1.
         21    1    1    2  504  502 -0.22229280105E+01 -0.60347077106E+02  0.21386558724E+04  0.21395082733E+04  0.00000000000E+00 0.  1.
         21    1    1    2  505  504  0.40417035719E+02 -0.18623170828E+02 -0.16318151582E+03  0.16914067037E+03  0.00000000000E+00 0. -1.
          2    1    1    2  501    0 -0.88721374484E+02 -0.79456924590E-01 -0.19244625560E+04  0.19265065840E+04  0.00000000000E+00 0. -1.
<scales pt_clust_3="14000.00000" pt_clust_4="60.48180" pt_clust_5="44.50123" pt_clust_6="53.25164"></scales>
<clustering>
<clus scale="   44.501">  2  5  1 -1</clus>
<clus scale="   53.252">  2  6  1 -1</clus>
<clus scale="   60.482">  1  4  2 -1</clus>
<clus scale="   60.482">  1  3  2 -1</clus>
</clustering>
</event>
<event>
 6    0  0.2117869E+002  0.1355459E+03  0.7546771E-02  0.1219451E+00
         21   -1    0    0  504  502  0.00000000000E+00  0.00000000000E+00  0.17547746964E+04  0.17547746964E+04  0.00000000000E+00 0.  1.
          2   -1    0    0  505    0 -0.00000000000E+00 -0.00000000000E+00 -0.95046562420E+03  0.95046562420E+03  0.00000000000E+00 0.  1.
         21    1    1    2  503  502 -0.26907766253E+02 -0.15605108250E+02  0.15747047777E+04  0.15750119632E+04  0.00000000000E+00 0.  1.
         21    1    1    2  504  501  0.46441489574E+01 -0.35203233917E+02 -0.20002525893E+02  0.40754592868E+02  0.00000000000E+00 0.  1.
         21    1    1    2  505  503  0.77026629062E+02 -0.74431053941E+02  0.14691393953E+03  0.18181526065E+03  0.00000000000E+00 0.  1.
          2    1    1    2  501    0 -0.54763011767E+02  0.12523939611E+03 -0.89730711909E+03  0.90765850393E+03  0.00000000000E+00 0.  1.
<scales pt_clust_3="31.10542" pt_clust_4="36.23539" pt_clust_5="135.54591" pt_clust_6="14000.00000"></scales>
<clustering>
<clus scale="   31.105">  1  3  2 -1</clus>
<clus scale="   36.235">  1  4  2 -1</clus>
<clus scale="  135.546">  1  5  2 -1</clus>
<clus scale="   31.105">  1  3  2 -1</clus>
</clustering>
</event>
<event>
 6    0  0.2117869E+002  0.7688998E+02  0.7546771E-02  0.1338116E+00
         21   -1    0    0  504  502  0.00000000000E+00  0.00000000000E+00  0.19831955221E+03  0.19831955221E+03  0.00000000000E+00 0. -1.
          2   -1    0    0  505    0 -0.00000000000E+00 -0.00000000000E+00 -0.88264421434E+03  0.88264421434E+03  0.00000000000E+00 0.  1.
         21    1    1    2  503  501  0.83739584964E+02 -0.27684867844E+02  0.14209526517E+03  0.16724184399E+03  0.00000000000E+00 0. -1.
         21    1    1    2  504  503 -0.24440450268E+02  0.21784544939E+02  0.26630133830E+02  0.42202678058E+02  0.00000000000E+00 0. -1.
         21    1    1    2  505  502 -0.51910217669E+01 -0.63539153392E+02 -0.15008250778E+03  0.16306112308E+03  0.00000000000E+00 0. -1.
          2    1    1    2  501    0 -0.54108112930E+02  0.69439476297E+02 -0.70296755335E+03  0.70845812143E+03  0.00000000000E+00 0.  1.
<scales pt_clust_3="61.09337" pt_clust_4="32.73991" pt_clust_5="14000.00000" pt_clust_6="76.88998"></scales>
<clustering>
<clus scale="   32.740">  1  4  2 -1</clus>
<clus scale="   61.093">  1  3  2 -1</clus>
<clus scale="   76.890">  2  6  1 -1</clus>
<clus scale="   32.740">  1  3  2 -1</clus>
</clustering>
</event>
<event>
 6    0  0.2117869E+002  0.2413255E+03  0.7546771E-02  0.1118913E+00
          1   -1    0    0  504    0 -0.00000000000E+00  0.00000000000E+00  0.15457124378E+04  0.15457124378E+04  0.00000000000E+00 0.  1.
         21   -1    0    0  501  502  0.00000000000E+00 -0.00000000000E+00 -0.14396065232E+03  0.14396065232E+03  0.00000000000E+00 0.  1.
         21    1    1    2  503  505  0.29542059502E+02 -0.38165535670E+02  0.14010522423E+02  0.50255707448E+02  0.00000000000E+00 0. -1.
         21    1    1    2  504  503  0.78149950901E+02 -0.51644870216E+02  0.19376179776E+03  0.21521673197E+03  0.00000000000E+00 0.  1.
         21    1    1    2  505  502 -0.28950928678E+02 -0.18407919387E+03 -0.10333565934E+02  0.18662820920E+03  0.00000000000E+00 0.  1.
          1    1    1    2  501    0 -0.78741081725E+02  0.27388959975E+03  0.12043130312E+04  0.12375724415E+04  0.00000000000E+00 0.  1.
<scales pt_clust_3="41.68023" pt_clust_4="93.67287" pt_clust_5="41.68023" pt_clust_6="227.00347"></scales>
<clustering>
<clus scale="   41.680">  3  5 -1 -1</clus>
<clus scale="   93.673">  1  4  2 -1</clus>
<clus scale="  227.003">  1  6  2 -1</clus>
<clus scale="  241.325">  2  3  1 -1</clus>
</clustering>
</event>
<event>
 6    0  0.2117869E+002  0.1001708E+03  0.7546771E-02  0.1279937E+00
         21   -1    0    0  504  502  0.00000000000E+00  0.00000000000E+00  0.47342121436E+03  0.47342121436E+03  0.00000000000E+00 0.  1.
         -1   -1    0    0    0  501 -0.00000000000E+00 -0.00000000000E+00 -0.86413016429E+03  0.86413016429E+03  0.00000000000E+00 0.  1.
         21    1    1    2  503  502 -0.11010782626E+03 -0.12222956957E+02 -0.24499506309E+03  0.26887862507E+03  0.00000000000E+00 0.  1.
         21    1    1    2  504  505  0.63504967068E+02 -0.77196474373E+02  0.44193653677E+03  0.45310051758E+03  0.00000000000E+00 0.  1.
         21    1    1    2  505  501  0.27713179363E+02 -0.17770167197E+02 -0.22117484143E+02  0.39660840352E+02  0.00000000000E+00 0. -1.
         -1    1    1    2    0  503  0.18889679826E+02  0.10718959853E+03 -0.56553293946E+03  0.57591139566E+03  0.00000000000E+00 0.  1.
<scales pt_clust_3="89.75808" pt_clust_4="100.17078" pt_clust_5="32.92110" pt_clust_6="14000.00000"></scales>
<clustering>
<clus scale="   32.921">  2  5  1 -1</clus>
<clus scale="  100.171">  1  4  2 -1</clus>
<clus scale="   89.758">  1  3  2 -1</clus>
<clus scale="  100.171">  1  3  2 -1</clus>
</clustering>
</event>
<event>
 6    0  0.3036455E+002  0.1071942E+03  0.7546771E-02  0.1265856E+00
         21   -1    0    0  501  502  0.00000000000E+00  0.00000000000E+00  0.19375362059E+04  0.19375362059E+04  0.00000000000E+00 0. -1.
          2   -1    0    0  505    0 -0.00000000000E+00 -0.00000000000E+00 -0.12940728394E+04  0.12940728394E+04  0.00000000000E+00 0. -1.
         21    1    1    2  503  502  0.60213487199E+01  0.46111476633E+02  0.15751289420E+04  0.15758152522E+04  0.00000000000E+00 0. -1.
         21    1    1    2  504  503 -0.12961722456E+02  0.62866414103E+02  0.34284029966E+03  0.34879745317E+03  0.00000000000E+00 0. -1.
         21    1    1    2  505  504  0.39154258135E+02  0.62272450755E+01 -0.15895920037E+02  0.42714339339E+02  0.00000000000E+00 0.  1.
          2    1    1    2  501    0 -0.32213884398E+02 -0.11520513581E+03 -0.12586099552E+04  0.12642820006E+04  0.00000000000E+00 0. -1.
<scales pt_clust_3="46.50601" pt_clust_4="107.19420" pt_clust_5="39.64637" pt_clust_6="14000.00000"></scales>
<clustering>
<clus scale="   39.646">  2  5  1 -1</clus>
<clus scale="   46.506">  1  3  2 -1</clus>
<clus scale="  107.194">  1  4  2 -1</clus>
<clus scale="   46.506">  1  3  2 -1</clus>
</clustering>
</event>
<event>
 6    0  0.2117869E+002  0.8535193E+02  0.7546771E-02  0.1314515E+00
          2   -1    0    0  505    0 -0.00000000000E+00  0.00000000000E+00  0.84205890373E+03  0.84205890373E+03  0.00000000000E+00 0. -1.
         21   -1    0    0  504  502  0.00000000000E+00 -0.00000000000E+00 -0.15742388531E+04  0.15742388531E+04  0.00000000000E+00 0.  1.
         21    1    1    2  503  501  0.33719675376E+02  0.77421361227E+02 -0.11285733513E+04  0.11317282770E+04  0.00000000000E+00 0.  1.
         21    1    1    2  504  503 -0.57624473667E+02  0.44867173254E+01 -0.43377040595E+03  0.43760424549E+03  0.00000000000E+00 0.  1.
         21    1    1    2  505  502 -0.29037850394E+02  0.23918821647E+02  0.92286331398E+02  0.99659790023E+02  0.00000000000E+00 0. -1.
          2    1    1    2  501    0  0.52942648686E+02 -0.10582690020E+03  0.73787747646E+03  0.74730544433E+03  0.00000000000E+00 0. -1.
<scales pt_clust_3="85.35193" pt_clust_4="57.87806" pt_clust_5="37.62056" pt_clust_6="14000.00000"></scales>
<clustering>
<clus scale="   37.621">  1  5  2 -1</clus>
<clus scale="   57.878">  2  4  1 -1</clus>
<clus scale="   85.352">  2  3  1 -1</clus>
<clus scale="   57.878">  2  3  1 -1</clus>
</clustering>
</event>
<event>
 6    0  0.2117869E+002  0.8557768E+02  0.7546771E-02  0.1313929E+00
         -2   -1    0    0    0  501 -0.00000000000E+00  0.00000000000E+00  0.25062715397E+03  0.25062715397E+03  0.00000000000E+00 0. -1.
         21   -1    0    0  504  502  0.00000000000E+00 -0.00000000000E+00 -0.23821562941E+03  0.23821562941E+03  0.00000000000E+00 0. -1.
         21    1    1    2  503  502 -0.10009544052E+03  0.22756129231E+01 -0.59975461358E+02  0.11671046051E+03  0.00000000000E+00 0. -1.
         21    1    1    2  504  501  0.14075826464E+02 -0.28942524323E+02 -0.10841005991E+03  0.11308642577E+03  0.00000000000E+00 0. -1.
         21    1    1    2  505  503  0.67671401239E+02 -0.56259590174E+02  0.44910387728E+02  0.98800318613E+02  0.00000000000E+00 0.  1.
         -2    1    1    2    0  505  0.18348212814E+02  0.82926501574E+02  0.13588665810E+03  0.16024557849E+03  0.00000000000E+00 0. -1.
<scales pt_clust_3="14000.00000" pt_clust_4="32.18383" pt_clust_5="85.57768" pt_clust_6="82.54462"></scales>
<clustering>
<clus scale="   32.184">  2  4  1 -1</clus>
<clus scale="   82.545">  1  6  2 -1</clus>
<clus scale="   85.578">  1  5  2 -1</clus>
<clus scale="   32.184">  2  3  1 -1</clus>
</clustering>
</event>
<event>
 6    0  0.2117869E+002  0.8658078E+02  0.7546771E-02  0.1311350E+00
         21   -1    0    0  505  502  0.00000000000E+00  0.00000000000E+00  0.13790684690E+04  0.13790684690E+04  0.00000000000E+00 0. -1.
          1   -1    0    0  504    0 -0.00000000000E+00 -0.00000000000E+00 -0.57558350617E+03  0.57558350617E+03  0.00000000000E+00 0.  1.
         21    1    1    2  503  502 -0.76407911108E+01  0.35290384003E+02  0.12256299809E+04  0.12261617524E+04  0.00000000000E+00 0. -1.
         21    1    1    2  504  503 -0.13246848188E+02  0.47593571179E+02 -0.51795757911E+02  0.71578121951E+02  0.00000000000E+00 0. -1.
         21    1    1    2  505  501 -0.26458681291E+02  0.47443196248E+02  0.12830880279E+03  0.13933437322E+03  0.00000000000E+00 0. -1.
          1    1    1    2  501    0  0.47346320589E+02 -0.13032715143E+03 -0.49865806291E+03  0.51757772767E+03  0.00000000000E+00 0.  1.
<scales pt_clust_3="36.10807" pt_clust_4="51.73062" pt_clust_5="14000.00000" pt_clust_6="86.58078"></scales>
<clustering>
<clus scale="   36.108">  1  3  2 -1</clus>
<clus scale="   51.731">  2  4  1 -1</clus>
<clus scale="   86.581">  2  6  1 -1</clus>
<clus scale="   36.108">  1  3  2 -1</clus>
</clustering>
</event>
<event>
 6    0  0.2117869E+002  0.5230009E+02  0.7546771E-02  0.1433316E+00
         21   -1    0    0  505  502  0.00000000000E+00  0.00000000000E+00  0.59797630575E+02  0.59797630575E+02  0.00000000000E+00 0. -1.
          1   -1    0    0  504    0 -0.00000000000E+00 -0.00000000000E+00 -0.17709399457E+04  0.17709399457E+04  0.00000000000E+00 0.  1.
         21    1    1    2  503  502 -0.56895179879E+02  0.76798957363E+00  0.18381798326E+01  0.56930046606E+02  0.00000000000E+00 0. -1.
         21    1    1    2  504  503 -0.30873449254E+01  0.51811880050E+02 -0.31583532169E+03  0.32007179358E+03  0.00000000000E+00 0.  1.
         21    1    1    2  505  501  0.36891139164E+02  0.47663222306E+02 -0.80159673914E+01  0.60802916400E+02  0.00000000000E+00 0. -1.
          1    1    1    2  501    0  0.23091385641E+02 -0.10024309193E+03 -0.13891292059E+04  0.13929328197E+04  0.00000000000E+00 0.  1.
<scales pt_clust_3="14000.00000" pt_clust_4="51.90378" pt_clust_5="52.30009" pt_clust_6="54.49682"></scales>
<clustering>
<clus scale="   51.904">  2  4  1 -1</clus>
<clus scale="   54.497">  2  6  1 -1</clus>
<clus scale="   52.300">  2  5  1 -1</clus>
<clus scale="   52.300">  1  3  2 -1</clus>
</clustering>
</event>
<event>
 6    0  0.2117869E+002  0.8849258E+02  0.7546771E-02  0.1306544E+00
          2   -1    0    0  503    0 -0.00000000000E+00  0.00000000000E+00  0.11938313292E+04  0.11938313292E+04  0.00000000000E+00 0. -1.
         21   -1    0    0  501  502  0.00000000000E+00 -0.00000000000E+00 -0.18829363576E+03  0.18829363576E+03  0.00000000000E+00 0.  1.
         21    1    1    2  503  505  0.19599297236E+02  0.25917911417E+02  0.20904298422E+03  0.21155339712E+03  0.00000000000E+00 0. -1.
         21    1    1    2  504  502 -0.61634664916E+02  0.60639282864E+02 -0.13590242514E+03  0.16107583216E+03  0.00000000000E+00 0.  1.
         21    1    1    2  505  504  0.23406661465E+02 -0.12080640948E+03  0.61209300411E+02  0.13743594446E+03  0.00000000000E+00 0. -1.
          2    1    1    2  501    0  0.18628706215E+02  0.34249215195E+02  0.87118783394E+03  0.87205979121E+03  0.00000000000E+00 0. -1.
<scales pt_clust_3="32.49416" pt_clust_4="88.49258" pt_clust_5="14000.00000" pt_clust_6="67.60003"></scales>
<clustering>
<clus scale="   32.494">  1  3  2 -1</clus>
<clus scale="   67.600">  1  6  2 -1</clus>
<clus scale="   88.493">  2  4  1 -1</clus>
<clus scale="   88.493">  2  3  1 -1</clus>
</clustering>
</event>
<event>
 6    0  0.2117869E+002  0.1694461E+03  0.7546771E-02  0.1178427E+00
          2   -1    0    0  504    0 -0.00000000000E+00  0.00000000000E+00  0.76261940487E+03  0.76261940487E+03  0.00000000000E+00 0.  1.
         21   -1    0    0  501  502  0.00000000000E+00 -0.00000000000E+00 -0.10700071454E+03  0.10700071454E+03  0.00000000000E+00 0. -1.
         21    1    1    2  503  502  0.37522006283E+02  0.44601422240E+01  0.20599904912E+02  0.43036611235E+02  0.00000000000E+00 0.  1.
         21    1    1    2  504  505  0.20679833821E+02 -0.48600785442E+02  0.13700670644E+03  0.14683504173E+03  0.00000000000E+00 0.  1.
         21    1    1    2  505  503  0.11413960350E+03  0.44879492346E+02 -0.28358654548E+02  0.12588181444E+03  0.00000000000E+00 0. -1.
          2    1    1    2  501    0 -0.17234144360E+03 -0.73884912771E+00  0.52637073352E+03  0.55386665200E+03  0.00000000000E+00 0.  1.
<scales pt_clust_3="30.59177" pt_clust_4="52.81753" pt_clust_5="30.59177" pt_clust_6="160.23226"></scales>
<clustering>
<clus scale="   30.592">  3  5 -1 -1</clus>
<clus scale="   52.818">  1  4  2 -1</clus>
<clus scale="  160.232">  1  6  2 -1</clus>
<clus scale="  169.446">  2  3  1 -1</clus>
</clustering>
</event>
<event>
 6    0  0.2117869E+002  0.1800218E+03  0.7546771E-02  0.1167782E+00
         21   -1    0    0  501  502  0.00000000000E+00  0.00000000000E+00  0.19472207757E+03  0.19472207757E+03  0.00000000000E+00 0. -1.
          2   -1    0    0  504    0 -0.00000000000E+00 -0.00000000000E+00 -0.11433422912E+04  0.11433422912E+04  0.00000000000E+00 0. -1.
         21    1    1    2  503  505  0.11999801900E+02  0.71708043854E+02  0.59669770331E+02  0.94055942345E+02  0.00000000000E+00 0. -1.
         21    1    1    2  504  503  0.72707089500E+02  0.77182573129E+01 -0.39703641680E+03  0.40371253216E+03  0.00000000000E+00 0. -1.
         21    1    1    2  505  502 -0.63012005935E+02  0.87617975100E+02  0.76453567734E+02  0.13225948160E+03  0.00000000000E+00 0. -1.
          2    1    1    2  501    0 -0.21694885464E+02 -0.16704427627E+03 -0.68770713490E+03  0.70803641268E+03  0.00000000000E+00 0. -1.
<scales pt_clust_3="56.28210" pt_clust_4="73.11561" pt_clust_5="56.28210" pt_clust_6="166.45046"></scales>
<clustering>
<clus scale="   56.282">  3  5 -1 -1</clus>
<clus scale="   73.116">  2  4  1 -1</clus>
<clus scale="  166.450">  2  6  1 -1</clus>
<clus scale="  180.022">  1  3  2 -1</clus>
</clustering>
</event>
<event>
 6    0  0.2117869E+002  0.7794667E+02  0.7546771E-02  0.1334982E+00
         21   -1    0    0  503  502  0.00000000000E+00  0.00000000000E+00  0.38590144665E+02  0.38590144665E+02  0.00000000000E+00 0. -1.
          2   -1    0    0  505    0 -0.00000000000E+00 -0.00000000000E+00 -0.22359533908E+04  0.22359533908E+04  0.00000000000E+00 0. -1.
         21    1    1    2  503  501 -0.50265530629E+02  0.15276662353E+02 -0.15477297362E+03  0.16344623993E+03  0.00000000000E+00 0. -1.
         21    1    1    2  504  502  0.29395439637E+02  0.40499618680E+02  0.87767844301E+01  0.50806918128E+02  0.00000000000E+00 0. -1.
         21    1    1    2  505  504  0.70868561712E+02  0.12897622441E+02 -0.38005993279E+03  0.38682587067E+03  0.00000000000E+00 0. -1.
          2    1    1    2  501    0 -0.49998470720E+02 -0.68673903474E+02 -0.16713071241E+04  0.16734645067E+04  0.00000000000E+00 0. -1.
<scales pt_clust_3="50.21690" pt_clust_4="50.04309" pt_clust_5="14000.00000" pt_clust_6="77.94667"></scales>
<clustering>
<clus scale="   50.043">  1  4  2 -1</clus>
<clus scale="   50.217">  1  3  2 -1</clus>
<clus scale="   77.947">  2  6  1 -1</clus>
<clus scale="   50.043">  1  3  2 -1</clus>
</clustering>
</event>
<event>
 6    0  0.2117869E+002  0.9844208E+02  0.7546771E-02  0.1283607E+00
         21   -1    0    0  504  502  0.00000000000E+00  0.00000000000E+00  0.62277006294E+03  0.62277006294E+03  0.00000000000E+00 0.  1.
          2   -1    0    0  503    0 -0.00000000000E+00 -0.00000000000E+00 -0.27006111780E+04  0.27006111780E+04  0.00000000000E+00 0.  1.
         21    1    1    2  503  505  0.14178189113E+03  0.48607616241E+02 -0.17721897111E+03  0.23210206533E+03  0.00000000000E+00 0.  1.
         21    1    1    2  504  501 -0.91676360716E+02  0.64808699350E+02 -0.35963058157E+03  0.37674776420E+03  0.00000000000E+00 0. -1.
         21    1    1    2  505  502 -0.60697406220E+02 -0.53167633322E+02  0.58355351866E+03  0.58910583217E+03  0.00000000000E+00 0.  1.
          2    1    1    2  501    0  0.10591875805E+02 -0.60248682270E+02 -0.21245450811E+04  0.21254255793E+04  0.00000000000E+00 0.  1.
<scales pt_clust_3="14000.00000" pt_clust_4="98.44208" pt_clust_5="80.84402" pt_clust_6="61.17264"></scales>
<clustering>
<clus scale="   61.173">  2  6  1 -1</clus>
<clus scale="   80.844">  1  5  2 -1</clus>
<clus scale="   98.442">  2  4  1 -1</clus>
<clus scale="   80.844">  1  3  2 -1</clus>
</clustering>
</event>
<event>
 6    0  0.2117869E+002  0.2135936E+03  0.7546771E-02  0.1138751E+00
         21   -1    0    0  505  502  0.00000000000E+00  0.00000000000E+00  0.25477410939E+03  0.25477410939E+03  0.00000000000E+00 0.  1.
          2   -1    0    0  504    0 -0.00000000000E+00 -0.00000000000E+00 -0.25251588965E+04  0.25251588965E+04  0.00000000000E+00 0. -1.
         21    1    1    2  503  502  0.10248715149E+03 -0.15228024595E+03  0.85574643648E+02  0.20252384838E+03  0.00000000000E+00 0.  1.
         21    1    1    2  504  503  0.27373203596E+02 -0.15224177395E+02 -0.99535810444E+02  0.10434771398E+03  0.00000000000E+00 0.  1.
         21    1    1    2  505  501 -0.85263401067E+02 -0.62645172584E+02  0.75122047512E+02  0.12975972885E+03  0.00000000000E+00 0.  1.
          2    1    1    2  501    0 -0.44596954020E+02  0.23014959593E+03 -0.23315456678E+04  0.23433017146E+04  0.00000000000E+00 0. -1.
<scales pt_clust_3="14000.00000" pt_clust_4="31.32200" pt_clust_5="105.65637" pt_clust_6="213.59362"></scales>
<clustering>
<clus scale="   31.322">  2  4  1 -1</clus>
<clus scale="  105.656">  1  5  2 -1</clus>
<clus scale="  213.594">  2  6  1 -1</clus>
<clus scale="  105.656">  1  3  2 -1</clus>
</clustering>
</event>
<event>
 6    0  0.2117869E+002  0.7435648E+02  0.7546771E-02  0.1345875E+00
         21   -1    0    0  504  502  0.00000000000E+00  0.00000000000E+00  0.12227544569E+03  0.12227544569E+03  0.00000000000E+00 0. -1.
          2   -1    0    0  503    0 -0.00000000000E+00 -0.00000000000E+00 -0.35472000423E+04  0.35472000423E+04  0.00000000000E+00 0. -1.
         21    1    1    2  503  505  0.14070057794E+02  0.89393688298E+02 -0.82854316331E+03  0.83347043828E+03  0.00000000000E+00 0. -1.
         21    1    1    2  504  501  0.14849645677E+02  0.32382615519E+02  0.64036974404E+02  0.73279464078E+02  0.00000000000E+00 0. -1.
         21    1    1    2  505  502  0.12484343956E+02 -0.62139069006E+02  0.30841693130E+02  0.70486401355E+02  0.00000000000E+00 0. -1.
          2    1    1    2  501    0 -0.41404047427E+02 -0.59637234811E+02 -0.26912601009E+04  0.26922391843E+04  0.00000000000E+00 0. -1.
<scales pt_clust_3="74.35648" pt_clust_4="35.62507" pt_clust_5="41.20531" pt_clust_6="14000.00000"></scales>
<clustering>
<clus scale="   35.625">  1  4  2 -1</clus>
<clus scale="   41.205">  1  5  2 -1</clus>
<clus scale="   74.356">  1  3  2 -1</clus>
<clus scale="   35.625">  1  3  2 -1</clus>
</clustering>
</event>
<event>
 6    0  0.2117869E+002  0.1036945E+03  0.7546771E-02  0.1272713E+00
          2   -1    0    0  504    0 -0.00000000000E+00  0.00000000000E+00  0.12994361733E+02  0.12994361733E+02  0.00000000000E+00 0. -1.
         21   -1    0    0  503  502  0.00000000000E+00 -0.00000000000E+00 -0.35139687907E+04  0.35139687907E+04  0.00000000000E+00 0. -1.
         21    1    1    2  503  505  0.31469174011E+02 -0.11064310288E+03 -0.16004534632E+04  0.16045820306E+04  0.00000000000E+00 0. -1.
         21    1    1    2  504  502  0.66072423901E+02 -0.54477038764E+01 -0.37733180377E+03  0.38311164536E+03  0.00000000000E+00 0. -1.
         21    1    1    2  505  501  0.21816915054E+02  0.93493420555E+02 -0.82789810479E+03  0.83344602068E+03  0.00000000000E+00 0. -1.
          2    1    1    2  501    0 -0.11935851297E+03  0.22597386199E+02 -0.69529105716E+03  0.70582345572E+03  0.00000000000E+00 0. -1.
<scales pt_clust_3="103.69451" pt_clust_4="66.29663" pt_clust_5="14000.00000" pt_clust_6="87.19128"></scales>
<clustering>
<clus scale="   66.297">  1  4  2 -1</clus>
<clus scale="   87.191">  1  6  2 -1</clus>
<clus scale="  103.695">  2  3  1 -1</clus>
<clus scale="  103.695">  2  3  1 -1</clus>
</clustering>
</event>
<event>
 6    0  0.2117869E+002  0.1244352E+03  0.7546771E-02  0.1235955E+00
         -2   -1    0    0    0  501 -0.00000000000E+00  0.00000000000E+00  0.20217961101E+03  0.20217961101E+03  0.00000000000E+00 0. -1.
         21   -1    0    0  504  502  0.00000000000E+00 -0.00000000000E+00 -0.15645589467E+04  0.15645589467E+04  0.00000000000E+00 0.  1.
         21    1    1    2  503  505 -0.11524694530E+03 -0.21405784142E+02 -0.13242084903E+04  0.13293863967E+04  0.00000000000E+00 0.  1.
         21    1    1    2  504  501  0.30395734717E+02  0.24463538501E+02 -0.23349745242E+02  0.45470605976E+02  0.00000000000E+00 0.  1.
         21    1    1    2  505  502  0.18715859914E+02 -0.61157663485E+02 -0.18747288602E+03  0.19808237228E+03  0.00000000000E+00 0. -1.
         -2    1    1    2    0  503  0.66135350673E+02  0.58099909125E+02  0.17265178589E+03  0.19379918271E+03  0.00000000000E+00 0. -1.
<scales pt_clust_3="14000.00000" pt_clust_4="39.01750" pt_clust_5="63.56290" pt_clust_6="124.43517"></scales>
<clustering>
<clus scale="   39.018">  1  4  2 -1</clus>
<clus scale="   63.563">  2  5  1 -1</clus>
<clus scale="  124.435">  1  6  2 -1</clus>
<clus scale="   63.563">  2  3  1 -1</clus>
</clustering>
</event>
<event>
 6    0  0.2117869E+002  0.1232795E+03  0.7546771E-02  0.1237783E+00
          2   -1    0    0  505    0 -0.00000000000E+00  0.00000000000E+00  0.25647502039E+04  0.25647502039E+04  0.00000000000E+00 0.  1.
         21   -1    0    0  504  502  0.00000000000E+00 -0.00000000000E+00 -0.27234745272E+03  0.27234745272E+03  0.00000000000E+00 0.  1.
         21    1    1    2  503  502  0.91797442477E+02 -0.56809542809E+01 -0.22745210334E+03  0.24534364267E+03  0.00000000000E+00 0.  1.
         21    1    1    2  504  501  0.26807582693E+02  0.39067708460E+02 -0.13725823900E+02  0.49328800674E+02  0.00000000000E+00 0. -1.
         21    1    1    2  505  503  0.27684358704E+02  0.37215815636E+02  0.76323883979E+03  0.76464695593E+03  0.00000000000E+00 0. -1.
          2    1    1    2  501    0 -0.14628938387E+03 -0.70602569815E+02  0.17703418386E+04  0.17777782573E+04  0.00000000000E+00 0.  1.
<scales pt_clust_3="123.27953" pt_clust_4="47.83890" pt_clust_5="46.38362" pt_clust_6="14000.00000"></scales>
<clustering>
<clus scale="   46.384">  1  5  2 -1</clus>
<clus scale="   47.839">  2  4  1 -1</clus>
<clus scale="  123.280">  2  3  1 -1</clus>
<clus scale="   47.839">  2  3  1 -1</clus>
</clustering>
</event>
<event>
 6    0  0.2117869E+002  0.7457155E+02  0.7546771E-02  0.1345203E+00
          1   -1    0    0  505    0 -0.00000000000E+00  0.00000000000E+00  0.10452159313E+04  0.10452159313E+04  0.00000000000E+00 0.  1.
         21   -1    0    0  503  502  0.00000000000E+00 -0.00000000000E+00 -0.41718774365E+02  0.41718774365E+02  0.00000000000E+00 0. -1.
         21    1    1    2  503  501  0.61004215849E+02  0.79768926417E+02  0.51266417954E+02  0.11275123761E+03  0.00000000000E+00 0. -1.
         21    1    1    2  504  502 -0.36841193186E+02 -0.18151701739E+02  0.82822394913E+02  0.92446237839E+02  0.00000000000E+00 0. -1.
         21    1    1    2  505  504 -0.26746139261E+02  0.36368706707E+02  0.18971104058E+03  0.19500850677E+03  0.00000000000E+00 0. -1.
          1    1    1    2  501    0  0.25831165980E+01 -0.97985931384E+02  0.67969730347E+03  0.68672872343E+03  0.00000000000E+00 0.  1.
<scales pt_clust_3="74.57155" pt_clust_4="41.07016" pt_clust_5="45.75375" pt_clust_6="14000.00000"></scales>
<clustering>
<clus scale="   41.070">  2  4  1 -1</clus>
<clus scale="   45.754">  1  5  2 -1</clus>
<clus scale="   74.572">  2  3  1 -1</clus>
<clus scale="   41.070">  2  3  1 -1</clus>
</clustering>
</event>
<event>
 6    0  0.2117869E+002  0.1156581E+03  0.7546771E-02  0.1250437E+00
          4   -1    0    0  503    0 -0.00000000000E+00  0.00000000000E+00  0.45792644887E+03  0.45792644887E+03  0.00000000000E+00 0. -1.
         21   -1    0    0  504  502  0.00000000000E+00 -0.00000000000E+00 -0.85945048777E+03  0.85945048777E+03  0.00000000000E+00 0. -1.
         21    1    1    2  503  505  0.10283417801E+03 -0.42588227623E+02 -0.73878812518E+03  0.74712550432E+03  0.00000000000E+00 0. -1.
         21    1    1    2  504  501 -0.36101930337E+02  0.80158104133E+00  0.10669593363E+03  0.11264108557E+03  0.00000000000E+00 0.  1.
         21    1    1    2  505  502 -0.21447618431E+02 -0.21507893318E+02 -0.10697899427E+03  0.11120744142E+03  0.00000000000E+00 0. -1.
          4    1    1    2  501    0 -0.45284629237E+02  0.63294539899E+02  0.33754714692E+03  0.34640290533E+03  0.00000000000E+00 0. -1.
<scales pt_clust_3="103.63114" pt_clust_4="35.02874" pt_clust_5="30.37416" pt_clust_6="35.02874"></scales>
<clustering>
<clus scale="   30.374">  2  5  1 -1</clus>
<clus scale="   35.029">  4  6 -1 -1</clus>
<clus scale="  103.631">  2  3  1 -1</clus>
<clus scale="   30.374">  2  3  1 -1</clus>
</clustering>
</event>
<event>
 6    0  0.2117869E+002  0.8252083E+02  0.7546771E-02  0.1322046E+00
          2   -1    0    0  504    0 -0.00000000000E+00  0.00000000000E+00  0.43612556748E+03  0.43612556748E+03  0.00000000000E+00 0.  1.
         21   -1    0    0  503  502  0.00000000000E+00 -0.00000000000E+00 -0.13451114928E+04  0.13451114928E+04  0.00000000000E+00 0.  1.
         21    1    1    2  503  505 -0.78749802461E+02 -0.34201864742E+01 -0.44542467367E+03  0.45234540893E+03  0.00000000000E+00 0.  1.
         21    1    1    2  504  502  0.29566192636E+02 -0.16779059989E+02  0.21986527468E+02  0.40485849271E+02  0.00000000000E+00 0.  1.
         21    1    1    2  505  501  0.15492654349E+03  0.30249963451E+02 -0.87274393062E+03  0.88690431423E+03  0.00000000000E+00 0.  1.
          2    1    1    2  501    0 -0.10574293367E+03 -0.10050716988E+02  0.38719615155E+03  0.40150148780E+03  0.00000000000E+00 0.  1.
<scales pt_clust_3="78.57796" pt_clust_4="33.99554" pt_clust_5="14000.00000" pt_clust_6="82.52083"></scales>
<clustering>
<clus scale="   33.996">  1  4  2 -1</clus>
<clus scale="   78.578">  2  3  1 -1</clus>
<clus scale="   82.521">  1  6  2 -1</clus>
<clus scale="   78.578">  2  3  1 -1</clus>
</clustering>
</event>
<event>
 6    0  0.2117869E+002  0.2073839E+03  0.7546771E-02  0.1143655E+00
         21   -1    0    0  505  502  0.00000000000E+00  0.00000000000E+00  0.22819283470E+03  0.22819283470E+03  0.00000000000E+00 0. -1.
         -2   -1    0    0    0  501 -0.00000000000E+00 -0.00000000000E+00 -0.50616147250E+03  0.50616147250E+03  0.00000000000E+00 0. -1.
         21    1    1    2  503  501  0.20046093033E+02 -0.29885935642E+02 -0.33309192561E+02  0.49035877724E+02  0.00000000000E+00 0. -1.
         21    1    1    2  504  503  0.71465722714E+02 -0.10133355879E+02  0.59305037192E+01  0.72423789591E+02  0.00000000000E+00 0. -1.
         21    1    1    2  505  504  0.10564147215E+03 -0.41637251916E+02  0.13242687023E+03  0.17444385155E+03  0.00000000000E+00 0. -1.
         -2    1    1    2    0  502 -0.19715328790E+03  0.81656543436E+02 -0.38301681919E+03  0.43845078834E+03  0.00000000000E+00 0. -1.
<scales pt_clust_3="35.98632" pt_clust_4="70.63235" pt_clust_5="70.63235" pt_clust_6="187.76141"></scales>
<clustering>
<clus scale="   35.986">  2  3  1 -1</clus>
<clus scale="   70.632">  4  5 -1 -1</clus>
<clus scale="  187.761">  2  6  1 -1</clus>
<clus scale="  207.384">  1  3  2 -1</clus>
</clustering>
</event>
<event>
 6    0  0.2117869E+002  0.8110067E+02  0.7546771E-02  0.1325957E+00
         21   -1    0    0  501  502  0.00000000000E+00  0.00000000000E+00  0.16325298300E+03  0.16325298300E+03  0.00000000000E+00 0. -1.
          2   -1    0    0  503    0 -0.00000000000E+00 -0.00000000000E+00 -0.33647231273E+04  0.33647231273E+04  0.00000000000E+00 0. -1.
         21    1    1    2  503  505  0.33622945476E+02 -0.22264498810E+00 -0.24456940161E+04  0.24459251363E+04  0.00000000000E+00 0. -1.
         21    1    1    2  504  502  0.27849306059E+02 -0.32291666221E+02  0.99182214281E+02  0.10796039637E+03  0.00000000000E+00 0. -1.
         21    1    1    2  505  504  0.45903675041E+02  0.64555321025E+02  0.28026576855E+02  0.84023960066E+02  0.00000000000E+00 0. -1.
          2    1    1    2  501    0 -0.10737592658E+03 -0.32041009816E+02 -0.88298491929E+03  0.89006661752E+03  0.00000000000E+00 0. -1.
<scales pt_clust_3="33.62368" pt_clust_4="42.74781" pt_clust_5="81.10067" pt_clust_6="14000.00000"></scales>
<clustering>
<clus scale="   33.624">  2  3  1 -1</clus>
<clus scale="   42.748">  1  4  2 -1</clus>
<clus scale="   81.101">  1  5  2 -1</clus>
<clus scale="   42.748">  1  3  2 -1</clus>
</clustering>
</event>
<event>
 6    0  0.2117869E+002  0.1579683E+03  0.7546771E-02  0.1191010E+00
          2   -1    0    0  505    0 -0.00000000000E+00  0.00000000000E+00  0.11365998645E+04  0.11365998645E+04  0.00000000000E+00 0.  1.
         21   -1    0    0  503  502  0.00000000000E+00 -0.00000000000E+00 -0.80238431467E+02  0.80238431467E+02  0.00000000000E+00 0. -1.
         21    1    1    2  503  501  0.11738827701E+03  0.67295672220E+02  0.22354016858E+03  0.26130235752E+03  0.00000000000E+00 0.  1.
         21    1    1    2  504  502  0.29857506232E+02  0.28892772544E+02 -0.16234169778E+02  0.44607300434E+02  0.00000000000E+00 0. -1.
         21    1    1    2  505  504 -0.19066925411E+03 -0.24309844007E+02  0.30559324818E+03  0.36101657346E+03  0.00000000000E+00 0. -1.
          2    1    1    2  501    0  0.43423470875E+02 -0.71878600758E+02  0.54346218605E+03  0.54991206455E+03  0.00000000000E+00 0.  1.
<scales pt_clust_3="157.96826" pt_clust_4="41.54832" pt_clust_5="14000.00000" pt_clust_6="83.41670"></scales>
<clustering>
<clus scale="   41.548">  2  4  1 -1</clus>
<clus scale="   83.417">  1  6  2 -1</clus>
<clus scale="  157.968">  1  3  2 -1</clus>
<clus scale="   41.548">  2  3  1 -1</clus>
</clustering>
</event>
<event>
 6    0  0.2117869E+002  0.1050112E+03  0.7546771E-02  0.1270098E+00
         21   -1    0    0  503  502  0.00000000000E+00  0.00000000000E+00  0.11537896945E+03  0.11537896945E+03  0.00000000000E+00 0. -1.
          2   -1    0    0  505    0 -0.00000000000E+00 -0.00000000000E+00 -0.26023778563E+04  0.26023778563E+04  0.00000000000E+00 0. -1.
         21    1    1    2  503  501 -0.14119530712E+02  0.45575318168E+02 -0.63626400786E+01  0.48134747973E+02  0.00000000000E+00 0. -1.
         21    1    1    2  504  502  0.25727131486E+02  0.59224635523E+02  0.78315570701E+02  0.10150256825E+03  0.00000000000E+00 0. -1.
         21    1    1    2  505  504 -0.11950656129E+02  0.55194063703E+02 -0.60676062958E+03  0.60938301950E+03  0.00000000000E+00 0.  1.
          2    1    1    2  501    0  0.34305535440E+00 -0.15999401739E+03 -0.19521911879E+04  0.19587364901E+04  0.00000000000E+00 0. -1.
<scales pt_clust_3="47.71238" pt_clust_4="14000.00000" pt_clust_5="57.13260" pt_clust_6="105.01121"></scales>
<clustering>
<clus scale="   47.712">  1  3  2 -1</clus>
<clus scale="   57.133">  2  5  1 -1</clus>
<clus scale="  105.011">  2  6  1 -1</clus>
<clus scale="   47.712">  1  3  2 -1</clus>
</clustering>
</event>
<event>
 6    0  0.2117869E+002  0.9377497E+02  0.7546771E-02  0.1293959E+00
         21   -1    0    0  501  502  0.00000000000E+00  0.00000000000E+00  0.27534370213E+04  0.27534370213E+04  0.00000000000E+00 0.  1.
          1   -1    0    0  503    0 -0.00000000000E+00 -0.00000000000E+00 -0.23015711475E+03  0.23015711475E+03  0.00000000000E+00 0. -1.
         21    1    1    2  503  504  0.19459444126E+01 -0.76545433291E+02  0.45831618809E+02  0.89238597816E+02  0.00000000000E+00 0.  1.
         21    1    1    2  504  505 -0.97142328572E+02 -0.37314074118E+02  0.12145004398E+04  0.12189504873E+04  0.00000000000E+00 0.  1.
         21    1    1    2  505  502  0.32432539928E+02 -0.29493163801E+02  0.14391074991E+04  0.14397750207E+04  0.00000000000E+00 0.  1.
          1    1    1    2  501    0  0.62763844231E+02  0.14335267121E+03 -0.17615965112E+03  0.23563003027E+03  0.00000000000E+00 0. -1.
<scales pt_clust_3="78.14485" pt_clust_4="14000.00000" pt_clust_5="43.83739" pt_clust_6="93.77497"></scales>
<clustering>
<clus scale="   43.837">  1  5  2 -1</clus>
<clus scale="   78.145">  2  3  1 -1</clus>
<clus scale="   93.775">  2  6  1 -1</clus>
<clus scale="   43.837">  1  3  2 -1</clus>
</clustering>
</event>
<event>
 6    0  0.2117869E+002  0.3336955E+03  0.7546771E-02  0.1069513E+00
          2   -1    0    0  504    0 -0.00000000000E+00  0.00000000000E+00  0.27332015076E+04  0.27332015076E+04  0.00000000000E+00 0. -1.
         21   -1    0    0  503  502  0.00000000000E+00 -0.00000000000E+00 -0.90464392996E+03  0.90464392996E+03  0.00000000000E+00 0.  1.
         21    1    1    2  503  501  0.33447755517E+03  0.13315340070E+02 -0.83784205898E+03  0.90223713568E+03  0.00000000000E+00 0.  1.
         21    1    1    2  504  505 -0.19483278292E+02  0.29650773747E+02  0.31424091627E+02  0.47394514992E+02  0.00000000000E+00 0.  1.
         21    1    1    2  505  502 -0.11068494715E+02 -0.11983190749E+03  0.16537999990E+04  0.16581726793E+04  0.00000000000E+00 0. -1.
          2    1    1    2  501    0 -0.30392578216E+03  0.76865793677E+02  0.98117554596E+03  0.10300411076E+04  0.00000000000E+00 0. -1.
<scales pt_clust_3="14000.00000" pt_clust_4="35.47910" pt_clust_5="104.18515" pt_clust_6="333.69549"></scales>
<clustering>
<clus scale="   35.479">  1  4  2 -1</clus>
<clus scale="  104.185">  1  5  2 -1</clus>
<clus scale="  333.695">  1  6  2 -1</clus>
<clus scale="  333.695">  2  3  1 -1</clus>
</clustering>
</event>
<event>
 6    0  0.2117869E+002  0.7860080E+02  0.7546771E-02  0.1333070E+00
         21   -1    0    0  505  502  0.00000000000E+00  0.00000000000E+00  0.97263389755E+02  0.97263389755E+02  0.00000000000E+00 0. -1.
          1   -1    0    0  503    0 -0.00000000000E+00 -0.00000000000E+00 -0.15690358130E+04  0.15690358130E+04  0.00000000000E+00 0. -1.
         21    1    1    2  503  504  0.31328135925E+02 -0.34585997477E+02 -0.11787273421E+03  0.12677391211E+03  0.00000000000E+00 0.  1.
         21    1    1    2  504  502  0.54884781394E+01  0.51449368746E+02 -0.42308696946E+02  0.66837016495E+02  0.00000000000E+00 0. -1.
         21    1    1    2  505  501 -0.83412750361E+02 -0.64325404794E+02  0.44944842629E+02  0.11452285145E+03  0.00000000000E+00 0. -1.
          1    1    1    2  501    0  0.46596136297E+02  0.47462033526E+02 -0.13565358347E+04  0.13581654227E+04  0.00000000000E+00 0. -1.
<scales pt_clust_3="46.66523" pt_clust_4="50.58641" pt_clust_5="78.60080" pt_clust_6="14000.00000"></scales>
<clustering>
<clus scale="   46.665">  2  3  1 -1</clus>
<clus scale="   50.586">  1  4  2 -1</clus>
<clus scale="   78.601">  1  5  2 -1</clus>
<clus scale="   50.586">  1  3  2 -1</clus>
</clustering>
</event>
<event>
 6    0  0.2117869E+002  0.7786037E+02  0.7546771E-02  0.1335235E+00
         21   -1    0    0  503  502  0.00000000000E+00  0.00000000000E+00  0.55281548198E+02  0.55281548198E+02  0.00000000000E+00 0.  1.
          2   -1    0    0  505    0 -0.00000000000E+00 -0.00000000000E+00 -0.12421774379E+04  0.12421774379E+04  0.00000000000E+00 0.  1.
         21    1    1    2  503  501  0.57405348771E+02 -0.42673169340E+02 -0.35220887790E+02  0.79730072029E+02  0.00000000000E+00 0.  1.
         21    1    1    2  504  502 -0.86481351005E+02 -0.34819166215E+02 -0.42049365744E+02  0.10227192952E+03  0.00000000000E+00 0.  1.
         21    1    1    2  505  504  0.31865344774E+02  0.14907441744E+02 -0.16263492557E+03  0.16639636724E+03  0.00000000000E+00 0.  1.
          2    1    1    2  501    0 -0.27893425408E+01  0.62584893811E+02 -0.94699071058E+03  0.94906061729E+03  0.00000000000E+00 0.  1.
<scales pt_clust_3="72.43727" pt_clust_4="77.86037" pt_clust_5="35.17999" pt_clust_6="14000.00000"></scales>
<clustering>
<clus scale="   35.180">  2  5  1 -1</clus>
<clus scale="   72.437">  1  3  2 -1</clus>
<clus scale="   77.860">  1  4  2 -1</clus>
<clus scale="   72.437">  1  3  2 -1</clus>
</clustering>
</event>
<event>
 6    0  0.2117869E+002  0.3476538E+03  0.7546771E-02  0.1063582E+00
         21   -1    0    0  504  502  0.00000000000E+00  0.00000000000E+00  0.29748085790E+03  0.29748085790E+03  0.00000000000E+00 0. -1.
          4   -1    0    0  503    0 -0.00000000000E+00 -0.00000000000E+00 -0.10075180770E+04  0.10075180770E+04  0.00000000000E+00 0.  1.
         21    1    1    2  503  505  0.38793817843E+02  0.28404539570E+03 -0.19163163687E+03  0.34483246856E+03  0.00000000000E+00 0.  1.
         21    1    1    2  504  501  0.26355814366E+02 -0.21305480819E+02  0.31486959576E+02  0.46259929606E+02  0.00000000000E+00 0.  1.
         21    1    1    2  505  502 -0.13550806337E+02  0.12491413661E+03  0.96493887269E+02  0.15842422844E+03  0.00000000000E+00 0. -1.
          4    1    1    2  501    0 -0.51598825872E+02 -0.38765405149E+03 -0.64638642910E+03  0.75548230832E+03  0.00000000000E+00 0.  1.
<scales pt_clust_3="14000.00000" pt_clust_4="33.89030" pt_clust_5="114.41474" pt_clust_6="347.65381"></scales>
<clustering>
<clus scale="   33.890">  1  4  2 -1</clus>
<clus scale="  114.415">  1  5  2 -1</clus>
<clus scale="  347.654">  2  6  1 -1</clus>
<clus scale="   33.890">  1  3  2 -1</clus>
</clustering>
</event>
<event>
 6    0  0.2117869E+002  0.1937573E+03  0.7546771E-02  0.1155116E+00
         21   -1    0    0  504  502  0.00000000000E+00  0.00000000000E+00  0.15747466577E+03  0.15747466577E+03  0.00000000000E+00 0.  1.
         -1   -1    0    0    0  501 -0.00000000000E+00 -0.00000000000E+00 -0.11955761177E+04  0.11955761177E+04  0.00000000000E+00 0.  1.
         21    1    1    2  503  502 -0.49947797354E+02 -0.84694234117E+02  0.44746059639E+02  0.10802826300E+03  0.00000000000E+00 0.  1.
         21    1    1    2  504  501 -0.24071444751E+02  0.24907392821E+03 -0.14615747575E+03  0.28979175951E+03  0.00000000000E+00 0.  1.
         21    1    1    2  505  503  0.21392857660E+02 -0.55476042503E+02 -0.19906848874E+03  0.20775829432E+03  0.00000000000E+00 0.  1.
         -1    1    1    2    0  505  0.52626384446E+02 -0.10890365159E+03 -0.73762154713E+03  0.74747246669E+03  0.00000000000E+00 0.  1.
<scales pt_clust_3="98.32546" pt_clust_4="186.98617" pt_clust_5="35.59943" pt_clust_6="35.59943"></scales>
<clustering>
<clus scale="   35.599">  5  6 -1 -1</clus>
<clus scale="   98.325">  1  3  2 -1</clus>
<clus scale="  186.986">  1  4  2 -1</clus>
<clus scale="   98.325">  1  3  2 -1</clus>
</clustering>
</event>
<event>
 6    0  0.2117869E+002  0.1324683E+03  0.7546771E-02  0.1223839E+00
         -1   -1    0    0    0  501 -0.00000000000E+00  0.00000000000E+00  0.17709476445E+04  0.17709476445E+04  0.00000000000E+00 0.  1.
         21   -1    0    0  503  502  0.00000000000E+00 -0.00000000000E+00 -0.12024834493E+03  0.12024834493E+03  0.00000000000E+00 0. -1.
         21    1    1    2  503  505 -0.21701029554E+02 -0.26757998969E+02 -0.86286461808E+02  0.92910056957E+02  0.00000000000E+00 0. -1.
         21    1    1    2  504  501  0.29214574430E+02  0.13430832308E+03  0.30158694784E+03  0.33143159794E+03  0.00000000000E+00 0. -1.
         21    1    1    2  505  504 -0.32553630077E+02  0.23412439332E+02  0.19316345253E+02  0.44508452462E+02  0.00000000000E+00 0.  1.
         -1    1    1    2    0  502  0.25040085200E+02 -0.13096276344E+03  0.14160824683E+04  0.14223458821E+04  0.00000000000E+00 0.  1.
<scales pt_clust_3="34.45178" pt_clust_4="132.46829" pt_clust_5="43.29061" pt_clust_6="14000.00000"></scales>
<clustering>
<clus scale="   34.452">  2  3  1 -1</clus>
<clus scale="   43.291">  2  5  1 -1</clus>
<clus scale="  132.468">  2  4  1 -1</clus>
<clus scale="   34.452">  2  3  1 -1</clus>
</clustering>
</event>
<event>
 6    0  0.2117869E+002  0.3955846E+03  0.7546771E-02  0.1045319E+00
          1   -1    0    0  504    0 -0.00000000000E+00  0.00000000000E+00  0.14394478497E+04  0.14394478497E+04  0.00000000000E+00 0.  1.
         21   -1    0    0  501  502  0.00000000000E+00 -0.00000000000E+00 -0.25377230609E+03  0.25377230609E+03  0.00000000000E+00 0.  1.
         21    1    1    2  503  505  0.42574147978E+02  0.34982266789E+03  0.15968455887E+03  0.38689483764E+03  0.00000000000E+00 0.  1.
         21    1    1    2  504  503  0.54610339778E+01  0.52690484249E+02  0.30216812147E+03  0.30677627623E+03  0.00000000000E+00 0.  1.
         21    1    1    2  505  502  0.48715960451E+02  0.35245712816E+02 -0.67285859321E+02  0.90237973931E+02  0.00000000000E+00 0.  1.
          1    1    1    2  501    0 -0.96751142407E+02 -0.43775886496E+03  0.79110872259E+03  0.90931106799E+03  0.00000000000E+00 0.  1.
<scales pt_clust_3="395.58459" pt_clust_4="52.97273" pt_clust_5="60.48742" pt_clust_6="14000.00000"></scales>
<clustering>
<clus scale="   52.973">  1  4  2 -1</clus>
<clus scale="   60.487">  2  5  1 -1</clus>
<clus scale="  395.585">  2  3  1 -1</clus>
<clus scale="   60.487">  2  3  1 -1</clus>
</clustering>
</event>
<event>
 6    0  0.2117869E+002  0.9927169E+02  0.7546771E-02  0.1281835E+00
         -1   -1    0    0    0  501 -0.00000000000E+00  0.00000000000E+00  0.23819239199E+04  0.23819239199E+04  0.00000000000E+00 0. -1.
         21   -1    0    0  504  502  0.00000000000E+00 -0.00000000000E+00 -0.23105516935E+02  0.23105516935E+02  0.00000000000E+00 0. -1.
         21    1    1    2  503  501 -0.48428887121E+02 -0.78386733947E+02  0.82024530818E+03  0.82540426626E+03  0.00000000000E+00 0. -1.
         21    1    1    2  504  503 -0.97579006201E+02  0.18056964749E+02  0.15227376283E+03  0.18175537206E+03  0.00000000000E+00 0. -1.
         21    1    1    2  505  502  0.29582251160E+02  0.24521249374E+02  0.12679646014E+03  0.13249054140E+03  0.00000000000E+00 0. -1.
         -1    1    1    2    0  505  0.11642564216E+03  0.35808519823E+02  0.12595028718E+04  0.12653792571E+04  0.00000000000E+00 0. -1.
<scales pt_clust_3="99.27169" pt_clust_4="84.10094" pt_clust_5="38.42397" pt_clust_6="14000.00000"></scales>
<clustering>
<clus scale="   38.424">  2  5  1 -1</clus>
<clus scale="   84.101">  2  4  1 -1</clus>
<clus scale="   99.272">  1  3  2 -1</clus>
<clus scale="   38.424">  2  3  1 -1</clus>
</clustering>
</event>
<event>
 6    0  0.2117869E+002  0.8449062E+02  0.7546771E-02  0.1316770E+00
         21   -1    0    0  505  502  0.00000000000E+00  0.00000000000E+00  0.68606188008E+02  0.68606188008E+02  0.00000000000E+00 0. -1.
          1   -1    0    0  504    0 -0.00000000000E+00 -0.00000000000E+00 -0.61593393985E+03  0.61593393985E+03  0.00000000000E+00 0. -1.
         21    1    1    2  503  501  0.20988429332E+02  0.41134946763E+02 -0.75362638383E+02  0.88386227858E+02  0.00000000000E+00 0.  1.
         21    1    1    2  504  502 -0.53499280421E+02 -0.87162617727E+02 -0.44578650654E+02  0.11156500808E+03  0.00000000000E+00 0. -1.
         21    1    1    2  505  503 -0.35939483211E+02 -0.14406582083E+01  0.11581863149E+02  0.37787054709E+02  0.00000000000E+00 0. -1.
          1    1    1    2  501    0  0.68450334300E+02  0.47468329172E+02 -0.43896832596E+03  0.44680183721E+03  0.00000000000E+00 0. -1.
<scales pt_clust_3="43.81547" pt_clust_4="84.49062" pt_clust_5="35.96835" pt_clust_6="14000.00000"></scales>
<clustering>
<clus scale="   35.968">  1  5  2 -1</clus>
<clus scale="   43.815">  1  3  2 -1</clus>
<clus scale="   84.491">  1  4  2 -1</clus>
<clus scale="   35.968">  1  3  2 -1</clus>
</clustering>
</event>
<event>
 6    0  0.2117869E+002  0.9399165E+02  0.7546771E-02  0.1293463E+00
          2   -1    0    0  504    0 -0.00000000000E+00  0.00000000000E+00  0.83749367113E+03  0.83749367113E+03  0.00000000000E+00 0.  1.
         21   -1    0    0  505  502  0.00000000000E+00 -0.00000000000E+00 -0.33951086400E+03  0.33951086400E+03  0.00000000000E+00 0.  1.
         21    1    1    2  503  502  0.41286291630E+02 -0.56708579612E+02 -0.90657126222E+02  0.11462606777E+03  0.00000000000E+00 0.  1.
         21    1    1    2  504  503 -0.39843029123E+02  0.27093474318E+02  0.64606834918E+03  0.64786251252E+03  0.00000000000E+00 0.  1.
         21    1    1    2  505  501 -0.42229508731E+02  0.14095314959E+03 -0.18760909065E+03  0.23842880003E+03  0.00000000000E+00 0.  1.
          2    1    1    2  501    0  0.40786246223E+02 -0.11133804430E+03  0.13018067482E+03  0.17608715480E+03  0.00000000000E+00 0.  1.
<scales pt_clust_3="67.30065" pt_clust_4="48.18219" pt_clust_5="14000.00000" pt_clust_6="93.99165"></scales>
<clustering>
<clus scale="   48.182">  1  4  2 -1</clus>
<clus scale="   67.301">  2  3  1 -1</clus>
<clus scale="   93.992">  1  6  2 -1</clus>
<clus scale="   67.301">  2  3  1 -1</clus>
</clustering>
</event>
<event>
 6    0  0.2117869E+002  0.1095705E+03  0.7546771E-02  0.1261367E+00
         21   -1    0    0  503  502  0.00000000000E+00  0.00000000000E+00  0.10471750875E+03  0.10471750875E+03  0.00000000000E+00 0. -1.
          1   -1    0    0  505    0 -0.00000000000E+00 -0.00000000000E+00 -0.54815821487E+03  0.54815821487E+03  0.00000000000E+00 0.  1.
         21    1    1    2  503  501  0.56966427946E+02 -0.14134346219E+02  0.70187357500E+01  0.59111896497E+02  0.00000000000E+00 0. -1.
         21    1    1    2  504  502 -0.59378451380E+01  0.12423438172E+03 -0.47107681692E+01  0.12446538050E+03  0.00000000000E+00 0. -1.
         21    1    1    2  505  504 -0.39266069770E+02 -0.43040568667E+02 -0.90834275724E+02  0.10791283720E+03  0.00000000000E+00 0.  1.
          1    1    1    2  501    0 -0.11762513038E+02 -0.67059466839E+02 -0.35491439798E+03  0.36138560942E+03  0.00000000000E+00 0.  1.
<scales pt_clust_3="57.16080" pt_clust_4="109.57053" pt_clust_5="58.26075" pt_clust_6="14000.00000"></scales>
<clustering>
<clus scale="   58.261">  2  5  1 -1</clus>
<clus scale="   57.161">  1  3  2 -1</clus>
<clus scale="  109.571">  1  4  2 -1</clus>
<clus scale="   57.161">  1  3  2 -1</clus>
</clustering>
</event>
<event>
 6    0  0.2117869E+002  0.1625275E+03  0.7546771E-02  0.1185872E+00
         -2   -1    0    0    0  501 -0.00000000000E+00  0.00000000000E+00  0.31306045900E+03  0.31306045900E+03  0.00000000000E+00 0. -1.
         21   -1    0    0  504  502  0.00000000000E+00 -0.00000000000E+00 -0.24933178824E+03  0.24933178824E+03  0.00000000000E+00 0.  1.
         21    1    1    2  503  502  0.11005409746E+03  0.17255966803E+03 -0.71205119257E+01  0.20479122317E+03  0.00000000000E+00 0.  1.
         21    1    1    2  504  505 -0.52973663503E+02 -0.26663006836E+02 -0.91128549922E+02  0.10872689442E+03  0.00000000000E+00 0.  1.
         21    1    1    2  505  501 -0.38108830791E+02 -0.56320182858E+01  0.70518052255E+02  0.80354205292E+02  0.00000000000E+00 0.  1.
         -2    1    1    2    0  503 -0.18971603170E+02 -0.14026464291E+03  0.91459680350E+02  0.16851992436E+03  0.00000000000E+00 0. -1.
<scales pt_clust_3="162.52753" pt_clust_4="60.66127" pt_clust_5="38.52275" pt_clust_6="14000.00000"></scales>
<clustering>
<clus scale="   38.523">  1  5  2 -1</clus>
<clus scale="   60.661">  2  4  1 -1</clus>
<clus scale="  162.528">  2  3  1 -1</clus>
<clus scale="   60.661">  2  3  1 -1</clus>
</clustering>
</event>
<event>
 6    0  0.2117869E+002  0.8857852E+02  0.7546771E-02  0.1306331E+00
         21   -1    0    0  504  502  0.00000000000E+00  0.00000000000E+00  0.19453581550E+03  0.19453581550E+03  0.00000000000E+00 0.  1.
         -2   -1    0    0    0  501 -0.00000000000E+00 -0.00000000000E+00 -0.81422947681E+03  0.81422947681E+03  0.00000000000E+00 0. -1.
         21    1    1    2  503  502  0.13458778748E+02  0.36303994140E+02 -0.15791893957E+02  0.41815100510E+02  0.00000000000E+00 0. -1.
         21    1    1    2  504  505 -0.52022977452E+02  0.45204198355E+02  0.16736176062E+03  0.18099659845E+03  0.00000000000E+00 0.  1.
         21    1    1    2  505  501 -0.40158773896E+02 -0.27161836471E+02 -0.38408533785E+03  0.38713310273E+03  0.00000000000E+00 0. -1.
         -2    1    1    2    0  503  0.78722972600E+02 -0.54346356024E+02 -0.38717819012E+03  0.39882049062E+03  0.00000000000E+00 0. -1.
<scales pt_clust_3="38.71845" pt_clust_4="14000.00000" pt_clust_5="48.21791" pt_clust_6="88.57852"></scales>
<clustering>
<clus scale="   38.718">  1  3  2 -1</clus>
<clus scale="   48.218">  2  5  1 -1</clus>
<clus scale="   88.579">  2  6  1 -1</clus>
<clus scale="   38.718">  1  3  2 -1</clus>
</clustering>
</event>
<event>
 6    0  0.2117869E+002  0.9838888E+02  0.7546771E-02  0.1283721E+00
         21   -1    0    0  504  502  0.00000000000E+00  0.00000000000E+00  0.66977729148E+03  0.66977729148E+03  0.00000000000E+00 0.  1.
          2   -1    0    0  505    0 -0.00000000000E+00 -0.00000000000E+00 -0.70439124790E+03  0.70439124790E+03  0.00000000000E+00 0. -1.
         21    1    1    2  503  501 -0.25329793391E+02  0.66876689544E+02  0.31417077179E+03  0.32220702023E+03  0.00000000000E+00 0.  1.
         21    1    1    2  504  503 -0.29938656065E+02  0.15488926831E+02  0.32245430191E+03  0.32421136131E+03  0.00000000000E+00 0.  1.
         21    1    1    2  505  502  0.32980862503E+02 -0.17463394772E+03 -0.34644753517E+03  0.38937211972E+03  0.00000000000E+00 0. -1.
          2    1    1    2  501    0  0.22287586953E+02  0.92268331345E+02 -0.32479149494E+03  0.33837803813E+03  0.00000000000E+00 0. -1.
<scales pt_clust_3="14000.00000" pt_clust_4="33.70801" pt_clust_5="98.38888" pt_clust_6="95.08153"></scales>
<clustering>
<clus scale="   33.708">  1  4  2 -1</clus>
<clus scale="   95.082">  2  6  1 -1</clus>
<clus scale="   98.389">  2  5  1 -1</clus>
<clus scale="   33.708">  1  3  2 -1</clus>
</clustering>
</event>
<event>
 6    0  0.2117869E+002  0.1992520E+03  0.7546771E-02  0.1150372E+00
         21   -1    0    0  505  502  0.00000000000E+00  0.00000000000E+00  0.64363621596E+03  0.64363621596E+03  0.00000000000E+00 0. -1.
          3   -1    0    0  504    0 -0.00000000000E+00 -0.00000000000E+00 -0.12373661649E+03  0.12373661649E+03  0.00000000000E+00 0. -1.
         21    1    1    2  503  502  0.19914651004E+03  0.54565504883E+02  0.24328079160E+03  0.31909602058E+03  0.00000000000E+00 0. -1.
         21    1    1    2  504  503 -0.24582561996E+02 -0.29169134836E+02 -0.54974467399E+02  0.66912875048E+02  0.00000000000E+00 0.  1.
         21    1    1    2  505  501 -0.10175801402E+03  0.39986715642E+01  0.24007234883E+03  0.26077847968E+03  0.00000000000E+00 0. -1.
          3    1    1    2  501    0 -0.72805934028E+02 -0.29395041611E+02  0.91520926431E+02  0.12058545715E+03  0.00000000000E+00 0. -1.
<scales pt_clust_3="187.97486" pt_clust_4="38.14631" pt_clust_5="59.71878" pt_clust_6="59.71878"></scales>
<clustering>
<clus scale="   38.146">  2  4  1 -1</clus>
<clus scale="   59.719">  5  6 -1 -1</clus>
<clus scale="  187.975">  2  3  1 -1</clus>
<clus scale="  199.252">  1  3  2 -1</clus>
</clustering>
</event>
<event>
 6    0  0.2117869E+002  0.9171157E+02  0.7546771E-02  0.1298759E+00
          2   -1    0    0  503    0 -0.00000000000E+00  0.00000000000E+00  0.36944965126E+04  0.36944965126E+04  0.00000000000E+00 0. -1.
         21   -1    0    0  505  502  0.00000000000E+00 -0.00000000000E+00 -0.32892935314E+03  0.32892935314E+03  0.00000000000E+00 0.  1.
         21    1    1    2  503  504  0.11711564272E+02 -0.31917128490E+02  0.22907166179E+04  0.22909688971E+04  0.00000000000E+00 0. -1.
         21    1    1    2  504  502  0.37858419423E+02  0.63745881996E+02 -0.21227907806E+03  0.22485373996E+03  0.00000000000E+00 0.  1.
         21    1    1    2  505  501  0.50370716690E+02 -0.37660056598E+02 -0.99312236561E+02  0.11755173029E+03  0.00000000000E+00 0.  1.
          2    1    1    2  501    0 -0.99940700385E+02  0.58313030922E+01  0.13864418562E+04  0.13900514984E+04  0.00000000000E+00 0. -1.
<scales pt_clust_3="33.99800" pt_clust_4="14000.00000" pt_clust_5="63.07791" pt_clust_6="91.71157"></scales>
<clustering>
<clus scale="   33.998">  1  3  2 -1</clus>
<clus scale="   63.078">  2  5  1 -1</clus>
<clus scale="   91.712">  1  6  2 -1</clus>
<clus scale="   63.078">  2  3  1 -1</clus>
</clustering>
</event>
<event>
 6    0  0.2117869E+002  0.9282161E+02  0.7546771E-02  0.1296159E+00
          2   -1    0    0  505    0 -0.00000000000E+00  0.00000000000E+00  0.17464229348E+04  0.17464229348E+04  0.00000000000E+00 0.  1.
         21   -1    0    0  504  502  0.00000000000E+00 -0.00000000000E+00 -0.45660254761E+03  0.45660254761E+03  0.00000000000E+00 0.  1.
         21    1    1    2  503  502  0.82500201856E+02  0.25844748820E+02 -0.31760046938E+03  0.32915694205E+03  0.00000000000E+00 0.  1.
         21    1    1    2  504  501  0.38878520105E+02  0.27496415647E+02  0.88165015935E+01  0.48428533937E+02  0.00000000000E+00 0.  1.
         21    1    1    2  505  503 -0.84345357877E+02 -0.11733803479E+02 -0.96911004044E+02  0.12900993855E+03  0.00000000000E+00 0. -1.
          2    1    1    2  501    0 -0.37033364084E+02 -0.41607360989E+02  0.16955153590E+04  0.16964300679E+04  0.00000000000E+00 0.  1.
<scales pt_clust_3="14000.00000" pt_clust_4="47.61924" pt_clust_5="92.82161" pt_clust_6="55.65280"></scales>
<clustering>
<clus scale="   47.619">  2  4  1 -1</clus>
<clus scale="   55.653">  1  6  2 -1</clus>
<clus scale="   92.822">  1  5  2 -1</clus>
<clus scale="   47.619">  2  3  1 -1</clus>
</clustering>
</event>
<event>
 6    0  0.2117869E+002  0.1925349E+03  0.7546771E-02  0.1156195E+00
          1   -1    0    0  505    0 -0.00000000000E+00  0.00000000000E+00  0.40175831583E+03  0.40175831583E+03  0.00000000000E+00 0. -1.
         21   -1    0    0  503  502  0.00000000000E+00 -0.00000000000E+00 -0.18582889191E+03  0.18582889191E+03  0.00000000000E+00 0. -1.
         21    1    1    2  503  501 -0.40413527822E+02  0.68423084088E+02 -0.16229524728E+02  0.81107146048E+02  0.00000000000E+00 0. -1.
         21    1    1    2  504  502 -0.17033460256E+03  0.21702201828E+02  0.67921883912E+02  0.18465710035E+03  0.00000000000E+00 0. -1.
         21    1    1    2  505  504  0.15719547232E+02  0.31178410727E+02  0.60398313236E+02  0.69764989088E+02  0.00000000000E+00 0.  1.
          1    1    1    2  501    0  0.19502858315E+03 -0.12130369664E+03  0.10383875150E+03  0.25205797226E+03  0.00000000000E+00 0. -1.
<scales pt_clust_3="81.33242" pt_clust_4="14000.00000" pt_clust_5="34.91701" pt_clust_6="192.53493"></scales>
<clustering>
<clus scale="   34.917">  1  5  2 -1</clus>
<clus scale="   81.332">  2  3  1 -1</clus>
<clus scale="  192.535">  2  6  1 -1</clus>
<clus scale="   81.332">  2  3  1 -1</clus>
</clustering>
</event>
<event>
 6    0  0.2117869E+002  0.6688928E+02  0.7546771E-02  0.1371002E+00
          2   -1    0    0  504    0 -0.00000000000E+00  0.00000000000E+00  0.17370974343E+03  0.17370974343E+03  0.00000000000E+00 0.  1.
         21   -1    0    0  503  502  0.00000000000E+00 -0.00000000000E+00 -0.32280487303E+03  0.32280487303E+03  0.00000000000E+00 0. -1.
         21    1    1    2  503  501 -0.69215463909E+02 -0.14801643689E+02 -0.24788723635E+03  0.25779439684E+03  0.00000000000E+00 0. -1.
         21    1    1    2  504  505 -0.42485195814E+02 -0.35480397884E+02  0.57260493408E+02  0.79640533667E+02  0.00000000000E+00 0.  1.
         21    1    1    2  505  502  0.10084396759E+02  0.33870914633E+02 -0.18531557445E+02  0.39904292218E+02  0.00000000000E+00 0. -1.
          2    1    1    2  501    0  0.10161626297E+03  0.16411126940E+02  0.60063170789E+02  0.11917539373E+03  0.00000000000E+00 0.  1.
<scales pt_clust_3="14000.00000" pt_clust_4="54.23464" pt_clust_5="35.34026" pt_clust_6="66.88928"></scales>
<clustering>
<clus scale="   35.340">  2  5  1 -1</clus>
<clus scale="   54.235">  1  4  2 -1</clus>
<clus scale="   66.889">  1  6  2 -1</clus>
<clus scale="   35.340">  2  3  1 -1</clus>
</clustering>
</event>
<event>
 6    0  0.2117869E+002  0.1021894E+03  0.7546771E-02  0.1275758E+00
         21   -1    0    0  505  502  0.00000000000E+00  0.00000000000E+00  0.18816634165E+03  0.18816634165E+03  0.00000000000E+00 0.  1.
          2   -1    0    0  504    0 -0.00000000000E+00 -0.00000000000E+00 -0.11647135711E+04  0.11647135711E+04  0.00000000000E+00 0.  1.
         21    1    1    2  503  501 -0.42859969077E+02  0.44338609129E+02 -0.22542036047E+03  0.23370329079E+03  0.00000000000E+00 0.  1.
         21    1    1    2  504  502  0.27860413621E+02 -0.20034423881E+02 -0.11482117002E+03  0.11983940033E+03  0.00000000000E+00 0.  1.
         21    1    1    2  505  503  0.83407948327E+02 -0.63683546586E+02  0.16424346179E+03  0.19490611763E+03  0.00000000000E+00 0.  1.
          2    1    1    2  501    0 -0.68408392871E+02  0.39379361339E+02 -0.80054916073E+03  0.80443110398E+03  0.00000000000E+00 0.  1.
<scales pt_clust_3="102.18944" pt_clust_4="34.31590" pt_clust_5="14000.00000" pt_clust_6="52.84175"></scales>
<clustering>
<clus scale="   34.316">  2  4  1 -1</clus>
<clus scale="   52.842">  2  6  1 -1</clus>
<clus scale="  102.189">  2  3  1 -1</clus>
<clus scale="  102.189">  1  3  2 -1</clus>
</clustering>
</event>
<event>
 6    0  0.2117869E+002  0.1716978E+03  0.7546771E-02  0.1176089E+00
          2   -1    0    0  505    0 -0.00000000000E+00  0.00000000000E+00  0.17741722441E+04  0.17741722441E+04  0.00000000000E+00 0. -1.
         21   -1    0    0  503  502  0.00000000000E+00 -0.00000000000E+00 -0.72123090504E+03  0.72123090504E+03  0.00000000000E+00 0. -1.
         21    1    1    2  503  501 -0.55346535107E+02  0.12619015540E+03 -0.61751960685E+03  0.63270661377E+03  0.00000000000E+00 0. -1.
         21    1    1    2  504  502  0.12369934134E+02  0.41099280110E+02 -0.82774877275E+02  0.93240797958E+02  0.00000000000E+00 0.  1.
         21    1    1    2  505  504  0.87418520511E+01 -0.51634370618E+02  0.11032621690E+03  0.12212453620E+03  0.00000000000E+00 0.  1.
          2    1    1    2  501    0  0.34234748922E+02 -0.11565506489E+03  0.16429096063E+04  0.16473312013E+04  0.00000000000E+00 0. -1.
<scales pt_clust_3="14000.00000" pt_clust_4="42.92046" pt_clust_5="52.01118" pt_clust_6="171.69775"></scales>
<clustering>
<clus scale="   42.920">  2  4  1 -1</clus>
<clus scale="   52.011">  1  5  2 -1</clus>
<clus scale="  171.698">  1  6  2 -1</clus>
<clus scale="   42.920">  2  3  1 -1</clus>
</clustering>
</event>
<event>
 6    0  0.2117869E+002  0.1341392E+03  0.7546771E-02  0.1221440E+00
         21   -1    0    0  505  502  0.00000000000E+00  0.00000000000E+00  0.16320673410E+03  0.16320673410E+03  0.00000000000E+00 0.  1.
          1   -1    0    0  504    0 -0.00000000000E+00 -0.00000000000E+00 -0.20586202508E+04  0.20586202508E+04  0.00000000000E+00 0. -1.
         21    1    1    2  503  501  0.14059979888E+02 -0.45021879480E+02 -0.47102999927E+03  0.47338558584E+03  0.00000000000E+00 0. -1.
         21    1    1    2  504  502  0.24819103496E+01  0.12323232324E+03  0.12333259177E+03  0.17436540243E+03  0.00000000000E+00 0.  1.
         21    1    1    2  505  503 -0.34861345409E+02  0.64515197522E+00 -0.12978091998E+02  0.37204307503E+02  0.00000000000E+00 0.  1.
          1    1    1    2  501    0  0.18319455172E+02 -0.78855595738E+02 -0.15347380172E+04  0.15368716892E+04  0.00000000000E+00 0. -1.
<scales pt_clust_3="30.86315" pt_clust_4="127.90001" pt_clust_5="34.86731" pt_clust_6="30.86315"></scales>
<clustering>
<clus scale="   30.863">  3  6 -1 -1</clus>
<clus scale="   34.867">  1  5  2 -1</clus>
<clus scale="  127.900">  1  4  2 -1</clus>
<clus scale="   34.867">  1  3  2 -1</clus>
</clustering>
</event>
<event>
 6    0  0.2117869E+002  0.8748889E+02  0.7546771E-02  0.1309049E+00
         21   -1    0    0  504  502  0.00000000000E+00  0.00000000000E+00  0.74642582639E+02  0.74642582639E+02  0.00000000000E+00 0.  1.
         -1   -1    0    0    0  501 -0.00000000000E+00 -0.00000000000E+00 -0.67259239179E+03  0.67259239179E+03  0.00000000000E+00 0. -1.
         21    1    1    2  503  501 -0.40566939496E+02  0.28839037470E+02 -0.30997517401E+03  0.31394581565E+03  0.00000000000E+00 0.  1.
         21    1    1    2  504  503 -0.70492193116E+02 -0.91277831689E+01 -0.49750783412E+02  0.86761778255E+02  0.00000000000E+00 0. -1.
         21    1    1    2  505  502  0.86279610308E+02  0.67408673351E+02 -0.21422473368E+02  0.11156622591E+03  0.00000000000E+00 0.  1.
         -1    1    1    2    0  505  0.24779522303E+02 -0.87119927652E+02 -0.21680137837E+03  0.23496115462E+03  0.00000000000E+00 0. -1.
<scales pt_clust_3="49.77315" pt_clust_4="87.48889" pt_clust_5="14000.00000" pt_clust_6="69.05951"></scales>
<clustering>
<clus scale="   49.773">  2  3  1 -1</clus>
<clus scale="   69.060">  2  6  1 -1</clus>
<clus scale="   87.489">  2  4  1 -1</clus>
<clus scale="   87.489">  1  3  2 -1</clus>
</clustering>
</event>
<event>
 6    0  0.2117869E+002  0.2223790E+03  0.7546771E-02  0.1132122E+00
         21   -1    0    0  501  502  0.00000000000E+00  0.00000000000E+00  0.34692402607E+03  0.34692402607E+03  0.00000000000E+00 0. -1.
          1   -1    0    0  503    0 -0.00000000000E+00 -0.00000000000E+00 -0.13860639900E+04  0.13860639900E+04  0.00000000000E+00 0. -1.
         21    1    1    2  503  504 -0.17481313304E+03  0.23510012392E+02 -0.32890025452E+03  0.37321271360E+03  0.00000000000E+00 0.  1.
         21    1    1    2  504  505 -0.28274664375E+02 -0.39854911248E+02  0.66884110874E+02  0.82833295742E+02  0.00000000000E+00 0. -1.
         21    1    1    2  505  502 -0.53772767906E+02 -0.38106312645E+02  0.22839119898E+03  0.23771020467E+03  0.00000000000E+00 0. -1.
          1    1    1    2  501    0  0.25686056533E+03  0.54451211501E+02 -0.10055150192E+04  0.10392318020E+04  0.00000000000E+00 0. -1.
<scales pt_clust_3="222.37900" pt_clust_4="45.16241" pt_clust_5="124.74224" pt_clust_6="14000.00000"></scales>
<clustering>
<clus scale="   45.162">  4  5 -1 -1</clus>
<clus scale="  124.742">  1  4  2 -1</clus>
<clus scale="  222.379">  1  3  2 -1</clus>
<clus scale="  124.742">  1  3  2 -1</clus>
</clustering>
</event>
<event>
 6    0  0.2117869E+002  0.7869425E+02  0.7546771E-02  0.1332798E+00
         21   -1    0    0  505  502  0.00000000000E+00  0.00000000000E+00  0.20101790037E+03  0.20101790037E+03  0.00000000000E+00 0.  1.
          2   -1    0    0  504    0 -0.00000000000E+00 -0.00000000000E+00 -0.99859839411E+03  0.99859839411E+03  0.00000000000E+00 0. -1.
         21    1    1    2  503  502  0.75758357877E+02 -0.42858668124E+01  0.15182436320E+03  0.16973018206E+03  0.00000000000E+00 0.  1.
         21    1    1    2  504  503  0.29981422590E+02 -0.29006008809E+02 -0.12877474781E+03  0.13536310399E+03  0.00000000000E+00 0.  1.
         21    1    1    2  505  501 -0.11220796678E+03  0.75625022272E+02 -0.89712184882E+02  0.16235161816E+03  0.00000000000E+00 0.  1.
          2    1    1    2  501    0  0.64681863128E+01 -0.42333146650E+02 -0.73091792425E+03  0.73217139027E+03  0.00000000000E+00 0. -1.
<scales pt_clust_3="14000.00000" pt_clust_4="41.71611" pt_clust_5="78.69425" pt_clust_6="73.99274"></scales>
<clustering>
<clus scale="   41.716">  2  4  1 -1</clus>
<clus scale="   73.993">  2  6  1 -1</clus>
<clus scale="   78.694">  2  5  1 -1</clus>
<clus scale="   78.694">  1  3  2 -1</clus>
</clustering>
</event>
<event>
 6    0  0.2117869E+002  0.1123438E+03  0.7546771E-02  0.1256290E+00
         21   -1    0    0  505  502  0.00000000000E+00  0.00000000000E+00  0.93449434101E+02  0.93449434101E+02  0.00000000000E+00 0. -1.
          2   -1    0    0  503    0 -0.00000000000E+00 -0.00000000000E+00 -0.60507506845E+03  0.60507506845E+03  0.00000000000E+00 0. -1.
         21    1    1    2  503  504  0.45378010612E+02 -0.33884884410E+02 -0.10456246699E+03  0.11891450181E+03  0.00000000000E+00 0. -1.
         21    1    1    2  504  502  0.31346383446E+02  0.42707405683E+02  0.87231770847E+01  0.53689962505E+02  0.00000000000E+00 0. -1.
         21    1    1    2  505  501 -0.14702876459E+03 -0.41594991103E+02 -0.63962076970E+02  0.16564645541E+03  0.00000000000E+00 0. -1.
          2    1    1    2  501    0  0.70304370527E+02  0.32772469830E+02 -0.35182426748E+03  0.36027358282E+03  0.00000000000E+00 0. -1.
<scales pt_clust_3="56.91185" pt_clust_4="52.97658" pt_clust_5="14000.00000" pt_clust_6="112.34381"></scales>
<clustering>
<clus scale="   52.977">  1  4  2 -1</clus>
<clus scale="   56.912">  2  3  1 -1</clus>
<clus scale="  112.344">  2  6  1 -1</clus>
<clus scale="   52.977">  1  3  2 -1</clus>
</clustering>
</event>
<event>
 6    0  0.2117869E+002  0.1887346E+03  0.7546771E-02  0.1159608E+00
         21   -1    0    0  503  502  0.00000000000E+00  0.00000000000E+00  0.48215467882E+03  0.48215467882E+03  0.00000000000E+00 0. -1.
          1   -1    0    0  504    0 -0.00000000000E+00 -0.00000000000E+00 -0.14087291320E+04  0.14087291320E+04  0.00000000000E+00 0. -1.
         21    1    1    2  503  501 -0.11991999692E+03  0.74170689616E+02 -0.69294423700E+02  0.15711083354E+03  0.00000000000E+00 0. -1.
         21    1    1    2  504  505 -0.22098224124E+02  0.24132530886E+02 -0.12266583274E+03  0.12695517743E+03  0.00000000000E+00 0. -1.
         21    1    1    2  505  502 -0.64384450415E+02 -0.49860240466E+01  0.42266943003E+03  0.42757416313E+03  0.00000000000E+00 0. -1.
          1    1    1    2  501    0  0.20640267146E+03 -0.93317196456E+02 -0.11572836267E+04  0.11792436367E+04  0.00000000000E+00 0. -1.
<scales pt_clust_3="14000.00000" pt_clust_4="32.72171" pt_clust_5="64.61577" pt_clust_6="188.73463"></scales>
<clustering>
<clus scale="   32.722">  2  4  1 -1</clus>
<clus scale="   64.616">  1  5  2 -1</clus>
<clus scale="  188.735">  2  6  1 -1</clus>
<clus scale="   64.616">  1  3  2 -1</clus>
</clustering>
</event>
<event>
 6    0  0.2117869E+002  0.1030543E+03  0.7546771E-02  0.1274001E+00
          2   -1    0    0  505    0 -0.00000000000E+00  0.00000000000E+00  0.15180178322E+04  0.15180178322E+04  0.00000000000E+00 0. -1.
         21   -1    0    0  504  502  0.00000000000E+00 -0.00000000000E+00 -0.29365030967E+03  0.29365030967E+03  0.00000000000E+00 0. -1.
         21    1    1    2  503  501  0.49232726652E+01 -0.10652534727E+03  0.78318273439E+02  0.13230888171E+03  0.00000000000E+00 0. -1.
         21    1    1    2  504  503  0.66168156697E+02  0.81739667365E+02 -0.25251810388E+03  0.27354157082E+03  0.00000000000E+00 0. -1.
         21    1    1    2  505  502  0.27882301736E+02  0.15303773024E+02  0.15203452280E+03  0.15532586501E+03  0.00000000000E+00 0. -1.
          2    1    1    2  501    0 -0.98973731098E+02  0.94819068844E+01  0.12465328302E+04  0.12504918243E+04  0.00000000000E+00 0. -1.
<scales pt_clust_3="103.05435" pt_clust_4="14000.00000" pt_clust_5="31.80610" pt_clust_6="77.12175"></scales>
<clustering>
<clus scale="   31.806">  1  5  2 -1</clus>
<clus scale="   77.122">  1  6  2 -1</clus>
<clus scale="  103.054">  1  3  2 -1</clus>
<clus scale="  103.054">  2  3  1 -1</clus>
</clustering>
</event>
<event>
 6    0  0.2117869E+002  0.1665172E+03  0.7546771E-02  0.1181529E+00
         21   -1    0    0  505  502  0.00000000000E+00  0.00000000000E+00  0.14494361812E+03  0.14494361812E+03  0.00000000000E+00 0. -1.
          1   -1    0    0  503    0 -0.00000000000E+00 -0.00000000000E+00 -0.27944419343E+04  0.27944419343E+04  0.00000000000E+00 0.  1.
         21    1    1    2  503  504  0.19021030290E+02 -0.55436516899E+02 -0.46328468985E+03  0.46697720592E+03  0.00000000000E+00 0.  1.
         21    1    1    2  504  502 -0.43407401652E+02  0.65341174177E+00 -0.79043833900E+02  0.90180691629E+02  0.00000000000E+00 0.  1.
         21    1    1    2  505  501 -0.12070305876E+03  0.42366603719E+02  0.10486122476E+03  0.16540868769E+03  0.00000000000E+00 0. -1.
          1    1    1    2  501    0  0.14508943012E+03  0.12416501438E+02 -0.22120310172E+04  0.22168189671E+04  0.00000000000E+00 0.  1.
<scales pt_clust_3="58.41664" pt_clust_4="43.41232" pt_clust_5="166.51725" pt_clust_6="14000.00000"></scales>
<clustering>
<clus scale="   43.412">  1  4  2 -1</clus>
<clus scale="   58.417">  2  3  1 -1</clus>
<clus scale="  166.517">  1  5  2 -1</clus>
<clus scale="   43.412">  1  3  2 -1</clus>
</clustering>
</event>
<event>
 6    0  0.2117869E+002  0.1412305E+03  0.7546771E-02  0.1211683E+00
          2   -1    0    0  503    0 -0.00000000000E+00  0.00000000000E+00  0.74856152648E+03  0.74856152648E+03  0.00000000000E+00 0. -1.
         21   -1    0    0  505  502  0.00000000000E+00 -0.00000000000E+00 -0.15975524951E+03  0.15975524951E+03  0.00000000000E+00 0.  1.
         21    1    1    2  503  504 -0.30431791172E+02 -0.63531049106E+02  0.34220273220E+03  0.34937801596E+03  0.00000000000E+00 0. -1.
         21    1    1    2  504  502  0.67191495330E+02  0.22305786831E+02  0.52573643865E+02  0.88182953001E+02  0.00000000000E+00 0. -1.
         21    1    1    2  505  501 -0.10860300994E+03 -0.90387920995E+02 -0.77072392045E+02  0.16094950651E+03  0.00000000000E+00 0.  1.
          2    1    1    2  501    0  0.71843305780E+02  0.13161318327E+03  0.27110229295E+03  0.30980630052E+03  0.00000000000E+00 0. -1.
<scales pt_clust_3="70.44351" pt_clust_4="62.88033" pt_clust_5="141.23047" pt_clust_6="14000.00000"></scales>
<clustering>
<clus scale="   70.444">  1  3  2 -1</clus>
<clus scale="   62.880">  1  4  2 -1</clus>
<clus scale="  141.230">  2  5  1 -1</clus>
<clus scale="  141.230">  2  3  1 -1</clus>
</clustering>
</event>
<event>
 6    0  0.2117869E+002  0.7513902E+02  0.7546771E-02  0.1343441E+00
         21   -1    0    0  501  502  0.00000000000E+00  0.00000000000E+00  0.16546807193E+02  0.16546807193E+02  0.00000000000E+00 0.  1.
          2   -1    0    0  504    0 -0.00000000000E+00 -0.00000000000E+00 -0.16388844160E+04  0.16388844160E+04  0.00000000000E+00 0.  1.
         21    1    1    2  503  505 -0.50198766421E+02 -0.25557495131E+02 -0.35248449785E+03  0.35695717241E+03  0.00000000000E+00 0.  1.
         21    1    1    2  504  503  0.18377079367E+02 -0.25917367152E+02 -0.49713995874E+03  0.49815415841E+03  0.00000000000E+00 0.  1.
         21    1    1    2  505  502  0.61173175451E+02 -0.41589177963E+02 -0.12461314855E+03  0.14491464353E+03  0.00000000000E+00 0.  1.
          2    1    1    2  501    0 -0.29351488397E+02  0.93064040246E+02 -0.64810000364E+03  0.65540524882E+03  0.00000000000E+00 0.  1.
<scales pt_clust_3="55.75768" pt_clust_4="31.77148" pt_clust_5="75.13902" pt_clust_6="14000.00000"></scales>
<clustering>
<clus scale="   31.771">  2  4  1 -1</clus>
<clus scale="   55.758">  2  3  1 -1</clus>
<clus scale="   75.139">  1  5  2 -1</clus>
<clus scale="   75.139">  1  3  2 -1</clus>
</clustering>
</event>
<event>
 6    0  0.2117869E+002  0.9889135E+02  0.7546771E-02  0.1282645E+00
          2   -1    0    0  505    0 -0.00000000000E+00  0.00000000000E+00  0.62634289899E+03  0.62634289899E+03  0.00000000000E+00 0.  1.
         21   -1    0    0  504  502  0.00000000000E+00 -0.00000000000E+00 -0.93658928317E+02  0.93658928317E+02  0.00000000000E+00 0.  1.
         21    1    1    2  503  501  0.44508813195E+02  0.49894278831E+02  0.10191966847E+03  0.12189377479E+03  0.00000000000E+00 0.  1.
         21    1    1    2  504  503 -0.14482601198E+02  0.27160454260E+02 -0.53253561932E+02  0.61509169004E+02  0.00000000000E+00 0.  1.
         21    1    1    2  505  502 -0.69549434958E+02  0.32053543509E+02  0.60864021408E+02  0.97821176932E+02  0.00000000000E+00 0.  1.
          2    1    1    2  501    0  0.39523222961E+02 -0.10910827660E+03  0.42315384273E+03  0.43877770658E+03  0.00000000000E+00 0.  1.
<scales pt_clust_3="70.23887" pt_clust_4="30.78045" pt_clust_5="98.89135" pt_clust_6="14000.00000"></scales>
<clustering>
<clus scale="   30.780">  2  4  1 -1</clus>
<clus scale="   70.239">  2  3  1 -1</clus>
<clus scale="   98.891">  2  5  1 -1</clus>
<clus scale="   30.780">  2  3  1 -1</clus>
</clustering>
</event>
<event>
 6    0  0.2117869E+002  0.9382845E+02  0.7546771E-02  0.1293837E+00
         21   -1    0    0  503  502  0.00000000000E+00  0.00000000000E+00  0.24333155896E+04  0.24333155896E+04  0.00000000000E+00 0.  1.
         -2   -1    0    0    0  501 -0.00000000000E+00 -0.00000000000E+00 -0.52383618609E+02  0.52383618609E+02  0.00000000000E+00 0. -1.
         21    1    1    2  503  504 -0.65384587988E+02  0.70221458160E+02  0.21744292605E+04  0.21765451537E+04  0.00000000000E+00 0.  1.
         21    1    1    2  504  505  0.35994799593E+02 -0.72699573320E+02  0.20146559071E+03  0.21718480103E+03  0.00000000000E+00 0.  1.
         21    1    1    2  505  501 -0.36802265315E+01  0.30337189267E+02  0.29342372120E+02  0.42365834366E+02  0.00000000000E+00 0. -1.
         -2    1    1    2    0  502  0.33070014926E+02 -0.27859074107E+02 -0.24305252278E+02  0.49603419092E+02  0.00000000000E+00 0. -1.
<scales pt_clust_3="93.82845" pt_clust_4="14000.00000" pt_clust_5="30.55960" pt_clust_6="30.29881"></scales>
<clustering>
<clus scale="   30.560">  2  5  1 -1</clus>
<clus scale="   30.299">  2  6  1 -1</clus>
<clus scale="   93.828">  1  3  2 -1</clus>
<clus scale="   93.828">  1  3  2 -1</clus>
</clustering>
</event>
<event>
 6    0  0.2117869E+002  0.1856699E+03  0.7546771E-02  0.1162426E+00
          2   -1    0    0  502    0 -0.00000000000E+00  0.00000000000E+00  0.10163435064E+04  0.10163435064E+04  0.00000000000E+00 0.  1.
         21   -1    0    0  505  502  0.00000000000E+00 -0.00000000000E+00 -0.43844941306E+02  0.43844941306E+02  0.00000000000E+00 0.  1.
         21    1    1    2  503  504  0.36503453147E+02  0.32933333675E+02  0.54008037799E+02  0.73034065377E+02  0.00000000000E+00 0. -1.
         21    1    1    2  504  501  0.12680190505E+03  0.14495922159E+02  0.31817711591E+03  0.34281997021E+03  0.00000000000E+00 0.  1.
         21    1    1    2  505  503 -0.11145297816E+02  0.31759841425E+02  0.19893135591E+02  0.39097852043E+02  0.00000000000E+00 0.  1.
          2    1    1    2  501    0 -0.15216006038E+03 -0.79189097259E+02  0.58042027575E+03  0.60523656004E+03  0.00000000000E+00 0.  1.
<scales pt_clust_3="48.38694" pt_clust_4="48.38694" pt_clust_5="33.65866" pt_clust_6="170.23128"></scales>
<clustering>
<clus scale="   33.659">  2  5  1 -1</clus>
<clus scale="   48.387">  3  4 -1 -1</clus>
<clus scale="  170.231">  1  6  2 -1</clus>
<clus scale="   33.659">  2  3  1 -1</clus>
</clustering>
</event>
<event>
 6    0  0.2117869E+002  0.2179632E+03  0.7546771E-02  0.1135411E+00
          2   -1    0    0  503    0 -0.00000000000E+00  0.00000000000E+00  0.10962447021E+04  0.10962447021E+04  0.00000000000E+00 0.  1.
         21   -1    0    0  505  502  0.00000000000E+00 -0.00000000000E+00 -0.74567305912E+03  0.74567305912E+03  0.00000000000E+00 0. -1.
         21    1    1    2  503  504 -0.82568606351E+02  0.24332150882E+03  0.14007291845E+03  0.29264885766E+03  0.00000000000E+00 0. -1.
         21    1    1    2  504  502  0.18433266364E+02 -0.37585992909E+02 -0.49137429219E+03  0.49315432392E+03  0.00000000000E+00 0. -1.
         21    1    1    2  505  501  0.33783508500E+02  0.40997495702E+01 -0.16254788968E+03  0.16607212238E+03  0.00000000000E+00 0. -1.
          2    1    1    2  501    0  0.30351831487E+02 -0.20983526548E+03  0.86442090644E+03  0.89004245730E+03  0.00000000000E+00 0.  1.
<scales pt_clust_3="14000.00000" pt_clust_4="58.10755" pt_clust_5="34.03136" pt_clust_6="217.96322"></scales>
<clustering>
<clus scale="   34.031">  2  5  1 -1</clus>
<clus scale="   58.108">  2  4  1 -1</clus>
<clus scale="  217.963">  1  6  2 -1</clus>
<clus scale="   34.031">  2  3  1 -1</clus>
</clustering>
</event>
<event>
 6    0  0.2117869E+002  0.1860143E+03  0.7546771E-02  0.1162106E+00
         -2   -1    0    0    0  501 -0.00000000000E+00  0.00000000000E+00  0.54023941002E+03  0.54023941002E+03  0.00000000000E+00 0. -1.
         21   -1    0    0  503  502  0.00000000000E+00 -0.00000000000E+00 -0.37463237763E+03  0.37463237763E+03  0.00000000000E+00 0. -1.
         21    1    1    2  503  504  0.11119125726E+03 -0.10935995412E+02 -0.26766202764E+03  0.29004491501E+03  0.00000000000E+00 0. -1.
         21    1    1    2  504  501 -0.10892915067E+02 -0.14723822970E+03 -0.17400898552E+00  0.14764071986E+03  0.00000000000E+00 0. -1.
         21    1    1    2  505  502  0.54275727422E+01  0.40389332258E+02  0.10384166783E+03  0.11155199991E+03  0.00000000000E+00 0.  1.
         -2    1    1    2    0  505 -0.10572591494E+03  0.11778489285E+03  0.32960140119E+03  0.36563415286E+03  0.00000000000E+00 0. -1.
<scales pt_clust_3="111.72776" pt_clust_4="172.76116" pt_clust_5="34.98962" pt_clust_6="34.98962"></scales>
<clustering>
<clus scale="   34.990">  5  6 -1 -1</clus>
<clus scale="  111.728">  2  3  1 -1</clus>
<clus scale="  172.761">  2  4  1 -1</clus>
<clus scale="  111.728">  2  3  1 -1</clus>
</clustering>
</event>
<event>
 6    0  0.2117869E+002  0.9446694E+02  0.7546771E-02  0.1292381E+00
          2   -1    0    0  505    0 -0.00000000000E+00  0.00000000000E+00  0.44338632075E+04  0.44338632075E+04  0.00000000000E+00 0.  1.
         21   -1    0    0  504  502  0.00000000000E+00 -0.00000000000E+00 -0.31641958577E+03  0.31641958577E+03  0.00000000000E+00 0. -1.
         21    1    1    2  503  502  0.21605804212E+02 -0.53208852799E+02 -0.29223625779E+03  0.29782549112E+03  0.00000000000E+00 0. -1.
         21    1    1    2  504  501 -0.23048437999E+01 -0.39353478405E+02  0.45443276332E+01  0.39681979300E+02  0.00000000000E+00 0.  1.
         21    1    1    2  505  503 -0.64164284849E+02 -0.59314896233E+02  0.94928478576E+03  0.95329791610E+03  0.00000000000E+00 0.  1.
          2    1    1    2  501    0  0.44863324437E+02  0.15187722744E+03  0.34558507661E+04  0.34594774067E+04  0.00000000000E+00 0.  1.
<scales pt_clust_3="14000.00000" pt_clust_4="39.42092" pt_clust_5="87.57119" pt_clust_6="94.46694"></scales>
<clustering>
<clus scale="   39.421">  2  4  1 -1</clus>
<clus scale="   87.571">  1  5  2 -1</clus>
<clus scale="   94.467">  1  6  2 -1</clus>
<clus scale="   39.421">  2  3  1 -1</clus>
</clustering>
</event>
<event>
 6    0  0.2117869E+002  0.9430705E+02  0.7546771E-02  0.1292744E+00
         -3   -1    0    0    0  501 -0.00000000000E+00  0.00000000000E+00  0.10294618359E+03  0.10294618359E+03  0.00000000000E+00 0. -1.
         21   -1    0    0  505  502  0.00000000000E+00 -0.00000000000E+00 -0.30112059900E+03  0.30112059900E+03  0.00000000000E+00 0. -1.
         21    1    1    2  503  501 -0.22123662488E+02 -0.38748014018E+02  0.11650459491E+02  0.46115054359E+02  0.00000000000E+00 0.  1.
         21    1    1    2  504  503 -0.32599123300E+02 -0.58862793295E+02 -0.80491297221E+02  0.10491129683E+03  0.00000000000E+00 0. -1.
         21    1    1    2  505  504 -0.32319117223E+02 -0.12476586079E+02 -0.10504894225E+03  0.11061406242E+03  0.00000000000E+00 0. -1.
         -3    1    1    2    0  502  0.87041903011E+02  0.11008739339E+03 -0.24284635434E+02  0.14242636898E+03  0.00000000000E+00 0. -1.
<scales pt_clust_3="47.05419" pt_clust_4="94.30705" pt_clust_5="34.64377" pt_clust_6="14000.00000"></scales>
<clustering>
<clus scale="   34.644">  2  5  1 -1</clus>
<clus scale="   47.054">  1  3  2 -1</clus>
<clus scale="   94.307">  2  4  1 -1</clus>
<clus scale="   34.644">  2  3  1 -1</clus>
</clustering>
</event>
<event>
 6    0  0.2117869E+002  0.7837598E+02  0.7546771E-02  0.1333724E+00
         21   -1    0    0  503  502  0.00000000000E+00  0.00000000000E+00  0.24416617344E+03  0.24416617344E+03  0.00000000000E+00 0.  1.
         -2   -1    0    0    0  501 -0.00000000000E+00 -0.00000000000E+00 -0.11619389097E+03  0.11619389097E+03  0.00000000000E+00 0.  1.
         21    1    1    2  503  501 -0.35624906597E+02  0.17660349669E+02 -0.41034040020E+01  0.39973239109E+02  0.00000000000E+00 0.  1.
         21    1    1    2  504  505  0.13875678532E+02  0.10221986980E+03  0.71216084449E+02  0.12535217158E+03  0.00000000000E+00 0.  1.
         21    1    1    2  505  502 -0.28385146676E+02 -0.43312957698E+02  0.85764361793E+02  0.10018609988E+03  0.00000000000E+00 0.  1.
         -2    1    1    2    0  504  0.50134374741E+02 -0.76567261769E+02 -0.24904759762E+02  0.94848553833E+02  0.00000000000E+00 0.  1.
<scales pt_clust_3="39.76207" pt_clust_4="78.37598" pt_clust_5="52.23722" pt_clust_6="14000.00000"></scales>
<clustering>
<clus scale="   39.762">  2  3  1 -1</clus>
<clus scale="   52.237">  1  5  2 -1</clus>
<clus scale="   78.376">  1  4  2 -1</clus>
<clus scale="   52.237">  1  3  2 -1</clus>
</clustering>
</event>
<event>
 6    0  0.2117869E+002  0.4502093E+03  0.7546771E-02  0.1027660E+00
         21   -1    0    0  501  502  0.00000000000E+00  0.00000000000E+00  0.48393356582E+03  0.48393356582E+03  0.00000000000E+00 0.  1.
          1   -1    0    0  505    0 -0.00000000000E+00 -0.00000000000E+00 -0.62200303099E+03  0.62200303099E+03  0.00000000000E+00 0.  1.
         21    1    1    2  503  504  0.44632720326E+03 -0.33819921080E+02  0.10475231200E+03  0.45970077909E+03  0.00000000000E+00 0.  1.
         21    1    1    2  504  502 -0.42868929850E+00  0.39710439025E+02  0.57023579508E+02  0.69489505409E+02  0.00000000000E+00 0.  1.
         21    1    1    2  505  503  0.13669715703E+02  0.28640803997E+02 -0.16870162684E+02  0.35941051320E+02  0.00000000000E+00 0. -1.
          1    1    1    2  501    0 -0.45956822966E+03 -0.34531321941E+02 -0.28297519399E+03  0.54080526100E+03  0.00000000000E+00 0.  1.
<scales pt_clust_3="450.20934" pt_clust_4="40.01119" pt_clust_5="31.73573" pt_clust_6="14000.00000"></scales>
<clustering>
<clus scale="   31.736">  2  5  1 -1</clus>
<clus scale="   40.011">  1  4  2 -1</clus>
<clus scale="  450.209">  1  3  2 -1</clus>
<clus scale="   40.011">  1  3  2 -1</clus>
</clustering>
</event>
<event>
 6    0  0.2117869E+002  0.1785659E+03  0.7546771E-02  0.1169198E+00
         21   -1    0    0  501  502  0.00000000000E+00  0.00000000000E+00  0.74021544271E+02  0.74021544271E+02  0.00000000000E+00 0. -1.
          2   -1    0    0  504    0 -0.00000000000E+00 -0.00000000000E+00 -0.38049542393E+04  0.38049542393E+04  0.00000000000E+00 0. -1.
         21    1    1    2  503  505  0.15300491824E+03 -0.92372878862E+02 -0.50581564275E+03  0.53646315643E+03  0.00000000000E+00 0. -1.
         21    1    1    2  504  503  0.68428322071E+02 -0.28181139711E+02 -0.56085255097E+03  0.56571388159E+03  0.00000000000E+00 0.  1.
         21    1    1    2  505  502 -0.11005973710E+03  0.14409442671E+03 -0.94411408701E+02  0.20442569220E+03  0.00000000000E+00 0. -1.
          2    1    1    2  501    0 -0.11137350321E+03 -0.23540408133E+02 -0.25698530927E+04  0.25723730534E+04  0.00000000000E+00 0. -1.
<scales pt_clust_3="178.56590" pt_clust_4="74.00413" pt_clust_5="14000.00000" pt_clust_6="73.25635"></scales>
<clustering>
<clus scale="   74.004">  2  4  1 -1</clus>
<clus scale="   73.256">  2  6  1 -1</clus>
<clus scale="  178.566">  2  3  1 -1</clus>
<clus scale="  178.566">  1  3  2 -1</clus>
</clustering>
</event>
<event>
 6    0  0.2117869E+002  0.1413772E+03  0.7546771E-02  0.1211488E+00
          2   -1    0    0  504    0 -0.00000000000E+00  0.00000000000E+00  0.21396668435E+04  0.21396668435E+04  0.00000000000E+00 0.  1.
         21   -1    0    0  505  502  0.00000000000E+00 -0.00000000000E+00 -0.46353426691E+03  0.46353426691E+03  0.00000000000E+00 0. -1.
         21    1    1    2  503  502 -0.69360593414E+01 -0.13107775864E+03 -0.35749762656E+03  0.38083335034E+03  0.00000000000E+00 0. -1.
         21    1    1    2  504  503  0.51627387785E+02  0.43018507987E+00  0.70156083011E+02  0.87105959682E+02  0.00000000000E+00 0.  1.
         21    1    1    2  505  501 -0.13763862653E+03  0.12729131316E+03  0.18857894878E+02  0.18842263696E+03  0.00000000000E+00 0.  1.
          2    1    1    2  501    0  0.92947298087E+02  0.33562604027E+01  0.19446162253E+04  0.19468391635E+04  0.00000000000E+00 0.  1.
<scales pt_clust_3="131.24359" pt_clust_4="51.62918" pt_clust_5="141.37722" pt_clust_6="14000.00000"></scales>
<clustering>
<clus scale="   51.629">  1  4  2 -1</clus>
<clus scale="  131.244">  2  3  1 -1</clus>
<clus scale="  141.377">  2  5  1 -1</clus>
<clus scale="  131.244">  2  3  1 -1</clus>
</clustering>
</event>
<event>
 6    0  0.2117869E+002  0.1241691E+03  0.7546771E-02  0.1236374E+00
         21   -1    0    0  503  502  0.00000000000E+00  0.00000000000E+00  0.29718928540E+03  0.29718928540E+03  0.00000000000E+00 0.  1.
          2   -1    0    0  504    0 -0.00000000000E+00 -0.00000000000E+00 -0.83907249971E+03  0.83907249971E+03  0.00000000000E+00 0. -1.
         21    1    1    2  503  501 -0.13266238700E+03  0.81552216927E+01  0.98385035746E+02  0.16536454223E+03  0.00000000000E+00 0.  1.
         21    1    1    2  504  505  0.42659137658E+02  0.23598039069E+02 -0.11181202654E+03  0.12197786173E+03  0.00000000000E+00 0.  1.
         21    1    1    2  505  502  0.11784977597E+03  0.21237777658E+02  0.13632404031E+03  0.18144932312E+03  0.00000000000E+00 0.  1.
          2    1    1    2  501    0 -0.27846526624E+02 -0.52991038420E+02 -0.66478026382E+03  0.66747005803E+03  0.00000000000E+00 0. -1.
<scales pt_clust_3="124.16906" pt_clust_4="48.75110" pt_clust_5="14000.00000" pt_clust_6="33.27553"></scales>
<clustering>
<clus scale="   48.751">  2  4  1 -1</clus>
<clus scale="   33.276">  2  6  1 -1</clus>
<clus scale="  124.169">  2  3  1 -1</clus>
<clus scale="  124.169">  1  3  2 -1</clus>
</clustering>
</event>
<event>
 6    0  0.2117869E+002  0.1033867E+03  0.7546771E-02  0.1273331E+00
          2   -1    0    0  505    0 -0.00000000000E+00  0.00000000000E+00  0.27776086883E+04  0.27776086883E+04  0.00000000000E+00 0. -1.
         21   -1    0    0  504  502  0.00000000000E+00 -0.00000000000E+00 -0.21670664264E+02  0.21670664264E+02  0.00000000000E+00 0. -1.
         21    1    1    2  503  501 -0.33814225776E+02 -0.88577380826E+02  0.19852559540E+03  0.22000401426E+03  0.00000000000E+00 0. -1.
         21    1    1    2  504  503  0.26458439706E+02  0.14516946067E+02  0.19186211033E+02  0.35761731622E+02  0.00000000000E+00 0. -1.
         21    1    1    2  505  502 -0.25388149058E+02 -0.24998811026E+02  0.21391200200E+03  0.21685904008E+03  0.00000000000E+00 0. -1.
          2    1    1    2  501    0  0.32743935128E+02  0.99059245785E+02  0.23243142156E+04  0.23266545666E+04  0.00000000000E+00 0. -1.
<scales pt_clust_3="103.38672" pt_clust_4="30.17931" pt_clust_5="32.44539" pt_clust_6="14000.00000"></scales>
<clustering>
<clus scale="   30.179">  2  4  1 -1</clus>
<clus scale="   32.445">  2  5  1 -1</clus>
<clus scale="  103.387">  2  3  1 -1</clus>
<clus scale="   30.179">  2  3  1 -1</clus>
</clustering>
</event>
<event>
 6    0  0.2117869E+002  0.9482353E+02  0.7546771E-02  0.1291574E+00
         21   -1    0    0  503  502  0.00000000000E+00  0.00000000000E+00  0.12396642392E+04  0.12396642392E+04  0.00000000000E+00 0. -1.
          2   -1    0    0  504    0 -0.00000000000E+00 -0.00000000000E+00 -0.12752860383E+04  0.12752860383E+04  0.00000000000E+00 0. -1.
         21    1    1    2  503  505 -0.48314331880E+02  0.36074522506E+01  0.26266398928E+03  0.26709485139E+03  0.00000000000E+00 0.  1.
         21    1    1    2  504  502  0.29764793167E+02 -0.61702929605E+02  0.94186030225E+03  0.94434846502E+03  0.00000000000E+00 0. -1.
         21    1    1    2  505  501  0.79681167650E+02 -0.16957999393E+02 -0.26008434313E+02  0.85516670169E+02  0.00000000000E+00 0. -1.
          2    1    1    2  501    0 -0.61131628936E+02  0.75053476748E+02 -0.12141376563E+04  0.12179902909E+04  0.00000000000E+00 0. -1.
<scales pt_clust_3="48.44882" pt_clust_4="60.63842" pt_clust_5="14000.00000" pt_clust_6="94.82353"></scales>
<clustering>
<clus scale="   48.449">  1  3  2 -1</clus>
<clus scale="   60.638">  1  4  2 -1</clus>
<clus scale="   94.824">  2  6  1 -1</clus>
<clus scale="   48.449">  1  3  2 -1</clus>
</clustering>
</event>
<event>
 6    0  0.2117869E+002  0.1022725E+03  0.7546771E-02  0.1275588E+00
         21   -1    0    0  503  502  0.00000000000E+00  0.00000000000E+00  0.99203785237E+03  0.99203785237E+03  0.00000000000E+00 0. -1.
          2   -1    0    0  505    0 -0.00000000000E+00 -0.00000000000E+00 -0.15285203331E+04  0.15285203331E+04  0.00000000000E+00 0. -1.
         21    1    1    2  503  504 -0.54492960875E+02  0.26711195544E+02  0.28349349019E+03  0.28991641853E+03  0.00000000000E+00 0. -1.
         21    1    1    2  504  501 -0.64574283191E+02  0.90071430504E+02 -0.50397362309E+03  0.51601561354E+03  0.00000000000E+00 0. -1.
         21    1    1    2  505  502  0.15171422571E+03 -0.57126661343E+02  0.68875187011E+03  0.70757317664E+03  0.00000000000E+00 0. -1.
          2    1    1    2  501    0 -0.32646981649E+02 -0.59655964705E+02 -0.10047542180E+04  0.10070529768E+04  0.00000000000E+00 0. -1.
<scales pt_clust_3="60.68748" pt_clust_4="14000.00000" pt_clust_5="102.27250" pt_clust_6="68.00937"></scales>
<clustering>
<clus scale="   60.687">  1  3  2 -1</clus>
<clus scale="   68.009">  2  6  1 -1</clus>
<clus scale="  102.273">  1  5  2 -1</clus>
<clus scale="   60.687">  1  3  2 -1</clus>
</clustering>
</event>
<event>
 6    0  0.2117869E+002  0.1081090E+03  0.7546771E-02  0.1264112E+00
          2   -1    0    0  505    0 -0.00000000000E+00  0.00000000000E+00  0.10597114625E+03  0.10597114625E+03  0.00000000000E+00 0.  1.
         21   -1    0    0  503  502  0.00000000000E+00 -0.00000000000E+00 -0.57801946551E+03  0.57801946551E+03  0.00000000000E+00 0. -1.
         21    1    1    2  503  501 -0.89080370338E+02  0.27018907515E+02 -0.27162391811E+03  0.28713217624E+03  0.00000000000E+00 0. -1.
         21    1    1    2  504  502 -0.18506067306E+02 -0.29542021383E+02 -0.18948203498E+03  0.19266200231E+03  0.00000000000E+00 0. -1.
         21    1    1    2  505  504 -0.39991074029E+02  0.29513581682E+02 -0.20729651049E+02  0.53852167443E+02  0.00000000000E+00 0. -1.
          2    1    1    2  501    0  0.14757751167E+03 -0.26990467815E+02  0.97872848700E+01  0.15034426577E+03  0.00000000000E+00 0.  1.
<scales pt_clust_3="108.10899" pt_clust_4="34.85980" pt_clust_5="49.56024" pt_clust_6="14000.00000"></scales>
<clustering>
<clus scale="   34.860">  2  4  1 -1</clus>
<clus scale="   49.560">  1  5  2 -1</clus>
<clus scale="  108.109">  2  3  1 -1</clus>
<clus scale="   34.860">  2  3  1 -1</clus>
</clustering>
</event>
<event>
 6    0  0.2117869E+002  0.9867545E+02  0.7546771E-02  0.1283106E+00
         21   -1    0    0  504  502  0.00000000000E+00  0.00000000000E+00  0.43604891244E+02  0.43604891244E+02  0.00000000000E+00 0.  1.
          2   -1    0    0  505    0 -0.00000000000E+00 -0.00000000000E+00 -0.25150041434E+04  0.25150041434E+04  0.00000000000E+00 0.  1.
         21    1    1    2  503  502 -0.16528596338E+03 -0.31848473725E+02 -0.63998455805E+03  0.66175071554E+03  0.00000000000E+00 0.  1.
         21    1    1    2  504  501  0.77589620049E+02  0.50087112894E+02 -0.38529123087E+02  0.10006678442E+03  0.00000000000E+00 0.  1.
         21    1    1    2  505  503  0.14776068809E+02  0.28273839421E+02 -0.46957261472E+03  0.47065505702E+03  0.00000000000E+00 0.  1.
          2    1    1    2  501    0  0.72920274523E+02 -0.46512478590E+02 -0.13233129563E+04  0.13261364777E+04  0.00000000000E+00 0.  1.
<scales pt_clust_3="14000.00000" pt_clust_4="98.67545" pt_clust_5="31.90207" pt_clust_6="87.17819"></scales>
<clustering>
<clus scale="   31.902">  2  5  1 -1</clus>
<clus scale="   87.178">  2  6  1 -1</clus>
<clus scale="   98.675">  1  4  2 -1</clus>
<clus scale="   98.675">  1  3  2 -1</clus>
</clustering>
</event>
<event>
 6    0  0.2117869E+002  0.1180014E+03  0.7546771E-02  0.1246431E+00
         21   -1    0    0  504  502  0.00000000000E+00  0.00000000000E+00  0.32853347486E+03  0.32853347486E+03  0.00000000000E+00 0. -1.
          2   -1    0    0  505    0 -0.00000000000E+00 -0.00000000000E+00 -0.15746556231E+04  0.15746556231E+04  0.00000000000E+00 0. -1.
         21    1    1    2  503  502  0.51499216694E+02 -0.12293399563E+03  0.23959450956E+03  0.27417232831E+03  0.00000000000E+00 0. -1.
         21    1    1    2  504  501  0.20832283248E+02  0.30823911253E+02  0.58958105472E+02  0.69714817156E+02  0.00000000000E+00 0. -1.
         21    1    1    2  505  503  0.47845319858E+02 -0.11040482476E+02 -0.23421589017E+03  0.23930764738E+03  0.00000000000E+00 0.  1.
          2    1    1    2  501    0 -0.12017681980E+03  0.10315056686E+03 -0.13104588731E+04  0.13199943051E+04  0.00000000000E+00 0. -1.
<scales pt_clust_3="118.00138" pt_clust_4="37.20346" pt_clust_5="49.23257" pt_clust_6="14000.00000"></scales>
<clustering>
<clus scale="   37.203">  1  4  2 -1</clus>
<clus scale="   49.233">  2  5  1 -1</clus>
<clus scale="  118.001">  1  3  2 -1</clus>
<clus scale="   37.203">  1  3  2 -1</clus>
</clustering>
</event>
<event>
 6    0  0.2117869E+002  0.1448540E+03  0.7546771E-02  0.1206943E+00
          2   -1    0    0  503    0 -0.00000000000E+00  0.00000000000E+00  0.39045715605E+04  0.39045715605E+04  0.00000000000E+00 0.  1.
         21   -1    0    0  504  502  0.00000000000E+00 -0.00000000000E+00 -0.13140143144E+03  0.13140143144E+03  0.00000000000E+00 0.  1.
         21    1    1    2  503  502 -0.51855732014E+02 -0.89472374495E+02  0.10982252206E+04  0.11030833867E+04  0.00000000000E+00 0.  1.
         21    1    1    2  504  505  0.65183309191E+02  0.20027311572E+02 -0.84072171723E+02  0.10825011346E+03  0.00000000000E+00 0.  1.
         21    1    1    2  505  501  0.44444213708E+02  0.96155886100E+02  0.54048449535E+02  0.11892214874E+03  0.00000000000E+00 0.  1.
          2    1    1    2  501    0 -0.57771790885E+02 -0.26710823177E+02  0.27049686306E+04  0.27057173431E+04  0.00000000000E+00 0.  1.
<scales pt_clust_3="14000.00000" pt_clust_4="67.55488" pt_clust_5="144.85398" pt_clust_6="63.64784"></scales>
<clustering>
<clus scale="   63.648">  1  6  2 -1</clus>
<clus scale="   67.555">  2  4  1 -1</clus>
<clus scale="  144.854">  2  5  1 -1</clus>
<clus scale="   67.555">  2  3  1 -1</clus>
</clustering>
</event>
<event>
 6    0  0.2117869E+002  0.9022728E+02  0.7546771E-02  0.1302302E+00
          2   -1    0    0  503    0 -0.00000000000E+00  0.00000000000E+00  0.22546644515E+04  0.22546644515E+04  0.00000000000E+00 0.  1.
         21   -1    0    0  505  502  0.00000000000E+00 -0.00000000000E+00 -0.39878933820E+02  0.39878933820E+02  0.00000000000E+00 0. -1.
         21    1    1    2  503  504  0.28883912239E+02 -0.42567524364E+02  0.17476798080E+04  0.17484367262E+04  0.00000000000E+00 0. -1.
         21    1    1    2  504  502 -0.47132677175E+01 -0.33372574531E+02 -0.12341770313E+01  0.33726351957E+02  0.00000000000E+00 0. -1.
         21    1    1    2  505  501  0.33033855082E+02 -0.52039985455E+02  0.91629725978E+02  0.11043279563E+03  0.00000000000E+00 0. -1.
          2    1    1    2  501    0 -0.57204499603E+02  0.12798008435E+03  0.37671016077E+03  0.40194751149E+03  0.00000000000E+00 0.  1.
<scales pt_clust_3="51.86525" pt_clust_4="33.70376" pt_clust_5="90.22728" pt_clust_6="14000.00000"></scales>
<clustering>
<clus scale="   33.704">  2  4  1 -1</clus>
<clus scale="   51.865">  1  3  2 -1</clus>
<clus scale="   90.227">  2  5  1 -1</clus>
<clus scale="   33.704">  2  3  1 -1</clus>
</clustering>
</event>
<event>
 6    0  0.2117869E+002  0.1234640E+03  0.7546771E-02  0.1237490E+00
         21   -1    0    0  504  502  0.00000000000E+00  0.00000000000E+00  0.78970956726E+03  0.78970956726E+03  0.00000000000E+00 0. -1.
         -1   -1    0    0    0  501 -0.00000000000E+00 -0.00000000000E+00 -0.94616265785E+02  0.94616265785E+02  0.00000000000E+00 0. -1.
         21    1    1    2  503  502 -0.39960681491E+01 -0.84256759022E+02  0.43634403080E+02  0.94969106207E+02  0.00000000000E+00 0. -1.
         21    1    1    2  504  505  0.43959401173E+02 -0.60252974168E+02  0.36007296344E+03  0.36771645169E+03  0.00000000000E+00 0. -1.
         21    1    1    2  505  501 -0.99120979297E+01  0.18682423087E+03  0.31361583771E+03  0.36518000574E+03  0.00000000000E+00 0. -1.
         -1    1    1    2    0  503 -0.30051235094E+02 -0.42314497679E+02 -0.22229902760E+02  0.56460269405E+02  0.00000000000E+00 0. -1.
<scales pt_clust_3="14000.00000" pt_clust_4="75.79989" pt_clust_5="123.46395" pt_clust_6="51.89984"></scales>
<clustering>
<clus scale="   51.900">  2  6  1 -1</clus>
<clus scale="   75.800">  1  4  2 -1</clus>
<clus scale="  123.464">  1  5  2 -1</clus>
<clus scale="   75.800">  1  3  2 -1</clus>
</clustering>
</event>
<event>
 6    0  0.2117869E+002  0.7488976E+02  0.7546771E-02  0.1344213E+00
         21   -1    0    0  505  502  0.00000000000E+00  0.00000000000E+00  0.54516464948E+03  0.54516464948E+03  0.00000000000E+00 0. -1.
         -1   -1    0    0    0  501 -0.00000000000E+00 -0.00000000000E+00 -0.51853746462E+03  0.51853746462E+03  0.00000000000E+00 0.  1.
         21    1    1    2  503  502 -0.20473334574E+02 -0.58449369066E+02  0.10282389501E+03  0.12003432659E+03  0.00000000000E+00 0.  1.
         21    1    1    2  504  501  0.40593427998E+02 -0.10411366716E+02 -0.56913904115E+02  0.70678252915E+02  0.00000000000E+00 0.  1.
         21    1    1    2  505  504  0.90368880882E+02  0.78300155389E+02  0.41131465656E+03  0.42834238136E+03  0.00000000000E+00 0. -1.
         -1    1    1    2    0  503 -0.11048897431E+03 -0.94394196069E+01 -0.43059746260E+03  0.44464715324E+03  0.00000000000E+00 0.  1.
<scales pt_clust_3="61.86835" pt_clust_4="41.90731" pt_clust_5="14000.00000" pt_clust_6="74.88976"></scales>
<clustering>
<clus scale="   41.907">  2  4  1 -1</clus>
<clus scale="   61.868">  1  3  2 -1</clus>
<clus scale="   74.890">  2  6  1 -1</clus>
<clus scale="   61.868">  1  3  2 -1</clus>
</clustering>
</event>
<event>
 6    0  0.2117869E+002  0.7566205E+02  0.7546771E-02  0.1341833E+00
         21   -1    0    0  503  502  0.00000000000E+00  0.00000000000E+00  0.13950799108E+03  0.13950799108E+03  0.00000000000E+00 0.  1.
          2   -1    0    0  505    0 -0.00000000000E+00 -0.00000000000E+00 -0.31198991931E+03  0.31198991931E+03  0.00000000000E+00 0.  1.
         21    1    1    2  503  501 -0.42816041513E+02  0.42705297543E+01  0.70749636913E+02  0.82806774835E+02  0.00000000000E+00 0.  1.
         21    1    1    2  504  502  0.51926441530E+02 -0.70401161007E+02 -0.30950524282E+01  0.87534325556E+02  0.00000000000E+00 0.  1.
         21    1    1    2  505  504 -0.14832277276E+02 -0.35993817472E+02 -0.36931598630E+02  0.53660919884E+02  0.00000000000E+00 0. -1.
          2    1    1    2  501    0  0.57218772597E+01  0.10212444872E+03 -0.20320491409E+03  0.22749589011E+03  0.00000000000E+00 0.  1.
<scales pt_clust_3="43.28957" pt_clust_4="75.66205" pt_clust_5="38.93008" pt_clust_6="14000.00000"></scales>
<clustering>
<clus scale="   38.930">  2  5  1 -1</clus>
<clus scale="   43.290">  1  3  2 -1</clus>
<clus scale="   75.662">  1  4  2 -1</clus>
<clus scale="   43.290">  1  3  2 -1</clus>
</clustering>
</event>
<event>
 6    0  0.2117869E+002  0.9251974E+02  0.7546771E-02  0.1296862E+00
         21   -1    0    0  503  502  0.00000000000E+00  0.00000000000E+00  0.15495269555E+03  0.15495269555E+03  0.00000000000E+00 0. -1.
          2   -1    0    0  504    0 -0.00000000000E+00 -0.00000000000E+00 -0.13553974122E+04  0.13553974122E+04  0.00000000000E+00 0.  1.
         21    1    1    2  503  501 -0.30266647901E+01  0.62571580771E+02 -0.88968251057E+01  0.63273350764E+02  0.00000000000E+00 0. -1.
         21    1    1    2  504  505  0.77660048521E+02 -0.12928463543E+02 -0.47622423389E+03  0.48268804548E+03  0.00000000000E+00 0.  1.
         21    1    1    2  505  502 -0.66531574218E+02  0.56722107790E+01  0.11457325185E+03  0.13261091352E+03  0.00000000000E+00 0. -1.
          2    1    1    2  501    0 -0.81018095130E+01 -0.55315328008E+02 -0.82989690952E+03  0.83177779801E+03  0.00000000000E+00 0.  1.
<scales pt_clust_3="58.87556" pt_clust_4="92.51974" pt_clust_5="14000.00000" pt_clust_6="55.90550"></scales>
<clustering>
<clus scale="   55.905">  2  6  1 -1</clus>
<clus scale="   58.876">  1  3  2 -1</clus>
<clus scale="   92.520">  2  4  1 -1</clus>
<clus scale="   58.876">  1  3  2 -1</clus>
</clustering>
</event>
<event>
 6    0  0.2117869E+002  0.1426515E+03  0.7546771E-02  0.1209805E+00
         21   -1    0    0  504  502  0.00000000000E+00  0.00000000000E+00  0.11915563204E+03  0.11915563204E+03  0.00000000000E+00 0. -1.
         -2   -1    0    0    0  501 -0.00000000000E+00 -0.00000000000E+00 -0.10201358802E+04  0.10201358802E+04  0.00000000000E+00 0.  1.
         21    1    1    2  503  501 -0.16743774526E+03  0.10711314567E+03 -0.44382177992E+02  0.20366247135E+03  0.00000000000E+00 0. -1.
         21    1    1    2  504  503 -0.23608745172E+02 -0.23761740744E+02 -0.36888327473E+02  0.49827119880E+02  0.00000000000E+00 0. -1.
         21    1    1    2  505  502  0.65328310260E+02 -0.25037925197E+02 -0.18051614548E+02  0.72253350147E+02  0.00000000000E+00 0. -1.
         -2    1    1    2    0  505  0.12571818017E+03 -0.58313479727E+02 -0.80165812815E+03  0.81354857087E+03  0.00000000000E+00 0.  1.
<scales pt_clust_3="14000.00000" pt_clust_4="33.49617" pt_clust_5="67.11108" pt_clust_6="142.65148"></scales>
<clustering>
<clus scale="   33.496">  1  4  2 -1</clus>
<clus scale="   67.111">  1  5  2 -1</clus>
<clus scale="  142.651">  2  6  1 -1</clus>
<clus scale="   33.496">  1  3  2 -1</clus>
</clustering>
</event>
<event>
 6    0  0.2117869E+002  0.1461907E+03  0.7546771E-02  0.1205233E+00
          2   -1    0    0  505    0 -0.00000000000E+00  0.00000000000E+00  0.11232161999E+04  0.11232161999E+04  0.00000000000E+00 0.  1.
         21   -1    0    0  503  502  0.00000000000E+00 -0.00000000000E+00 -0.14026052965E+03  0.14026052965E+03  0.00000000000E+00 0.  1.
         21    1    1    2  503  504 -0.20364610012E+01  0.38397086447E+02 -0.81513219749E+02  0.90127068158E+02  0.00000000000E+00 0.  1.
         21    1    1    2  504  501 -0.14492495538E+03  0.28001614515E+01  0.66758696962E+02  0.15958636287E+03  0.00000000000E+00 0.  1.
         21    1    1    2  505  502  0.41731958721E+02  0.27613925982E+02  0.19777434250E+03  0.20400680341E+03  0.00000000000E+00 0. -1.
          2    1    1    2  501    0  0.10522945766E+03 -0.68811173880E+02  0.79993585049E+03  0.80975649507E+03  0.00000000000E+00 0.  1.
<scales pt_clust_3="38.45105" pt_clust_4="14000.00000" pt_clust_5="51.19165" pt_clust_6="146.19074"></scales>
<clustering>
<clus scale="   38.451">  2  3  1 -1</clus>
<clus scale="   51.192">  1  5  2 -1</clus>
<clus scale="  146.191">  1  6  2 -1</clus>
<clus scale="   38.451">  2  3  1 -1</clus>
</clustering>
</event>
<event>
 6    0  0.2117869E+002  0.1287113E+03  0.7546771E-02  0.1229381E+00
          1   -1    0    0  504    0 -0.00000000000E+00  0.00000000000E+00  0.92094119601E+03  0.92094119601E+03  0.00000000000E+00 0.  1.
         21   -1    0    0  505  502  0.00000000000E+00 -0.00000000000E+00 -0.31965172740E+03  0.31965172740E+03  0.00000000000E+00 0. -1.
         21    1    1    2  503  502  0.94143144360E+02  0.86204191013E+02 -0.26147102171E+03  0.29096595913E+03  0.00000000000E+00 0. -1.
         21    1    1    2  504  503  0.39550162422E+02  0.22482768386E+02  0.30751792542E+02  0.54912320716E+02  0.00000000000E+00 0. -1.
         21    1    1    2  505  501 -0.40025740793E+02  0.29249771733E+02  0.36127248955E+01  0.49705742662E+02  0.00000000000E+00 0.  1.
          1    1    1    2  501    0 -0.93667565990E+02 -0.13793673113E+03  0.82839597289E+03  0.84500890090E+03  0.00000000000E+00 0.  1.
<scales pt_clust_3="128.71132" pt_clust_4="45.49385" pt_clust_5="49.02373" pt_clust_6="14000.00000"></scales>
<clustering>
<clus scale="   45.494">  1  4  2 -1</clus>
<clus scale="   49.024">  2  5  1 -1</clus>
<clus scale="  128.711">  2  3  1 -1</clus>
<clus scale="   49.024">  2  3  1 -1</clus>
</clustering>
</event>
<event>
 6    0  0.2117869E+002  0.9789763E+02  0.7546771E-02  0.1284780E+00
         21   -1    0    0  503  502  0.00000000000E+00  0.00000000000E+00  0.85367464046E+02  0.85367464046E+02  0.00000000000E+00 0. -1.
          2   -1    0    0  505    0 -0.00000000000E+00 -0.00000000000E+00 -0.80471452484E+03  0.80471452484E+03  0.00000000000E+00 0.  1.
         21    1    1    2  503  501  0.11402267445E+03 -0.42920185378E+02 -0.15581074787E+03  0.19778852786E+03  0.00000000000E+00 0.  1.
         21    1    1    2  504  502 -0.58362247913E+02 -0.39239876859E+02  0.36577947390E+02  0.79270840494E+02  0.00000000000E+00 0. -1.
         21    1    1    2  505  504  0.16385599608E+02  0.30352523376E+02 -0.21999389959E+03  0.22268156503E+03  0.00000000000E+00 0.  1.
          2    1    1    2  501    0 -0.72046026149E+02  0.51807538861E+02 -0.38012036073E+03  0.39034105550E+03  0.00000000000E+00 0.  1.
<scales pt_clust_3="14000.00000" pt_clust_4="69.21247" pt_clust_5="34.49295" pt_clust_6="97.89763"></scales>
<clustering>
<clus scale="   34.493">  2  5  1 -1</clus>
<clus scale="   69.212">  1  4  2 -1</clus>
<clus scale="   97.898">  2  6  1 -1</clus>
<clus scale="   69.212">  1  3  2 -1</clus>
</clustering>
</event>
<event>
 6    0  0.2117869E+002  0.8834780E+02  0.7546771E-02  0.1306903E+00
          4   -1    0    0  503    0 -0.00000000000E+00  0.00000000000E+00  0.23814177761E+03  0.23814177761E+03  0.00000000000E+00 0.  1.
         21   -1    0    0  501  502  0.00000000000E+00 -0.00000000000E+00 -0.89891322452E+02  0.89891322452E+02  0.00000000000E+00 0.  1.
         21    1    1    2  503  504  0.37673232753E+02  0.12168489543E+02  0.66978562606E+02  0.77804064499E+02  0.00000000000E+00 0.  1.
         21    1    1    2  504  505 -0.32347027769E+02  0.69051618571E+02  0.44753768462E+02  0.88415813202E+02  0.00000000000E+00 0.  1.
         21    1    1    2  505  502  0.44374069040E+01  0.29725777937E+02 -0.20803960029E+02  0.36552937049E+02  0.00000000000E+00 0.  1.
          4    1    1    2  501    0 -0.97636118876E+01 -0.11094588605E+03  0.57322084120E+02  0.12526028531E+03  0.00000000000E+00 0.  1.
<scales pt_clust_3="40.84044" pt_clust_4="88.34780" pt_clust_5="30.05516" pt_clust_6="14000.00000"></scales>
<clustering>
<clus scale="   30.055">  2  5  1 -1</clus>
<clus scale="   40.840">  1  3  2 -1</clus>
<clus scale="   88.348">  1  4  2 -1</clus>
<clus scale="   30.055">  2  3  1 -1</clus>
</clustering>
</event>
<event>
 6    0  0.2117869E+002  0.1832093E+03  0.7546771E-02  0.1164733E+00
          2   -1    0    0  504    0 -0.00000000000E+00  0.00000000000E+00  0.14026111520E+04  0.14026111520E+04  0.00000000000E+00 0.  1.
         21   -1    0    0  503  502  0.00000000000E+00 -0.00000000000E+00 -0.21586347041E+03  0.21586347041E+03  0.00000000000E+00 0. -1.
         21    1    1    2  503  501 -0.31794339751E+02 -0.13656643205E+03 -0.15493255851E+03  0.20896259974E+03  0.00000000000E+00 0. -1.
         21    1    1    2  504  505  0.64339809273E+02 -0.73872070501E+01  0.28526659666E+03  0.29252557675E+03  0.00000000000E+00 0.  1.
         21    1    1    2  505  502  0.13815099594E+02 -0.48729880327E+02  0.95674127213E+01  0.51546033792E+02  0.00000000000E+00 0. -1.
          2    1    1    2  501    0 -0.46360569116E+02  0.19268351943E+03  0.10468462307E+04  0.10654404121E+04  0.00000000000E+00 0.  1.
<scales pt_clust_3="183.20927" pt_clust_4="65.12749" pt_clust_5="50.65035" pt_clust_6="14000.00000"></scales>
<clustering>
<clus scale="   50.650">  2  5  1 -1</clus>
<clus scale="   65.127">  1  4  2 -1</clus>
<clus scale="  183.209">  2  3  1 -1</clus>
<clus scale="   50.650">  2  3  1 -1</clus>
</clustering>
</event>
<event>
 6    0  0.2117869E+002  0.8944837E+02  0.7546771E-02  0.1304193E+00
          2   -1    0    0  504    0 -0.00000000000E+00  0.00000000000E+00  0.10356156671E+04  0.10356156671E+04  0.00000000000E+00 0. -1.
         21   -1    0    0  503  502  0.00000000000E+00 -0.00000000000E+00 -0.80043797481E+02  0.80043797481E+02  0.00000000000E+00 0.  1.
         21    1    1    2  503  505  0.14203757555E+02 -0.43454123376E+02 -0.82599000652E+01  0.46456791927E+02  0.00000000000E+00 0. -1.
         21    1    1    2  504  502  0.51912870617E+02 -0.26824017058E+02  0.13471764585E+03  0.14684453729E+03  0.00000000000E+00 0.  1.
         21    1    1    2  505  501  0.67190156373E+02  0.69076266562E-01 -0.11657229340E+02  0.68193935807E+02  0.00000000000E+00 0.  1.
          2    1    1    2  501    0 -0.13330678454E+03  0.70209064168E+02  0.84077135312E+03  0.85416419951E+03  0.00000000000E+00 0. -1.
<scales pt_clust_3="45.71660" pt_clust_4="62.29104" pt_clust_5="14000.00000" pt_clust_6="89.44837"></scales>
<clustering>
<clus scale="   45.717">  2  3  1 -1</clus>
<clus scale="   62.291">  1  4  2 -1</clus>
<clus scale="   89.448">  1  6  2 -1</clus>
<clus scale="   45.717">  2  3  1 -1</clus>
</clustering>
</event>
<event>
 6    0  0.2117869E+002  0.1518230E+03  0.7546771E-02  0.1198251E+00
         -2   -1    0    0    0  501 -0.00000000000E+00  0.00000000000E+00  0.12240977344E+04  0.12240977344E+04  0.00000000000E+00 0.  1.
         21   -1    0    0  505  502  0.00000000000E+00 -0.00000000000E+00 -0.92029550566E+03  0.92029550566E+03  0.00000000000E+00 0.  1.
         21    1    1    2  503  501 -0.23609194223E+02 -0.16100042858E+03  0.11510935957E+03  0.19932058779E+03  0.00000000000E+00 0. -1.
         21    1    1    2  504  502  0.72062395947E+02  0.83711962769E+02 -0.65725350939E+03  0.66647044737E+03  0.00000000000E+00 0.  1.
         21    1    1    2  505  503  0.39181381732E+02 -0.51206998674E+02 -0.20567323462E+03  0.21554307418E+03  0.00000000000E+00 0.  1.
         -2    1    1    2    0  504 -0.87634583456E+02  0.12849546448E+03  0.10516196132E+04  0.10630591307E+04  0.00000000000E+00 0.  1.
<scales pt_clust_3="14000.00000" pt_clust_4="114.40065" pt_clust_5="64.47742" pt_clust_6="151.82300"></scales>
<clustering>
<clus scale="   64.477">  2  5  1 -1</clus>
<clus scale="  114.401">  2  4  1 -1</clus>
<clus scale="  151.823">  1  6  2 -1</clus>
<clus scale="   64.477">  2  3  1 -1</clus>
</clustering>
</event>
<event>
 6    0  0.2117869E+002  0.1313762E+03  0.7546771E-02  0.1225428E+00
         21   -1    0    0  503  502  0.00000000000E+00  0.00000000000E+00  0.23882174833E+03  0.23882174833E+03  0.00000000000E+00 0. -1.
         -2   -1    0    0    0  501 -0.00000000000E+00 -0.00000000000E+00 -0.11126898174E+04  0.11126898174E+04  0.00000000000E+00 0.  1.
         21    1    1    2  503  504 -0.16588715728E+03 -0.94414214665E+01  0.16925665898E+03  0.23718243189E+03  0.00000000000E+00 0. -1.
         21    1    1    2  504  501 -0.39826325631E+02  0.31473252449E+02 -0.30073886525E+03  0.30499273255E+03  0.00000000000E+00 0.  1.
         21    1    1    2  505  502  0.55858984795E+02 -0.56460125507E+02 -0.37418415867E+02  0.87795841590E+02  0.00000000000E+00 0.  1.
         -2    1    1    2    0  505  0.14985449812E+03  0.34428294524E+02 -0.70496744694E+03  0.72154055971E+03  0.00000000000E+00 0.  1.
<scales pt_clust_3="14000.00000" pt_clust_4="50.76122" pt_clust_5="75.52908" pt_clust_6="131.37624"></scales>
<clustering>
<clus scale="   50.761">  2  4  1 -1</clus>
<clus scale="   75.529">  1  5  2 -1</clus>
<clus scale="  131.376">  2  6  1 -1</clus>
<clus scale="   75.529">  1  3  2 -1</clus>
</clustering>
</event>
<event>
 6    0  0.2117869E+002  0.1687721E+03  0.7546771E-02  0.1179134E+00
          2   -1    0    0  505    0 -0.00000000000E+00  0.00000000000E+00  0.91300947002E+03  0.91300947002E+03  0.00000000000E+00 0.  1.
         21   -1    0    0  501  502  0.00000000000E+00 -0.00000000000E+00 -0.68025411518E+03  0.68025411518E+03  0.00000000000E+00 0. -1.
         21    1    1    2  503  504  0.10094152599E+02 -0.99296042127E+02 -0.47415145296E+03  0.48454225434E+03  0.00000000000E+00 0. -1.
         21    1    1    2  504  502 -0.46122170700E+00 -0.64079108128E+02 -0.18087578680E+03  0.19189162325E+03  0.00000000000E+00 0. -1.
         21    1    1    2  505  503  0.41043262399E+02  0.68578000956E+01  0.61023903026E+02  0.73861326491E+02  0.00000000000E+00 0. -1.
          2    1    1    2  501    0 -0.50676193291E+02  0.15651735016E+03  0.82675869157E+03  0.84296838111E+03  0.00000000000E+00 0.  1.
<scales pt_clust_3="33.21063" pt_clust_4="33.21063" pt_clust_5="41.61224" pt_clust_6="163.60365"></scales>
<clustering>
<clus scale="   33.211">  3  4 -1 -1</clus>
<clus scale="   41.612">  1  5  2 -1</clus>
<clus scale="  163.604">  1  6  2 -1</clus>
<clus scale="  168.772">  2  3  1 -1</clus>
</clustering>
</event>
<event>
 6    0  0.2117869E+002  0.5800353E+02  0.7546771E-02  0.1406406E+00
          1   -1    0    0  504    0 -0.00000000000E+00  0.00000000000E+00  0.67079179548E+02  0.67079179548E+02  0.00000000000E+00 0.  1.
         21   -1    0    0  503  502  0.00000000000E+00 -0.00000000000E+00 -0.16886204016E+04  0.16886204016E+04  0.00000000000E+00 0.  1.
         21    1    1    2  503  501  0.69067397500E+02  0.26286084046E+02 -0.14152182749E+04  0.14171464389E+04  0.00000000000E+00 0.  1.
         21    1    1    2  504  505  0.18120201907E+02 -0.34568164276E+02 -0.31079446202E+02  0.49892200541E+02  0.00000000000E+00 0. -1.
         21    1    1    2  505  502 -0.16628789973E+02 -0.46082795505E+02 -0.19189007721E+03  0.19804530398E+03  0.00000000000E+00 0.  1.
          1    1    1    2  501    0 -0.70558809435E+02  0.54364875735E+02  0.16646576264E+02  0.90615637744E+02  0.00000000000E+00 0.  1.
<scales pt_clust_3="58.00353" pt_clust_4="39.02947" pt_clust_5="50.42158" pt_clust_6="14000.00000"></scales>
<clustering>
<clus scale="   39.029">  1  4  2 -1</clus>
<clus scale="   50.422">  2  5  1 -1</clus>
<clus scale="   58.004">  2  3  1 -1</clus>
<clus scale="   50.422">  2  3  1 -1</clus>
</clustering>
</event>
<event>
 6    0  0.2117869E+002  0.1024615E+03  0.7546771E-02  0.1275203E+00
         21   -1    0    0  505  502  0.00000000000E+00  0.00000000000E+00  0.13884401770E+03  0.13884401770E+03  0.00000000000E+00 0. -1.
          3   -1    0    0  503    0 -0.00000000000E+00 -0.00000000000E+00 -0.91754867475E+03  0.91754867475E+03  0.00000000000E+00 0. -1.
         21    1    1    2  503  504 -0.25824991900E+02  0.40615746552E+02  0.73182752968E+01  0.48683942198E+02  0.00000000000E+00 0. -1.
         21    1    1    2  504  502 -0.30341172926E+02 -0.12275310932E+02  0.93291450055E+02  0.98866398166E+02  0.00000000000E+00 0. -1.
         21    1    1    2  505  501 -0.63714058573E+02 -0.24979881224E+02 -0.10525133373E+03  0.12554409177E+03  0.00000000000E+00 0.  1.
          3    1    1    2  501    0  0.11988022340E+03 -0.33605543961E+01 -0.77406304867E+03  0.78329826031E+03  0.00000000000E+00 0. -1.
<scales pt_clust_3="56.11635" pt_clust_4="32.73026" pt_clust_5="14000.00000" pt_clust_6="102.46151"></scales>
<clustering>
<clus scale="   32.730">  1  4  2 -1</clus>
<clus scale="   56.116">  1  3  2 -1</clus>
<clus scale="  102.462">  2  6  1 -1</clus>
<clus scale="   32.730">  1  3  2 -1</clus>
</clustering>
</event>
<event>
 6    0  0.2117869E+002  0.8114023E+02  0.7546771E-02  0.1325846E+00
          1   -1    0    0  504    0 -0.00000000000E+00  0.00000000000E+00  0.13843892179E+04  0.13843892179E+04  0.00000000000E+00 0. -1.
         21   -1    0    0  505  502  0.00000000000E+00 -0.00000000000E+00 -0.12319297873E+03  0.12319297873E+03  0.00000000000E+00 0.  1.
         21    1    1    2  503  502  0.46987208675E+02 -0.27430307243E+02 -0.65789482970E+02  0.85372569389E+02  0.00000000000E+00 0.  1.
         21    1    1    2  504  503 -0.16500332489E+02  0.61344126149E+02 -0.12018651565E+02  0.64651456060E+02  0.00000000000E+00 0.  1.
         21    1    1    2  505  501 -0.20391822070E+02  0.47369237643E+02  0.75679691571E+02  0.91581039514E+02  0.00000000000E+00 0.  1.
          1    1    1    2  501    0 -0.10095054117E+02 -0.81283056550E+02  0.12633246821E+04  0.12659771316E+04  0.00000000000E+00 0. -1.
<scales pt_clust_3="33.80949" pt_clust_4="14000.00000" pt_clust_5="51.57200" pt_clust_6="81.14023"></scales>
<clustering>
<clus scale="   51.572">  2  5  1 -1</clus>
<clus scale="   33.809">  2  3  1 -1</clus>
<clus scale="   81.140">  1  6  2 -1</clus>
<clus scale="   51.572">  2  3  1 -1</clus>
</clustering>
</event>
<event>
 6    0  0.2117869E+002  0.1162577E+03  0.7546771E-02  0.1249402E+00
         21   -1    0    0  505  502  0.00000000000E+00  0.00000000000E+00  0.49130457761E+03  0.49130457761E+03  0.00000000000E+00 0. -1.
          1   -1    0    0  503    0 -0.00000000000E+00 -0.00000000000E+00 -0.24571606311E+03  0.24571606311E+03  0.00000000000E+00 0. -1.
         21    1    1    2  503  504 -0.15923828795E+02  0.32027688033E+02  0.11681243140E+02  0.37627019089E+02  0.00000000000E+00 0. -1.
         21    1    1    2  504  502 -0.44530018524E+02  0.14318588611E+03  0.30689328404E+03  0.34156786781E+03  0.00000000000E+00 0. -1.
         21    1    1    2  505  501  0.21661553511E+02 -0.36682433451E+02  0.11411760596E+03  0.12180990031E+03  0.00000000000E+00 0. -1.
          1    1    1    2  501    0  0.38792293808E+02 -0.13853114069E+03 -0.18710361864E+03  0.23601585351E+03  0.00000000000E+00 0. -1.
<scales pt_clust_3="35.76788" pt_clust_4="116.25771" pt_clust_5="42.01123" pt_clust_6="14000.00000"></scales>
<clustering>
<clus scale="   35.768">  2  3  1 -1</clus>
<clus scale="   42.011">  1  5  2 -1</clus>
<clus scale="  116.258">  1  4  2 -1</clus>
<clus scale="   42.011">  1  3  2 -1</clus>
</clustering>
</event>
<event>
 6    0  0.2117869E+002  0.1129594E+03  0.7546771E-02  0.1255186E+00
          2   -1    0    0  504    0 -0.00000000000E+00  0.00000000000E+00  0.16525123751E+04  0.16525123751E+04  0.00000000000E+00 0.  1.
         21   -1    0    0  505  502  0.00000000000E+00 -0.00000000000E+00 -0.13048745278E+04  0.13048745278E+04  0.00000000000E+00 0. -1.
         21    1    1    2  503  502  0.10032862459E+01 -0.30835610617E+02 -0.91649008033E+02  0.96702544635E+02  0.00000000000E+00 0.  1.
         21    1    1    2  504  503 -0.18874866207E+02  0.59413215962E+02  0.21681460254E+02  0.66002094846E+02  0.00000000000E+00 0. -1.
         21    1    1    2  505  501  0.10838963960E+03  0.58494403601E+02 -0.11828806188E+04  0.11892756062E+04  0.00000000000E+00 0. -1.
          2    1    1    2  501    0 -0.90518059635E+02 -0.87072008946E+02  0.16004860140E+04  0.16054066572E+04  0.00000000000E+00 0.  1.
<scales pt_clust_3="30.85193" pt_clust_4="61.79604" pt_clust_5="112.95943" pt_clust_6="14000.00000"></scales>
<clustering>
<clus scale="   30.852">  2  3  1 -1</clus>
<clus scale="   61.796">  1  4  2 -1</clus>
<clus scale="  112.959">  2  5  1 -1</clus>
<clus scale="   30.852">  2  3  1 -1</clus>
</clustering>
</event>
<event>
 6    0  0.2117869E+002  0.1420669E+03  0.7546771E-02  0.1210575E+00
          3   -1    0    0  504    0 -0.00000000000E+00  0.00000000000E+00  0.69441466811E+03  0.69441466811E+03  0.00000000000E+00 0. -1.
         21   -1    0    0  503  502  0.00000000000E+00 -0.00000000000E+00 -0.34497641445E+03  0.34497641445E+03  0.00000000000E+00 0.  1.
         21    1    1    2  503  505 -0.75650677351E+02 -0.22301036720E+02 -0.38890309974E+02  0.87936439730E+02  0.00000000000E+00 0.  1.
         21    1    1    2  504  502  0.29096972409E+02 -0.33384067531E+02  0.88049045689E+02  0.98558430462E+02  0.00000000000E+00 0. -1.
         21    1    1    2  505  501  0.64446860312E+02 -0.11858116723E+03 -0.24524787722E+03  0.27993108493E+03  0.00000000000E+00 0.  1.
          3    1    1    2  501    0 -0.17893155370E+02  0.17426627148E+03  0.54552739517E+03  0.57296512744E+03  0.00000000000E+00 0. -1.
<scales pt_clust_3="78.13302" pt_clust_4="44.28464" pt_clust_5="142.06686" pt_clust_6="14000.00000"></scales>
<clustering>
<clus scale="   44.285">  1  4  2 -1</clus>
<clus scale="   78.133">  2  3  1 -1</clus>
<clus scale="  142.067">  2  5  1 -1</clus>
<clus scale="   78.133">  2  3  1 -1</clus>
</clustering>
</event>
<event>
 6    0  0.2117869E+002  0.6527179E+02  0.7546771E-02  0.1376952E+00
          2   -1    0    0  505    0 -0.00000000000E+00  0.00000000000E+00  0.13199854828E+04  0.13199854828E+04  0.00000000000E+00 0.  1.
         21   -1    0    0  503  502  0.00000000000E+00 -0.00000000000E+00 -0.24346278154E+03  0.24346278154E+03  0.00000000000E+00 0.  1.
         21    1    1    2  503  501 -0.83143843829E+02 -0.16201746418E+02  0.22175850345E+02  0.87562341747E+02  0.00000000000E+00 0.  1.
         21    1    1    2  504  502  0.36386485507E+02  0.54558928967E+02 -0.20347223053E+03  0.21377932934E+03  0.00000000000E+00 0.  1.
         21    1    1    2  505  504 -0.19236757977E+02 -0.30094594411E+02  0.55476298906E+03  0.55591160403E+03  0.00000000000E+00 0. -1.
          2    1    1    2  501    0  0.65994116299E+02 -0.82625881378E+01  0.70305609241E+03  0.70619498924E+03  0.00000000000E+00 0.  1.
<scales pt_clust_3="14000.00000" pt_clust_4="65.27179" pt_clust_5="35.71747" pt_clust_6="60.21104"></scales>
<clustering>
<clus scale="   35.717">  1  5  2 -1</clus>
<clus scale="   60.211">  1  6  2 -1</clus>
<clus scale="   65.272">  2  4  1 -1</clus>
<clus scale="   65.272">  2  3  1 -1</clus>
</clustering>
</event>
<event>
 6    0  0.2117869E+002  0.7924454E+02  0.7546771E-02  0.1331209E+00
          2   -1    0    0  503    0 -0.00000000000E+00  0.00000000000E+00  0.37765627446E+04  0.37765627446E+04  0.00000000000E+00 0. -1.
         21   -1    0    0  505  502  0.00000000000E+00 -0.00000000000E+00 -0.31654975054E+02  0.31654975054E+02  0.00000000000E+00 0. -1.
         21    1    1    2  503  502 -0.41544966351E+02 -0.65929006203E+02  0.33468645801E+04  0.33477716671E+04  0.00000000000E+00 0. -1.
         21    1    1    2  504  501 -0.32397982641E+02 -0.50044137618E+02  0.13501058949E+03  0.14758693798E+03  0.00000000000E+00 0. -1.
         21    1    1    2  505  504  0.30112364208E+02  0.26957568938E+01  0.94284416756E+01  0.31668866349E+02  0.00000000000E+00 0. -1.
          2    1    1    2  501    0  0.43830584785E+02  0.11327738693E+03  0.25360415833E+03  0.28119024818E+03  0.00000000000E+00 0. -1.
<scales pt_clust_3="14000.00000" pt_clust_4="54.40262" pt_clust_5="30.23279" pt_clust_6="79.24454"></scales>
<clustering>
<clus scale="   30.233">  2  5  1 -1</clus>
<clus scale="   54.403">  2  4  1 -1</clus>
<clus scale="   79.245">  2  6  1 -1</clus>
<clus scale="   30.233">  2  3  1 -1</clus>
</clustering>
</event>
<event>
 6    0  0.2117869E+002  0.6235278E+02  0.7546771E-02  0.1388215E+00
         21   -1    0    0  501  502  0.00000000000E+00  0.00000000000E+00  0.15481924337E+03  0.15481924337E+03  0.00000000000E+00 0. -1.
          1   -1    0    0  505    0 -0.00000000000E+00 -0.00000000000E+00 -0.48731713375E+03  0.48731713375E+03  0.00000000000E+00 0. -1.
         21    1    1    2  503  504 -0.46868910919E+02 -0.42242309827E+02 -0.42581649935E+02  0.76120328831E+02  0.00000000000E+00 0. -1.
         21    1    1    2  504  502 -0.60926493254E+02 -0.55366930596E+01  0.11827721041E+03  0.13316227339E+03  0.00000000000E+00 0. -1.
         21    1    1    2  505  503 -0.34889616301E-01  0.33856442826E+02 -0.12507314040E+03  0.12957449744E+03  0.00000000000E+00 0. -1.
          1    1    1    2  501    0  0.10783029379E+03  0.13922560060E+02 -0.28312031047E+03  0.30327927746E+03  0.00000000000E+00 0. -1.
<scales pt_clust_3="59.50821" pt_clust_4="62.35278" pt_clust_5="33.85646" pt_clust_6="14000.00000"></scales>
<clustering>
<clus scale="   33.856">  2  5  1 -1</clus>
<clus scale="   59.508">  2  3  1 -1</clus>
<clus scale="   62.353">  1  4  2 -1</clus>
<clus scale="   62.353">  1  3  2 -1</clus>
</clustering>
</event>
<event>
 6    0  0.2117869E+002  0.2531481E+03  0.7546771E-02  0.1111331E+00
         21   -1    0    0  503  502  0.00000000000E+00  0.00000000000E+00  0.10393984680E+03  0.10393984680E+03  0.00000000000E+00 0. -1.
          1   -1    0    0  504    0 -0.00000000000E+00 -0.00000000000E+00 -0.31373181923E+04  0.31373181923E+04  0.00000000000E+00 0.  1.
         21    1    1    2  503  501  0.18897297402E+03  0.15573882080E+03 -0.10336624629E+03  0.26580057578E+03  0.00000000000E+00 0. -1.
         21    1    1    2  504  505 -0.40325417077E+02  0.15884761654E+01 -0.83628859441E+03  0.83726177248E+03  0.00000000000E+00 0.  1.
         21    1    1    2  505  502 -0.11329666479E+02  0.29622234209E+02 -0.53380641115E-01  0.31714995689E+02  0.00000000000E+00 0.  1.
          1    1    1    2  501    0 -0.13731789047E+03 -0.18694953117E+03 -0.20936701242E+04  0.21064806952E+04  0.00000000000E+00 0.  1.
<scales pt_clust_3="253.14811" pt_clust_4="40.42597" pt_clust_5="31.71495" pt_clust_6="14000.00000"></scales>
<clustering>
<clus scale="   31.715">  1  5  2 -1</clus>
<clus scale="   40.426">  2  4  1 -1</clus>
<clus scale="  253.148">  1  3  2 -1</clus>
<clus scale="   31.715">  1  3  2 -1</clus>
</clustering>
</event>
<event>
 6    0  0.2117869E+002  0.7287353E+02  0.7546771E-02  0.1350585E+00
         21   -1    0    0  501  502  0.00000000000E+00  0.00000000000E+00  0.44974834493E+03  0.44974834493E+03  0.00000000000E+00 0. -1.
          2   -1    0    0  505    0 -0.00000000000E+00 -0.00000000000E+00 -0.18801262537E+04  0.18801262537E+04  0.00000000000E+00 0. -1.
         21    1    1    2  503  504  0.78567450572E+02 -0.30369232251E+02 -0.56776580454E+02  0.10158107425E+03  0.00000000000E+00 0. -1.
         21    1    1    2  504  502 -0.10761583623E+02  0.61212099817E+02  0.42296658984E+03  0.42750844315E+03  0.00000000000E+00 0. -1.
         21    1    1    2  505  503 -0.20843861608E+02  0.32694217582E+02 -0.36875802550E+03  0.37079085722E+03  0.00000000000E+00 0. -1.
          2    1    1    2  501    0 -0.46962005341E+02 -0.63537085148E+02 -0.14278098927E+04  0.14299942240E+04  0.00000000000E+00 0. -1.
<scales pt_clust_3="14000.00000" pt_clust_4="62.20473" pt_clust_5="38.77342" pt_clust_6="72.87353"></scales>
<clustering>
<clus scale="   38.773">  2  5  1 -1</clus>
<clus scale="   62.205">  1  4  2 -1</clus>
<clus scale="   72.874">  2  6  1 -1</clus>
<clus scale="   62.205">  1  3  2 -1</clus>
</clustering>
</event>
<event>
 6    0  0.2117869E+002  0.1301494E+03  0.7546771E-02  0.1227234E+00
          2   -1    0    0  503    0 -0.00000000000E+00  0.00000000000E+00  0.43307704308E+03  0.43307704308E+03  0.00000000000E+00 0.  1.
         21   -1    0    0  501  502  0.00000000000E+00 -0.00000000000E+00 -0.68180708797E+02  0.68180708797E+02  0.00000000000E+00 0.  1.
         21    1    1    2  503  505 -0.85826244704E+02  0.39934942746E+02  0.12184857679E+03  0.15429847569E+03  0.00000000000E+00 0.  1.
         21    1    1    2  504  502  0.38264406329E+02  0.27779236926E+01  0.41459070512E+02  0.56486601769E+02  0.00000000000E+00 0.  1.
         21    1    1    2  505  504  0.97671978058E+02 -0.37919668329E+02  0.26196873041E+02  0.10799996621E+03  0.00000000000E+00 0.  1.
          2    1    1    2  501    0 -0.50110139682E+02 -0.47931981096E+01  0.17539181394E+03  0.18247270822E+03  0.00000000000E+00 0.  1.
<scales pt_clust_3="119.05458" pt_clust_4="31.81830" pt_clust_5="31.81830" pt_clust_6="50.33886"></scales>
<clustering>
<clus scale="   31.818">  4  5 -1 -1</clus>
<clus scale="   50.339">  1  6  2 -1</clus>
<clus scale="  119.055">  1  3  2 -1</clus>
<clus scale="  130.149">  2  3  1 -1</clus>
</clustering>
</event>
<event>
 6    0  0.2117869E+002  0.7595325E+02  0.7546771E-02  0.1340944E+00
         21   -1    0    0  503  502  0.00000000000E+00  0.00000000000E+00  0.10186401880E+04  0.10186401880E+04  0.00000000000E+00 0.  1.
          2   -1    0    0  505    0 -0.00000000000E+00 -0.00000000000E+00 -0.68321714844E+03  0.68321714844E+03  0.00000000000E+00 0. -1.
         21    1    1    2  503  501 -0.79845022910E+02  0.58267643692E+02  0.96714819407E+03  0.97218618345E+03  0.00000000000E+00 0.  1.
         21    1    1    2  504  502  0.35171744348E+02  0.30441179862E+01  0.31973437318E+02  0.47630021507E+02  0.00000000000E+00 0.  1.
         21    1    1    2  505  504 -0.47728458088E+02 -0.39885606925E+02 -0.27202682061E+03  0.27904741261E+03  0.00000000000E+00 0. -1.
          2    1    1    2  501    0  0.92401736650E+02 -0.21426154753E+02 -0.39167177125E+03  0.40299371885E+03  0.00000000000E+00 0. -1.
<scales pt_clust_3="14000.00000" pt_clust_4="35.30323" pt_clust_5="62.09648" pt_clust_6="75.95325"></scales>
<clustering>
<clus scale="   35.303">  1  4  2 -1</clus>
<clus scale="   62.096">  2  5  1 -1</clus>
<clus scale="   75.953">  2  6  1 -1</clus>
<clus scale="   35.303">  1  3  2 -1</clus>
</clustering>
</event>
<event>
 6    0  0.2117869E+002  0.2215496E+03  0.7546771E-02  0.1132733E+00
          2   -1    0    0  505    0 -0.00000000000E+00  0.00000000000E+00  0.23144256305E+04  0.23144256305E+04  0.00000000000E+00 0. -1.
         21   -1    0    0  501  502  0.00000000000E+00 -0.00000000000E+00 -0.99418893020E+03  0.99418893020E+03  0.00000000000E+00 0. -1.
         21    1    1    2  503  504 -0.22867314792E+03 -0.12053863609E+03 -0.13817022040E+03  0.29310745671E+03  0.00000000000E+00 0. -1.
         21    1    1    2  504  502  0.23369580553E+02  0.44971668621E+02 -0.76646142074E+03  0.76813520799E+03  0.00000000000E+00 0. -1.
         21    1    1    2  505  503 -0.44081560974E+02  0.23500485224E+02  0.18387522707E+03  0.19054016887E+03  0.00000000000E+00 0.  1.
          2    1    1    2  501    0  0.24938512834E+03  0.52066482247E+02  0.20409931144E+04  0.20568317271E+04  0.00000000000E+00 0. -1.
<scales pt_clust_3="221.54956" pt_clust_4="50.68145" pt_clust_5="49.95455" pt_clust_6="14000.00000"></scales>
<clustering>
<clus scale="   49.955">  1  5  2 -1</clus>
<clus scale="   50.681">  2  4  1 -1</clus>
<clus scale="  221.550">  2  3  1 -1</clus>
<clus scale="   50.681">  2  3  1 -1</clus>
</clustering>
</event>
<event>
 6    0  0.2117869E+002  0.9308243E+02  0.7546771E-02  0.1295554E+00
         21   -1    0    0  501  502  0.00000000000E+00  0.00000000000E+00  0.69066600984E+03  0.69066600984E+03  0.00000000000E+00 0. -1.
          2   -1    0    0  504    0 -0.00000000000E+00 -0.00000000000E+00 -0.19484579386E+04  0.19484579386E+04  0.00000000000E+00 0.  1.
         21    1    1    2  503  505  0.12639820188E+03 -0.44746566727E+02 -0.68178228378E+02  0.15042284234E+03  0.00000000000E+00 0.  1.
         21    1    1    2  504  503  0.59752344023E+02  0.17748983930E+02 -0.56902836011E+03  0.57243221753E+03  0.00000000000E+00 0.  1.
         21    1    1    2  505  502 -0.88928937222E+02  0.23065024020E+02  0.64270442636E+03  0.64923749958E+03  0.00000000000E+00 0. -1.
          2    1    1    2  501    0 -0.97221608681E+02  0.39325587766E+01 -0.12632897667E+04  0.12670313890E+04  0.00000000000E+00 0.  1.
<scales pt_clust_3="14000.00000" pt_clust_4="62.33273" pt_clust_5="93.08243" pt_clust_6="46.93552"></scales>
<clustering>
<clus scale="   62.333">  2  4  1 -1</clus>
<clus scale="   46.936">  2  6  1 -1</clus>
<clus scale="   93.082">  1  5  2 -1</clus>
<clus scale="   93.082">  1  3  2 -1</clus>
</clustering>
</event>
<event>
 6    0  0.2117869E+002  0.9605072E+02  0.7546771E-02  0.1288827E+00
         21   -1    0    0  503  502  0.00000000000E+00  0.00000000000E+00  0.82234659559E+03  0.82234659559E+03  0.00000000000E+00 0. -1.
          1   -1    0    0  504    0 -0.00000000000E+00 -0.00000000000E+00 -0.10742989181E+04  0.10742989181E+04  0.00000000000E+00 0.  1.
         21    1    1    2  503  501  0.12726928612E+03 -0.94349387599E+02  0.58737378772E+03  0.60836440119E+03  0.00000000000E+00 0. -1.
         21    1    1    2  504  505 -0.39871042056E+02  0.12902404120E+02 -0.13938707700E+03  0.14555043545E+03  0.00000000000E+00 0. -1.
         21    1    1    2  505  502 -0.41677991124E+02  0.50588753966E+02  0.21569623908E+03  0.22543545534E+03  0.00000000000E+00 0. -1.
          1    1    1    2  501    0 -0.45720252944E+02  0.30858229513E+02 -0.91563527232E+03  0.91729522171E+03  0.00000000000E+00 0.  1.
<scales pt_clust_3="14000.00000" pt_clust_4="41.90671" pt_clust_5="65.73062" pt_clust_6="96.05072"></scales>
<clustering>
<clus scale="   41.907">  2  4  1 -1</clus>
<clus scale="   65.731">  1  5  2 -1</clus>
<clus scale="   96.051">  2  6  1 -1</clus>
<clus scale="   65.731">  1  3  2 -1</clus>
</clustering>
</event>
<event>
 6    0  0.2117869E+002  0.8766296E+02  0.7546771E-02  0.1308612E+00
          2   -1    0    0  504    0 -0.00000000000E+00  0.00000000000E+00  0.69106191239E+02  0.69106191239E+02  0.00000000000E+00 0.  1.
         21   -1    0    0  505  502  0.00000000000E+00 -0.00000000000E+00 -0.43444379370E+03  0.43444379370E+03  0.00000000000E+00 0.  1.
         21    1    1    2  503  502 -0.83485608468E+02 -0.95862800366E+02 -0.25751411181E+03  0.28718119906E+03  0.00000000000E+00 0.  1.
         21    1    1    2  504  503  0.55743609464E+02  0.96211468306E+01 -0.45720833104E+01  0.56752272274E+02  0.00000000000E+00 0. -1.
         21    1    1    2  505  501  0.33253480972E+02  0.55565566006E+02 -0.11007599783E+03  0.12771081169E+03  0.00000000000E+00 0.  1.
          2    1    1    2  501    0 -0.55114819681E+01  0.30676087530E+02  0.68245904882E+01  0.31905701919E+02  0.00000000000E+00 0.  1.
<scales pt_clust_3="14000.00000" pt_clust_4="58.77486" pt_clust_5="87.66296" pt_clust_6="31.16727"></scales>
<clustering>
<clus scale="   31.167">  1  6  2 -1</clus>
<clus scale="   58.775">  1  4  2 -1</clus>
<clus scale="   87.663">  2  5  1 -1</clus>
<clus scale="   87.663">  2  3  1 -1</clus>
</clustering>
</event>
<event>
 6    0  0.2117869E+002  0.8683750E+02  0.7546771E-02  0.1310696E+00
         21   -1    0    0  501  502  0.00000000000E+00  0.00000000000E+00  0.20463868827E+02  0.20463868827E+02  0.00000000000E+00 0. -1.
          2   -1    0    0  503    0 -0.00000000000E+00 -0.00000000000E+00 -0.32054989677E+04  0.32054989677E+04  0.00000000000E+00 0. -1.
         21    1    1    2  503  505  0.13764492991E+01 -0.59015737637E+02 -0.49435587409E+03  0.49786793645E+03  0.00000000000E+00 0.  1.
         21    1    1    2  504  502  0.32318066366E+02 -0.21661795474E+02 -0.24469760157E+02  0.45961505186E+02  0.00000000000E+00 0. -1.
         21    1    1    2  505  504  0.17171349266E+02 -0.38769092822E+02 -0.64513973895E+02  0.77200716457E+02  0.00000000000E+00 0. -1.
          2    1    1    2  501    0 -0.50865864932E+02  0.11944662593E+03 -0.26016954907E+04  0.26049326784E+04  0.00000000000E+00 0. -1.
<scales pt_clust_3="59.03179" pt_clust_4="32.48004" pt_clust_5="32.48004" pt_clust_6="79.94384"></scales>
<clustering>
<clus scale="   32.480">  4  5 -1 -1</clus>
<clus scale="   59.032">  2  3  1 -1</clus>
<clus scale="   79.944">  2  6  1 -1</clus>
<clus scale="   86.837">  1  3  2 -1</clus>
</clustering>
</event>
<event>
 6    0  0.2117869E+002  0.1400944E+03  0.7546771E-02  0.1213202E+00
         21   -1    0    0  505  502  0.00000000000E+00  0.00000000000E+00  0.11685230686E+03  0.11685230686E+03  0.00000000000E+00 0. -1.
          2   -1    0    0  504    0 -0.00000000000E+00 -0.00000000000E+00 -0.33660685186E+04  0.33660685186E+04  0.00000000000E+00 0. -1.
         21    1    1    2  503  502  0.42587171646E+02  0.29631769883E+02 -0.18891096460E+02  0.55213970159E+02  0.00000000000E+00 0. -1.
         21    1    1    2  504  503  0.66455666916E+02  0.83734712104E+02  0.61750641533E+02  0.12345444263E+03  0.00000000000E+00 0. -1.
         21    1    1    2  505  501  0.89818170409E+01 -0.36704671834E+02 -0.73899213066E+02  0.82999997973E+02  0.00000000000E+00 0.  1.
          2    1    1    2  501    0 -0.11802465560E+03 -0.76661810154E+02 -0.32181765438E+04  0.32212524147E+04  0.00000000000E+00 0. -1.
<scales pt_clust_3="50.00992" pt_clust_4="14000.00000" pt_clust_5="37.78764" pt_clust_6="140.09436"></scales>
<clustering>
<clus scale="   37.788">  1  5  2 -1</clus>
<clus scale="   50.010">  1  3  2 -1</clus>
<clus scale="  140.094">  2  6  1 -1</clus>
<clus scale="   37.788">  1  3  2 -1</clus>
</clustering>
</event>
<event>
 6    0  0.2117869E+002  0.1304725E+03  0.7546771E-02  0.1226756E+00
         21   -1    0    0  505  502  0.00000000000E+00  0.00000000000E+00  0.68639261096E+02  0.68639261096E+02  0.00000000000E+00 0.  1.
          2   -1    0    0  503    0 -0.00000000000E+00 -0.00000000000E+00 -0.25405724114E+04  0.25405724114E+04  0.00000000000E+00 0. -1.
         21    1    1    2  503  502  0.40872690525E+02 -0.23271445245E+02 -0.10697179794E+03  0.11685504931E+03  0.00000000000E+00 0. -1.
         21    1    1    2  504  501  0.62766098301E+02  0.75343938984E+00  0.44489409657E+01  0.62928084689E+02  0.00000000000E+00 0.  1.
         21    1    1    2  505  504  0.25183101820E+01 -0.61090990355E+02 -0.52042838888E+01  0.61363959777E+02  0.00000000000E+00 0.  1.
          2    1    1    2  501    0 -0.10615709901E+03  0.83608996210E+02 -0.23642060094E+04  0.23680645787E+04  0.00000000000E+00 0. -1.
<scales pt_clust_3="47.03336" pt_clust_4="14000.00000" pt_clust_5="74.24636" pt_clust_6="130.47249"></scales>
<clustering>
<clus scale="   47.033">  1  3  2 -1</clus>
<clus scale="   74.246">  1  5  2 -1</clus>
<clus scale="  130.472">  2  6  1 -1</clus>
<clus scale="   47.033">  1  3  2 -1</clus>
</clustering>
</event>
<event>
 6    0  0.2117869E+002  0.5750171E+03  0.7546771E-02  0.9958638E-01
          2   -1    0    0  503    0 -0.00000000000E+00  0.00000000000E+00  0.25725475305E+04  0.25725475305E+04  0.00000000000E+00 0. -1.
         21   -1    0    0  504  502  0.00000000000E+00 -0.00000000000E+00 -0.26111254407E+03  0.26111254407E+03  0.00000000000E+00 0. -1.
         21    1    1    2  503  505 -0.51687214618E+02 -0.64048878160E+03  0.12357392615E+04  0.13928205089E+04  0.00000000000E+00 0. -1.
         21    1    1    2  504  501  0.49267316895E+02  0.85085548098E+02 -0.93373618444E+02  0.13559296306E+03  0.00000000000E+00 0. -1.
         21    1    1    2  505  502 -0.78254322377E+01  0.29006373493E+02  0.91128430787E+01  0.31395079262E+02  0.00000000000E+00 0.  1.
          2    1    1    2  501    0  0.10245329960E+02  0.52639686001E+03  0.11599565003E+04  0.12738515234E+04  0.00000000000E+00 0. -1.
<scales pt_clust_3="14000.00000" pt_clust_4="108.46030" pt_clust_5="30.04342" pt_clust_6="575.01709"></scales>
<clustering>
<clus scale="   30.043">  2  5  1 -1</clus>
<clus scale="  108.460">  2  4  1 -1</clus>
<clus scale="  575.017">  1  6  2 -1</clus>
<clus scale="   30.043">  2  3  1 -1</clus>
</clustering>
</event>
<event>
 6    0  0.2117869E+002  0.1198096E+03  0.7546771E-02  0.1243412E+00
         21   -1    0    0  501  502  0.00000000000E+00  0.00000000000E+00  0.46370457969E+03  0.46370457969E+03  0.00000000000E+00 0.  1.
          2   -1    0    0  504    0 -0.00000000000E+00 -0.00000000000E+00 -0.25811584449E+04  0.25811584449E+04  0.00000000000E+00 0. -1.
         21    1    1    2  503  502 -0.64650916963E+02 -0.99619641924E+02  0.43729757061E+03  0.45313682192E+03  0.00000000000E+00 0.  1.
         21    1    1    2  504  505 -0.35410223209E+02 -0.45484806452E+01 -0.68920398855E+03  0.69012803914E+03  0.00000000000E+00 0. -1.
         21    1    1    2  505  503  0.87313747057E+02  0.17098647798E+03 -0.51963853772E+03  0.55397136745E+03  0.00000000000E+00 0. -1.
          2    1    1    2  501    0  0.12747393115E+02 -0.66818355413E+02 -0.13459089096E+04  0.13476267961E+04  0.00000000000E+00 0. -1.
<scales pt_clust_3="119.80956" pt_clust_4="35.70116" pt_clust_5="14000.00000" pt_clust_6="71.15725"></scales>
<clustering>
<clus scale="   35.701">  2  4  1 -1</clus>
<clus scale="   71.157">  2  6  1 -1</clus>
<clus scale="  119.810">  1  3  2 -1</clus>
<clus scale="  119.810">  1  3  2 -1</clus>
</clustering>
</event>
<event>
 6    0  0.2117869E+002  0.8463189E+02  0.7546771E-02  0.1316398E+00
          1   -1    0    0  503    0 -0.00000000000E+00  0.00000000000E+00  0.11339560415E+04  0.11339560415E+04  0.00000000000E+00 0.  1.
         21   -1    0    0  505  502  0.00000000000E+00 -0.00000000000E+00 -0.87349072484E+02  0.87349072484E+02  0.00000000000E+00 0.  1.
         21    1    1    2  503  502  0.79538300988E+01 -0.43616230475E+02  0.74466199109E+03  0.74598064314E+03  0.00000000000E+00 0.  1.
         21    1    1    2  504  501  0.44462982903E+02  0.12692779257E+03 -0.90947130902E+01  0.13479738566E+03  0.00000000000E+00 0.  1.
         21    1    1    2  505  504 -0.38232568470E+01 -0.46883649501E+02  0.37024442723E+02  0.59862369168E+02  0.00000000000E+00 0. -1.
          1    1    1    2  501    0 -0.48593556155E+02 -0.36427912593E+02  0.27401524827E+03  0.28066471599E+03  0.00000000000E+00 0.  1.
<scales pt_clust_3="44.33553" pt_clust_4="14000.00000" pt_clust_5="52.39700" pt_clust_6="84.63189"></scales>
<clustering>
<clus scale="   44.336">  1  3  2 -1</clus>
<clus scale="   52.397">  2  5  1 -1</clus>
<clus scale="   84.632">  1  6  2 -1</clus>
<clus scale="   52.397">  2  3  1 -1</clus>
</clustering>
</event>
<event>
 6    0  0.2117869E+002  0.2593982E+03  0.7546771E-02  0.1107505E+00
          2   -1    0    0  503    0 -0.00000000000E+00  0.00000000000E+00  0.15914892285E+04  0.15914892285E+04  0.00000000000E+00 0. -1.
         21   -1    0    0  505  502  0.00000000000E+00 -0.00000000000E+00 -0.15097838969E+03  0.15097838969E+03  0.00000000000E+00 0.  1.
         21    1    1    2  503  504  0.18710425265E+02  0.25295229420E+02  0.27335880256E+03  0.27516352153E+03  0.00000000000E+00 0.  1.
         21    1    1    2  504  502  0.26621592013E+03 -0.39405086313E+02  0.84572546771E+03  0.88751070061E+03  0.00000000000E+00 0. -1.
         21    1    1    2  505  501 -0.25740099012E+03 -0.29918249002E+02  0.50488451534E+01  0.25918306692E+03  0.00000000000E+00 0.  1.
          2    1    1    2  501    0 -0.27525355267E+02  0.44028105895E+02  0.31637772338E+03  0.32061032913E+03  0.00000000000E+00 0. -1.
<scales pt_clust_3="31.46313" pt_clust_4="259.39815" pt_clust_5="14000.00000" pt_clust_6="55.16801"></scales>
<clustering>
<clus scale="   31.463">  1  3  2 -1</clus>
<clus scale="   55.168">  1  6  2 -1</clus>
<clus scale="  259.398">  1  4  2 -1</clus>
<clus scale="  259.398">  2  3  1 -1</clus>
</clustering>
</event>
<event>
 6    0  0.2117869E+002  0.1448943E+03  0.7546771E-02  0.1206891E+00
          2   -1    0    0  505    0 -0.00000000000E+00  0.00000000000E+00  0.29283606477E+04  0.29283606477E+04  0.00000000000E+00 0.  1.
         21   -1    0    0  504  502  0.00000000000E+00 -0.00000000000E+00 -0.13152961832E+03  0.13152961832E+03  0.00000000000E+00 0.  1.
         21    1    1    2  503  501  0.95159502279E+02 -0.12027017507E+02  0.18800682126E+02  0.97741729433E+02  0.00000000000E+00 0.  1.
         21    1    1    2  504  503  0.56412989957E+02 -0.71992226575E+01 -0.76199873178E+02  0.95082463763E+02  0.00000000000E+00 0.  1.
         21    1    1    2  505  502  0.22510239425E+01  0.54113933170E+02  0.17482600795E+03  0.18302327155E+03  0.00000000000E+00 0. -1.
          2    1    1    2  501    0 -0.15382351618E+03 -0.34887693005E+02  0.26794042125E+04  0.26840428013E+04  0.00000000000E+00 0.  1.
<scales pt_clust_3="144.89430" pt_clust_4="56.85495" pt_clust_5="54.16073" pt_clust_6="14000.00000"></scales>
<clustering>
<clus scale="   54.161">  1  5  2 -1</clus>
<clus scale="   56.855">  2  4  1 -1</clus>
<clus scale="  144.894">  2  3  1 -1</clus>
<clus scale="   56.855">  2  3  1 -1</clus>
</clustering>
</event>
<event>
 6    0  0.2117869E+002  0.7241751E+02  0.7546771E-02  0.1352060E+00
         21   -1    0    0  503  502  0.00000000000E+00  0.00000000000E+00  0.25258597639E+03  0.25258597639E+03  0.00000000000E+00 0. -1.
          2   -1    0    0  505    0 -0.00000000000E+00 -0.00000000000E+00 -0.23468487025E+04  0.23468487025E+04  0.00000000000E+00 0. -1.
         21    1    1    2  503  501  0.63378700595E+02 -0.31646907693E+02  0.22121487973E+03  0.23228088486E+03  0.00000000000E+00 0. -1.
         21    1    1    2  504  502 -0.12047837380E+03  0.15082632215E+02 -0.12444499038E+03  0.17386512007E+03  0.00000000000E+00 0.  1.
         21    1    1    2  505  504  0.25120759895E+02 -0.21719181526E+02 -0.15361953811E+04  0.15365542699E+04  0.00000000000E+00 0. -1.
          2    1    1    2  501    0  0.31978913305E+02  0.38283457004E+02 -0.65483723444E+03  0.65673440414E+03  0.00000000000E+00 0. -1.
<scales pt_clust_3="14000.00000" pt_clust_4="72.41751" pt_clust_5="33.20806" pt_clust_6="56.25577"></scales>
<clustering>
<clus scale="   33.208">  2  5  1 -1</clus>
<clus scale="   56.256">  2  6  1 -1</clus>
<clus scale="   72.418">  2  4  1 -1</clus>
<clus scale="   72.418">  1  3  2 -1</clus>
</clustering>
</event>
<event>
 6    0  0.2117869E+002  0.1497035E+03  0.7546771E-02  0.1200838E+00
         21   -1    0    0  504  502  0.00000000000E+00  0.00000000000E+00  0.59003023697E+03  0.59003023697E+03  0.00000000000E+00 0.  1.
          1   -1    0    0  503    0 -0.00000000000E+00 -0.00000000000E+00 -0.19127587211E+04  0.19127587211E+04  0.00000000000E+00 0. -1.
         21    1    1    2  503  502  0.83016492884E+02  0.72484064238E+02 -0.18685534807E+03  0.21693454948E+03  0.00000000000E+00 0. -1.
         21    1    1    2  504  505  0.30276309223E+01  0.39698118971E+02  0.57076743076E+03  0.57215432115E+03  0.00000000000E+00 0.  1.
         21    1    1    2  505  501 -0.54042544162E+02 -0.68141224180E+02 -0.66856913351E+03  0.67420212793E+03  0.00000000000E+00 0. -1.
          1    1    1    2  501    0 -0.32001579644E+02 -0.44040959028E+02 -0.10380714333E+04  0.10394979595E+04  0.00000000000E+00 0. -1.
<scales pt_clust_3="135.10592" pt_clust_4="39.81340" pt_clust_5="51.89676" pt_clust_6="51.89676"></scales>
<clustering>
<clus scale="   39.813">  1  4  2 -1</clus>
<clus scale="   51.897">  5  6 -1 -1</clus>
<clus scale="  135.106">  1  3  2 -1</clus>
<clus scale="   39.813">  1  3  2 -1</clus>
</clustering>
</event>
<event>
 6    0  0.2117869E+002  0.1675096E+03  0.7546771E-02  0.1180470E+00
         21   -1    0    0  505  502  0.00000000000E+00  0.00000000000E+00  0.24713178936E+03  0.24713178936E+03  0.00000000000E+00 0.  1.
          2   -1    0    0  503    0 -0.00000000000E+00 -0.00000000000E+00 -0.79427962741E+03  0.79427962741E+03  0.00000000000E+00 0.  1.
         21    1    1    2  503  504 -0.12545287024E+02 -0.29713756146E+02 -0.47258317291E+03  0.47368253804E+03  0.00000000000E+00 0.  1.
         21    1    1    2  504  502  0.43834346022E+02 -0.46724789849E+01 -0.53749778699E+02  0.69514895247E+02  0.00000000000E+00 0. -1.
         21    1    1    2  505  501  0.25047924752E+02  0.16947455206E+03  0.18079954901E+03  0.24907328089E+03  0.00000000000E+00 0.  1.
          2    1    1    2  501    0 -0.56336983749E+02 -0.13508831693E+03 -0.20161443546E+03  0.24914070260E+03  0.00000000000E+00 0.  1.
<scales pt_clust_3="32.25355" pt_clust_4="42.70614" pt_clust_5="167.50961" pt_clust_6="14000.00000"></scales>
<clustering>
<clus scale="   32.254">  2  3  1 -1</clus>
<clus scale="   42.706">  2  4  1 -1</clus>
<clus scale="  167.510">  1  5  2 -1</clus>
<clus scale="  167.510">  1  3  2 -1</clus>
</clustering>
</event>
<event>
 6    0  0.2117869E+002  0.1004011E+03  0.7546771E-02  0.1279455E+00
          2   -1    0    0  504    0 -0.00000000000E+00  0.00000000000E+00  0.15746644044E+04  0.15746644044E+04  0.00000000000E+00 0. -1.
         21   -1    0    0  503  502  0.00000000000E+00 -0.00000000000E+00 -0.17757539333E+03  0.17757539333E+03  0.00000000000E+00 0. -1.
         21    1    1    2  503  501 -0.24480977810E+02  0.92100262736E+02  0.22060174831E+03  0.24030586349E+03  0.00000000000E+00 0.  1.
         21    1    1    2  504  505 -0.13664719498E+02 -0.31172209349E+02  0.63273649687E+02  0.71846961935E+02  0.00000000000E+00 0. -1.
         21    1    1    2  505  502  0.66869197661E+02  0.19312118800E+02 -0.15453019600E+03  0.16948164799E+03  0.00000000000E+00 0. -1.
          2    1    1    2  501    0 -0.28723500354E+02 -0.80240172187E+02  0.12677438090E+04  0.12706053243E+04  0.00000000000E+00 0. -1.
<scales pt_clust_3="100.40113" pt_clust_4="34.03573" pt_clust_5="69.49416" pt_clust_6="14000.00000"></scales>
<clustering>
<clus scale="   34.036">  1  4  2 -1</clus>
<clus scale="   69.494">  2  5  1 -1</clus>
<clus scale="  100.401">  2  3  1 -1</clus>
<clus scale="   69.494">  2  3  1 -1</clus>
</clustering>
</event>
<event>
 6    0  0.2117869E+002  0.1429527E+03  0.7546771E-02  0.1209410E+00
          2   -1    0    0  505    0 -0.00000000000E+00  0.00000000000E+00  0.19737060619E+03  0.19737060619E+03  0.00000000000E+00 0. -1.
         21   -1    0    0  503  502  0.00000000000E+00 -0.00000000000E+00 -0.14200535226E+04  0.14200535226E+04  0.00000000000E+00 0.  1.
         21    1    1    2  503  501  0.29914203105E+02  0.35987726651E+01 -0.55603574835E+02  0.63242139801E+02  0.00000000000E+00 0.  1.
         21    1    1    2  504  502  0.11506776742E+03  0.29396620969E+02 -0.12756603808E+04  0.12811768650E+04  0.00000000000E+00 0.  1.
         21    1    1    2  505  504 -0.91038872780E+02  0.68807978359E+02 -0.83009933249E+00  0.11411968852E+03  0.00000000000E+00 0. -1.
          2    1    1    2  501    0 -0.53943097748E+02 -0.10180337199E+03  0.10941113856E+03  0.15888543541E+03  0.00000000000E+00 0. -1.
<scales pt_clust_3="30.12990" pt_clust_4="142.95273" pt_clust_5="113.20370" pt_clust_6="14000.00000"></scales>
<clustering>
<clus scale="   30.130">  2  3  1 -1</clus>
<clus scale="  113.204">  1  5  2 -1</clus>
<clus scale="  142.953">  2  4  1 -1</clus>
<clus scale="   30.130">  2  3  1 -1</clus>
</clustering>
</event>
<event>
 6    0  0.2117869E+002  0.7930995E+02  0.7546771E-02  0.1331021E+00
         -4   -1    0    0    0  501 -0.00000000000E+00  0.00000000000E+00  0.55181730130E+03  0.55181730130E+03  0.00000000000E+00 0. -1.
         21   -1    0    0  505  502  0.00000000000E+00 -0.00000000000E+00 -0.53015321138E+02  0.53015321138E+02  0.00000000000E+00 0. -1.
         21    1    1    2  503  501  0.23169630151E+02 -0.25903356117E+02  0.92902398360E+02  0.99190076321E+02  0.00000000000E+00 0. -1.
         21    1    1    2  504  502 -0.85966621124E+02 -0.63794993587E+02  0.20988322955E+03  0.23560779105E+03  0.00000000000E+00 0. -1.
         21    1    1    2  505  503  0.75520410038E+02  0.54098055817E+01  0.26367533280E+02  0.80173843241E+02  0.00000000000E+00 0. -1.
         -4    1    1    2    0  504 -0.12723419066E+02  0.84288544123E+02  0.16964881897E+03  0.18986091183E+03  0.00000000000E+00 0. -1.
<scales pt_clust_3="34.75364" pt_clust_4="14000.00000" pt_clust_5="79.30995" pt_clust_6="74.15905"></scales>
<clustering>
<clus scale="   34.754">  1  3  2 -1</clus>
<clus scale="   74.159">  1  6  2 -1</clus>
<clus scale="   79.310">  2  5  1 -1</clus>
<clus scale="   79.310">  2  3  1 -1</clus>
</clustering>
</event>
<event>
 6    0  0.2117869E+002  0.1032083E+03  0.7546771E-02  0.1273690E+00
         21   -1    0    0  503  502  0.00000000000E+00  0.00000000000E+00  0.17553733919E+02  0.17553733919E+02  0.00000000000E+00 0.  1.
          2   -1    0    0  505    0 -0.00000000000E+00 -0.00000000000E+00 -0.21383133263E+04  0.21383133263E+04  0.00000000000E+00 0.  1.
         21    1    1    2  503  504  0.37650168275E+02 -0.39416710600E+02 -0.14024926841E+03  0.15046949703E+03  0.00000000000E+00 0.  1.
         21    1    1    2  504  501  0.18999365489E+02 -0.59022154877E+02 -0.34536910071E+03  0.35089087531E+03  0.00000000000E+00 0. -1.
         21    1    1    2  505  502  0.15610776069E+02  0.49471085417E+02 -0.71002948666E+02  0.87934653812E+02  0.00000000000E+00 0.  1.
          2    1    1    2  501    0 -0.72260309833E+02  0.48967780059E+02 -0.15641382746E+04  0.15665720341E+04  0.00000000000E+00 0.  1.
<scales pt_clust_3="48.15361" pt_clust_4="48.15361" pt_clust_5="51.87567" pt_clust_6="89.52264"></scales>
<clustering>
<clus scale="   48.154">  3  4 -1 -1</clus>
<clus scale="   51.876">  1  5  2 -1</clus>
<clus scale="   89.523">  2  6  1 -1</clus>
<clus scale="   51.876">  1  3  2 -1</clus>
</clustering>
</event>
<event>
 6    0  0.2117869E+002  0.1446432E+03  0.7546771E-02  0.1207214E+00
         21   -1    0    0  505  502  0.00000000000E+00  0.00000000000E+00  0.10276497660E+03  0.10276497660E+03  0.00000000000E+00 0.  1.
         -4   -1    0    0    0  501 -0.00000000000E+00 -0.00000000000E+00 -0.49892888729E+03  0.49892888729E+03  0.00000000000E+00 0.  1.
         21    1    1    2  503  501 -0.29368914241E+02  0.89032635084E+01 -0.13418233753E+03  0.13764701570E+03  0.00000000000E+00 0.  1.
         21    1    1    2  504  502 -0.64171469143E+02 -0.14105273524E+03 -0.15384548253E+03  0.21836273507E+03  0.00000000000E+00 0.  1.
         21    1    1    2  505  503 -0.19157515605E+02  0.43242999852E+02  0.21786798040E+02  0.52073332995E+02  0.00000000000E+00 0.  1.
         -4    1    1    2    0  504  0.11269789899E+03  0.88906471884E+02 -0.12992288867E+03  0.19361078012E+03  0.00000000000E+00 0.  1.
<scales pt_clust_3="30.68878" pt_clust_4="144.64324" pt_clust_5="48.14217" pt_clust_6="14000.00000"></scales>
<clustering>
<clus scale="   30.689">  2  3  1 -1</clus>
<clus scale="   48.142">  1  5  2 -1</clus>
<clus scale="  144.643">  1  4  2 -1</clus>
<clus scale="   48.142">  1  3  2 -1</clus>
</clustering>
</event>
<event>
 6    0  0.2117869E+002  0.1068464E+03  0.7546771E-02  0.1266524E+00
         21   -1    0    0  504  502  0.00000000000E+00  0.00000000000E+00  0.19233076392E+03  0.19233076392E+03  0.00000000000E+00 0.  1.
         -1   -1    0    0    0  501 -0.00000000000E+00 -0.00000000000E+00 -0.79304827883E+03  0.79304827883E+03  0.00000000000E+00 0. -1.
         21    1    1    2  503  505 -0.60830203694E+02 -0.45502948193E+02 -0.12273775728E+02  0.76951137394E+02  0.00000000000E+00 0.  1.
         21    1    1    2  504  503 -0.28102446960E+02 -0.98514778247E+02  0.10862286816E+03  0.14931120703E+03  0.00000000000E+00 0.  1.
         21    1    1    2  505  501  0.38378165646E+02  0.86974244529E+01 -0.55538658324E+03  0.55677893785E+03  0.00000000000E+00 0. -1.
         -1    1    1    2    0  502  0.50554485008E+02  0.13532030199E+03 -0.14168002410E+03  0.20233776047E+03  0.00000000000E+00 0. -1.
<scales pt_clust_3="69.26522" pt_clust_4="106.84638" pt_clust_5="39.35135" pt_clust_6="14000.00000"></scales>
<clustering>
<clus scale="   39.351">  2  5  1 -1</clus>
<clus scale="   69.265">  2  3  1 -1</clus>
<clus scale="  106.846">  1  4  2 -1</clus>
<clus scale="  106.846">  1  3  2 -1</clus>
</clustering>
</event>
<event>
 6    0  0.2117869E+002  0.8012305E+02  0.7546771E-02  0.1328703E+00
         21   -1    0    0  505  502  0.00000000000E+00  0.00000000000E+00  0.82933674310E+02  0.82933674310E+02  0.00000000000E+00 0. -1.
          2   -1    0    0  503    0 -0.00000000000E+00 -0.00000000000E+00 -0.37517563195E+04  0.37517563195E+04  0.00000000000E+00 0.  1.
         21    1    1    2  503  504  0.42184316629E+02  0.21366563500E+02 -0.38925658331E+03  0.39211826565E+03  0.00000000000E+00 0.  1.
         21    1    1    2  504  502 -0.30896513522E+01 -0.54856407574E+02 -0.48458249383E+02  0.73259629610E+02  0.00000000000E+00 0. -1.
         21    1    1    2  505  501 -0.37161060617E+02  0.88990192707E+02  0.35104216838E+02  0.10262799259E+03  0.00000000000E+00 0. -1.
          2    1    1    2  501    0 -0.19336046597E+01 -0.55500348633E+02 -0.32662120293E+04  0.32666841059E+04  0.00000000000E+00 0.  1.
<scales pt_clust_3="47.28685" pt_clust_4="80.12305" pt_clust_5="14000.00000" pt_clust_6="52.27303"></scales>
<clustering>
<clus scale="   47.287">  2  3  1 -1</clus>
<clus scale="   52.273">  2  6  1 -1</clus>
<clus scale="   80.123">  2  4  1 -1</clus>
<clus scale="   80.123">  1  3  2 -1</clus>
</clustering>
</event>
<event>
 6    0  0.2117869E+002  0.1110444E+03  0.7546771E-02  0.1258648E+00
          2   -1    0    0  504    0 -0.00000000000E+00  0.00000000000E+00  0.52883043580E+03  0.52883043580E+03  0.00000000000E+00 0.  1.
         21   -1    0    0  505  502  0.00000000000E+00 -0.00000000000E+00 -0.70550029420E+03  0.70550029420E+03  0.00000000000E+00 0. -1.
         21    1    1    2  503  501 -0.46809786419E+02 -0.88054250006E+02 -0.66208487929E+02  0.11970075573E+03  0.00000000000E+00 0.  1.
         21    1    1    2  504  502 -0.49591265891E+02  0.35055351913E+02  0.73163936882E+02  0.95084872669E+02  0.00000000000E+00 0.  1.
         21    1    1    2  505  503  0.79000730242E+02  0.82171009697E+02 -0.59548018716E+03  0.60629187980E+03  0.00000000000E+00 0. -1.
          2    1    1    2  501    0  0.17400322067E+02 -0.29172111605E+02  0.41185487981E+03  0.41325322180E+03  0.00000000000E+00 0.  1.
<scales pt_clust_3="111.04440" pt_clust_4="39.54453" pt_clust_5="14000.00000" pt_clust_6="33.96739"></scales>
<clustering>
<clus scale="   33.967">  1  6  2 -1</clus>
<clus scale="   39.545">  1  4  2 -1</clus>
<clus scale="  111.044">  1  3  2 -1</clus>
<clus scale="  111.044">  2  3  1 -1</clus>
</clustering>
</event>
<event>
 6    0  0.2117869E+002  0.1190664E+03  0.7546771E-02  0.1244645E+00
         21   -1    0    0  505  502  0.00000000000E+00  0.00000000000E+00  0.65021465845E+02  0.65021465845E+02  0.00000000000E+00 0.  1.
          1   -1    0    0  503    0 -0.00000000000E+00 -0.00000000000E+00 -0.19117577371E+04  0.19117577371E+04  0.00000000000E+00 0.  1.
         21    1    1    2  503  504 -0.50572135818E+02  0.30787491246E+02 -0.42076603337E+03  0.42491112645E+03  0.00000000000E+00 0.  1.
         21    1    1    2  504  502  0.28648808125E+02  0.29715225024E+02 -0.48354722076E+02  0.63576158678E+02  0.00000000000E+00 0.  1.
         21    1    1    2  505  501 -0.12992137985E+03  0.19192781334E+02 -0.36572310789E+02  0.13632850660E+03  0.00000000000E+00 0.  1.
          1    1    1    2  501    0  0.15184470754E+03 -0.79695497604E+02 -0.13410432051E+04  0.13519634113E+04  0.00000000000E+00 0.  1.
<scales pt_clust_3="58.89888" pt_clust_4="41.27649" pt_clust_5="14000.00000" pt_clust_6="119.06644"></scales>
<clustering>
<clus scale="   41.276">  1  4  2 -1</clus>
<clus scale="   58.899">  2  3  1 -1</clus>
<clus scale="  119.066">  2  6  1 -1</clus>
<clus scale="   41.276">  1  3  2 -1</clus>
</clustering>
</event>
<event>
 6    0  0.2117869E+002  0.1427133E+03  0.7546771E-02  0.1209724E+00
         21   -1    0    0  505  502  0.00000000000E+00  0.00000000000E+00  0.48749093131E+03  0.48749093131E+03  0.00000000000E+00 0. -1.
          2   -1    0    0  503    0 -0.00000000000E+00 -0.00000000000E+00 -0.13016918033E+04  0.13016918033E+04  0.00000000000E+00 0.  1.
         21    1    1    2  503  504  0.25086247398E+02 -0.64962772520E+02 -0.17096392839E+03  0.18460267179E+03  0.00000000000E+00 0. -1.
         21    1    1    2  504  502  0.83162288105E+02 -0.13162363152E+02  0.33472886590E+03  0.34515594683E+03  0.00000000000E+00 0. -1.
         21    1    1    2  505  501 -0.14373027002E+03  0.14330683548E+03  0.65537762193E+02  0.21328487496E+03  0.00000000000E+00 0. -1.
          2    1    1    2  501    0  0.35481734515E+02 -0.65181699804E+02 -0.10435035717E+04  0.10461392411E+04  0.00000000000E+00 0.  1.
<scales pt_clust_3="69.63822" pt_clust_4="84.35998" pt_clust_5="142.71329" pt_clust_6="14000.00000"></scales>
<clustering>
<clus scale="   69.638">  2  3  1 -1</clus>
<clus scale="   84.360">  1  4  2 -1</clus>
<clus scale="  142.713">  1  5  2 -1</clus>
<clus scale="   84.360">  1  3  2 -1</clus>
</clustering>
</event>
<event>
 6    0  0.2117869E+002  0.8438863E+02  0.7546771E-02  0.1317039E+00
          2   -1    0    0  504    0 -0.00000000000E+00  0.00000000000E+00  0.17056547466E+04  0.17056547466E+04  0.00000000000E+00 0. -1.
         21   -1    0    0  501  502  0.00000000000E+00 -0.00000000000E+00 -0.16556458783E+02  0.16556458783E+02  0.00000000000E+00 0.  1.
         21    1    1    2  503  505  0.11016612213E+03  0.25584138591E+02  0.48908167501E+03  0.50198805508E+03  0.00000000000E+00 0.  1.
         21    1    1    2  504  503  0.28253674621E+02 -0.15091937339E+02  0.42402292016E+03  0.42523108250E+03  0.00000000000E+00 0.  1.
         21    1    1    2  505  502 -0.52194223962E+02 -0.60998185630E+01  0.95155688272E+02  0.10870165506E+03  0.00000000000E+00 0.  1.
          2    1    1    2  501    0 -0.86225572787E+02 -0.43923826889E+01  0.68083800442E+03  0.68629041279E+03  0.00000000000E+00 0. -1.
<scales pt_clust_3="84.38863" pt_clust_4="32.03181" pt_clust_5="50.47689" pt_clust_6="14000.00000"></scales>
<clustering>
<clus scale="   32.032">  1  4  2 -1</clus>
<clus scale="   50.477">  2  5  1 -1</clus>
<clus scale="   84.389">  2  3  1 -1</clus>
<clus scale="   50.477">  2  3  1 -1</clus>
</clustering>
</event>
<event>
 6    0  0.2117869E+002  0.6953596E+02  0.7546771E-02  0.1361678E+00
         21   -1    0    0  503  502  0.00000000000E+00  0.00000000000E+00  0.18555792439E+04  0.18555792439E+04  0.00000000000E+00 0. -1.
          1   -1    0    0  504    0 -0.00000000000E+00 -0.00000000000E+00 -0.65087317687E+02  0.65087317687E+02  0.00000000000E+00 0. -1.
         21    1    1    2  503  501 -0.14889214899E+02  0.68093113570E+02  0.12579961973E+04  0.12599257094E+04  0.00000000000E+00 0. -1.
         21    1    1    2  504  505  0.33743913482E+02 -0.25811703476E+02 -0.44184048136E+02  0.61295398221E+02  0.00000000000E+00 0. -1.
         21    1    1    2  505  502  0.65318968967E+02 -0.16550393998E+02  0.34691324995E+03  0.35339678300E+03  0.00000000000E+00 0. -1.
          1    1    1    2  501    0 -0.84173667549E+02 -0.25731016096E+02  0.22976652716E+03  0.24604867100E+03  0.00000000000E+00 0. -1.
<scales pt_clust_3="67.20279" pt_clust_4="42.48406" pt_clust_5="69.53596" pt_clust_6="14000.00000"></scales>
<clustering>
<clus scale="   42.484">  2  4  1 -1</clus>
<clus scale="   67.203">  1  3  2 -1</clus>
<clus scale="   69.536">  1  5  2 -1</clus>
<clus scale="   67.203">  1  3  2 -1</clus>
</clustering>
</event>
<event>
 6    0  0.2117869E+002  0.7901557E+02  0.7546771E-02  0.1331869E+00
         21   -1    0    0  503  502  0.00000000000E+00  0.00000000000E+00  0.15573546646E+03  0.15573546646E+03  0.00000000000E+00 0. -1.
          1   -1    0    0  504    0 -0.00000000000E+00 -0.00000000000E+00 -0.37139329387E+03  0.37139329387E+03  0.00000000000E+00 0. -1.
         21    1    1    2  503  505 -0.51398143393E+02 -0.46405106158E+02  0.59915298173E+02  0.91569896674E+02  0.00000000000E+00 0. -1.
         21    1    1    2  504  502  0.39928265845E+02  0.66290854498E+01 -0.69220382709E+02  0.80185239101E+02  0.00000000000E+00 0. -1.
         21    1    1    2  505  501  0.64744185736E+02  0.80753095585E+02  0.31513618947E+02  0.10819417827E+03  0.00000000000E+00 0. -1.
          1    1    1    2  501    0 -0.53274308188E+02 -0.40977074877E+02 -0.23786636182E+03  0.24717944628E+03  0.00000000000E+00 0. -1.
<scales pt_clust_3="14000.00000" pt_clust_4="40.47482" pt_clust_5="79.01557" pt_clust_6="41.11240"></scales>
<clustering>
<clus scale="   40.475">  2  4  1 -1</clus>
<clus scale="   41.112">  2  6  1 -1</clus>
<clus scale="   79.016">  2  5  1 -1</clus>
<clus scale="   79.016">  1  3  2 -1</clus>
</clustering>
</event>
<event>
 6    0  0.2117869E+002  0.1177837E+03  0.7546771E-02  0.1246799E+00
          1   -1    0    0  504    0 -0.00000000000E+00  0.00000000000E+00  0.10318491164E+04  0.10318491164E+04  0.00000000000E+00 0.  1.
         21   -1    0    0  503  502  0.00000000000E+00 -0.00000000000E+00 -0.12322158846E+03  0.12322158846E+03  0.00000000000E+00 0. -1.
         21    1    1    2  503  501 -0.44821547719E+02 -0.21716354181E+02  0.55076098795E+02  0.74255961628E+02  0.00000000000E+00 0. -1.
         21    1    1    2  504  505  0.10876754215E+03 -0.45680684548E+01  0.21071837601E+03  0.23717815975E+03  0.00000000000E+00 0. -1.
         21    1    1    2  505  502 -0.77216130121E+02 -0.36521405746E+02 -0.80552223980E+02  0.11740870758E+03  0.00000000000E+00 0. -1.
          1    1    1    2  501    0  0.13270135693E+02  0.62805828382E+02  0.72338527716E+03  0.72622787594E+03  0.00000000000E+00 0.  1.
<scales pt_clust_3="49.80533" pt_clust_4="14000.00000" pt_clust_5="117.78367" pt_clust_6="63.81268"></scales>
<clustering>
<clus scale="   49.805">  2  3  1 -1</clus>
<clus scale="   63.813">  1  6  2 -1</clus>
<clus scale="  117.784">  2  5  1 -1</clus>
<clus scale="   49.805">  2  3  1 -1</clus>
</clustering>
</event>
<event>
 6    0  0.2117869E+002  0.1039383E+03  0.7546771E-02  0.1272226E+00
         21   -1    0    0  505  502  0.00000000000E+00  0.00000000000E+00  0.15105008726E+03  0.15105008726E+03  0.00000000000E+00 0. -1.
          2   -1    0    0  503    0 -0.00000000000E+00 -0.00000000000E+00 -0.20455415824E+04  0.20455415824E+04  0.00000000000E+00 0. -1.
         21    1    1    2  503  504 -0.17581192250E+02  0.35375800487E+02 -0.60452887220E+02  0.72215629570E+02  0.00000000000E+00 0. -1.
         21    1    1    2  504  502  0.26703729827E+02 -0.20710407272E+02  0.46099988920E+01  0.34106630526E+02  0.00000000000E+00 0.  1.
         21    1    1    2  505  501 -0.57806768323E+02 -0.10628121421E+03  0.95008632552E+02  0.15383094363E+03  0.00000000000E+00 0. -1.
          2    1    1    2  501    0  0.48684230746E+02  0.91615820995E+02 -0.19336572393E+04  0.19364384659E+04  0.00000000000E+00 0. -1.
<scales pt_clust_3="38.15034" pt_clust_4="33.79364" pt_clust_5="103.93830" pt_clust_6="14000.00000"></scales>
<clustering>
<clus scale="   33.794">  1  4  2 -1</clus>
<clus scale="   38.150">  1  3  2 -1</clus>
<clus scale="  103.938">  1  5  2 -1</clus>
<clus scale="   33.794">  1  3  2 -1</clus>
</clustering>
</event>
<event>
 6    0  0.2117869E+002  0.2318242E+03  0.7546771E-02  0.1125362E+00
         21   -1    0    0  503  502  0.00000000000E+00  0.00000000000E+00  0.74784871250E+02  0.74784871250E+02  0.00000000000E+00 0.  1.
         -2   -1    0    0    0  501 -0.00000000000E+00 -0.00000000000E+00 -0.18744246556E+04  0.18744246556E+04  0.00000000000E+00 0.  1.
         21    1    1    2  503  504  0.47694694652E+02 -0.20976681308E+02  0.13823640193E+02  0.53906382598E+02  0.00000000000E+00 0.  1.
         21    1    1    2  504  505  0.19345759578E+03  0.47185264462E+02 -0.46053270638E+03  0.50173963786E+03  0.00000000000E+00 0.  1.
         21    1    1    2  505  501  0.30911586336E+02 -0.45100659582E+02 -0.34868138519E+03  0.35294235229E+03  0.00000000000E+00 0.  1.
         -2    1    1    2    0  502 -0.27206387677E+03  0.18892076428E+02 -0.10042493329E+04  0.10406211541E+04  0.00000000000E+00 0.  1.
<scales pt_clust_3="52.10379" pt_clust_4="14000.00000" pt_clust_5="56.99989" pt_clust_6="231.82421"></scales>
<clustering>
<clus scale="   52.104">  1  3  2 -1</clus>
<clus scale="   57.000">  2  5  1 -1</clus>
<clus scale="  231.824">  2  6  1 -1</clus>
<clus scale="   52.104">  1  3  2 -1</clus>
</clustering>
</event>
<event>
 6    0  0.2117869E+002  0.1019513E+03  0.7546771E-02  0.1276245E+00
          2   -1    0    0  505    0 -0.00000000000E+00  0.00000000000E+00  0.20361445726E+04  0.20361445726E+04  0.00000000000E+00 0. -1.
         21   -1    0    0  503  502  0.00000000000E+00 -0.00000000000E+00 -0.13983932988E+02  0.13983932988E+02  0.00000000000E+00 0. -1.
         21    1    1    2  503  501  0.50417048539E+01 -0.60564531655E+02  0.30114289472E+03  0.30721413431E+03  0.00000000000E+00 0. -1.
         21    1    1    2  504  502  0.36678184184E+01  0.40720145367E+02  0.17634596784E+03  0.18102343358E+03  0.00000000000E+00 0. -1.
         21    1    1    2  505  504 -0.10247309556E+03  0.24435624347E+02  0.12015394646E+04  0.12061487968E+04  0.00000000000E+00 0. -1.
          2    1    1    2  501    0  0.93763572287E+02 -0.45912380595E+01  0.34313231248E+03  0.35574214091E+03  0.00000000000E+00 0. -1.
<scales pt_clust_3="50.30859" pt_clust_4="40.88500" pt_clust_5="101.95129" pt_clust_6="14000.00000"></scales>
<clustering>
<clus scale="   40.885">  2  4  1 -1</clus>
<clus scale="   50.309">  2  3  1 -1</clus>
<clus scale="  101.951">  1  5  2 -1</clus>
<clus scale="   40.885">  2  3  1 -1</clus>
</clustering>
</event>
<event>
 6    0  0.2117869E+002  0.9557025E+02  0.7546771E-02  0.1289897E+00
          2   -1    0    0  505    0 -0.00000000000E+00  0.00000000000E+00  0.49617351263E+03  0.49617351263E+03  0.00000000000E+00 0.  1.
         21   -1    0    0  504  502  0.00000000000E+00 -0.00000000000E+00 -0.38221034729E+03  0.38221034729E+03  0.00000000000E+00 0.  1.
         21    1    1    2  503  501 -0.11369490950E+03  0.30969010931E+02 -0.21497658910E+03  0.24515412692E+03  0.00000000000E+00 0.  1.
         21    1    1    2  504  503  0.77128401013E+02  0.45100799980E+02 -0.11915588064E+03  0.14893285833E+03  0.00000000000E+00 0.  1.
         21    1    1    2  505  502  0.78711184088E+01  0.51834905464E+02  0.11780831058E+03  0.12894809022E+03  0.00000000000E+00 0. -1.
          2    1    1    2  501    0  0.28695390079E+02 -0.12790471638E+03  0.33028732450E+03  0.35534878445E+03  0.00000000000E+00 0.  1.
<scales pt_clust_3="14000.00000" pt_clust_4="95.57025" pt_clust_5="52.42911" pt_clust_6="87.91674"></scales>
<clustering>
<clus scale="   52.429">  1  5  2 -1</clus>
<clus scale="   87.917">  1  6  2 -1</clus>
<clus scale="   95.570">  2  4  1 -1</clus>
<clus scale="   95.570">  2  3  1 -1</clus>
</clustering>
</event>
<event>
 6    0  0.2432710E+002  0.6255339E+02  0.7546771E-02  0.1387418E+00
          1   -1    0    0  503    0 -0.00000000000E+00  0.00000000000E+00  0.19943507667E+04  0.19943507667E+04  0.00000000000E+00 0. -1.
         21   -1    0    0  504  502  0.00000000000E+00 -0.00000000000E+00 -0.38461450595E+03  0.38461450595E+03  0.00000000000E+00 0. -1.
         21    1    1    2  503  505 -0.33099608657E+02 -0.22009118102E+01  0.64290692080E+02  0.72344462084E+02  0.00000000000E+00 0. -1.
         21    1    1    2  504  501  0.46518358082E+02 -0.28966121755E+02 -0.35130090529E+03  0.35554932134E+03  0.00000000000E+00 0. -1.
         21    1    1    2  505  502 -0.74284918023E+02  0.75994822381E+02  0.80665793710E+02  0.13341826093E+03  0.00000000000E+00 0. -1.
          1    1    1    2  501    0  0.60866168599E+02 -0.44827788816E+02  0.18160806803E+04  0.18176532283E+04  0.00000000000E+00 0. -1.
<scales pt_clust_3="33.17270" pt_clust_4="54.76988" pt_clust_5="62.55339" pt_clust_6="14000.00000"></scales>
<clustering>
<clus scale="   33.173">  1  3  2 -1</clus>
<clus scale="   54.770">  2  4  1 -1</clus>
<clus scale="   62.553">  2  5  1 -1</clus>
<clus scale="   54.770">  2  3  1 -1</clus>
</clustering>
</event>
<event>
 6    0  0.2117869E+002  0.9287808E+02  0.7546771E-02  0.1296028E+00
          1   -1    0    0  503    0 -0.00000000000E+00  0.00000000000E+00  0.14642708713E+04  0.14642708713E+04  0.00000000000E+00 0. -1.
         21   -1    0    0  505  502  0.00000000000E+00 -0.00000000000E+00 -0.21496659283E+02  0.21496659283E+02  0.00000000000E+00 0. -1.
         21    1    1    2  503  504 -0.21537228007E+02 -0.29187909574E+02  0.37145037093E+03  0.37321731514E+03  0.00000000000E+00 0. -1.
         21    1    1    2  504  502  0.24804161626E+02 -0.17045332116E+02  0.51723070736E+02  0.59842007213E+02  0.00000000000E+00 0. -1.
         21    1    1    2  505  501 -0.10704349600E+03  0.28979079558E+02  0.22156606956E+03  0.24776928839E+03  0.00000000000E+00 0. -1.
          1    1    1    2  501    0  0.10377656238E+03  0.17254162132E+02  0.79803470081E+03  0.80493891986E+03  0.00000000000E+00 0. -1.
<scales pt_clust_3="36.25456" pt_clust_4="30.09634" pt_clust_5="92.87808" pt_clust_6="14000.00000"></scales>
<clustering>
<clus scale="   30.096">  2  4  1 -1</clus>
<clus scale="   36.255">  1  3  2 -1</clus>
<clus scale="   92.878">  2  5  1 -1</clus>
<clus scale="   30.096">  2  3  1 -1</clus>
</clustering>
</event>
<event>
 6    0  0.2117869E+002  0.9112109E+02  0.7546771E-02  0.1300159E+00
         21   -1    0    0  503  502  0.00000000000E+00  0.00000000000E+00  0.13818851947E+04  0.13818851947E+04  0.00000000000E+00 0.  1.
          2   -1    0    0  504    0 -0.00000000000E+00 -0.00000000000E+00 -0.72120247372E+03  0.72120247372E+03  0.00000000000E+00 0. -1.
         21    1    1    2  503  501 -0.90162711785E+02 -0.49924909406E+01  0.89255874748E+03  0.89711501897E+03  0.00000000000E+00 0.  1.
         21    1    1    2  504  505  0.23653638888E+02  0.20059594170E+02 -0.19965703522E+03  0.20205151240E+03  0.00000000000E+00 0. -1.
         21    1    1    2  505  502  0.11560946139E+02  0.51432621955E+02  0.48080945568E+03  0.48369070980E+03  0.00000000000E+00 0.  1.
          2    1    1    2  501    0  0.54948126758E+02 -0.66499725184E+02 -0.51302844694E+03  0.52023042726E+03  0.00000000000E+00 0. -1.
<scales pt_clust_3="91.12109" pt_clust_4="31.01422" pt_clust_5="52.78451" pt_clust_6="14000.00000"></scales>
<clustering>
<clus scale="   31.014">  2  4  1 -1</clus>
<clus scale="   52.785">  1  5  2 -1</clus>
<clus scale="   91.121">  1  3  2 -1</clus>
<clus scale="   52.785">  1  3  2 -1</clus>
</clustering>
</event>
<event>
 6    0  0.2117869E+002  0.1584518E+03  0.7546771E-02  0.1190456E+00
         21   -1    0    0  505  502  0.00000000000E+00  0.00000000000E+00  0.11345885182E+03  0.11345885182E+03  0.00000000000E+00 0.  1.
          2   -1    0    0  503    0 -0.00000000000E+00 -0.00000000000E+00 -0.23447644991E+04  0.23447644991E+04  0.00000000000E+00 0. -1.
         21    1    1    2  503  504  0.17561642489E+02  0.91824070742E+02 -0.68820486673E+02  0.11608759900E+03  0.00000000000E+00 0.  1.
         21    1    1    2  504  502  0.35629909223E+02  0.29815059536E+02 -0.51933853305E+02  0.69681800533E+02  0.00000000000E+00 0.  1.
         21    1    1    2  505  501 -0.25679046958E+02  0.28640938926E+02  0.73557349698E+02  0.83008436498E+02  0.00000000000E+00 0.  1.
          2    1    1    2  501    0 -0.27512504754E+02 -0.15028006920E+03 -0.21841086570E+04  0.21894455149E+04  0.00000000000E+00 0. -1.
<scales pt_clust_3="33.83181" pt_clust_4="33.83181" pt_clust_5="38.46709" pt_clust_6="151.00900"></scales>
<clustering>
<clus scale="   33.832">  3  4 -1 -1</clus>
<clus scale="   38.467">  1  5  2 -1</clus>
<clus scale="  151.009">  2  6  1 -1</clus>
<clus scale="   38.467">  1  3  2 -1</clus>
</clustering>
</event>
<event>
 6    0  0.2117869E+002  0.1225705E+03  0.7546771E-02  0.1238916E+00
         21   -1    0    0  504  502  0.00000000000E+00  0.00000000000E+00  0.12402495868E+03  0.12402495868E+03  0.00000000000E+00 0.  1.
          2   -1    0    0  502    0 -0.00000000000E+00 -0.00000000000E+00 -0.21773522898E+04  0.21773522898E+04  0.00000000000E+00 0.  1.
         21    1    1    2  503  501 -0.62006113502E+02  0.95964392946E+02 -0.21888054605E+03  0.24690608794E+03  0.00000000000E+00 0.  1.
         21    1    1    2  504  505 -0.48476064835E+02 -0.35762471086E+02 -0.32566454572E+00  0.60241092765E+02  0.00000000000E+00 0.  1.
         21    1    1    2  505  503  0.97852599693E+01 -0.10459218736E+03  0.43273559373E+02  0.11361284219E+03  0.00000000000E+00 0.  1.
          2    1    1    2  501    0  0.10069691837E+03  0.44390265500E+02 -0.18773946799E+04  0.18806172256E+04  0.00000000000E+00 0.  1.
<scales pt_clust_3="122.57047" pt_clust_4="60.24021" pt_clust_5="14000.00000" pt_clust_6="109.04045"></scales>
<clustering>
<clus scale="   60.240">  1  4  2 -1</clus>
<clus scale="  109.040">  2  6  1 -1</clus>
<clus scale="  122.570">  2  3  1 -1</clus>
<clus scale="   60.240">  1  3  2 -1</clus>
</clustering>
</event>
<event>
 6    0  0.2117869E+002  0.7889341E+02  0.7546771E-02  0.1332221E+00
          2   -1    0    0  504    0 -0.00000000000E+00  0.00000000000E+00  0.14282777128E+04  0.14282777128E+04  0.00000000000E+00 0.  1.
         21   -1    0    0  503  502  0.00000000000E+00 -0.00000000000E+00 -0.20620210646E+03  0.20620210646E+03  0.00000000000E+00 0. -1.
         21    1    1    2  503  505 -0.73792001027E+02 -0.41159852212E+02 -0.13436636991E+03  0.15872527906E+03  0.00000000000E+00 0. -1.
         21    1    1    2  504  502  0.17870910515E+01 -0.35184916327E+02  0.22600073611E+03  0.22873020079E+03  0.00000000000E+00 0. -1.
         21    1    1    2  505  501  0.72090029547E+02  0.73352806153E+01 -0.34349269622E+02  0.80191340090E+02  0.00000000000E+00 0. -1.
          2    1    1    2  501    0 -0.85119571659E-01  0.69009487923E+02  0.11647905097E+04  0.11668329993E+04  0.00000000000E+00 0.  1.
<scales pt_clust_3="14000.00000" pt_clust_4="35.23027" pt_clust_5="78.89341" pt_clust_6="34.89199"></scales>
<clustering>
<clus scale="   35.230">  1  4  2 -1</clus>
<clus scale="   34.892">  1  6  2 -1</clus>
<clus scale="   78.893">  1  5  2 -1</clus>
<clus scale="   78.893">  2  3  1 -1</clus>
</clustering>
</event>
<event>
 6    0  0.2117869E+002  0.4079282E+03  0.7546771E-02  0.1041068E+00
         21   -1    0    0  504  502  0.00000000000E+00  0.00000000000E+00  0.93421385715E+03  0.93421385715E+03  0.00000000000E+00 0.  1.
          2   -1    0    0  505    0 -0.00000000000E+00 -0.00000000000E+00 -0.18758420326E+04  0.18758420326E+04  0.00000000000E+00 0. -1.
         21    1    1    2  503  501  0.37232478150E+03 -0.25978899644E+02  0.14621081037E+02  0.37351629437E+03  0.00000000000E+00 0.  1.
         21    1    1    2  504  503 -0.36851345127E+02 -0.63141458056E+02  0.12240743161E+03  0.14257785479E+03  0.00000000000E+00 0.  1.
         21    1    1    2  505  502  0.70040073169E+02  0.12159859831E+02  0.58019365692E+03  0.58453242302E+03  0.00000000000E+00 0.  1.
          2    1    1    2  501    0 -0.40551350954E+03  0.76960497869E+02 -0.16588503450E+04  0.17094293176E+04  0.00000000000E+00 0. -1.
<scales pt_clust_3="407.92819" pt_clust_4="59.49237" pt_clust_5="71.08779" pt_clust_6="14000.00000"></scales>
<clustering>
<clus scale="   71.088">  1  5  2 -1</clus>
<clus scale="   59.492">  1  4  2 -1</clus>
<clus scale="  407.928">  1  3  2 -1</clus>
<clus scale="   71.088">  1  3  2 -1</clus>
</clustering>
</event>
<event>
 6    0  0.2117869E+002  0.1635923E+03  0.7546771E-02  0.1184700E+00
          2   -1    0    0  503    0 -0.00000000000E+00  0.00000000000E+00  0.16246172279E+04  0.16246172279E+04  0.00000000000E+00 0. -1.
         21   -1    0    0  504  502  0.00000000000E+00 -0.00000000000E+00 -0.57136247553E+03  0.57136247553E+03  0.00000000000E+00 0.  1.
         21    1    1    2  503  505  0.59440846199E+02 -0.16498517998E+03  0.40084336007E+03  0.43752568282E+03  0.00000000000E+00 0. -1.
         21    1    1    2  504  501  0.89764872149E+02  0.16750270674E+03  0.44590525047E+03  0.48471267926E+03  0.00000000000E+00 0.  1.
         21    1    1    2  505  502 -0.52876098385E+02  0.33606243783E+02 -0.52818202566E+03  0.53188486877E+03  0.00000000000E+00 0.  1.
          2    1    1    2  501    0 -0.96329619963E+02 -0.36123770539E+02  0.73468816747E+03  0.74185647258E+03  0.00000000000E+00 0. -1.
<scales pt_clust_3="14000.00000" pt_clust_4="163.59225" pt_clust_5="62.65191" pt_clust_6="106.23903"></scales>
<clustering>
<clus scale="   62.652">  2  5  1 -1</clus>
<clus scale="  106.239">  1  6  2 -1</clus>
<clus scale="  163.592">  1  4  2 -1</clus>
<clus scale="   62.652">  2  3  1 -1</clus>
</clustering>
</event>
<event>
 6    0  0.2117869E+002  0.1003390E+03  0.7546771E-02  0.1279585E+00
         -1   -1    0    0    0  501 -0.00000000000E+00  0.00000000000E+00  0.85023004795E+03  0.85023004795E+03  0.00000000000E+00 0.  1.
         21   -1    0    0  503  502  0.00000000000E+00 -0.00000000000E+00 -0.13206997709E+03  0.13206997709E+03  0.00000000000E+00 0.  1.
         21    1    1    2  503  504 -0.98135451604E+02  0.16004535756E+02 -0.85394531132E+02  0.13106844767E+03  0.00000000000E+00 0.  1.
         21    1    1    2  504  505 -0.45033225899E+02 -0.31426976622E+01  0.26176894940E+02  0.52183309709E+02  0.00000000000E+00 0.  1.
         21    1    1    2  505  501  0.33120074564E+02  0.13240447845E+02  0.47288974639E+03  0.47423302399E+03  0.00000000000E+00 0.  1.
         -1    1    1    2    0  502  0.11004860294E+03 -0.26102285939E+02  0.30448796066E+03  0.32481524368E+03  0.00000000000E+00 0.  1.
<scales pt_clust_3="100.33903" pt_clust_4="41.62562" pt_clust_5="35.66860" pt_clust_6="14000.00000"></scales>
<clustering>
<clus scale="   35.669">  1  5  2 -1</clus>
<clus scale="   41.626">  1  4  2 -1</clus>
<clus scale="  100.339">  2  3  1 -1</clus>
<clus scale="  100.339">  2  3  1 -1</clus>
</clustering>
</event>
<event>
 6    0  0.2117869E+002  0.1139593E+03  0.7546771E-02  0.1253409E+00
         21   -1    0    0  505  502  0.00000000000E+00  0.00000000000E+00  0.42905787761E+02  0.42905787761E+02  0.00000000000E+00 0.  1.
          1   -1    0    0  503    0 -0.00000000000E+00 -0.00000000000E+00 -0.34948684608E+04  0.34948684608E+04  0.00000000000E+00 0. -1.
         21    1    1    2  503  504 -0.53772128465E+02 -0.74049246178E+02 -0.46093218177E+03  0.46992894022E+03  0.00000000000E+00 0.  1.
         21    1    1    2  504  502 -0.45388678364E+02 -0.42052208470E+02 -0.15024654112E+01  0.61893277205E+02  0.00000000000E+00 0.  1.
         21    1    1    2  505  501 -0.27818351853E+02  0.92881596817E+02 -0.34751296716E+03  0.36078541277E+03  0.00000000000E+00 0. -1.
          1    1    1    2  501    0  0.12697915868E+03  0.23219857832E+02 -0.26420150587E+04  0.26451666184E+04  0.00000000000E+00 0. -1.
<scales pt_clust_3="113.95928" pt_clust_4="61.87504" pt_clust_5="87.66059" pt_clust_6="14000.00000"></scales>
<clustering>
<clus scale="   61.875">  1  4  2 -1</clus>
<clus scale="   87.661">  1  5  2 -1</clus>
<clus scale="  113.959">  1  3  2 -1</clus>
<clus scale="   61.875">  1  3  2 -1</clus>
</clustering>
</event>
<event>
 6    0  0.2117869E+002  0.1064009E+03  0.7546771E-02  0.1267384E+00
          2   -1    0    0  502    0 -0.00000000000E+00  0.00000000000E+00  0.27582609780E+03  0.27582609780E+03  0.00000000000E+00 0.  1.
         21   -1    0    0  505  502  0.00000000000E+00 -0.00000000000E+00 -0.97847626275E+03  0.97847626275E+03  0.00000000000E+00 0.  1.
         21    1    1    2  503  501 -0.17360463830E+01 -0.50212589253E+02  0.16896479324E+03  0.17627654220E+03  0.00000000000E+00 0.  1.
         21    1    1    2  504  503  0.47456947865E+02  0.11273081773E+03 -0.48999490245E+03  0.50503010167E+03  0.00000000000E+00 0.  1.
         21    1    1    2  505  504 -0.27696678602E+02 -0.14797184290E+02 -0.46994788400E+03  0.47099583474E+03  0.00000000000E+00 0. -1.
          2    1    1    2  501    0 -0.18024222881E+02 -0.47721044185E+02  0.88327828267E+02  0.10199988194E+03  0.00000000000E+00 0.  1.
<scales pt_clust_3="35.11359" pt_clust_4="100.32124" pt_clust_5="31.40163" pt_clust_6="35.11359"></scales>
<clustering>
<clus scale="   31.402">  2  5  1 -1</clus>
<clus scale="   35.114">  3  6 -1 -1</clus>
<clus scale="  100.321">  2  4  1 -1</clus>
<clus scale="   31.402">  2  3  1 -1</clus>
</clustering>
</event>
<event>
 6    0  0.2117869E+002  0.1360091E+03  0.7546771E-02  0.1218802E+00
         21   -1    0    0  504  502  0.00000000000E+00  0.00000000000E+00  0.80163976027E+03  0.80163976027E+03  0.00000000000E+00 0. -1.
          2   -1    0    0  505    0 -0.00000000000E+00 -0.00000000000E+00 -0.66775982240E+03  0.66775982240E+03  0.00000000000E+00 0.  1.
         21    1    1    2  503  501  0.13890542002E+02 -0.13112783449E+03  0.49139488312E+03  0.50877931099E+03  0.00000000000E+00 0. -1.
         21    1    1    2  504  503 -0.57514088529E+02  0.16902678377E+01  0.28860187715E+03  0.29428178822E+03  0.00000000000E+00 0. -1.
         21    1    1    2  505  502 -0.23514850464E+02  0.19373169732E+02 -0.77162583795E+02  0.82959823022E+02  0.00000000000E+00 0.  1.
          2    1    1    2  501    0  0.67138396991E+02  0.11006439692E+03 -0.56895423861E+03  0.58337866043E+03  0.00000000000E+00 0.  1.
<scales pt_clust_3="136.00910" pt_clust_4="57.65532" pt_clust_5="30.46749" pt_clust_6="14000.00000"></scales>
<clustering>
<clus scale="   30.467">  2  5  1 -1</clus>
<clus scale="   57.655">  1  4  2 -1</clus>
<clus scale="  136.009">  1  3  2 -1</clus>
<clus scale="   57.655">  1  3  2 -1</clus>
</clustering>
</event>
<event>
 6    0  0.2117869E+002  0.1256809E+03  0.7546771E-02  0.1234009E+00
         21   -1    0    0  503  502  0.00000000000E+00  0.00000000000E+00  0.83517749924E+02  0.83517749924E+02  0.00000000000E+00 0. -1.
          2   -1    0    0  504    0 -0.00000000000E+00 -0.00000000000E+00 -0.44138933335E+03  0.44138933335E+03  0.00000000000E+00 0. -1.
         21    1    1    2  503  501 -0.44067238682E+02  0.19592803191E+02  0.87666636722E+01  0.49016873155E+02  0.00000000000E+00 0. -1.
         21    1    1    2  504  505 -0.22912394644E+02  0.20283750503E+02 -0.57408112255E+02  0.65054590272E+02  0.00000000000E+00 0. -1.
         21    1    1    2  505  502 -0.17023292162E+02  0.98205748011E+02 -0.68726607965E+02  0.12106819591E+03  0.00000000000E+00 0. -1.
          2    1    1    2  501    0  0.84002925488E+02 -0.13808230170E+03 -0.24050352687E+03  0.28976742393E+03  0.00000000000E+00 0. -1.
<scales pt_clust_3="49.77353" pt_clust_4="30.60079" pt_clust_5="14000.00000" pt_clust_6="125.68093"></scales>
<clustering>
<clus scale="   30.601">  2  4  1 -1</clus>
<clus scale="   49.774">  1  3  2 -1</clus>
<clus scale="  125.681">  2  6  1 -1</clus>
<clus scale="   49.774">  1  3  2 -1</clus>
</clustering>
</event>
<event>
 6    0  0.2117869E+002  0.9196169E+02  0.7546771E-02  0.1298170E+00
         21   -1    0    0  505  502  0.00000000000E+00  0.00000000000E+00  0.23945939371E+03  0.23945939371E+03  0.00000000000E+00 0. -1.
          1   -1    0    0  503    0 -0.00000000000E+00 -0.00000000000E+00 -0.91302057949E+03  0.91302057949E+03  0.00000000000E+00 0.  1.
         21    1    1    2  503  504  0.11994696698E+02 -0.63192106430E+02 -0.13921428892E+03  0.15335492592E+03  0.00000000000E+00 0.  1.
         21    1    1    2  504  502 -0.32390192050E+02 -0.16949226302E+02  0.19790063995E+02  0.41569790067E+02  0.00000000000E+00 0.  1.
         21    1    1    2  505  501  0.39378520208E+02 -0.24909724114E+02  0.19518372040E+03  0.20066850007E+03  0.00000000000E+00 0. -1.
          1    1    1    2  501    0 -0.18983024857E+02  0.10505105685E+03 -0.74932068126E+03  0.75688675715E+03  0.00000000000E+00 0.  1.
<scales pt_clust_3="14000.00000" pt_clust_4="36.55682" pt_clust_5="41.88544" pt_clust_6="91.96169"></scales>
<clustering>
<clus scale="   36.557">  1  4  2 -1</clus>
<clus scale="   41.885">  1  5  2 -1</clus>
<clus scale="   91.962">  2  6  1 -1</clus>
<clus scale="   36.557">  1  3  2 -1</clus>
</clustering>
</event>
<event>
 6    0  0.2117869E+002  0.1122137E+03  0.7546771E-02  0.1256524E+00
         21   -1    0    0  504  502  0.00000000000E+00  0.00000000000E+00  0.15360249293E+03  0.15360249293E+03  0.00000000000E+00 0.  1.
          1   -1    0    0  503    0 -0.00000000000E+00 -0.00000000000E+00 -0.59201973666E+03  0.59201973666E+03  0.00000000000E+00 0. -1.
         21    1    1    2  503  505  0.29657368412E+02 -0.22015825448E+02 -0.36899452364E+02  0.52209440296E+02  0.00000000000E+00 0. -1.
         21    1    1    2  504  501  0.42026082387E+02  0.98621753703E+02  0.86833726636E+02  0.13795846471E+03  0.00000000000E+00 0.  1.
         21    1    1    2  505  502  0.47638358665E+02  0.44510013236E+02 -0.27511025349E+03  0.28272991719E+03  0.00000000000E+00 0.  1.
          1    1    1    2  501    0 -0.11932180946E+03 -0.12111594149E+03 -0.21324126451E+03  0.27272440739E+03  0.00000000000E+00 0. -1.
<scales pt_clust_3="36.93584" pt_clust_4="14000.00000" pt_clust_5="71.03362" pt_clust_6="112.21374"></scales>
<clustering>
<clus scale="   36.936">  2  3  1 -1</clus>
<clus scale="   71.034">  2  5  1 -1</clus>
<clus scale="  112.214">  2  6  1 -1</clus>
<clus scale="  112.214">  1  3  2 -1</clus>
</clustering>
</event>
<event>
 6    0  0.2117869E+002  0.1308923E+03  0.7546771E-02  0.1226138E+00
         21   -1    0    0  501  502  0.00000000000E+00  0.00000000000E+00  0.15244856617E+03  0.15244856617E+03  0.00000000000E+00 0. -1.
          2   -1    0    0  504    0 -0.00000000000E+00 -0.00000000000E+00 -0.34564316136E+04  0.34564316136E+04  0.00000000000E+00 0. -1.
         21    1    1    2  503  505  0.13919061186E+03  0.21604566360E+02  0.49970916376E+01  0.14094592808E+03  0.00000000000E+00 0. -1.
         21    1    1    2  504  503  0.20053771117E+02  0.33420065054E+02 -0.71589468659E+03  0.71695484989E+03  0.00000000000E+00 0. -1.
         21    1    1    2  505  502 -0.12182490621E+03  0.50406405027E+02  0.21860586508E+02  0.13364130606E+03  0.00000000000E+00 0. -1.
          2    1    1    2  501    0 -0.37419476758E+02 -0.10543103644E+03 -0.26149460390E+04  0.26173380958E+04  0.00000000000E+00 0. -1.
<scales pt_clust_3="14000.00000" pt_clust_4="38.97505" pt_clust_5="130.89227" pt_clust_6="75.75833"></scales>
<clustering>
<clus scale="   38.975">  2  4  1 -1</clus>
<clus scale="   75.758">  2  6  1 -1</clus>
<clus scale="  130.892">  1  5  2 -1</clus>
<clus scale="  130.892">  1  3  2 -1</clus>
</clustering>
</event>
<event>
 6    0  0.2117869E+002  0.1698880E+03  0.7546771E-02  0.1177965E+00
         21   -1    0    0  505  502  0.00000000000E+00  0.00000000000E+00  0.64751653710E+03  0.64751653710E+03  0.00000000000E+00 0. -1.
          1   -1    0    0  504    0 -0.00000000000E+00 -0.00000000000E+00 -0.19477736612E+03  0.19477736612E+03  0.00000000000E+00 0.  1.
         21    1    1    2  503  502  0.22067043169E+02  0.92714406982E+02  0.25533490195E+03  0.27254142403E+03  0.00000000000E+00 0. -1.
         21    1    1    2  504  503  0.10327119853E+03  0.76410494853E+02  0.32286877400E+02  0.13246111362E+03  0.00000000000E+00 0. -1.
         21    1    1    2  505  501 -0.14668093361E+02  0.26239912366E+02  0.20675574600E+03  0.20892971179E+03  0.00000000000E+00 0. -1.
          1    1    1    2  501    0 -0.11067014834E+03 -0.19536481420E+03 -0.41638354369E+02  0.22836165378E+03  0.00000000000E+00 0.  1.
<scales pt_clust_3="109.27406" pt_clust_4="169.88795" pt_clust_5="30.06137" pt_clust_6="14000.00000"></scales>
<clustering>
<clus scale="   30.061">  1  5  2 -1</clus>
<clus scale="  109.274">  1  3  2 -1</clus>
<clus scale="  169.888">  2  4  1 -1</clus>
<clus scale="   30.061">  1  3  2 -1</clus>
</clustering>
</event>
<event>
 6    0  0.2117869E+002  0.7677286E+02  0.7546771E-02  0.1338467E+00
          2   -1    0    0  505    0 -0.00000000000E+00  0.00000000000E+00  0.53928848371E+03  0.53928848371E+03  0.00000000000E+00 0. -1.
         21   -1    0    0  504  502  0.00000000000E+00 -0.00000000000E+00 -0.10412858728E+03  0.10412858728E+03  0.00000000000E+00 0.  1.
         21    1    1    2  503  501 -0.58432942185E+02  0.18620914792E+02  0.14216099149E+03  0.15482536841E+03  0.00000000000E+00 0.  1.
         21    1    1    2  504  503  0.10964295109E+02 -0.52601688879E+02 -0.27101231649E+02  0.60179981697E+02  0.00000000000E+00 0.  1.
         21    1    1    2  505  502  0.73539524705E+02  0.69203458563E+02 -0.42927930301E+01  0.10107229315E+03  0.00000000000E+00 0.  1.
          2    1    1    2  501    0 -0.26070877629E+02 -0.35222684475E+02  0.32439292961E+03  0.32733942773E+03  0.00000000000E+00 0. -1.
<scales pt_clust_3="76.77286" pt_clust_4="56.04950" pt_clust_5="14000.00000" pt_clust_6="43.82155"></scales>
<clustering>
<clus scale="   43.822">  1  6  2 -1</clus>
<clus scale="   56.050">  2  4  1 -1</clus>
<clus scale="   76.773">  1  3  2 -1</clus>
<clus scale="   56.050">  2  3  1 -1</clus>
</clustering>
</event>
<event>
 6    0  0.2117869E+002  0.3236191E+03  0.7546771E-02  0.1073996E+00
          2   -1    0    0  503    0 -0.00000000000E+00  0.00000000000E+00  0.18995436961E+04  0.18995436961E+04  0.00000000000E+00 0.  1.
         21   -1    0    0  504  502  0.00000000000E+00 -0.00000000000E+00 -0.53263021281E+03  0.53263021281E+03  0.00000000000E+00 0. -1.
         21    1    1    2  503  505 -0.20685018229E+03 -0.11940875470E+03  0.47181578458E+03  0.52882471878E+03  0.00000000000E+00 0.  1.
         21    1    1    2  504  501 -0.30138080387E+01 -0.17085739786E+03 -0.36686271905E+03  0.40470926363E+03  0.00000000000E+00 0. -1.
         21    1    1    2  505  502 -0.14179836630E+03  0.46659178595E+02 -0.16798914812E+02  0.15022003585E+03  0.00000000000E+00 0.  1.
          2    1    1    2  501    0  0.35166235663E+03  0.24360697396E+03  0.12787593325E+04  0.13484198906E+04  0.00000000000E+00 0.  1.
<scales pt_clust_3="323.61905" pt_clust_4="180.78136" pt_clust_5="149.27778" pt_clust_6="14000.00000"></scales>
<clustering>
<clus scale="  149.278">  2  5  1 -1</clus>
<clus scale="  180.781">  2  4  1 -1</clus>
<clus scale="  323.619">  1  3  2 -1</clus>
<clus scale="  149.278">  2  3  1 -1</clus>
</clustering>
</event>
<event>
 6    0  0.2117869E+002  0.1083299E+03  0.7546771E-02  0.1263694E+00
          3   -1    0    0  503    0 -0.00000000000E+00  0.00000000000E+00  0.82503716486E+03  0.82503716486E+03  0.00000000000E+00 0. -1.
         21   -1    0    0  505  502  0.00000000000E+00 -0.00000000000E+00 -0.20080682685E+04  0.20080682685E+04  0.00000000000E+00 0.  1.
         21    1    1    2  503  502  0.14757960036E+03  0.16102496557E+02  0.75172655100E+02  0.16640299551E+03  0.00000000000E+00 0.  1.
         21    1    1    2  504  501 -0.50255083809E+02 -0.26534680831E+02 -0.70649434340E+03  0.70877635400E+03  0.00000000000E+00 0.  1.
         21    1    1    2  505  504 -0.33951426253E+02 -0.23917536281E+02 -0.12526251838E+04  0.12533134481E+04  0.00000000000E+00 0.  1.
          3    1    1    2  501    0 -0.63373090300E+02  0.34349720555E+02  0.70091576854E+03  0.70461263576E+03  0.00000000000E+00 0. -1.
<scales pt_clust_3="98.61270" pt_clust_4="38.33435" pt_clust_5="38.33435" pt_clust_6="72.08364"></scales>
<clustering>
<clus scale="   38.334">  4  5 -1 -1</clus>
<clus scale="   72.084">  1  6  2 -1</clus>
<clus scale="   98.613">  1  3  2 -1</clus>
<clus scale="  108.330">  2  3  1 -1</clus>
</clustering>
</event>
<event>
 6    0  0.2117869E+002  0.1988624E+03  0.7546771E-02  0.1150702E+00
          2   -1    0    0  505    0 -0.00000000000E+00  0.00000000000E+00  0.20076158756E+04  0.20076158756E+04  0.00000000000E+00 0. -1.
         21   -1    0    0  501  502  0.00000000000E+00 -0.00000000000E+00 -0.84244167803E+02  0.84244167803E+02  0.00000000000E+00 0. -1.
         21    1    1    2  503  502  0.29022474889E+02 -0.32888160560E+02 -0.21119360384E+02  0.48682261007E+02  0.00000000000E+00 0. -1.
         21    1    1    2  504  503 -0.13105275405E+02 -0.61089368640E+02  0.68650331107E+01  0.62855293205E+02  0.00000000000E+00 0. -1.
         21    1    1    2  505  504  0.27447070355E+02 -0.14912416674E+03  0.53270272185E+03  0.55386239143E+03  0.00000000000E+00 0. -1.
          2    1    1    2  501    0 -0.43364269839E+02  0.24310169594E+03  0.14049233133E+04  0.14264600978E+04  0.00000000000E+00 0. -1.
<scales pt_clust_3="43.86269" pt_clust_4="79.81937" pt_clust_5="14000.00000" pt_clust_6="198.86241"></scales>
<clustering>
<clus scale="   43.863">  2  3  1 -1</clus>
<clus scale="   79.819">  2  4  1 -1</clus>
<clus scale="  198.862">  2  6  1 -1</clus>
<clus scale="   43.863">  2  3  1 -1</clus>
</clustering>
</event>
<event>
 6    0  0.2117869E+002  0.7477279E+02  0.7546771E-02  0.1344576E+00
          2   -1    0    0  505    0 -0.00000000000E+00  0.00000000000E+00  0.23255178609E+04  0.23255178609E+04  0.00000000000E+00 0. -1.
         21   -1    0    0  501  502  0.00000000000E+00 -0.00000000000E+00 -0.13292668296E+03  0.13292668296E+03  0.00000000000E+00 0. -1.
         21    1    1    2  503  502 -0.55299450135E+01 -0.74825792294E+02 -0.83729894853E+02  0.11242853186E+03  0.00000000000E+00 0. -1.
         21    1    1    2  504  503  0.41570328288E+02  0.68996876074E+02  0.14494434694E+02  0.81845890178E+02  0.00000000000E+00 0. -1.
         21    1    1    2  505  504  0.24376817511E+02  0.23279974308E+02  0.45379731761E+03  0.45504746116E+03  0.00000000000E+00 0.  1.
          2    1    1    2  501    0 -0.60417200786E+02 -0.17451058087E+02  0.18080293204E+04  0.18091226606E+04  0.00000000000E+00 0. -1.
<scales pt_clust_3="74.77279" pt_clust_4="14000.00000" pt_clust_5="33.70736" pt_clust_6="37.19941"></scales>
<clustering>
<clus scale="   33.707">  1  5  2 -1</clus>
<clus scale="   37.199">  1  6  2 -1</clus>
<clus scale="   74.773">  2  3  1 -1</clus>
<clus scale="   74.773">  2  3  1 -1</clus>
</clustering>
</event>
<event>
 6    0  0.2117869E+002  0.2138703E+03  0.7546771E-02  0.1138537E+00
         21   -1    0    0  504  502  0.00000000000E+00  0.00000000000E+00  0.10969900338E+03  0.10969900338E+03  0.00000000000E+00 0. -1.
          1   -1    0    0  505    0 -0.00000000000E+00 -0.00000000000E+00 -0.15732042101E+04  0.15732042101E+04  0.00000000000E+00 0. -1.
         21    1    1    2  503  502 -0.19499734209E+03  0.11305820583E+03 -0.51021679497E+02  0.23110459343E+03  0.00000000000E+00 0. -1.
         21    1    1    2  504  501  0.42791904067E+01 -0.31984999894E+02 -0.56540483735E+02  0.65101290230E+02  0.00000000000E+00 0. -1.
         21    1    1    2  505  503 -0.18093404818E+02  0.42033082477E+02 -0.15890858529E+03  0.16536653168E+03  0.00000000000E+00 0. -1.
          1    1    1    2  501    0  0.20881155650E+03 -0.12310628842E+03 -0.11970344582E+04  0.12213307981E+04  0.00000000000E+00 0. -1.
<scales pt_clust_3="213.87027" pt_clust_4="32.26998" pt_clust_5="44.81100" pt_clust_6="14000.00000"></scales>
<clustering>
<clus scale="   32.270">  1  4  2 -1</clus>
<clus scale="   44.811">  2  5  1 -1</clus>
<clus scale="  213.870">  1  3  2 -1</clus>
<clus scale="   32.270">  1  3  2 -1</clus>
</clustering>
</event>
<event>
 6    0  0.2117869E+002  0.2311534E+03  0.7546771E-02  0.1125831E+00
          2   -1    0    0  503    0 -0.00000000000E+00  0.00000000000E+00  0.75975740203E+03  0.75975740203E+03  0.00000000000E+00 0.  1.
         21   -1    0    0  501  502  0.00000000000E+00 -0.00000000000E+00 -0.20081344362E+04  0.20081344362E+04  0.00000000000E+00 0. -1.
         21    1    1    2  503  504 -0.30282219991E+02 -0.46897394948E+02 -0.16862605808E+02  0.58315743802E+02  0.00000000000E+00 0. -1.
         21    1    1    2  504  505 -0.57658777220E+02  0.21268702242E+02 -0.30256645726E+03  0.30874480295E+03  0.00000000000E+00 0. -1.
         21    1    1    2  505  502 -0.15259003839E+03 -0.36711429731E+02 -0.16400626016E+04  0.16475547900E+04  0.00000000000E+00 0. -1.
          2    1    1    2  501    0  0.24053103560E+03  0.62340122438E+02  0.71111463050E+03  0.75327650147E+03  0.00000000000E+00 0.  1.
<scales pt_clust_3="55.82453" pt_clust_4="58.87922" pt_clust_5="58.87922" pt_clust_6="211.12669"></scales>
<clustering>
<clus scale="   55.825">  1  3  2 -1</clus>
<clus scale="   58.879">  4  5 -1 -1</clus>
<clus scale="  211.127">  1  6  2 -1</clus>
<clus scale="  231.153">  2  3  1 -1</clus>
</clustering>
</event>
<event>
 6    0  0.2117869E+002  0.2054754E+03  0.7546771E-02  0.1145200E+00
         21   -1    0    0  501  502  0.00000000000E+00  0.00000000000E+00  0.81619286243E+02  0.81619286243E+02  0.00000000000E+00 0.  1.
          2   -1    0    0  505    0 -0.00000000000E+00 -0.00000000000E+00 -0.11815561958E+04  0.11815561958E+04  0.00000000000E+00 0.  1.
         21    1    1    2  503  504 -0.34418505794E+02 -0.80528474657E+01 -0.87322787771E+01  0.36410638364E+02  0.00000000000E+00 0.  1.
         21    1    1    2  504  502 -0.11194682774E+03 -0.40358522773E+01 -0.15089623266E+03  0.18793098035E+03  0.00000000000E+00 0.  1.
         21    1    1    2  505  503 -0.92118776166E+02  0.14171307902E+03 -0.32533434885E+03  0.36662092715E+03  0.00000000000E+00 0.  1.
          2    1    1    2  501    0  0.23848410970E+03 -0.12962437928E+03 -0.61497404924E+03  0.67221293614E+03  0.00000000000E+00 0.  1.
<scales pt_clust_3="32.16645" pt_clust_4="157.63217" pt_clust_5="14000.00000" pt_clust_6="205.47541"></scales>
<clustering>
<clus scale="   32.166">  3  4 -1 -1</clus>
<clus scale="  157.632">  1  3  2 -1</clus>
<clus scale="  205.475">  1  6  2 -1</clus>
<clus scale="  157.632">  1  3  2 -1</clus>
</clustering>
</event>
<event>
 6    0  0.2117869E+002  0.8800081E+02  0.7546771E-02  0.1307767E+00
         21   -1    0    0  501  502  0.00000000000E+00  0.00000000000E+00  0.56540915634E+02  0.56540915634E+02  0.00000000000E+00 0. -1.
          2   -1    0    0  505    0 -0.00000000000E+00 -0.00000000000E+00 -0.23664599970E+04  0.23664599970E+04  0.00000000000E+00 0. -1.
         21    1    1    2  503  502 -0.25078010563E+02  0.25862208013E+02  0.38955598453E+02  0.53059391892E+02  0.00000000000E+00 0. -1.
         21    1    1    2  504  503  0.18969968784E+02 -0.97914198902E+02 -0.42452677182E+03  0.43608488859E+03  0.00000000000E+00 0. -1.
         21    1    1    2  505  504 -0.47550092921E+02 -0.11490244654E+02 -0.13573185955E+04  0.13581998405E+04  0.00000000000E+00 0. -1.
          2    1    1    2  501    0  0.53658134701E+02  0.83542235542E+02 -0.56702931249E+03  0.57565679165E+03  0.00000000000E+00 0. -1.
<scales pt_clust_3="36.02444" pt_clust_4="14000.00000" pt_clust_5="49.70121" pt_clust_6="88.00081"></scales>
<clustering>
<clus scale="   36.024">  1  3  2 -1</clus>
<clus scale="   49.701">  2  5  1 -1</clus>
<clus scale="   88.001">  2  6  1 -1</clus>
<clus scale="   36.024">  1  3  2 -1</clus>
</clustering>
</event>
<event>
 6    0  0.2117869E+002  0.1031925E+03  0.7546771E-02  0.1273722E+00
         -3   -1    0    0    0  501 -0.00000000000E+00  0.00000000000E+00  0.35682599950E+03  0.35682599950E+03  0.00000000000E+00 0. -1.
         21   -1    0    0  504  502  0.00000000000E+00 -0.00000000000E+00 -0.20375126392E+03  0.20375126392E+03  0.00000000000E+00 0. -1.
         21    1    1    2  503  505 -0.35974875486E+02  0.76023025461E+02  0.11379203839E+03  0.14150024759E+03  0.00000000000E+00 0. -1.
         21    1    1    2  504  503  0.64108991033E+02  0.77158899997E+02 -0.12142088642E+03  0.15750076266E+03  0.00000000000E+00 0. -1.
         21    1    1    2  505  501  0.49559357508E+02 -0.50383017332E+02  0.26367419648E+02  0.75430890032E+02  0.00000000000E+00 0. -1.
         -3    1    1    2    0  502 -0.77693473055E+02 -0.10279890813E+03  0.13433616396E+03  0.18614536313E+03  0.00000000000E+00 0. -1.
<scales pt_clust_3="57.08849" pt_clust_4="103.19254" pt_clust_5="70.67233" pt_clust_6="14000.00000"></scales>
<clustering>
<clus scale="   70.672">  1  5  2 -1</clus>
<clus scale="   57.088">  1  3  2 -1</clus>
<clus scale="  103.193">  2  4  1 -1</clus>
<clus scale="  103.193">  2  3  1 -1</clus>
</clustering>
</event>
<event>
 6    0  0.2117869E+002  0.1562780E+03  0.7546771E-02  0.1192964E+00
          2   -1    0    0  503    0 -0.00000000000E+00  0.00000000000E+00  0.20300904694E+04  0.20300904694E+04  0.00000000000E+00 0.  1.
         21   -1    0    0  501  502  0.00000000000E+00 -0.00000000000E+00 -0.41851396948E+03  0.41851396948E+03  0.00000000000E+00 0.  1.
         21    1    1    2  503  504 -0.88036536219E+01 -0.58061021938E+02  0.39699147205E+03  0.40131136972E+03  0.00000000000E+00 0.  1.
         21    1    1    2  504  505 -0.10428591745E+03 -0.14246318730E+03 -0.10978158825E+03  0.20790216313E+03  0.00000000000E+00 0.  1.
         21    1    1    2  505  502  0.11655035222E+03  0.92986107405E+02 -0.23391862411E+03  0.27739560825E+03  0.00000000000E+00 0.  1.
          2    1    1    2  501    0 -0.34607811467E+01  0.10753810183E+03  0.15582852402E+04  0.15619952978E+04  0.00000000000E+00 0.  1.
<scales pt_clust_3="58.72467" pt_clust_4="156.27801" pt_clust_5="14000.00000" pt_clust_6="53.33787"></scales>
<clustering>
<clus scale="   58.725">  1  3  2 -1</clus>
<clus scale="   53.338">  1  6  2 -1</clus>
<clus scale="  156.278">  1  4  2 -1</clus>
<clus scale="  156.278">  2  3  1 -1</clus>
</clustering>
</event>
<event>
 6    0  0.2117869E+002  0.1168947E+03  0.7546771E-02  0.1248310E+00
         21   -1    0    0  504  502  0.00000000000E+00  0.00000000000E+00  0.17211814674E+04  0.17211814674E+04  0.00000000000E+00 0.  1.
         -4   -1    0    0    0  501 -0.00000000000E+00 -0.00000000000E+00 -0.13153900311E+03  0.13153900311E+03  0.00000000000E+00 0.  1.
         21    1    1    2  503  501 -0.27224534619E+02  0.40128212612E+02 -0.27662959819E+02  0.55827305851E+02  0.00000000000E+00 0. -1.
         21    1    1    2  504  505  0.23067043597E+02  0.41586317112E+02  0.16145776609E+04  0.16152778502E+04  0.00000000000E+00 0.  1.
         21    1    1    2  505  503 -0.18524547647E+02  0.46593776142E+02  0.99447684305E+01  0.51117876128E+02  0.00000000000E+00 0. -1.
         -4    1    1    2    0  502  0.22682038669E+02 -0.12830830587E+03 -0.72170052632E+01  0.13049743828E+03  0.00000000000E+00 0.  1.
<scales pt_clust_3="38.20987" pt_clust_4="47.55534" pt_clust_5="38.20987" pt_clust_6="110.24844"></scales>
<clustering>
<clus scale="   38.210">  3  5 -1 -1</clus>
<clus scale="   47.555">  1  4  2 -1</clus>
<clus scale="  110.248">  1  6  2 -1</clus>
<clus scale="   47.555">  1  3  2 -1</clus>
</clustering>
</event>
<event>
 6    0  0.2117869E+002  0.7530439E+02  0.7546771E-02  0.1342931E+00
          2   -1    0    0  503    0 -0.00000000000E+00  0.00000000000E+00  0.18520312439E+04  0.18520312439E+04  0.00000000000E+00 0.  1.
         21   -1    0    0  505  502  0.00000000000E+00 -0.00000000000E+00 -0.17983662660E+03  0.17983662660E+03  0.00000000000E+00 0.  1.
         21    1    1    2  503  504  0.20629836280E+02 -0.53467524016E+02  0.28127527591E+03  0.28705425812E+03  0.00000000000E+00 0.  1.
         21    1    1    2  504  502  0.36557175864E+02 -0.22468186807E+02 -0.16031940368E+03  0.16596251902E+03  0.00000000000E+00 0.  1.
         21    1    1    2  505  501  0.15736794917E+02 -0.31494935134E+02  0.16945226148E+02  0.39073243307E+02  0.00000000000E+00 0.  1.
          2    1    1    2  501    0 -0.72923807061E+02  0.10743064596E+03  0.15342935189E+04  0.15397778500E+04  0.00000000000E+00 0.  1.
<scales pt_clust_3="57.90947" pt_clust_4="14000.00000" pt_clust_5="35.20764" pt_clust_6="75.30439"></scales>
<clustering>
<clus scale="   35.208">  2  5  1 -1</clus>
<clus scale="   57.909">  1  3  2 -1</clus>
<clus scale="   75.304">  1  6  2 -1</clus>
<clus scale="   35.208">  2  3  1 -1</clus>
</clustering>
</event>
<event>
 6    0  0.2117869E+002  0.1185549E+03  0.7546771E-02  0.1245500E+00
          2   -1    0    0  505    0 -0.00000000000E+00  0.00000000000E+00  0.59819652547E+03  0.59819652547E+03  0.00000000000E+00 0.  1.
         21   -1    0    0  501  502  0.00000000000E+00 -0.00000000000E+00 -0.87332767118E+02  0.87332767118E+02  0.00000000000E+00 0. -1.
         21    1    1    2  503  504  0.41348006011E+02 -0.21391836652E+02  0.13888994394E+02  0.48581606002E+02  0.00000000000E+00 0. -1.
         21    1    1    2  504  502 -0.48952706161E+01 -0.42558839570E+02 -0.31354595489E+02  0.53087937973E+02  0.00000000000E+00 0. -1.
         21    1    1    2  505  503  0.26427692302E+02 -0.79667952003E+02  0.11979286670E+03  0.14627281501E+03  0.00000000000E+00 0. -1.
          2    1    1    2  501    0 -0.62880427697E+02  0.14361862823E+03  0.40853649274E+03  0.43758693361E+03  0.00000000000E+00 0.  1.
<scales pt_clust_3="54.61776" pt_clust_4="42.83945" pt_clust_5="14000.00000" pt_clust_6="118.55492"></scales>
<clustering>
<clus scale="   42.839">  2  4  1 -1</clus>
<clus scale="   54.618">  2  3  1 -1</clus>
<clus scale="  118.555">  2  6  1 -1</clus>
<clus scale="   42.839">  2  3  1 -1</clus>
</clustering>
</event>
<event>
 6    0  0.2117869E+002  0.7823437E+02  0.7546771E-02  0.1334138E+00
          2   -1    0    0  504    0 -0.00000000000E+00  0.00000000000E+00  0.38201162926E+03  0.38201162926E+03  0.00000000000E+00 0.  1.
         21   -1    0    0  505  502  0.00000000000E+00 -0.00000000000E+00 -0.18058997872E+03  0.18058997872E+03  0.00000000000E+00 0.  1.
         21    1    1    2  503  502 -0.17082094885E+02  0.27199390618E+02 -0.92170187360E+02  0.97606087175E+02  0.00000000000E+00 0.  1.
         21    1    1    2  504  503  0.11325438756E+03 -0.15156749745E+02  0.19416674217E+03  0.22529315819E+03  0.00000000000E+00 0.  1.
         21    1    1    2  505  501 -0.34144364710E+02 -0.27126569403E+02 -0.56409283210E+02  0.71300039560E+02  0.00000000000E+00 0.  1.
          2    1    1    2  501    0 -0.62027927969E+02  0.15083928530E+02  0.15583437894E+03  0.16840232305E+03  0.00000000000E+00 0.  1.
<scales pt_clust_3="32.11861" pt_clust_4="78.23437" pt_clust_5="47.37135" pt_clust_6="14000.00000"></scales>
<clustering>
<clus scale="   32.119">  2  3  1 -1</clus>
<clus scale="   47.371">  2  5  1 -1</clus>
<clus scale="   78.234">  2  4  1 -1</clus>
<clus scale="   32.119">  2  3  1 -1</clus>
</clustering>
</event>
<event>
 6    0  0.2117869E+002  0.1144167E+03  0.7546771E-02  0.1252603E+00
         21   -1    0    0  501  502  0.00000000000E+00  0.00000000000E+00  0.10357471054E+04  0.10357471054E+04  0.00000000000E+00 0.  1.
          1   -1    0    0  504    0 -0.00000000000E+00 -0.00000000000E+00 -0.38076403908E+03  0.38076403908E+03  0.00000000000E+00 0. -1.
         21    1    1    2  503  505 -0.90751247887E+02  0.43472859658E+01  0.52852236286E+03  0.53627472058E+03  0.00000000000E+00 0.  1.
         21    1    1    2  504  503  0.96147275381E+01  0.40315812619E+02 -0.22638609664E+03  0.23014880509E+03  0.00000000000E+00 0. -1.
         21    1    1    2  505  502 -0.56938171740E+01  0.59630631947E+02  0.46817656088E+03  0.47199313976E+03  0.00000000000E+00 0.  1.
          1    1    1    2  501    0  0.86830337523E+02 -0.10429373053E+03 -0.11532976079E+03  0.17809447905E+03  0.00000000000E+00 0. -1.
<scales pt_clust_3="14000.00000" pt_clust_4="41.44644" pt_clust_5="60.39286" pt_clust_6="114.41673"></scales>
<clustering>
<clus scale="   41.446">  2  4  1 -1</clus>
<clus scale="   60.393">  1  5  2 -1</clus>
<clus scale="  114.417">  2  6  1 -1</clus>
<clus scale="   60.393">  1  3  2 -1</clus>
</clustering>
</event>
<event>
 6    0  0.2117869E+002  0.2215058E+03  0.7546771E-02  0.1132765E+00
         21   -1    0    0  503  502  0.00000000000E+00  0.00000000000E+00  0.67831550494E+03  0.67831550494E+03  0.00000000000E+00 0.  1.
          2   -1    0    0  504    0 -0.00000000000E+00 -0.00000000000E+00 -0.15091964268E+04  0.15091964268E+04  0.00000000000E+00 0.  1.
         21    1    1    2  503  501 -0.91317630167E+02 -0.51429575216E+01 -0.10898190956E+02  0.92109338058E+02  0.00000000000E+00 0.  1.
         21    1    1    2  504  505 -0.38789101721E+02  0.56673522090E+02  0.37406336475E+03  0.38031550503E+03  0.00000000000E+00 0.  1.
         21    1    1    2  505  502 -0.54884810521E+02  0.62836331279E+02  0.24545604339E+03  0.25924778917E+03  0.00000000000E+00 0.  1.
          2    1    1    2  501    0  0.18499154241E+03 -0.11436689585E+03 -0.14395021391E+04  0.14558392995E+04  0.00000000000E+00 0.  1.
<scales pt_clust_3="91.46234" pt_clust_4="42.35643" pt_clust_5="42.35643" pt_clust_6="216.53020"></scales>
<clustering>
<clus scale="   42.356">  4  5 -1 -1</clus>
<clus scale="   91.462">  1  3  2 -1</clus>
<clus scale="  216.530">  2  6  1 -1</clus>
<clus scale="   91.462">  1  3  2 -1</clus>
</clustering>
</event>
<event>
 6    0  0.2117869E+002  0.4556977E+03  0.7546771E-02  0.1026036E+00
          2   -1    0    0  505    0 -0.00000000000E+00  0.00000000000E+00  0.19368760429E+04  0.19368760429E+04  0.00000000000E+00 0.  1.
         21   -1    0    0  504  502  0.00000000000E+00 -0.00000000000E+00 -0.72154288165E+03  0.72154288165E+03  0.00000000000E+00 0. -1.
         21    1    1    2  503  501 -0.10942504365E+03 -0.36445806739E+03  0.26503583041E+03  0.46373215811E+03  0.00000000000E+00 0. -1.
         21    1    1    2  504  503 -0.17872939933E+02 -0.86969396382E+02 -0.55495165841E+03  0.56200930692E+03  0.00000000000E+00 0. -1.
         21    1    1    2  505  502 -0.41433221011E+02 -0.27775499017E+01 -0.92620732376E+01  0.42546593136E+02  0.00000000000E+00 0.  1.
          2    1    1    2  501    0  0.16873120459E+03  0.45420501368E+03  0.15145110625E+04  0.15901308664E+04  0.00000000000E+00 0.  1.
<scales pt_clust_3="14000.00000" pt_clust_4="102.81776" pt_clust_5="41.52622" pt_clust_6="455.69772"></scales>
<clustering>
<clus scale="   41.526">  2  5  1 -1</clus>
<clus scale="  102.818">  2  4  1 -1</clus>
<clus scale="  455.698">  1  6  2 -1</clus>
<clus scale="   41.526">  2  3  1 -1</clus>
</clustering>
</event>
<event>
 6    0  0.2117869E+002  0.7579357E+02  0.7546771E-02  0.1341431E+00
         21   -1    0    0  504  502  0.00000000000E+00  0.00000000000E+00  0.61913105760E+02  0.61913105760E+02  0.00000000000E+00 0. -1.
          2   -1    0    0  505    0 -0.00000000000E+00 -0.00000000000E+00 -0.17523756731E+04  0.17523756731E+04  0.00000000000E+00 0.  1.
         21    1    1    2  503  501 -0.41765806269E+02  0.13869111363E+02 -0.24007889705E+03  0.24407910937E+03  0.00000000000E+00 0.  1.
         21    1    1    2  504  503  0.62213305304E+02 -0.11348840202E+03 -0.83345093051E+02  0.15393673144E+03  0.00000000000E+00 0. -1.
         21    1    1    2  505  502 -0.19410589950E+02  0.56349958517E+02 -0.12315362052E+02  0.60858499567E+02  0.00000000000E+00 0. -1.
          2    1    1    2  501    0 -0.10369090856E+01  0.43269332140E+02 -0.13547232151E+04  0.13554144384E+04  0.00000000000E+00 0.  1.
<scales pt_clust_3="58.44877" pt_clust_4="75.79357" pt_clust_5="14000.00000" pt_clust_6="43.28175"></scales>
<clustering>
<clus scale="   43.282">  2  6  1 -1</clus>
<clus scale="   58.449">  2  3  1 -1</clus>
<clus scale="   75.794">  2  4  1 -1</clus>
<clus scale="   75.794">  1  3  2 -1</clus>
</clustering>
</event>
<event>
 6    0  0.2117869E+002  0.6340070E+02  0.7546771E-02  0.1384090E+00
          1   -1    0    0  505    0 -0.00000000000E+00  0.00000000000E+00  0.58353663955E+03  0.58353663955E+03  0.00000000000E+00 0. -1.
         21   -1    0    0  503  502  0.00000000000E+00 -0.00000000000E+00 -0.27578131999E+03  0.27578131999E+03  0.00000000000E+00 0.  1.
         21    1    1    2  503  501 -0.47505480490E+02  0.21275536780E+02 -0.20662218075E+03  0.21307779030E+03  0.00000000000E+00 0.  1.
         21    1    1    2  504  502  0.50266322081E+02  0.44369458146E+02 -0.28723657916E+02  0.72941075368E+02  0.00000000000E+00 0.  1.
         21    1    1    2  505  504 -0.29422854186E+02  0.24472790605E+02  0.22733823192E+02  0.44513464765E+02  0.00000000000E+00 0.  1.
          1    1    1    2  501    0  0.26662012594E+02 -0.90117785531E+02  0.52036733503E+03  0.52878562911E+03  0.00000000000E+00 0. -1.
<scales pt_clust_3="52.26845" pt_clust_4="63.40070" pt_clust_5="38.27038" pt_clust_6="14000.00000"></scales>
<clustering>
<clus scale="   38.270">  1  5  2 -1</clus>
<clus scale="   52.268">  2  3  1 -1</clus>
<clus scale="   63.401">  2  4  1 -1</clus>
<clus scale="   52.268">  2  3  1 -1</clus>
</clustering>
</event>
<event>
 6    0  0.2117869E+002  0.8680565E+02  0.7546771E-02  0.1310777E+00
         21   -1    0    0  505  502  0.00000000000E+00  0.00000000000E+00  0.33398779070E+03  0.33398779070E+03  0.00000000000E+00 0. -1.
          1   -1    0    0  503    0 -0.00000000000E+00 -0.00000000000E+00 -0.16487415310E+04  0.16487415310E+04  0.00000000000E+00 0. -1.
         21    1    1    2  503  504  0.27626012346E+02  0.18688378900E+02 -0.54208743735E+03  0.54311254984E+03  0.00000000000E+00 0. -1.
         21    1    1    2  504  502  0.59900980915E+02  0.60749080084E+02  0.30061711348E+03  0.31248876326E+03  0.00000000000E+00 0. -1.
         21    1    1    2  505  501 -0.11980591156E+03 -0.64982295791E+02 -0.14810590990E+03  0.20127472707E+03  0.00000000000E+00 0.  1.
          1    1    1    2  501    0  0.32278918303E+02 -0.14455163193E+02 -0.92517750649E+03  0.92585328148E+03  0.00000000000E+00 0. -1.
<scales pt_clust_3="33.35344" pt_clust_4="86.80565" pt_clust_5="14000.00000" pt_clust_6="55.40637"></scales>
<clustering>
<clus scale="   33.353">  2  3  1 -1</clus>
<clus scale="   55.406">  2  6  1 -1</clus>
<clus scale="   86.806">  1  4  2 -1</clus>
<clus scale="   86.806">  1  3  2 -1</clus>
</clustering>
</event>
<event>
 6    0  0.2117869E+002  0.7320010E+02  0.7546771E-02  0.1349537E+00
          2   -1    0    0  504    0 -0.00000000000E+00  0.00000000000E+00  0.13591278448E+04  0.13591278448E+04  0.00000000000E+00 0. -1.
         21   -1    0    0  505  502  0.00000000000E+00 -0.00000000000E+00 -0.45591488071E+02  0.45591488071E+02  0.00000000000E+00 0. -1.
         21    1    1    2  503  501  0.14187178482E+02  0.59706972164E+02  0.66921078617E+02  0.90799941198E+02  0.00000000000E+00 0. -1.
         21    1    1    2  504  502  0.45972472236E+02  0.38982901766E+02  0.58581082970E+03  0.58890361098E+03  0.00000000000E+00 0. -1.
         21    1    1    2  505  503  0.24610460016E+02 -0.26964666617E+02 -0.15496077199E+02  0.39659757898E+02  0.00000000000E+00 0. -1.
          2    1    1    2  501    0 -0.84770110734E+02 -0.71725207313E+02  0.67630052562E+03  0.68535602280E+03  0.00000000000E+00 0. -1.
<scales pt_clust_3="51.77197" pt_clust_4="14000.00000" pt_clust_5="36.50710" pt_clust_6="73.20010"></scales>
<clustering>
<clus scale="   36.507">  2  5  1 -1</clus>
<clus scale="   51.772">  2  3  1 -1</clus>
<clus scale="   73.200">  2  6  1 -1</clus>
<clus scale="   36.507">  2  3  1 -1</clus>
</clustering>
</event>
<event>
 6    0  0.2117869E+002  0.1720541E+03  0.7546771E-02  0.1175723E+00
         21   -1    0    0  503  502  0.00000000000E+00  0.00000000000E+00  0.34366807516E+03  0.34366807516E+03  0.00000000000E+00 0.  1.
          2   -1    0    0  504    0 -0.00000000000E+00 -0.00000000000E+00 -0.95467302686E+03  0.95467302686E+03  0.00000000000E+00 0.  1.
         21    1    1    2  503  501 -0.16635852095E+03  0.76740392101E+01  0.27272729891E+03  0.31955316920E+03  0.00000000000E+00 0.  1.
         21    1    1    2  504  505 -0.26666875887E+01 -0.39657095196E+02 -0.64525106024E+02  0.75784468920E+02  0.00000000000E+00 0.  1.
         21    1    1    2  505  502  0.54859802072E+01  0.57052462020E+02  0.93637747398E+01  0.58075465377E+02  0.00000000000E+00 0.  1.
          2    1    1    2  501    0  0.16353922833E+03 -0.25069406034E+02 -0.82857091933E+03  0.84492799852E+03  0.00000000000E+00 0.  1.
<scales pt_clust_3="172.05407" pt_clust_4="39.74665" pt_clust_5="56.22162" pt_clust_6="14000.00000"></scales>
<clustering>
<clus scale="   39.747">  2  4  1 -1</clus>
<clus scale="   56.222">  1  5  2 -1</clus>
<clus scale="  172.054">  1  3  2 -1</clus>
<clus scale="   56.222">  1  3  2 -1</clus>
</clustering>
</event>
<event>
 6    0  0.2117869E+002  0.1258161E+03  0.7546771E-02  0.1233799E+00
         -2   -1    0    0    0  501 -0.00000000000E+00  0.00000000000E+00  0.74539897583E+02  0.74539897583E+02  0.00000000000E+00 0. -1.
         21   -1    0    0  505  502  0.00000000000E+00 -0.00000000000E+00 -0.12488904400E+04  0.12488904400E+04  0.00000000000E+00 0.  1.
         21    1    1    2  503  502  0.32449983553E+02 -0.78397479575E+01 -0.57173886026E+03  0.57271265693E+03  0.00000000000E+00 0.  1.
         21    1    1    2  504  503  0.62546477740E+02  0.77719881354E+02 -0.20489715229E+03  0.22789314349E+03  0.00000000000E+00 0.  1.
         21    1    1    2  505  501  0.78966412858E+02 -0.29644605423E+02  0.27126320080E+01  0.84391085802E+02  0.00000000000E+00 0.  1.
         -2    1    1    2    0  504 -0.17396287415E+03 -0.40235527974E+02 -0.40042716183E+03  0.43843345131E+03  0.00000000000E+00 0. -1.
<scales pt_clust_3="33.38358" pt_clust_4="125.81613" pt_clust_5="86.34765" pt_clust_6="14000.00000"></scales>
<clustering>
<clus scale="   33.384">  2  3  1 -1</clus>
<clus scale="   86.348">  1  5  2 -1</clus>
<clus scale="  125.816">  2  4  1 -1</clus>
<clus scale="   33.384">  2  3  1 -1</clus>
</clustering>
</event>
<event>
 6    0  0.2117869E+002  0.1675807E+03  0.7546771E-02  0.1180395E+00
          2   -1    0    0  504    0 -0.00000000000E+00  0.00000000000E+00  0.29812065307E+04  0.29812065307E+04  0.00000000000E+00 0. -1.
         21   -1    0    0  503  502  0.00000000000E+00 -0.00000000000E+00 -0.68925176929E+02  0.68925176929E+02  0.00000000000E+00 0. -1.
         21    1    1    2  503  501 -0.19637052880E+02 -0.24170460790E+02 -0.22640774114E+02  0.38502333346E+02  0.00000000000E+00 0. -1.
         21    1    1    2  504  505 -0.79256115841E+02  0.94522680923E+00  0.57618227156E+03  0.58160848980E+03  0.00000000000E+00 0.  1.
         21    1    1    2  505  502 -0.49550587255E+02  0.17012832048E+03  0.22650194458E+03  0.28757961859E+03  0.00000000000E+00 0. -1.
          2    1    1    2  501    0  0.14844375598E+03 -0.14690308650E+03  0.21322379117E+04  0.21424412659E+04  0.00000000000E+00 0. -1.
<scales pt_clust_3="31.14201" pt_clust_4="80.64885" pt_clust_5="14000.00000" pt_clust_6="167.58069"></scales>
<clustering>
<clus scale="   31.142">  2  3  1 -1</clus>
<clus scale="   80.649">  1  4  2 -1</clus>
<clus scale="  167.581">  1  6  2 -1</clus>
<clus scale="   31.142">  2  3  1 -1</clus>
</clustering>
</event>
<event>
 6    0  0.2117869E+002  0.1321574E+03  0.7546771E-02  0.1224289E+00
         21   -1    0    0  503  502  0.00000000000E+00  0.00000000000E+00  0.60446464407E+03  0.60446464407E+03  0.00000000000E+00 0.  1.
         -1   -1    0    0    0  501 -0.00000000000E+00 -0.00000000000E+00 -0.23151667055E+04  0.23151667055E+04  0.00000000000E+00 0.  1.
         21    1    1    2  503  501  0.12204252421E+03  0.27961945993E+02 -0.64126893683E+03  0.65337745407E+03  0.00000000000E+00 0.  1.
         21    1    1    2  504  505 -0.51638109685E+02  0.31898382218E+02 -0.10040147744E+03  0.11732202620E+03  0.00000000000E+00 0. -1.
         21    1    1    2  505  502  0.49800497439E+02  0.64919402204E+01  0.58585058113E+03  0.58799926722E+03  0.00000000000E+00 0.  1.
         -1    1    1    2    0  504 -0.12020491196E+03 -0.66352268431E+02 -0.15548822283E+04  0.15609326021E+04  0.00000000000E+00 0.  1.
<scales pt_clust_3="14000.00000" pt_clust_4="44.60690" pt_clust_5="50.22186" pt_clust_6="132.15737"></scales>
<clustering>
<clus scale="   50.222">  1  5  2 -1</clus>
<clus scale="   44.607">  1  4  2 -1</clus>
<clus scale="  132.157">  2  6  1 -1</clus>
<clus scale="   50.222">  1  3  2 -1</clus>
</clustering>
</event>
<event>
 6    0  0.2117869E+002  0.9643494E+02  0.7546771E-02  0.1287977E+00
         21   -1    0    0  505  502  0.00000000000E+00  0.00000000000E+00  0.16343175523E+03  0.16343175523E+03  0.00000000000E+00 0.  1.
          1   -1    0    0  503    0 -0.00000000000E+00 -0.00000000000E+00 -0.28109143599E+03  0.28109143599E+03  0.00000000000E+00 0. -1.
         21    1    1    2  503  504 -0.40524848591E+02 -0.13412862506E+02 -0.24555463916E+02  0.49245700747E+02  0.00000000000E+00 0.  1.
         21    1    1    2  504  502 -0.32841796609E+02  0.67261237127E+02  0.27726816859E+02  0.79821262815E+02  0.00000000000E+00 0.  1.
         21    1    1    2  505  501  0.19459374050E+02  0.39619379936E+02  0.77777941258E+02  0.89430255794E+02  0.00000000000E+00 0.  1.
          1    1    1    2  501    0  0.53907271150E+02 -0.93467754557E+02 -0.19860897496E+03  0.22602597187E+03  0.00000000000E+00 0. -1.
<scales pt_clust_3="42.68686" pt_clust_4="96.43494" pt_clust_5="43.43285" pt_clust_6="14000.00000"></scales>
<clustering>
<clus scale="   42.687">  2  3  1 -1</clus>
<clus scale="   43.433">  1  5  2 -1</clus>
<clus scale="   96.435">  1  4  2 -1</clus>
<clus scale="   43.433">  1  3  2 -1</clus>
</clustering>
</event>
<event>
 6    0  0.2117869E+002  0.8132795E+02  0.7546771E-02  0.1325325E+00
         21   -1    0    0  504  502  0.00000000000E+00  0.00000000000E+00  0.26015560893E+03  0.26015560893E+03  0.00000000000E+00 0.  1.
          2   -1    0    0  503    0 -0.00000000000E+00 -0.00000000000E+00 -0.79566385568E+03  0.79566385568E+03  0.00000000000E+00 0. -1.
         21    1    1    2  503  505  0.11456295356E+02 -0.59003499792E+02 -0.11857119567E+03  0.13293527799E+03  0.00000000000E+00 0.  1.
         21    1    1    2  504  501  0.62782200847E+02 -0.41453670241E+02  0.13870234704E+03  0.15779211829E+03  0.00000000000E+00 0.  1.
         21    1    1    2  505  502 -0.69200597872E+02  0.67707262866E+02  0.81828753858E+02  0.12676332730E+03  0.00000000000E+00 0.  1.
          2    1    1    2  501    0 -0.50378983309E+01  0.32749907167E+02 -0.63746815197E+03  0.63832874102E+03  0.00000000000E+00 0. -1.
<scales pt_clust_3="33.72979" pt_clust_4="14000.00000" pt_clust_5="81.32795" pt_clust_6="33.13513"></scales>
<clustering>
<clus scale="   33.135">  2  6  1 -1</clus>
<clus scale="   33.730">  2  3  1 -1</clus>
<clus scale="   81.328">  2  5  1 -1</clus>
<clus scale="   81.328">  1  3  2 -1</clus>
</clustering>
</event>
<event>
 6    0  0.2117869E+002  0.1506627E+03  0.7546771E-02  0.1199661E+00
          3   -1    0    0  504    0 -0.00000000000E+00  0.00000000000E+00  0.60974793939E+03  0.60974793939E+03  0.00000000000E+00 0. -1.
         21   -1    0    0  503  502  0.00000000000E+00 -0.00000000000E+00 -0.52408602067E+03  0.52408602067E+03  0.00000000000E+00 0.  1.
         21    1    1    2  503  505  0.25546588461E+02 -0.19712772591E+02 -0.21303191837E+03  0.21546187559E+03  0.00000000000E+00 0.  1.
         21    1    1    2  504  502 -0.21030454330E+02  0.53265909036E+02  0.50025541461E+02  0.76040067552E+02  0.00000000000E+00 0. -1.
         21    1    1    2  505  501  0.68622859256E+02 -0.84617461811E+02 -0.28299301568E+03  0.30323960589E+03  0.00000000000E+00 0.  1.
          3    1    1    2  501    0 -0.73138993386E+02  0.51064325366E+02  0.53166131132E+03  0.53909241103E+03  0.00000000000E+00 0. -1.
<scales pt_clust_3="31.06298" pt_clust_4="57.26724" pt_clust_5="31.06298" pt_clust_6="139.43259"></scales>
<clustering>
<clus scale="   31.063">  3  5 -1 -1</clus>
<clus scale="   57.267">  1  4  2 -1</clus>
<clus scale="  139.433">  1  6  2 -1</clus>
<clus scale="  150.663">  2  3  1 -1</clus>
</clustering>
</event>
<event>
 6    0  0.2117869E+002  0.7005972E+02  0.7546771E-02  0.1359890E+00
          2   -1    0    0  503    0 -0.00000000000E+00  0.00000000000E+00  0.16897979642E+03  0.16897979642E+03  0.00000000000E+00 0.  1.
         21   -1    0    0  504  502  0.00000000000E+00 -0.00000000000E+00 -0.21847572998E+03  0.21847572998E+03  0.00000000000E+00 0.  1.
         21    1    1    2  503  505 -0.84429841569E+01 -0.42305020098E+02  0.96377724131E+02  0.10559197136E+03  0.00000000000E+00 0.  1.
         21    1    1    2  504  501  0.14930770646E+02  0.26311842236E+02 -0.35911261912E+02  0.46955933448E+02  0.00000000000E+00 0.  1.
         21    1    1    2  505  502 -0.36808834595E+02 -0.75077214118E+02 -0.11093492590E+03  0.13891737173E+03  0.00000000000E+00 0.  1.
          2    1    1    2  501    0  0.30321048106E+02  0.91070391980E+02  0.97253011455E+00  0.95990249862E+02  0.00000000000E+00 0.  1.
<scales pt_clust_3="42.39251" pt_clust_4="30.25295" pt_clust_5="70.05972" pt_clust_6="14000.00000"></scales>
<clustering>
<clus scale="   30.253">  2  4  1 -1</clus>
<clus scale="   42.393">  1  3  2 -1</clus>
<clus scale="   70.060">  2  5  1 -1</clus>
<clus scale="   30.253">  2  3  1 -1</clus>
</clustering>
</event>
<event>
 6    0  0.2117869E+002  0.1282352E+03  0.7546771E-02  0.1230098E+00
         21   -1    0    0  503  502  0.00000000000E+00  0.00000000000E+00  0.74516889559E+03  0.74516889559E+03  0.00000000000E+00 0. -1.
          2   -1    0    0  504    0 -0.00000000000E+00 -0.00000000000E+00 -0.28085396579E+03  0.28085396579E+03  0.00000000000E+00 0.  1.
         21    1    1    2  503  501 -0.12479426699E+03  0.17158513732E+02  0.64232167215E+03  0.65455721994E+03  0.00000000000E+00 0. -1.
         21    1    1    2  504  505 -0.40903370343E+02 -0.17873958610E+02 -0.84783678481E+02  0.95816680378E+02  0.00000000000E+00 0.  1.
         21    1    1    2  505  502 -0.19664150807E+02  0.46959696244E+02  0.18698002359E+02  0.54235663456E+02  0.00000000000E+00 0.  1.
          2    1    1    2  501    0  0.18536178814E+03 -0.46244251366E+02 -0.11192106623E+03  0.22141329760E+03  0.00000000000E+00 0.  1.
<scales pt_clust_3="128.23521" pt_clust_4="44.63815" pt_clust_5="51.01652" pt_clust_6="14000.00000"></scales>
<clustering>
<clus scale="   44.638">  2  4  1 -1</clus>
<clus scale="   51.017">  2  5  1 -1</clus>
<clus scale="  128.235">  1  3  2 -1</clus>
<clus scale="  128.235">  1  3  2 -1</clus>
</clustering>
</event>
<event>
 6    0  0.2117869E+002  0.1332215E+03  0.7546771E-02  0.1222752E+00
          2   -1    0    0  503    0 -0.00000000000E+00  0.00000000000E+00  0.20371145440E+04  0.20371145440E+04  0.00000000000E+00 0. -1.
         21   -1    0    0  504  502  0.00000000000E+00 -0.00000000000E+00 -0.32722841051E+03  0.32722841051E+03  0.00000000000E+00 0. -1.
         21    1    1    2  503  502  0.40232448468E+02 -0.12207265176E+02  0.17295060946E+03  0.17798758537E+03  0.00000000000E+00 0. -1.
         21    1    1    2  504  505  0.13430747928E+02 -0.38718706672E+02 -0.28486050336E+03  0.28779338007E+03  0.00000000000E+00 0. -1.
         21    1    1    2  505  501 -0.46474632252E+02 -0.94784390645E+02  0.43312499709E+02  0.11410497265E+03  0.00000000000E+00 0. -1.
          2    1    1    2  501    0 -0.71885641437E+01  0.14571036249E+03  0.17784835277E+04  0.17844570164E+04  0.00000000000E+00 0. -1.
<scales pt_clust_3="43.57505" pt_clust_4="40.98199" pt_clust_5="14000.00000" pt_clust_6="133.22148"></scales>
<clustering>
<clus scale="   40.982">  2  4  1 -1</clus>
<clus scale="   43.575">  1  3  2 -1</clus>
<clus scale="  133.221">  1  6  2 -1</clus>
<clus scale="   40.982">  2  3  1 -1</clus>
</clustering>
</event>
<event>
 6    0  0.2117869E+002  0.9518019E+02  0.7546771E-02  0.1290771E+00
          2   -1    0    0  505    0 -0.00000000000E+00  0.00000000000E+00  0.99874239319E+03  0.99874239319E+03  0.00000000000E+00 0. -1.
         21   -1    0    0  503  502  0.00000000000E+00 -0.00000000000E+00 -0.43378866216E+03  0.43378866216E+03  0.00000000000E+00 0.  1.
         21    1    1    2  503  504 -0.65212378483E+02 -0.18454524375E+02 -0.14394288519E+03  0.15909989936E+03  0.00000000000E+00 0.  1.
         21    1    1    2  504  501  0.14947901131E+03 -0.18047447752E+02 -0.24771397345E+03  0.28988255870E+03  0.00000000000E+00 0.  1.
         21    1    1    2  505  502  0.24748573729E+02 -0.45557864469E+02  0.73423629081E+02  0.89883481375E+02  0.00000000000E+00 0.  1.
          2    1    1    2  501    0 -0.10901520656E+03  0.82059836595E+02  0.88318696060E+03  0.89366511592E+03  0.00000000000E+00 0. -1.
<scales pt_clust_3="67.68034" pt_clust_4="95.18019" pt_clust_5="51.84603" pt_clust_6="14000.00000"></scales>
<clustering>
<clus scale="   51.846">  1  5  2 -1</clus>
<clus scale="   67.680">  2  3  1 -1</clus>
<clus scale="   95.180">  2  4  1 -1</clus>
<clus scale="   67.680">  2  3  1 -1</clus>
</clustering>
</event>
<event>
 6    0  0.2117869E+002  0.8249734E+02  0.7546771E-02  0.1322110E+00
          2   -1    0    0  505    0 -0.00000000000E+00  0.00000000000E+00  0.10144612072E+03  0.10144612072E+03  0.00000000000E+00 0. -1.
         21   -1    0    0  504  502  0.00000000000E+00 -0.00000000000E+00 -0.37426367175E+03  0.37426367175E+03  0.00000000000E+00 0. -1.
         21    1    1    2  503  502 -0.92838732674E+01  0.42756933981E+02 -0.77556346249E+02  0.89046799773E+02  0.00000000000E+00 0. -1.
         21    1    1    2  504  501 -0.57046035875E+02 -0.50841193308E+02 -0.18029942807E+03  0.19582380067E+03  0.00000000000E+00 0. -1.
         21    1    1    2  505  503  0.29552984986E+02 -0.75343096806E+02 -0.47727160667E+02  0.93956601808E+02  0.00000000000E+00 0. -1.
          2    1    1    2  501    0  0.36776924157E+02  0.83427356133E+02  0.32765383963E+02  0.96882590221E+02  0.00000000000E+00 0. -1.
<scales pt_clust_3="43.75324" pt_clust_4="67.18162" pt_clust_5="14000.00000" pt_clust_6="82.49734"></scales>
<clustering>
<clus scale="   43.753">  2  3  1 -1</clus>
<clus scale="   67.182">  2  4  1 -1</clus>
<clus scale="   82.497">  1  6  2 -1</clus>
<clus scale="   43.753">  2  3  1 -1</clus>
</clustering>
</event>
<event>
 6    0  0.2117869E+002  0.7984201E+02  0.7546771E-02  0.1329500E+00
         21   -1    0    0  504  502  0.00000000000E+00  0.00000000000E+00  0.98845937786E+02  0.98845937786E+02  0.00000000000E+00 0.  1.
          1   -1    0    0  503    0 -0.00000000000E+00 -0.00000000000E+00 -0.33301943881E+03  0.33301943881E+03  0.00000000000E+00 0.  1.
         21    1    1    2  503  502 -0.40199273713E+02 -0.51889181179E+02 -0.30110327292E+01  0.65707952704E+02  0.00000000000E+00 0.  1.
         21    1    1    2  504  505  0.54618211060E+02  0.81504089508E+02  0.10826548386E+02  0.98708053045E+02  0.00000000000E+00 0.  1.
         21    1    1    2  505  501 -0.53623919030E+02  0.14529203262E+00 -0.67818533105E+02  0.86457499584E+02  0.00000000000E+00 0.  1.
          1    1    1    2  501    0  0.39204981682E+02 -0.29760200361E+02 -0.17417048358E+03  0.18099187126E+03  0.00000000000E+00 0.  1.
<scales pt_clust_3="79.84201" pt_clust_4="14000.00000" pt_clust_5="37.16585" pt_clust_6="49.22093"></scales>
<clustering>
<clus scale="   49.221">  2  6  1 -1</clus>
<clus scale="   37.166">  2  5  1 -1</clus>
<clus scale="   79.842">  1  3  2 -1</clus>
<clus scale="   79.842">  1  3  2 -1</clus>
</clustering>
</event>
<event>
 6    0  0.2117869E+002  0.1024959E+03  0.7546771E-02  0.1275133E+00
         -2   -1    0    0    0  501 -0.00000000000E+00  0.00000000000E+00  0.42265781348E+03  0.42265781348E+03  0.00000000000E+00 0. -1.
         21   -1    0    0  503  502  0.00000000000E+00 -0.00000000000E+00 -0.47182707748E+03  0.47182707748E+03  0.00000000000E+00 0.  1.
         21    1    1    2  503  501  0.53134306143E+02 -0.23557546168E+02 -0.29083528323E+03  0.29658620070E+03  0.00000000000E+00 0.  1.
         21    1    1    2  504  505 -0.54550417932E+01  0.92670815991E+02  0.66608296534E+01  0.93069889165E+02  0.00000000000E+00 0. -1.
         21    1    1    2  505  502 -0.14168875029E+02  0.30605439850E+02 -0.12515490557E+03  0.12961944436E+03  0.00000000000E+00 0.  1.
         -2    1    1    2    0  504 -0.33510389321E+02 -0.99718709673E+02  0.36016009515E+03  0.37520935674E+03  0.00000000000E+00 0. -1.
<scales pt_clust_3="41.13075" pt_clust_4="14000.00000" pt_clust_5="33.72610" pt_clust_6="102.49590"></scales>
<clustering>
<clus scale="   33.726">  2  5  1 -1</clus>
<clus scale="   41.131">  2  3  1 -1</clus>
<clus scale="  102.496">  1  6  2 -1</clus>
<clus scale="   33.726">  2  3  1 -1</clus>
</clustering>
</event>
<event>
 6    0  0.2117869E+002  0.7300177E+02  0.7546771E-02  0.1350173E+00
          1   -1    0    0  504    0 -0.00000000000E+00  0.00000000000E+00  0.23152602616E+04  0.23152602616E+04  0.00000000000E+00 0.  1.
         21   -1    0    0  501  502  0.00000000000E+00 -0.00000000000E+00 -0.22668795942E+03  0.22668795942E+03  0.00000000000E+00 0.  1.
         21    1    1    2  503  502 -0.23968185096E+02 -0.68901608665E+02 -0.21540139493E+03  0.22741958252E+03  0.00000000000E+00 0.  1.
         21    1    1    2  504  505 -0.24544081283E+02  0.30148644279E+02  0.65212008505E+03  0.65327785666E+03  0.00000000000E+00 0.  1.
         21    1    1    2  505  503 -0.35082405482E+01  0.82471587277E+02  0.45207566597E+03  0.45955008239E+03  0.00000000000E+00 0.  1.
          1    1    1    2  501    0  0.52020506928E+02 -0.43718622891E+02  0.11997779461E+04  0.12017006995E+04  0.00000000000E+00 0.  1.
<scales pt_clust_3="73.00177" pt_clust_4="38.87612" pt_clust_5="14000.00000" pt_clust_6="40.71435"></scales>
<clustering>
<clus scale="   38.876">  1  4  2 -1</clus>
<clus scale="   40.714">  1  6  2 -1</clus>
<clus scale="   73.002">  2  3  1 -1</clus>
<clus scale="   73.002">  2  3  1 -1</clus>
</clustering>
</event>
<event>
 6    0  0.2117869E+002  0.9011973E+02  0.7546771E-02  0.1302562E+00
         21   -1    0    0  501  502  0.00000000000E+00  0.00000000000E+00  0.29744345643E+03  0.29744345643E+03  0.00000000000E+00 0. -1.
          2   -1    0    0  505    0 -0.00000000000E+00 -0.00000000000E+00 -0.18860752104E+04  0.18860752104E+04  0.00000000000E+00 0. -1.
         21    1    1    2  503  502 -0.27986137980E+02 -0.34904881247E+02  0.18139792488E+03  0.18683356713E+03  0.00000000000E+00 0. -1.
         21    1    1    2  504  503 -0.59461735568E+02  0.90131584052E+01  0.95652438352E+02  0.11298815860E+03  0.00000000000E+00 0. -1.
         21    1    1    2  505  504  0.11946465051E+03  0.24299207683E+02 -0.41192372683E+03  0.42958516145E+03  0.00000000000E+00 0.  1.
          2    1    1    2  501    0 -0.32016776958E+02  0.15925151594E+01 -0.14537583903E+04  0.14541117796E+04  0.00000000000E+00 0. -1.
<scales pt_clust_3="44.85740" pt_clust_4="14000.00000" pt_clust_5="90.11973" pt_clust_6="32.05636"></scales>
<clustering>
<clus scale="   32.056">  2  6  1 -1</clus>
<clus scale="   44.857">  1  3  2 -1</clus>
<clus scale="   90.120">  2  5  1 -1</clus>
<clus scale="   44.857">  1  3  2 -1</clus>
</clustering>
</event>
<event>
 6    0  0.2117869E+002  0.1242534E+03  0.7546771E-02  0.1236241E+00
         21   -1    0    0  505  502  0.00000000000E+00  0.00000000000E+00  0.26190224451E+03  0.26190224451E+03  0.00000000000E+00 0. -1.
          2   -1    0    0  504    0 -0.00000000000E+00 -0.00000000000E+00 -0.15776296530E+03  0.15776296530E+03  0.00000000000E+00 0. -1.
         21    1    1    2  503  502  0.28576062097E+02  0.34045023827E+02  0.33323941195E+02  0.55553037983E+02  0.00000000000E+00 0. -1.
         21    1    1    2  504  503 -0.30962133292E+02  0.25704025977E+02 -0.11507231047E+02  0.41854115876E+02  0.00000000000E+00 0.  1.
         21    1    1    2  505  501 -0.12575788386E+03 -0.81719226705E+02  0.11406588324E+03  0.18842532496E+03  0.00000000000E+00 0. -1.
          2    1    1    2  501    0  0.12814395505E+03  0.21970176901E+02 -0.31743314179E+02  0.13383273099E+03  0.00000000000E+00 0. -1.
<scales pt_clust_3="44.56069" pt_clust_4="40.24116" pt_clust_5="124.25345" pt_clust_6="14000.00000"></scales>
<clustering>
<clus scale="   40.241">  2  4  1 -1</clus>
<clus scale="   44.561">  1  3  2 -1</clus>
<clus scale="  124.253">  1  5  2 -1</clus>
<clus scale="   44.561">  1  3  2 -1</clus>
</clustering>
</event>
<event>
 6    0  0.2117869E+002  0.7008128E+02  0.7546771E-02  0.1359817E+00
          3   -1    0    0  504    0 -0.00000000000E+00  0.00000000000E+00  0.12091136095E+03  0.12091136095E+03  0.00000000000E+00 0. -1.
         21   -1    0    0  505  502  0.00000000000E+00 -0.00000000000E+00 -0.30231392973E+03  0.30231392973E+03  0.00000000000E+00 0.  1.
         21    1    1    2  503  502 -0.58577274094E+02 -0.31148779189E+02 -0.18672412732E+03  0.19816014536E+03  0.00000000000E+00 0.  1.
         21    1    1    2  504  503 -0.33408436024E+02 -0.52314078743E+02  0.28577790710E+02  0.68334299982E+02  0.00000000000E+00 0.  1.
         21    1    1    2  505  501  0.26191459995E+02  0.30642464505E+02 -0.53600373653E+02  0.67066782116E+02  0.00000000000E+00 0.  1.
          3    1    1    2  501    0  0.65794250122E+02  0.52820393427E+02  0.30344141485E+02  0.89664063221E+02  0.00000000000E+00 0. -1.
<scales pt_clust_3="38.35169" pt_clust_4="70.08128" pt_clust_5="40.31071" pt_clust_6="14000.00000"></scales>
<clustering>
<clus scale="   40.311">  2  5  1 -1</clus>
<clus scale="   38.352">  2  3  1 -1</clus>
<clus scale="   70.081">  1  4  2 -1</clus>
<clus scale="   40.311">  2  3  1 -1</clus>
</clustering>
</event>
<event>
 6    0  0.2117869E+002  0.2640306E+03  0.7546771E-02  0.1104745E+00
          2   -1    0    0  503    0 -0.00000000000E+00  0.00000000000E+00  0.41529440756E+04  0.41529440756E+04  0.00000000000E+00 0. -1.
         21   -1    0    0  505  502  0.00000000000E+00 -0.00000000000E+00 -0.11792953484E+03  0.11792953484E+03  0.00000000000E+00 0. -1.
         21    1    1    2  503  504 -0.16310812988E+03  0.13530111567E+03  0.14334357264E+04  0.14490164373E+04  0.00000000000E+00 0. -1.
         21    1    1    2  504  502 -0.21263236224E+02  0.14268450994E+03 -0.26564655831E+02  0.14668563505E+03  0.00000000000E+00 0. -1.
         21    1    1    2  505  501 -0.31694811751E+02 -0.14214609866E+02  0.11773566692E+02  0.36677419460E+02  0.00000000000E+00 0.  1.
          2    1    1    2  501    0  0.21606617785E+03 -0.26377101575E+03  0.26163699035E+04  0.26384941186E+04  0.00000000000E+00 0. -1.
<scales pt_clust_3="264.03063" pt_clust_4="139.28531" pt_clust_5="34.73638" pt_clust_6="14000.00000"></scales>
<clustering>
<clus scale="   34.736">  2  5  1 -1</clus>
<clus scale="  139.285">  2  4  1 -1</clus>
<clus scale="  264.031">  1  3  2 -1</clus>
<clus scale="   34.736">  2  3  1 -1</clus>
</clustering>
</event>
<event>
 6    0  0.2117869E+002  0.7957240E+02  0.7546771E-02  0.1330269E+00
         -2   -1    0    0    0  501 -0.00000000000E+00  0.00000000000E+00  0.79027794779E+02  0.79027794779E+02  0.00000000000E+00 0.  1.
         21   -1    0    0  504  502  0.00000000000E+00 -0.00000000000E+00 -0.49563250932E+03  0.49563250932E+03  0.00000000000E+00 0.  1.
         21    1    1    2  503  505  0.37010807296E+02  0.54649830017E+02 -0.10357629657E+03  0.12281878109E+03  0.00000000000E+00 0.  1.
         21    1    1    2  504  501  0.41690024701E+02  0.17551430057E+02  0.35525266758E+02  0.57516566612E+02  0.00000000000E+00 0.  1.
         21    1    1    2  505  502 -0.31262053694E+02  0.20724846816E+02 -0.24311314144E+03  0.24598950144E+03  0.00000000000E+00 0.  1.
         -2    1    1    2    0  503 -0.47438778303E+02 -0.92926106890E+02 -0.10544054329E+03  0.14833545496E+03  0.00000000000E+00 0.  1.
<scales pt_clust_3="14000.00000" pt_clust_4="44.34541" pt_clust_5="37.50780" pt_clust_6="79.57240"></scales>
<clustering>
<clus scale="   37.508">  2  5  1 -1</clus>
<clus scale="   44.345">  1  4  2 -1</clus>
<clus scale="   79.572">  1  6  2 -1</clus>
<clus scale="   37.508">  2  3  1 -1</clus>
</clustering>
</event>
<event>
 6    0  0.2117869E+002  0.1134478E+03  0.7546771E-02  0.1254315E+00
         21   -1    0    0  504  502  0.00000000000E+00  0.00000000000E+00  0.47799973798E+02  0.47799973798E+02  0.00000000000E+00 0. -1.
          2   -1    0    0  503    0 -0.00000000000E+00 -0.00000000000E+00 -0.17697316626E+04  0.17697316626E+04  0.00000000000E+00 0. -1.
         21    1    1    2  503  505 -0.35621203562E+02 -0.17285256620E+02 -0.36835710056E+03  0.37047888438E+03  0.00000000000E+00 0. -1.
         21    1    1    2  504  501 -0.81410617791E+02  0.30856192005E+00 -0.15188331854E+03  0.17232622072E+03  0.00000000000E+00 0. -1.
         21    1    1    2  505  502  0.12248227947E+02  0.95022564337E+02 -0.36960902634E+02  0.10269087177E+03  0.00000000000E+00 0. -1.
          2    1    1    2  501    0  0.10478359341E+03 -0.78045869638E+02 -0.11647303671E+04  0.11720356595E+04  0.00000000000E+00 0. -1.
<scales pt_clust_3="39.59356" pt_clust_4="85.55098" pt_clust_5="113.44779" pt_clust_6="14000.00000"></scales>
<clustering>
<clus scale="   39.594">  2  3  1 -1</clus>
<clus scale="   85.551">  1  4  2 -1</clus>
<clus scale="  113.448">  1  5  2 -1</clus>
<clus scale="   85.551">  1  3  2 -1</clus>
</clustering>
</event>
<event>
 6    0  0.2117869E+002  0.1183128E+03  0.7546771E-02  0.1245907E+00
          2   -1    0    0  505    0 -0.00000000000E+00  0.00000000000E+00  0.24334092229E+04  0.24334092229E+04  0.00000000000E+00 0. -1.
         21   -1    0    0  504  502  0.00000000000E+00 -0.00000000000E+00 -0.53932569533E+02  0.53932569533E+02  0.00000000000E+00 0. -1.
         21    1    1    2  503  502 -0.79744135134E+01  0.36995492720E+02 -0.18114600233E+02  0.41957079189E+02  0.00000000000E+00 0. -1.
         21    1    1    2  504  501  0.89065961891E+01 -0.11220596321E+03  0.16994409998E+03  0.20383940432E+03  0.00000000000E+00 0. -1.
         21    1    1    2  505  503 -0.96591530701E+02 -0.28020001640E+02  0.66348966318E+03  0.67106898114E+03  0.00000000000E+00 0. -1.
          2    1    1    2  501    0  0.95659348025E+02  0.10323047213E+03  0.15641574904E+04  0.15704763278E+04  0.00000000000E+00 0. -1.
<scales pt_clust_3="37.84518" pt_clust_4="86.03007" pt_clust_5="14000.00000" pt_clust_6="118.31280"></scales>
<clustering>
<clus scale="   37.845">  2  3  1 -1</clus>
<clus scale="   86.030">  2  4  1 -1</clus>
<clus scale="  118.313">  1  6  2 -1</clus>
<clus scale="   37.845">  2  3  1 -1</clus>
</clustering>
</event>
<event>
 6    0  0.2117869E+002  0.1140705E+03  0.7546771E-02  0.1253212E+00
         21   -1    0    0  505  502  0.00000000000E+00  0.00000000000E+00  0.88759961647E+02  0.88759961647E+02  0.00000000000E+00 0. -1.
          2   -1    0    0  503    0 -0.00000000000E+00 -0.00000000000E+00 -0.95802838752E+03  0.95802838752E+03  0.00000000000E+00 0. -1.
         21    1    1    2  503  502 -0.82548417416E+02 -0.57589841692E+02 -0.35048825540E+02  0.10657978821E+03  0.00000000000E+00 0. -1.
         21    1    1    2  504  501 -0.12669747423E+02  0.41978457721E+02 -0.14415076674E+03  0.15067234970E+03  0.00000000000E+00 0. -1.
         21    1    1    2  505  504  0.13258398814E+03  0.32939397354E+02 -0.45998958824E+02  0.14415069206E+03  0.00000000000E+00 0. -1.
          2    1    1    2  501    0 -0.37365823299E+02 -0.17328013382E+02 -0.64406987477E+03  0.64538551919E+03  0.00000000000E+00 0. -1.
<scales pt_clust_3="114.07049" pt_clust_4="45.37918" pt_clust_5="14000.00000" pt_clust_6="41.18816"></scales>
<clustering>
<clus scale="   41.188">  2  6  1 -1</clus>
<clus scale="   45.379">  2  4  1 -1</clus>
<clus scale="  114.070">  1  3  2 -1</clus>
<clus scale="  114.070">  1  3  2 -1</clus>
</clustering>
</event>
<event>
 6    0  0.2117869E+002  0.8212772E+02  0.7546771E-02  0.1323119E+00
         21   -1    0    0  503  502  0.00000000000E+00  0.00000000000E+00  0.26518331783E+03  0.26518331783E+03  0.00000000000E+00 0. -1.
         -4   -1    0    0    0  501 -0.00000000000E+00 -0.00000000000E+00 -0.23348571062E+03  0.23348571062E+03  0.00000000000E+00 0. -1.
         21    1    1    2  503  505  0.15829642665E+02  0.52303739191E+02  0.14220735020E+03  0.15234562406E+03  0.00000000000E+00 0. -1.
         21    1    1    2  504  502  0.95191214569E+01 -0.31032662741E+02  0.83468371286E+02  0.89557851891E+02  0.00000000000E+00 0. -1.
         21    1    1    2  505  501  0.41835532237E+02  0.52770397917E+02 -0.65207093797E+02  0.93738421873E+02  0.00000000000E+00 0. -1.
         -4    1    1    2    0  504 -0.67184296359E+02 -0.74041474367E+02 -0.12877102048E+03  0.16302713063E+03  0.00000000000E+00 0. -1.
<scales pt_clust_3="35.70323" pt_clust_4="32.45982" pt_clust_5="82.12772" pt_clust_6="14000.00000"></scales>
<clustering>
<clus scale="   32.460">  1  4  2 -1</clus>
<clus scale="   35.703">  1  3  2 -1</clus>
<clus scale="   82.128">  2  5  1 -1</clus>
<clus scale="   32.460">  1  3  2 -1</clus>
</clustering>
</event>
<event>
 6    0  0.2117869E+002  0.1095273E+03  0.7546771E-02  0.1261448E+00
          2   -1    0    0  504    0 -0.00000000000E+00  0.00000000000E+00  0.10484650043E+04  0.10484650043E+04  0.00000000000E+00 0.  1.
         21   -1    0    0  505  502  0.00000000000E+00 -0.00000000000E+00 -0.19170126993E+03  0.19170126993E+03  0.00000000000E+00 0. -1.
         21    1    1    2  503  502  0.17089956599E+02 -0.76284610510E+02 -0.60008186098E+02  0.98551462779E+02  0.00000000000E+00 0. -1.
         21    1    1    2  504  503 -0.37694880339E+02 -0.21175095030E+02  0.60434086351E+02  0.74307250295E+02  0.00000000000E+00 0. -1.
         21    1    1    2  505  501  0.91522050147E+02  0.40420441072E+02 -0.79045014580E+02  0.12750769408E+03  0.00000000000E+00 0. -1.
          2    1    1    2  501    0 -0.70917126408E+02  0.57039264467E+02  0.93538284873E+03  0.93979986710E+03  0.00000000000E+00 0.  1.
<scales pt_clust_3="78.42373" pt_clust_4="43.23527" pt_clust_5="109.52729" pt_clust_6="14000.00000"></scales>
<clustering>
<clus scale="   43.235">  1  4  2 -1</clus>
<clus scale="   78.424">  2  3  1 -1</clus>
<clus scale="  109.527">  2  5  1 -1</clus>
<clus scale="   78.424">  2  3  1 -1</clus>
</clustering>
</event>
<event>
 6    0  0.2117869E+002  0.1080455E+03  0.7546771E-02  0.1264233E+00
          1   -1    0    0  504    0 -0.00000000000E+00  0.00000000000E+00  0.59956249322E+03  0.59956249322E+03  0.00000000000E+00 0. -1.
         21   -1    0    0  505  502  0.00000000000E+00 -0.00000000000E+00 -0.39354996043E+03  0.39354996043E+03  0.00000000000E+00 0.  1.
         21    1    1    2  503  502  0.57159012808E+01  0.34990055487E+02 -0.16025633029E+03  0.16413124903E+03  0.00000000000E+00 0. -1.
         21    1    1    2  504  503 -0.78550065552E+02  0.28195297148E+02  0.55837966355E+02  0.10041397346E+03  0.00000000000E+00 0. -1.
         21    1    1    2  505  501 -0.29222592152E+02 -0.95024349925E+01 -0.20148976420E+03  0.20381948199E+03  0.00000000000E+00 0.  1.
          1    1    1    2  501    0  0.10205675642E+03 -0.53682917642E+02  0.51192066092E+03  0.52474774916E+03  0.00000000000E+00 0. -1.
<scales pt_clust_3="33.01206" pt_clust_4="14000.00000" pt_clust_5="30.72875" pt_clust_6="108.04548"></scales>
<clustering>
<clus scale="   30.729">  2  5  1 -1</clus>
<clus scale="   33.012">  2  3  1 -1</clus>
<clus scale="  108.045">  1  6  2 -1</clus>
<clus scale="   30.729">  2  3  1 -1</clus>
</clustering>
</event>
<event>
 6    0  0.2117869E+002  0.1817680E+03  0.7546771E-02  0.1166103E+00
          3   -1    0    0  505    0 -0.00000000000E+00  0.00000000000E+00  0.22880552290E+04  0.22880552290E+04  0.00000000000E+00 0. -1.
         21   -1    0    0  504  502  0.00000000000E+00 -0.00000000000E+00 -0.27782572790E+03  0.27782572790E+03  0.00000000000E+00 0.  1.
         21    1    1    2  503  501 -0.34483010975E+02 -0.78517306813E+02  0.45708069485E+03  0.46505570324E+03  0.00000000000E+00 0. -1.
         21    1    1    2  504  503  0.69365811678E+02  0.17547683869E+03 -0.21580610325E+03  0.28666358497E+03  0.00000000000E+00 0.  1.
         21    1    1    2  505  502 -0.94214436985E+02 -0.10821558743E+03  0.21173233584E+03  0.25576855855E+03  0.00000000000E+00 0. -1.
          3    1    1    2  501    0  0.59331636282E+02  0.11256055559E+02  0.15572225737E+04  0.15583931102E+04  0.00000000000E+00 0. -1.
<scales pt_clust_3="71.47246" pt_clust_4="181.76803" pt_clust_5="14000.00000" pt_clust_6="60.38992"></scales>
<clustering>
<clus scale="   60.390">  1  6  2 -1</clus>
<clus scale="   71.472">  1  3  2 -1</clus>
<clus scale="  181.768">  2  4  1 -1</clus>
<clus scale="  181.768">  2  3  1 -1</clus>
</clustering>
</event>
<event>
 6    0  0.2117869E+002  0.1118449E+03  0.7546771E-02  0.1257191E+00
          2   -1    0    0  504    0 -0.00000000000E+00  0.00000000000E+00  0.26437476489E+04  0.26437476489E+04  0.00000000000E+00 0. -1.
         21   -1    0    0  505  502  0.00000000000E+00 -0.00000000000E+00 -0.12510273212E+03  0.12510273212E+03  0.00000000000E+00 0. -1.
         21    1    1    2  503  502 -0.19179421046E+02 -0.42294414066E+02 -0.90248888493E+01  0.47308733566E+02  0.00000000000E+00 0. -1.
         21    1    1    2  504  503  0.38417573370E+02 -0.14572736982E+02  0.13248835442E+03  0.13871351291E+03  0.00000000000E+00 0. -1.
         21    1    1    2  505  501  0.53875997493E+02  0.14643772787E+03 -0.26602594402E+02  0.15828559404E+03  0.00000000000E+00 0. -1.
          2    1    1    2  501    0 -0.73114149817E+02 -0.89570576826E+02  0.24217840456E+04  0.24245425405E+04  0.00000000000E+00 0. -1.
<scales pt_clust_3="46.42119" pt_clust_4="41.08862" pt_clust_5="14000.00000" pt_clust_6="111.84487"></scales>
<clustering>
<clus scale="   41.089">  1  4  2 -1</clus>
<clus scale="   46.421">  2  3  1 -1</clus>
<clus scale="  111.845">  1  6  2 -1</clus>
<clus scale="   46.421">  2  3  1 -1</clus>
</clustering>
</event>
<event>
 6    0  0.2117869E+002  0.6772329E+02  0.7546771E-02  0.1368011E+00
          2   -1    0    0  504    0 -0.00000000000E+00  0.00000000000E+00  0.12275751138E+04  0.12275751138E+04  0.00000000000E+00 0. -1.
         21   -1    0    0  503  502  0.00000000000E+00 -0.00000000000E+00 -0.11936379487E+03  0.11936379487E+03  0.00000000000E+00 0. -1.
         21    1    1    2  503  505  0.21333573105E+02 -0.11138173807E+03 -0.71395996709E+02  0.13400895963E+03  0.00000000000E+00 0. -1.
         21    1    1    2  504  502 -0.30187527334E+02  0.41397486706E+02  0.35645124751E+02  0.62414851042E+02  0.00000000000E+00 0.  1.
         21    1    1    2  505  501 -0.42243603091E+02  0.42646494154E+02  0.42454890174E+03  0.42877151892E+03  0.00000000000E+00 0. -1.
          2    1    1    2  501    0  0.51097557319E+02  0.27337757206E+02  0.71941328911E+03  0.72174357904E+03  0.00000000000E+00 0. -1.
<scales pt_clust_3="14000.00000" pt_clust_4="51.23513" pt_clust_5="67.72329" pt_clust_6="57.87571"></scales>
<clustering>
<clus scale="   51.235">  2  4  1 -1</clus>
<clus scale="   57.876">  1  6  2 -1</clus>
<clus scale="   67.723">  1  5  2 -1</clus>
<clus scale="   51.235">  2  3  1 -1</clus>
</clustering>
</event>
<event>
 6    0  0.2117869E+002  0.1118543E+03  0.7546771E-02  0.1257174E+00
         21   -1    0    0  504  502  0.00000000000E+00  0.00000000000E+00  0.10519693974E+03  0.10519693974E+03  0.00000000000E+00 0.  1.
          2   -1    0    0  505    0 -0.00000000000E+00 -0.00000000000E+00 -0.14230812552E+04  0.14230812552E+04  0.00000000000E+00 0. -1.
         21    1    1    2  503  502  0.11113439259E+03 -0.36346618145E+02  0.54874784989E+02  0.12916335353E+03  0.00000000000E+00 0.  1.
         21    1    1    2  504  501 -0.77324532858E+02  0.41139592606E+02 -0.17570147945E+03  0.19632258999E+03  0.00000000000E+00 0. -1.
         21    1    1    2  505  503 -0.41190561802E+02  0.43235955058E+02 -0.88094063653E+03  0.88296229550E+03  0.00000000000E+00 0. -1.
          2    1    1    2  501    0  0.73807020702E+01 -0.48028929520E+02 -0.31611698442E+03  0.31982995587E+03  0.00000000000E+00 0. -1.
<scales pt_clust_3="111.85429" pt_clust_4="14000.00000" pt_clust_5="35.63949" pt_clust_6="48.59272"></scales>
<clustering>
<clus scale="   48.593">  2  6  1 -1</clus>
<clus scale="   35.639">  2  5  1 -1</clus>
<clus scale="  111.854">  1  3  2 -1</clus>
<clus scale="  111.854">  1  3  2 -1</clus>
</clustering>
</event>
<event>
 6    0  0.2117869E+002  0.9843405E+02  0.7546771E-02  0.1283624E+00
         21   -1    0    0  504  502  0.00000000000E+00  0.00000000000E+00  0.86843926545E+03  0.86843926545E+03  0.00000000000E+00 0. -1.
          2   -1    0    0  505    0 -0.00000000000E+00 -0.00000000000E+00 -0.34338712150E+03  0.34338712150E+03  0.00000000000E+00 0.  1.
         21    1    1    2  503  501 -0.53847023344E+02 -0.66392351842E+02  0.97855232975E+01  0.86041866393E+02  0.00000000000E+00 0. -1.
         21    1    1    2  504  503 -0.92060851598E+02  0.31148301220E+02  0.76185913961E+03  0.76803304986E+03  0.00000000000E+00 0. -1.
         21    1    1    2  505  502  0.56074334103E+02 -0.13067275582E+02  0.28581995397E+02  0.64280752151E+02  0.00000000000E+00 0. -1.
          2    1    1    2  501    0  0.89833540840E+02  0.48311326204E+02 -0.27517451436E+03  0.29347071856E+03  0.00000000000E+00 0.  1.
<scales pt_clust_3="14000.00000" pt_clust_4="44.16886" pt_clust_5="57.57677" pt_clust_6="98.43405"></scales>
<clustering>
<clus scale="   57.577">  1  5  2 -1</clus>
<clus scale="   44.169">  1  4  2 -1</clus>
<clus scale="   98.434">  2  6  1 -1</clus>
<clus scale="   57.577">  1  3  2 -1</clus>
</clustering>
</event>
<event>
 6    0  0.2117869E+002  0.1636359E+03  0.7546771E-02  0.1184652E+00
         21   -1    0    0  504  502  0.00000000000E+00  0.00000000000E+00  0.59701589151E+03  0.59701589151E+03  0.00000000000E+00 0.  1.
         -2   -1    0    0    0  501 -0.00000000000E+00 -0.00000000000E+00 -0.44589987048E+03  0.44589987048E+03  0.00000000000E+00 0. -1.
         21    1    1    2  503  502 -0.45136222933E+02  0.23310737242E+02  0.54569183465E+02  0.74555113007E+02  0.00000000000E+00 0. -1.
         21    1    1    2  504  505  0.11119378439E+03 -0.16573582512E+03  0.46817452362E+03  0.50893988445E+03  0.00000000000E+00 0.  1.
         21    1    1    2  505  501 -0.24665455692E+01 -0.58686160530E+02 -0.70367195193E+02  0.91660741018E+02  0.00000000000E+00 0. -1.
         -2    1    1    2    0  503 -0.63591015885E+02  0.20111124841E+03 -0.30126049087E+03  0.36776002352E+03  0.00000000000E+00 0. -1.
<scales pt_clust_3="50.80029" pt_clust_4="14000.00000" pt_clust_5="58.31745" pt_clust_6="163.63588"></scales>
<clustering>
<clus scale="   50.800">  1  3  2 -1</clus>
<clus scale="   58.317">  2  5  1 -1</clus>
<clus scale="  163.636">  2  6  1 -1</clus>
<clus scale="   50.800">  1  3  2 -1</clus>
</clustering>
</event>
<event>
 6    0  0.2117869E+002  0.1146691E+03  0.7546771E-02  0.1252160E+00
          2   -1    0    0  503    0 -0.00000000000E+00  0.00000000000E+00  0.20198346689E+04  0.20198346689E+04  0.00000000000E+00 0. -1.
         21   -1    0    0  504  502  0.00000000000E+00 -0.00000000000E+00 -0.19297418213E+03  0.19297418213E+03  0.00000000000E+00 0.  1.
         21    1    1    2  503  505  0.91368674245E+02 -0.70798239090E+02  0.58799879575E+03  0.59925220825E+03  0.00000000000E+00 0.  1.
         21    1    1    2  504  501  0.62669061180E+01 -0.47854514925E+02  0.32321846387E+02  0.58086405164E+02  0.00000000000E+00 0.  1.
         21    1    1    2  505  502 -0.28013354676E+02  0.26512380295E+02 -0.16988533063E+03  0.17420872513E+03  0.00000000000E+00 0.  1.
          2    1    1    2  501    0 -0.69622225687E+02  0.92140373720E+02  0.13764251753E+04  0.13812615125E+04  0.00000000000E+00 0. -1.
<scales pt_clust_3="114.66906" pt_clust_4="33.39018" pt_clust_5="38.57012" pt_clust_6="14000.00000"></scales>
<clustering>
<clus scale="   38.570">  2  5  1 -1</clus>
<clus scale="   33.390">  2  4  1 -1</clus>
<clus scale="  114.669">  2  3  1 -1</clus>
<clus scale="   38.570">  2  3  1 -1</clus>
</clustering>
</event>
<event>
 6    0  0.2117869E+002  0.7519019E+02  0.7546771E-02  0.1343283E+00
         21   -1    0    0  501  502  0.00000000000E+00  0.00000000000E+00  0.57759036306E+03  0.57759036306E+03  0.00000000000E+00 0.  1.
          1   -1    0    0  504    0 -0.00000000000E+00 -0.00000000000E+00 -0.71557909803E+03  0.71557909803E+03  0.00000000000E+00 0.  1.
         21    1    1    2  503  502  0.35091473087E+02 -0.67329248619E+02  0.48949864552E+03  0.49535195888E+03  0.00000000000E+00 0.  1.
         21    1    1    2  504  505  0.18808143085E+02  0.29384445839E+02 -0.14147412840E+03  0.14571245969E+03  0.00000000000E+00 0.  1.
         21    1    1    2  505  503 -0.95035793092E+02  0.23300739762E+02  0.53029771398E+02  0.11129637504E+03  0.00000000000E+00 0.  1.
          1    1    1    2  501    0  0.41136176920E+02  0.14644063018E+02 -0.53904302350E+03  0.54080866747E+03  0.00000000000E+00 0.  1.
<scales pt_clust_3="14000.00000" pt_clust_4="34.88828" pt_clust_5="75.19019" pt_clust_6="72.55507"></scales>
<clustering>
<clus scale="   34.888">  2  4  1 -1</clus>
<clus scale="   72.555">  2  6  1 -1</clus>
<clus scale="   75.190">  2  5  1 -1</clus>
<clus scale="   75.190">  1  3  2 -1</clus>
</clustering>
</event>
<event>
 6    0  0.2117869E+002  0.7423101E+02  0.7546771E-02  0.1346269E+00
          2   -1    0    0  505    0 -0.00000000000E+00  0.00000000000E+00  0.14944541755E+04  0.14944541755E+04  0.00000000000E+00 0. -1.
         21   -1    0    0  504  502  0.00000000000E+00 -0.00000000000E+00 -0.16763490369E+03  0.16763490369E+03  0.00000000000E+00 0. -1.
         21    1    1    2  503  502  0.11790115990E+02 -0.86891418050E+02 -0.17840036266E+02  0.89484033547E+02  0.00000000000E+00 0. -1.
         21    1    1    2  504  501 -0.65976371717E+02  0.41392769866E+02 -0.93720434569E+02  0.12185960314E+03  0.00000000000E+00 0. -1.
         21    1    1    2  505  503 -0.33279454466E+02 -0.39664942902E+02  0.73735107640E+03  0.73916671979E+03  0.00000000000E+00 0. -1.
          2    1    1    2  501    0  0.87465710193E+02  0.85163591087E+02  0.70102866626E+03  0.71157872272E+03  0.00000000000E+00 0. -1.
<scales pt_clust_3="74.23101" pt_clust_4="14000.00000" pt_clust_5="51.77673" pt_clust_6="74.12177"></scales>
<clustering>
<clus scale="   51.777">  1  5  2 -1</clus>
<clus scale="   74.122">  1  6  2 -1</clus>
<clus scale="   74.231">  1  3  2 -1</clus>
<clus scale="   74.231">  2  3  1 -1</clus>
</clustering>
</event>
<event>
 6    0  0.2117869E+002  0.1038119E+03  0.7546771E-02  0.1272478E+00
         21   -1    0    0  503  502  0.00000000000E+00  0.00000000000E+00  0.89296805166E+03  0.89296805166E+03  0.00000000000E+00 0. -1.
          2   -1    0    0  504    0 -0.00000000000E+00 -0.00000000000E+00 -0.11964763966E+04  0.11964763966E+04  0.00000000000E+00 0. -1.
         21    1    1    2  503  505 -0.34008566819E+02  0.88015878492E+02  0.66461372017E+03  0.67127846272E+03  0.00000000000E+00 0. -1.
         21    1    1    2  504  502  0.56899709292E+02  0.58528126055E+02 -0.42917714270E+03  0.43687084850E+03  0.00000000000E+00 0. -1.
         21    1    1    2  505  501  0.18271785509E+02 -0.19082965895E+03  0.17812326551E+03  0.26168246903E+03  0.00000000000E+00 0. -1.
          2    1    1    2  501    0 -0.41162927982E+02  0.44285654402E+02 -0.71706818787E+03  0.71961266796E+03  0.00000000000E+00 0. -1.
<scales pt_clust_3="94.74914" pt_clust_4="103.81191" pt_clust_5="14000.00000" pt_clust_6="60.46161"></scales>
<clustering>
<clus scale="   60.462">  2  6  1 -1</clus>
<clus scale="   94.749">  1  3  2 -1</clus>
<clus scale="  103.812">  2  4  1 -1</clus>
<clus scale="   94.749">  1  3  2 -1</clus>
</clustering>
</event>
<event>
 6    0  0.2117869E+002  0.1343090E+03  0.7546771E-02  0.1221198E+00
          3   -1    0    0  505    0 -0.00000000000E+00  0.00000000000E+00  0.75509616331E+03  0.75509616331E+03  0.00000000000E+00 0.  1.
         21   -1    0    0  501  502  0.00000000000E+00 -0.00000000000E+00 -0.30424762431E+03  0.30424762431E+03  0.00000000000E+00 0. -1.
         21    1    1    2  503  504  0.47947261362E+02  0.59254187843E+02 -0.44030770297E+02  0.88026742425E+02  0.00000000000E+00 0.  1.
         21    1    1    2  504  502  0.65712057866E+02 -0.83949766641E+01 -0.18362703443E+03  0.19521126493E+03  0.00000000000E+00 0. -1.
         21    1    1    2  505  503  0.62878607150E+02  0.97244790548E+02  0.39021830024E+03  0.40703880696E+03  0.00000000000E+00 0.  1.
          3    1    1    2  501    0 -0.17653792638E+03 -0.14810400173E+03  0.28828804347E+03  0.36906697331E+03  0.00000000000E+00 0.  1.
<scales pt_clust_3="101.55021" pt_clust_4="66.24613" pt_clust_5="14000.00000" pt_clust_6="134.30900"></scales>
<clustering>
<clus scale="   66.246">  2  4  1 -1</clus>
<clus scale="  101.550">  2  3  1 -1</clus>
<clus scale="  134.309">  2  6  1 -1</clus>
<clus scale="   66.246">  2  3  1 -1</clus>
</clustering>
</event>
<event>
 6    0  0.2117869E+002  0.1770196E+03  0.7546771E-02  0.1170719E+00
          2   -1    0    0  504    0 -0.00000000000E+00  0.00000000000E+00  0.27096670170E+04  0.27096670170E+04  0.00000000000E+00 0.  1.
         21   -1    0    0  505  502  0.00000000000E+00 -0.00000000000E+00 -0.76592078204E+02  0.76592078204E+02  0.00000000000E+00 0. -1.
         21    1    1    2  503  502  0.92690546230E+02 -0.18939314153E+03  0.75144908199E+03  0.78047230716E+03  0.00000000000E+00 0.  1.
         21    1    1    2  504  503  0.32388144187E+02  0.22802368577E+02  0.23182855896E+03  0.23518805379E+03  0.00000000000E+00 0.  1.
         21    1    1    2  505  501 -0.96920777596E+02  0.11336923807E+02 -0.14662294775E+02  0.98676977352E+02  0.00000000000E+00 0. -1.
          2    1    1    2  501    0 -0.28157912822E+02  0.15525384915E+03  0.16644595927E+04  0.16719217569E+04  0.00000000000E+00 0.  1.
<scales pt_clust_3="14000.00000" pt_clust_4="39.60985" pt_clust_5="97.08181" pt_clust_6="177.01962"></scales>
<clustering>
<clus scale="   39.610">  1  4  2 -1</clus>
<clus scale="   97.082">  2  5  1 -1</clus>
<clus scale="  177.020">  1  6  2 -1</clus>
<clus scale="   97.082">  2  3  1 -1</clus>
</clustering>
</event>
<event>
 6    0  0.2117869E+002  0.1349859E+03  0.7546771E-02  0.1220240E+00
         21   -1    0    0  503  502  0.00000000000E+00  0.00000000000E+00  0.12185027346E+03  0.12185027346E+03  0.00000000000E+00 0.  1.
          1   -1    0    0  505    0 -0.00000000000E+00 -0.00000000000E+00 -0.20017051460E+04  0.20017051460E+04  0.00000000000E+00 0. -1.
         21    1    1    2  503  504  0.56639056259E+02  0.23012122022E+02  0.81493664499E+02  0.10187618862E+03  0.00000000000E+00 0.  1.
         21    1    1    2  504  501 -0.33430402544E+02  0.12031859451E+03 -0.12292727633E+03  0.17522919638E+03  0.00000000000E+00 0. -1.
         21    1    1    2  505  502  0.30109642381E+02 -0.38476150241E+02 -0.77598788327E+03  0.77752440456E+03  0.00000000000E+00 0. -1.
          1    1    1    2  501    0 -0.53318296096E+02 -0.10485456629E+03 -0.10624333774E+04  0.10689256299E+04  0.00000000000E+00 0. -1.
<scales pt_clust_3="61.24826" pt_clust_4="14000.00000" pt_clust_5="48.85698" pt_clust_6="134.98588"></scales>
<clustering>
<clus scale="   48.857">  2  5  1 -1</clus>
<clus scale="   61.248">  1  3  2 -1</clus>
<clus scale="  134.986">  2  6  1 -1</clus>
<clus scale="   61.248">  1  3  2 -1</clus>
</clustering>
</event>
<event>
 6    0  0.2117869E+002  0.8139041E+02  0.7546771E-02  0.1325151E+00
         21   -1    0    0  505  502  0.00000000000E+00  0.00000000000E+00  0.40737175523E+03  0.40737175523E+03  0.00000000000E+00 0. -1.
          2   -1    0    0  503    0 -0.00000000000E+00 -0.00000000000E+00 -0.41665630285E+03  0.41665630285E+03  0.00000000000E+00 0.  1.
         21    1    1    2  503  502 -0.30888356127E+02 -0.15243585376E+02  0.26133409305E+03  0.26359432018E+03  0.00000000000E+00 0. -1.
         21    1    1    2  504  501  0.21274741113E+02  0.52414852281E+02 -0.51652919514E+02  0.76602581179E+02  0.00000000000E+00 0. -1.
         21    1    1    2  505  504  0.47480596047E+02  0.49235661271E+02  0.11664082892E+03  0.13521701192E+03  0.00000000000E+00 0. -1.
          2    1    1    2  501    0 -0.37866981032E+02 -0.86406928176E+02 -0.33560655009E+03  0.34861414480E+03  0.00000000000E+00 0.  1.
<scales pt_clust_3="34.44499" pt_clust_4="14000.00000" pt_clust_5="41.48602" pt_clust_6="81.39041"></scales>
<clustering>
<clus scale="   34.445">  1  3  2 -1</clus>
<clus scale="   41.486">  1  5  2 -1</clus>
<clus scale="   81.390">  2  6  1 -1</clus>
<clus scale="   34.445">  1  3  2 -1</clus>
</clustering>
</event>
<event>
 6    0  0.2117869E+002  0.1020800E+03  0.7546771E-02  0.1275982E+00
          2   -1    0    0  503    0 -0.00000000000E+00  0.00000000000E+00  0.14634761603E+04  0.14634761603E+04  0.00000000000E+00 0. -1.
         21   -1    0    0  504  502  0.00000000000E+00 -0.00000000000E+00 -0.87087842776E+03  0.87087842776E+03  0.00000000000E+00 0. -1.
         21    1    1    2  503  502  0.48143642446E+02 -0.25817622299E+02 -0.25906298404E+03  0.26476024934E+03  0.00000000000E+00 0. -1.
         21    1    1    2  504  505  0.44809980184E+02  0.74877120033E+02 -0.59912107972E+03  0.60544247092E+03  0.00000000000E+00 0. -1.
         21    1    1    2  505  501 -0.45024555651E+02 -0.38506820789E+02  0.13467495300E+03  0.14713031239E+03  0.00000000000E+00 0. -1.
          2    1    1    2  501    0 -0.47929066979E+02 -0.10552676946E+02  0.13161068433E+04  0.13170215554E+04  0.00000000000E+00 0. -1.
<scales pt_clust_3="53.91054" pt_clust_4="14000.00000" pt_clust_5="102.07995" pt_clust_6="49.07703"></scales>
<clustering>
<clus scale="   49.077">  1  6  2 -1</clus>
<clus scale="   53.911">  2  3  1 -1</clus>
<clus scale="  102.080">  1  5  2 -1</clus>
<clus scale="   53.911">  2  3  1 -1</clus>
</clustering>
</event>
<event>
 6    0  0.2117869E+002  0.1366278E+03  0.7546771E-02  0.1217940E+00
         21   -1    0    0  504  502  0.00000000000E+00  0.00000000000E+00  0.30361563925E+03  0.30361563925E+03  0.00000000000E+00 0. -1.
          2   -1    0    0  505    0 -0.00000000000E+00 -0.00000000000E+00 -0.45884427881E+04  0.45884427881E+04  0.00000000000E+00 0. -1.
         21    1    1    2  503  502  0.62225927314E+02 -0.74542945578E+02  0.26234940003E+03  0.27974260394E+03  0.00000000000E+00 0. -1.
         21    1    1    2  504  501  0.73096627965E+02  0.44246003122E+02 -0.31166073197E+02  0.90951360246E+02  0.00000000000E+00 0. -1.
         21    1    1    2  505  503 -0.46768389285E+02  0.75170621314E+02 -0.98830750526E+03  0.99226489885E+03  0.00000000000E+00 0.  1.
          2    1    1    2  501    0 -0.88554165994E+02 -0.44873678858E+02 -0.35277029704E+04  0.35290995643E+04  0.00000000000E+00 0. -1.
<scales pt_clust_3="136.62785" pt_clust_4="85.44487" pt_clust_5="88.52653" pt_clust_6="14000.00000"></scales>
<clustering>
<clus scale="   85.445">  1  4  2 -1</clus>
<clus scale="   88.527">  2  5  1 -1</clus>
<clus scale="  136.628">  1  3  2 -1</clus>
<clus scale="   85.445">  1  3  2 -1</clus>
</clustering>
</event>
<event>
 6    0  0.2117869E+002  0.2476925E+03  0.7546771E-02  0.1114772E+00
          2   -1    0    0  505    0 -0.00000000000E+00  0.00000000000E+00  0.56835807885E+03  0.56835807885E+03  0.00000000000E+00 0.  1.
         21   -1    0    0  501  502  0.00000000000E+00 -0.00000000000E+00 -0.79351706854E+03  0.79351706854E+03  0.00000000000E+00 0. -1.
         21    1    1    2  503  504 -0.18166049527E+02 -0.23638135650E+03  0.10704981347E+03  0.26012653386E+03  0.00000000000E+00 0.  1.
         21    1    1    2  504  502 -0.92413838412E+02  0.23405076077E+03 -0.68014555369E+03  0.72520207553E+03  0.00000000000E+00 0. -1.
         21    1    1    2  505  503  0.39692623971E+02 -0.90716111218E+01  0.29924419542E+02  0.50529886314E+02  0.00000000000E+00 0.  1.
          2    1    1    2  501    0  0.70887263968E+02  0.11402206854E+02  0.31801233099E+03  0.32601665169E+03  0.00000000000E+00 0.  1.
<scales pt_clust_3="247.69252" pt_clust_4="14000.00000" pt_clust_5="40.71607" pt_clust_6="95.26991"></scales>
<clustering>
<clus scale="   40.716">  1  5  2 -1</clus>
<clus scale="   95.270">  1  6  2 -1</clus>
<clus scale="  247.693">  1  3  2 -1</clus>
<clus scale="  247.693">  2  3  1 -1</clus>
</clustering>
</event>
<event>
 6    0  0.2117869E+002  0.1440758E+03  0.7546771E-02  0.1207948E+00
         21   -1    0    0  503  502  0.00000000000E+00  0.00000000000E+00  0.24814470003E+03  0.24814470003E+03  0.00000000000E+00 0.  1.
          1   -1    0    0  504    0 -0.00000000000E+00 -0.00000000000E+00 -0.84912461191E+03  0.84912461191E+03  0.00000000000E+00 0.  1.
         21    1    1    2  503  505 -0.71891022959E+02 -0.13996911010E+03  0.20247203080E+03  0.25642658642E+03  0.00000000000E+00 0.  1.
         21    1    1    2  504  502 -0.94688971580E+01  0.32480914856E+02 -0.59673741347E+02  0.68597560085E+02  0.00000000000E+00 0.  1.
         21    1    1    2  505  501  0.59164426382E+02  0.58213125078E+02 -0.11873301869E+03  0.14486796405E+03  0.00000000000E+00 0.  1.
          1    1    1    2  501    0  0.22195493735E+02  0.49275070163E+02 -0.62504518264E+03  0.62737720139E+03  0.00000000000E+00 0.  1.
<scales pt_clust_3="144.07576" pt_clust_4="33.83297" pt_clust_5="14000.00000" pt_clust_6="76.59857"></scales>
<clustering>
<clus scale="   33.833">  2  4  1 -1</clus>
<clus scale="   76.599">  2  6  1 -1</clus>
<clus scale="  144.076">  1  3  2 -1</clus>
<clus scale="  144.076">  1  3  2 -1</clus>
</clustering>
</event>
<event>
 6    0  0.2117869E+002  0.1381016E+03  0.7546771E-02  0.1215906E+00
         21   -1    0    0  504  502  0.00000000000E+00  0.00000000000E+00  0.38227627453E+03  0.38227627453E+03  0.00000000000E+00 0. -1.
          2   -1    0    0  503    0 -0.00000000000E+00 -0.00000000000E+00 -0.40087448451E+03  0.40087448451E+03  0.00000000000E+00 0. -1.
         21    1    1    2  503  505 -0.16548838629E+02 -0.12777284783E+03 -0.22593314616E+03  0.26008758379E+03  0.00000000000E+00 0. -1.
         21    1    1    2  504  501 -0.10858723534E+02  0.71873665344E+02 -0.34931711557E+02  0.80647133359E+02  0.00000000000E+00 0. -1.
         21    1    1    2  505  502  0.53281418733E+02 -0.12878230760E+02  0.32625006906E+03  0.33082301306E+03  0.00000000000E+00 0. -1.
          2    1    1    2  501    0 -0.25873856569E+02  0.68777413248E+02 -0.83983421316E+02  0.11159302883E+03  0.00000000000E+00 0. -1.
<scales pt_clust_3="131.86580" pt_clust_4="40.80777" pt_clust_5="54.81568" pt_clust_6="40.80777"></scales>
<clustering>
<clus scale="   40.808">  4  6 -1 -1</clus>
<clus scale="   54.816">  1  5  2 -1</clus>
<clus scale="  131.866">  2  3  1 -1</clus>
<clus scale="   54.816">  1  3  2 -1</clus>
</clustering>
</event>
<event>
 6    0  0.2117869E+002  0.7558649E+02  0.7546771E-02  0.1342064E+00
          1   -1    0    0  503    0 -0.00000000000E+00  0.00000000000E+00  0.25133733617E+04  0.25133733617E+04  0.00000000000E+00 0. -1.
         21   -1    0    0  504  502  0.00000000000E+00 -0.00000000000E+00 -0.14586705989E+03  0.14586705989E+03  0.00000000000E+00 0. -1.
         21    1    1    2  503  505  0.23254763099E+02  0.31246948062E+02  0.13712055054E+03  0.14254543539E+03  0.00000000000E+00 0.  1.
         21    1    1    2  504  501 -0.12101805401E+03 -0.59703192737E+02  0.16368061724E+03  0.21213482760E+03  0.00000000000E+00 0. -1.
         21    1    1    2  505  502  0.24051395355E+02  0.19677457527E+02 -0.11625582719E+03  0.12033739780E+03  0.00000000000E+00 0. -1.
          1    1    1    2  501    0  0.73711895555E+02  0.87787871479E+01  0.21829609612E+04  0.21842227608E+04  0.00000000000E+00 0. -1.
<scales pt_clust_3="41.92300" pt_clust_4="14000.00000" pt_clust_5="31.07526" pt_clust_6="75.58649"></scales>
<clustering>
<clus scale="   31.075">  2  5  1 -1</clus>
<clus scale="   41.923">  2  3  1 -1</clus>
<clus scale="   75.586">  1  6  2 -1</clus>
<clus scale="   31.075">  2  3  1 -1</clus>
</clustering>
</event>
<event>
 6    0  0.2117869E+002  0.8338902E+02  0.7546771E-02  0.1319700E+00
         21   -1    0    0  504  502  0.00000000000E+00  0.00000000000E+00  0.48567935755E+02  0.48567935755E+02  0.00000000000E+00 0. -1.
          2   -1    0    0  505    0 -0.00000000000E+00 -0.00000000000E+00 -0.22057697038E+04  0.22057697038E+04  0.00000000000E+00 0. -1.
         21    1    1    2  503  502  0.45259374445E+02  0.71873306185E+02 -0.86645966588E+03  0.87061273578E+03  0.00000000000E+00 0. -1.
         21    1    1    2  504  501 -0.70880967485E+02 -0.12354715125E+02  0.11909575894E+02  0.72928653734E+02  0.00000000000E+00 0. -1.
         21    1    1    2  505  503 -0.15920615704E+02  0.33627186466E+02 -0.55130446373E+03  0.55255847239E+03  0.00000000000E+00 0.  1.
          2    1    1    2  501    0  0.41542208743E+02 -0.93145777525E+02 -0.75134721436E+03  0.75823777769E+03  0.00000000000E+00 0. -1.
<scales pt_clust_3="14000.00000" pt_clust_4="72.13549" pt_clust_5="37.20556" pt_clust_6="83.38902"></scales>
<clustering>
<clus scale="   37.206">  2  5  1 -1</clus>
<clus scale="   72.135">  1  4  2 -1</clus>
<clus scale="   83.389">  2  6  1 -1</clus>
<clus scale="   72.135">  1  3  2 -1</clus>
</clustering>
</event>
<event>
 6    0  0.2117869E+002  0.7478490E+02  0.7546771E-02  0.1344538E+00
          2   -1    0    0  505    0 -0.00000000000E+00  0.00000000000E+00  0.23501179737E+04  0.23501179737E+04  0.00000000000E+00 0. -1.
         21   -1    0    0  503  502  0.00000000000E+00 -0.00000000000E+00 -0.40350265164E+03  0.40350265164E+03  0.00000000000E+00 0.  1.
         21    1    1    2  503  501  0.46727889575E+02 -0.20365754845E+02 -0.86212224555E+02  0.10015391803E+03  0.00000000000E+00 0. -1.
         21    1    1    2  504  502 -0.35016356244E+02  0.93074469753E+02 -0.29455191042E+03  0.31088555781E+03  0.00000000000E+00 0.  1.
         21    1    1    2  505  504  0.32226015640E+02 -0.10608137619E+03  0.41947534771E+03  0.43387940928E+03  0.00000000000E+00 0.  1.
          2    1    1    2  501    0 -0.43937548970E+02  0.33372661283E+02  0.19079041093E+04  0.19087017402E+04  0.00000000000E+00 0. -1.
<scales pt_clust_3="50.97313" pt_clust_4="74.78490" pt_clust_5="14000.00000" pt_clust_6="55.11100"></scales>
<clustering>
<clus scale="   50.973">  2  3  1 -1</clus>
<clus scale="   55.111">  1  6  2 -1</clus>
<clus scale="   74.785">  2  4  1 -1</clus>
<clus scale="   50.973">  2  3  1 -1</clus>
</clustering>
</event>
<event>
 6    0  0.2117869E+002  0.2343606E+03  0.7546771E-02  0.1123608E+00
          2   -1    0    0  505    0 -0.00000000000E+00  0.00000000000E+00  0.34942065237E+03  0.34942065237E+03  0.00000000000E+00 0. -1.
         21   -1    0    0  503  502  0.00000000000E+00 -0.00000000000E+00 -0.84852223614E+03  0.84852223614E+03  0.00000000000E+00 0.  1.
         21    1    1    2  503  504 -0.36215138768E+02 -0.53247719201E+02 -0.16364185595E+03  0.17585651224E+03  0.00000000000E+00 0. -1.
         21    1    1    2  504  501 -0.19219698735E+02 -0.16629900440E+03 -0.61629200122E+03  0.63862397892E+03  0.00000000000E+00 0.  1.
         21    1    1    2  505  502 -0.29108085915E+02  0.14225103840E+02  0.11450296004E+02  0.34361948773E+02  0.00000000000E+00 0. -1.
          2    1    1    2  501    0  0.84542923418E+02  0.20532161976E+03  0.26938197741E+03  0.34910044857E+03  0.00000000000E+00 0. -1.
<scales pt_clust_3="38.34067" pt_clust_4="38.34067" pt_clust_5="32.39806" pt_clust_6="226.09072"></scales>
<clustering>
<clus scale="   32.398">  1  5  2 -1</clus>
<clus scale="   38.341">  3  4 -1 -1</clus>
<clus scale="  226.091">  1  6  2 -1</clus>
<clus scale="  234.361">  2  3  1 -1</clus>
</clustering>
</event>
<event>
 6    0  0.2117869E+002  0.8859838E+02  0.7546771E-02  0.1306282E+00
         21   -1    0    0  501  502  0.00000000000E+00  0.00000000000E+00  0.58904506799E+03  0.58904506799E+03  0.00000000000E+00 0. -1.
          1   -1    0    0  504    0 -0.00000000000E+00 -0.00000000000E+00 -0.24868047350E+03  0.24868047350E+03  0.00000000000E+00 0. -1.
         21    1    1    2  503  505  0.11131904655E+03 -0.65518807287E+02  0.17226768022E+03  0.21531557742E+03  0.00000000000E+00 0.  1.
         21    1    1    2  504  503  0.37835830299E+02  0.69775679312E+02 -0.50234875928E+02  0.93934755216E+02  0.00000000000E+00 0. -1.
         21    1    1    2  505  502 -0.41714679006E+02  0.25811816146E+02  0.35140954049E+03  0.35481689566E+03  0.00000000000E+00 0. -1.
          1    1    1    2  501    0 -0.10744019784E+03 -0.30068688171E+02 -0.13307775028E+03  0.17365831319E+03  0.00000000000E+00 0. -1.
<scales pt_clust_3="88.59838" pt_clust_4="79.76270" pt_clust_5="49.05471" pt_clust_6="14000.00000"></scales>
<clustering>
<clus scale="   49.055">  1  5  2 -1</clus>
<clus scale="   79.763">  2  4  1 -1</clus>
<clus scale="   88.598">  1  3  2 -1</clus>
<clus scale="   49.055">  1  3  2 -1</clus>
</clustering>
</event>
<event>
 6    0  0.2117869E+002  0.7471271E+02  0.7546771E-02  0.1344763E+00
          2   -1    0    0  503    0 -0.00000000000E+00  0.00000000000E+00  0.14173921534E+04  0.14173921534E+04  0.00000000000E+00 0.  1.
         21   -1    0    0  505  502  0.00000000000E+00 -0.00000000000E+00 -0.35651513431E+02  0.35651513431E+02  0.00000000000E+00 0.  1.
         21    1    1    2  503  504 -0.47101332143E+02 -0.33339872096E+02  0.37547670133E+03  0.37988529295E+03  0.00000000000E+00 0.  1.
         21    1    1    2  504  502  0.29531094916E+02  0.20465253308E+02  0.36053938882E+02  0.50899888692E+02  0.00000000000E+00 0. -1.
         21    1    1    2  505  501 -0.59244938368E+02 -0.37811856247E+02  0.28145059323E+02  0.75708939759E+02  0.00000000000E+00 0.  1.
          2    1    1    2  501    0  0.76815175595E+02  0.50686475036E+02  0.94206494039E+03  0.94654954539E+03  0.00000000000E+00 0.  1.
<scales pt_clust_3="14000.00000" pt_clust_4="35.92927" pt_clust_5="40.05164" pt_clust_6="74.71271"></scales>
<clustering>
<clus scale="   35.929">  2  4  1 -1</clus>
<clus scale="   40.052">  2  5  1 -1</clus>
<clus scale="   74.713">  2  6  1 -1</clus>
<clus scale="   35.929">  2  3  1 -1</clus>
</clustering>
</event>
<event>
 6    0  0.2117869E+002  0.2328403E+03  0.7546771E-02  0.1124656E+00
         21   -1    0    0  504  502  0.00000000000E+00  0.00000000000E+00  0.68049437268E+03  0.68049437268E+03  0.00000000000E+00 0.  1.
          2   -1    0    0  503    0 -0.00000000000E+00 -0.00000000000E+00 -0.56951379516E+03  0.56951379516E+03  0.00000000000E+00 0.  1.
         21    1    1    2  503  505  0.82059715136E+02  0.21222500965E+02 -0.29642547571E+02  0.89793496546E+02  0.00000000000E+00 0.  1.
         21    1    1    2  504  501  0.73931631252E+02  0.19386147875E+03  0.15709899637E+03  0.26024652486E+03  0.00000000000E+00 0.  1.
         21    1    1    2  505  502 -0.64563328058E+01 -0.29998334001E+02  0.41024473853E+03  0.41139072640E+03  0.00000000000E+00 0.  1.
          2    1    1    2  501    0 -0.14953501358E+03 -0.18508564571E+03 -0.42672060980E+03  0.48857742003E+03  0.00000000000E+00 0.  1.
<scales pt_clust_3="83.28102" pt_clust_4="14000.00000" pt_clust_5="30.68525" pt_clust_6="232.84033"></scales>
<clustering>
<clus scale="   30.685">  1  5  2 -1</clus>
<clus scale="   83.281">  1  3  2 -1</clus>
<clus scale="  232.840">  2  6  1 -1</clus>
<clus scale="   30.685">  1  3  2 -1</clus>
</clustering>
</event>
<event>
 6    0  0.2117869E+002  0.1209520E+03  0.7546771E-02  0.1241535E+00
          2   -1    0    0  505    0 -0.00000000000E+00  0.00000000000E+00  0.39235647390E+03  0.39235647390E+03  0.00000000000E+00 0. -1.
         21   -1    0    0  503  502  0.00000000000E+00 -0.00000000000E+00 -0.43068000737E+03  0.43068000737E+03  0.00000000000E+00 0. -1.
         21    1    1    2  503  501 -0.39851924315E+02  0.11113399280E+03 -0.33569382979E+03  0.35585009145E+03  0.00000000000E+00 0. -1.
         21    1    1    2  504  502  0.89296599351E+02  0.25636991894E+02  0.18848084842E+03  0.21013369133E+03  0.00000000000E+00 0. -1.
         21    1    1    2  505  504 -0.13646840452E+02  0.45126960082E+02  0.27567024037E+02  0.54613364617E+02  0.00000000000E+00 0.  1.
          2    1    1    2  501    0 -0.35797834584E+02 -0.18189794478E+03  0.81322423859E+02  0.20243933387E+03  0.00000000000E+00 0. -1.
<scales pt_clust_3="120.95201" pt_clust_4="96.31558" pt_clust_5="47.14529" pt_clust_6="14000.00000"></scales>
<clustering>
<clus scale="   47.145">  1  5  2 -1</clus>
<clus scale="   96.316">  1  4  2 -1</clus>
<clus scale="  120.952">  2  3  1 -1</clus>
<clus scale="  120.952">  2  3  1 -1</clus>
</clustering>
</event>
<event>
 6    0  0.2117869E+002  0.9293126E+02  0.7546771E-02  0.1295905E+00
          2   -1    0    0  504    0 -0.00000000000E+00  0.00000000000E+00  0.28556250528E+03  0.28556250528E+03  0.00000000000E+00 0. -1.
         21   -1    0    0  501  502  0.00000000000E+00 -0.00000000000E+00 -0.36093993339E+03  0.36093993339E+03  0.00000000000E+00 0. -1.
         21    1    1    2  503  505 -0.63993348786E+02 -0.83793611551E+02 -0.20897702367E+02  0.10748596183E+03  0.00000000000E+00 0. -1.
         21    1    1    2  504  503 -0.22358863123E+02  0.32725508480E+02  0.64676760599E+02  0.75854868182E+02  0.00000000000E+00 0.  1.
         21    1    1    2  505  502 -0.11937474614E+02  0.33942069186E+02 -0.27542179808E+03  0.27776201004E+03  0.00000000000E+00 0. -1.
          2    1    1    2  501    0  0.98289686523E+02  0.17126033885E+02  0.15626531174E+03  0.18539959861E+03  0.00000000000E+00 0. -1.
<scales pt_clust_3="92.93126" pt_clust_4="41.94206" pt_clust_5="35.98010" pt_clust_6="14000.00000"></scales>
<clustering>
<clus scale="   35.980">  2  5  1 -1</clus>
<clus scale="   41.942">  1  4  2 -1</clus>
<clus scale="   92.931">  2  3  1 -1</clus>
<clus scale="   35.980">  2  3  1 -1</clus>
</clustering>
</event>
<event>
 6    0  0.2117869E+002  0.6803635E+02  0.7546771E-02  0.1366901E+00
         21   -1    0    0  501  502  0.00000000000E+00  0.00000000000E+00  0.60450336797E+02  0.60450336797E+02  0.00000000000E+00 0.  1.
          2   -1    0    0  504    0 -0.00000000000E+00 -0.00000000000E+00 -0.44165639931E+04  0.44165639931E+04  0.00000000000E+00 0.  1.
         21    1    1    2  503  505  0.79301397499E+02 -0.29816542911E+02  0.72557534245E+01  0.85031663715E+02  0.00000000000E+00 0.  1.
         21    1    1    2  504  503  0.37805620042E+02 -0.15857396878E+02 -0.38486860558E+03  0.38704594754E+03  0.00000000000E+00 0. -1.
         21    1    1    2  505  502 -0.18717146453E+02  0.59593131513E+02 -0.64905029486E+02  0.90079607834E+02  0.00000000000E+00 0.  1.
          2    1    1    2  501    0 -0.98389871088E+02 -0.13919191723E+02 -0.39135957746E+04  0.39148571108E+04  0.00000000000E+00 0.  1.
<scales pt_clust_3="68.03635" pt_clust_4="40.99661" pt_clust_5="61.95763" pt_clust_6="14000.00000"></scales>
<clustering>
<clus scale="   40.997">  2  4  1 -1</clus>
<clus scale="   61.958">  1  5  2 -1</clus>
<clus scale="   68.036">  1  3  2 -1</clus>
<clus scale="   61.958">  1  3  2 -1</clus>
</clustering>
</event>
<event>
 6    0  0.2117869E+002  0.6524039E+02  0.7546771E-02  0.1377070E+00
         21   -1    0    0  503  502  0.00000000000E+00  0.00000000000E+00  0.20082517209E+03  0.20082517209E+03  0.00000000000E+00 0. -1.
         -2   -1    0    0    0  501 -0.00000000000E+00 -0.00000000000E+00 -0.52438989349E+03  0.52438989349E+03  0.00000000000E+00 0. -1.
         21    1    1    2  503  505 -0.53137273905E+02  0.15472015577E+02  0.32760665638E+02  0.64313407289E+02  0.00000000000E+00 0. -1.
         21    1    1    2  504  502  0.47053658440E+02 -0.61788640973E+02  0.12110056139E+03  0.14386531512E+03  0.00000000000E+00 0. -1.
         21    1    1    2  505  501 -0.78058588313E-01 -0.52717720518E+02 -0.34200629900E+02  0.62839853878E+02  0.00000000000E+00 0. -1.
         -2    1    1    2    0  504  0.61616740538E+01  0.99034345915E+02 -0.44322531853E+03  0.45419648929E+03  0.00000000000E+00 0. -1.
<scales pt_clust_3="65.24039" pt_clust_4="14000.00000" pt_clust_5="52.71778" pt_clust_6="49.69962"></scales>
<clustering>
<clus scale="   52.718">  2  5  1 -1</clus>
<clus scale="   49.700">  2  6  1 -1</clus>
<clus scale="   65.240">  2  3  1 -1</clus>
<clus scale="   65.240">  1  3  2 -1</clus>
</clustering>
</event>
<event>
 6    0  0.2117869E+002  0.8935691E+02  0.7546771E-02  0.1304417E+00
         21   -1    0    0  504  502  0.00000000000E+00  0.00000000000E+00  0.36140223461E+03  0.36140223461E+03  0.00000000000E+00 0. -1.
          2   -1    0    0  505    0 -0.00000000000E+00 -0.00000000000E+00 -0.14465364696E+04  0.14465364696E+04  0.00000000000E+00 0. -1.
         21    1    1    2  503  502 -0.46366925725E+02  0.22881478487E+02  0.25293016000E+03  0.25816103443E+03  0.00000000000E+00 0. -1.
         21    1    1    2  504  501 -0.14512360949E+02  0.42947786497E+02  0.94930391745E+02  0.10519933584E+03  0.00000000000E+00 0. -1.
         21    1    1    2  505  503 -0.20364432288E+01  0.47200209407E+02 -0.56835783742E+03  0.57031801500E+03  0.00000000000E+00 0.  1.
          2    1    1    2  501    0  0.62915729902E+02 -0.11302947439E+03 -0.86463694934E+03  0.87426031896E+03  0.00000000000E+00 0. -1.
<scales pt_clust_3="89.35691" pt_clust_4="45.33344" pt_clust_5="47.40741" pt_clust_6="14000.00000"></scales>
<clustering>
<clus scale="   45.333">  1  4  2 -1</clus>
<clus scale="   47.407">  2  5  1 -1</clus>
<clus scale="   89.357">  1  3  2 -1</clus>
<clus scale="   45.333">  1  3  2 -1</clus>
</clustering>
</event>
<event>
 6    0  0.2117869E+002  0.1147377E+03  0.7546771E-02  0.1252040E+00
          2   -1    0    0  503    0 -0.00000000000E+00  0.00000000000E+00  0.22212695744E+04  0.22212695744E+04  0.00000000000E+00 0. -1.
         21   -1    0    0  504  502  0.00000000000E+00 -0.00000000000E+00 -0.63871181740E+02  0.63871181740E+02  0.00000000000E+00 0. -1.
         21    1    1    2  503  502 -0.87300236387E+02 -0.44439756311E+01  0.91337027411E+03  0.91754364355E+03  0.00000000000E+00 0. -1.
         21    1    1    2  504  505  0.92246449941E+02  0.73790814208E+02  0.25885127009E+02  0.12093192957E+03  0.00000000000E+00 0. -1.
         21    1    1    2  505  501 -0.10849342624E+03 -0.23609278314E+02  0.27222141740E+03  0.29399442452E+03  0.00000000000E+00 0. -1.
          2    1    1    2  501    0  0.10354721269E+03 -0.45737560263E+02  0.94592157412E+03  0.95267075847E+03  0.00000000000E+00 0. -1.
<scales pt_clust_3="87.41327" pt_clust_4="114.73766" pt_clust_5="14000.00000" pt_clust_6="63.28071"></scales>
<clustering>
<clus scale="   87.413">  1  3  2 -1</clus>
<clus scale="   63.281">  1  6  2 -1</clus>
<clus scale="  114.738">  2  4  1 -1</clus>
<clus scale="  114.738">  2  3  1 -1</clus>
</clustering>
</event>
<event>
 6    0  0.2117869E+002  0.7981556E+02  0.7546771E-02  0.1329576E+00
         -3   -1    0    0    0  501 -0.00000000000E+00  0.00000000000E+00  0.33092367533E+02  0.33092367533E+02  0.00000000000E+00 0.  1.
         21   -1    0    0  503  502  0.00000000000E+00 -0.00000000000E+00 -0.97129910693E+03  0.97129910693E+03  0.00000000000E+00 0.  1.
         21    1    1    2  503  504 -0.91198041532E+02  0.10712853579E+02 -0.70478809915E+03  0.71074475919E+03  0.00000000000E+00 0.  1.
         21    1    1    2  504  501  0.60674883078E+01  0.32639126784E+02 -0.93063075682E+01  0.34478027382E+02  0.00000000000E+00 0. -1.
         21    1    1    2  505  502  0.54455920980E+02  0.20243201254E+02 -0.12066173645E+03  0.13391971166E+03  0.00000000000E+00 0.  1.
         -3    1    1    2    0  505  0.30674632243E+02 -0.63595181618E+02 -0.10345059622E+03  0.12524897623E+03  0.00000000000E+00 0.  1.
<scales pt_clust_3="14000.00000" pt_clust_4="33.19830" pt_clust_5="79.81556" pt_clust_6="57.34116"></scales>
<clustering>
<clus scale="   33.198">  1  4  2 -1</clus>
<clus scale="   57.341">  1  6  2 -1</clus>
<clus scale="   79.816">  1  5  2 -1</clus>
<clus scale="   79.816">  2  3  1 -1</clus>
</clustering>
</event>
<event>
 6    0  0.2117869E+002  0.8386615E+02  0.7546771E-02  0.1318425E+00
         21   -1    0    0  505  502  0.00000000000E+00  0.00000000000E+00  0.13935237493E+03  0.13935237493E+03  0.00000000000E+00 0.  1.
          1   -1    0    0  504    0 -0.00000000000E+00 -0.00000000000E+00 -0.57907229005E+03  0.57907229005E+03  0.00000000000E+00 0.  1.
         21    1    1    2  503  502  0.25694020093E+02  0.45884104993E+02 -0.78204288495E+02  0.94241416047E+02  0.00000000000E+00 0.  1.
         21    1    1    2  504  503  0.45472234909E+02  0.59058812004E+01 -0.17573514476E+03  0.18161895464E+03  0.00000000000E+00 0.  1.
         21    1    1    2  505  501 -0.78957498152E+02  0.33952247767E+02  0.10708227719E+03  0.13730861492E+03  0.00000000000E+00 0.  1.
          1    1    1    2  501    0  0.77912431496E+01 -0.85742233961E+02 -0.29286275905E+03  0.30525567938E+03  0.00000000000E+00 0.  1.
<scales pt_clust_3="59.01652" pt_clust_4="45.85416" pt_clust_5="83.86615" pt_clust_6="14000.00000"></scales>
<clustering>
<clus scale="   45.854">  2  4  1 -1</clus>
<clus scale="   59.017">  2  3  1 -1</clus>
<clus scale="   83.866">  1  5  2 -1</clus>
<clus scale="   83.866">  1  3  2 -1</clus>
</clustering>
</event>
<event>
 6    0  0.2117869E+002  0.9538334E+02  0.7546771E-02  0.1290315E+00
         21   -1    0    0  505  502  0.00000000000E+00  0.00000000000E+00  0.46321147177E+03  0.46321147177E+03  0.00000000000E+00 0.  1.
         -4   -1    0    0    0  501 -0.00000000000E+00 -0.00000000000E+00 -0.12911196939E+03  0.12911196939E+03  0.00000000000E+00 0. -1.
         21    1    1    2  503  504  0.46022321650E+00  0.63664810343E+02  0.16017499220E+02  0.65650439166E+02  0.00000000000E+00 0. -1.
         21    1    1    2  504  502  0.81554169609E+02 -0.79467690415E+02  0.19609652300E+03  0.22675987902E+03  0.00000000000E+00 0.  1.
         21    1    1    2  505  501 -0.10120889521E+03 -0.22254342411E+02  0.19186434315E+03  0.21806059341E+03  0.00000000000E+00 0.  1.
         -4    1    1    2    0  503  0.19194502385E+02  0.38057222483E+02 -0.69878862987E+02  0.81852529571E+02  0.00000000000E+00 0. -1.
<scales pt_clust_3="81.94378" pt_clust_4="14000.00000" pt_clust_5="95.38334" pt_clust_6="42.62372"></scales>
<clustering>
<clus scale="   42.624">  2  6  1 -1</clus>
<clus scale="   81.944">  2  3  1 -1</clus>
<clus scale="   95.383">  1  5  2 -1</clus>
<clus scale="   95.383">  1  3  2 -1</clus>
</clustering>
</event>
<event>
 6    0  0.2117869E+002  0.2986571E+03  0.7546771E-02  0.1085914E+00
          1   -1    0    0  505    0 -0.00000000000E+00  0.00000000000E+00  0.76216416690E+03  0.76216416690E+03  0.00000000000E+00 0.  1.
         21   -1    0    0  504  502  0.00000000000E+00 -0.00000000000E+00 -0.14014774471E+03  0.14014774471E+03  0.00000000000E+00 0. -1.
         21    1    1    2  503  502 -0.13439609875E+03  0.24914748278E+03  0.21479939063E+03  0.35535272300E+03  0.00000000000E+00 0. -1.
         21    1    1    2  504  501  0.82030214674E+02 -0.22654963497E+03  0.20445115849E+03  0.31599678706E+03  0.00000000000E+00 0.  1.
         21    1    1    2  505  503  0.25305690899E+02  0.36530565251E+02  0.98822116353E+02  0.10835437633E+03  0.00000000000E+00 0.  1.
          1    1    1    2  501    0  0.27060193175E+02 -0.59128413058E+02  0.10394375672E+03  0.12260802521E+03  0.00000000000E+00 0.  1.
<scales pt_clust_3="292.30455" pt_clust_4="31.83022" pt_clust_5="44.43940" pt_clust_6="31.83022"></scales>
<clustering>
<clus scale="   31.830">  4  6 -1 -1</clus>
<clus scale="   44.439">  1  5  2 -1</clus>
<clus scale="  292.305">  2  3  1 -1</clus>
<clus scale="  292.305">  2  3  1 -1</clus>
</clustering>
</event>
<event>
 6    0  0.2117869E+002  0.9329137E+02  0.7546771E-02  0.1295071E+00
         21   -1    0    0  504  502  0.00000000000E+00  0.00000000000E+00  0.91787883953E+03  0.91787883953E+03  0.00000000000E+00 0.  1.
          2   -1    0    0  503    0 -0.00000000000E+00 -0.00000000000E+00 -0.14999312275E+04  0.14999312275E+04  0.00000000000E+00 0.  1.
         21    1    1    2  503  505 -0.11429999562E+02  0.50210210007E+02 -0.91522593953E+02  0.10501473841E+03  0.00000000000E+00 0.  1.
         21    1    1    2  504  501 -0.80989257967E+02  0.10013028016E+02  0.10052488464E+03  0.12947885182E+03  0.00000000000E+00 0. -1.
         21    1    1    2  505  502  0.78850550651E+00  0.39584976633E+02  0.79232693667E+03  0.79331555304E+03  0.00000000000E+00 0.  1.
          2    1    1    2  501    0  0.91630752022E+02 -0.99808214656E+02 -0.13833816153E+04  0.13900009238E+04  0.00000000000E+00 0.  1.
<scales pt_clust_3="53.56989" pt_clust_4="93.29137" pt_clust_5="39.59283" pt_clust_6="14000.00000"></scales>
<clustering>
<clus scale="   39.593">  1  5  2 -1</clus>
<clus scale="   53.570">  2  3  1 -1</clus>
<clus scale="   93.291">  1  4  2 -1</clus>
<clus scale="   39.593">  1  3  2 -1</clus>
</clustering>
</event>
<event>
 6    0  0.2117869E+002  0.1822906E+03  0.7546771E-02  0.1165604E+00
         21   -1    0    0  503  502  0.00000000000E+00  0.00000000000E+00  0.12759757016E+03  0.12759757016E+03  0.00000000000E+00 0. -1.
          1   -1    0    0  505    0 -0.00000000000E+00 -0.00000000000E+00 -0.76094156055E+03  0.76094156055E+03  0.00000000000E+00 0. -1.
         21    1    1    2  503  501  0.15346763862E+02 -0.57625670646E+02 -0.17002069733E+02  0.62010575337E+02  0.00000000000E+00 0. -1.
         21    1    1    2  504  502 -0.12049576967E+02  0.22040808468E+03 -0.69474219512E+02  0.23141215023E+03  0.00000000000E+00 0. -1.
         21    1    1    2  505  504  0.12186210854E+02  0.34440541715E+02 -0.73712746024E+02  0.82269214017E+02  0.00000000000E+00 0.  1.
          1    1    1    2  501    0 -0.15483397750E+02 -0.19722295575E+03 -0.47315495512E+03  0.51284719112E+03  0.00000000000E+00 0. -1.
<scales pt_clust_3="57.90279" pt_clust_4="182.29062" pt_clust_5="36.53293" pt_clust_6="14000.00000"></scales>
<clustering>
<clus scale="   36.533">  2  5  1 -1</clus>
<clus scale="   57.903">  1  3  2 -1</clus>
<clus scale="  182.291">  1  4  2 -1</clus>
<clus scale="   57.903">  1  3  2 -1</clus>
</clustering>
</event>
<event>
 6    0  0.2117869E+002  0.1339373E+03  0.7546771E-02  0.1221728E+00
         21   -1    0    0  505  502  0.00000000000E+00  0.00000000000E+00  0.48718456431E+03  0.48718456431E+03  0.00000000000E+00 0.  1.
         -3   -1    0    0    0  501 -0.00000000000E+00 -0.00000000000E+00 -0.44330435702E+03  0.44330435702E+03  0.00000000000E+00 0.  1.
         21    1    1    2  503  501 -0.77596996021E+01 -0.61657615477E+02 -0.16799383219E+03  0.17911951914E+03  0.00000000000E+00 0.  1.
         21    1    1    2  504  502 -0.70620012759E+02  0.19561326735E+03  0.31562556526E+03  0.37798311340E+03  0.00000000000E+00 0.  1.
         21    1    1    2  505  503 -0.27032512625E+02 -0.99190388556E+02  0.98691044710E+02  0.14251109510E+03  0.00000000000E+00 0. -1.
         -3    1    1    2    0  504  0.10541222499E+03 -0.34765263314E+02 -0.20244257049E+03  0.23087519368E+03  0.00000000000E+00 0.  1.
<scales pt_clust_3="62.14398" pt_clust_4="133.93727" pt_clust_5="107.80794" pt_clust_6="14000.00000"></scales>
<clustering>
<clus scale="   62.144">  2  3  1 -1</clus>
<clus scale="  107.808">  1  5  2 -1</clus>
<clus scale="  133.937">  1  4  2 -1</clus>
<clus scale="  107.808">  1  3  2 -1</clus>
</clustering>
</event>
<event>
 6    0  0.2117869E+002  0.1371034E+03  0.7546771E-02  0.1217281E+00
          1   -1    0    0  505    0 -0.00000000000E+00  0.00000000000E+00  0.65216241707E+02  0.65216241707E+02  0.00000000000E+00 0. -1.
         21   -1    0    0  503  502  0.00000000000E+00 -0.00000000000E+00 -0.86596484381E+03  0.86596484381E+03  0.00000000000E+00 0. -1.
         21    1    1    2  503  504  0.72835242552E+01  0.43050571210E+02 -0.76642225077E+02  0.88206757518E+02  0.00000000000E+00 0. -1.
         21    1    1    2  504  501  0.14098558523E+03  0.54801057027E+02 -0.45410361847E+03  0.47863366722E+03  0.00000000000E+00 0. -1.
         21    1    1    2  505  502 -0.80392159684E+02  0.15004711541E+02 -0.23874928070E+02  0.85194206948E+02  0.00000000000E+00 0. -1.
          1    1    1    2  501    0 -0.67876949805E+02 -0.11285633978E+03 -0.24612783049E+03  0.27914645383E+03  0.00000000000E+00 0. -1.
<scales pt_clust_3="43.66236" pt_clust_4="137.10338" pt_clust_5="81.88826" pt_clust_6="14000.00000"></scales>
<clustering>
<clus scale="   43.662">  2  3  1 -1</clus>
<clus scale="   81.888">  1  5  2 -1</clus>
<clus scale="  137.103">  2  4  1 -1</clus>
<clus scale="   43.662">  2  3  1 -1</clus>
</clustering>
</event>
<event>
 6    0  0.2117869E+002  0.1486714E+03  0.7546771E-02  0.1202115E+00
         21   -1    0    0  504  502  0.00000000000E+00  0.00000000000E+00  0.34977049386E+03  0.34977049386E+03  0.00000000000E+00 0.  1.
         -4   -1    0    0    0  501 -0.00000000000E+00 -0.00000000000E+00 -0.26918399533E+03  0.26918399533E+03  0.00000000000E+00 0.  1.
         21    1    1    2  503  502  0.10153939927E+02  0.35657655086E+02  0.20900125593E+03  0.21226421234E+03  0.00000000000E+00 0.  1.
         21    1    1    2  504  505  0.21884979447E+02 -0.66117972170E+02  0.16677379472E+02  0.71614757943E+02  0.00000000000E+00 0.  1.
         21    1    1    2  505  501  0.13346448040E+03  0.28720707408E+02 -0.65913492447E+02  0.15159892826E+03  0.00000000000E+00 0.  1.
         -4    1    1    2    0  503 -0.16550339978E+03  0.17396096759E+01 -0.79178644425E+02  0.18347659064E+03  0.00000000000E+00 0.  1.
<scales pt_clust_3="37.07521" pt_clust_4="60.28156" pt_clust_5="14000.00000" pt_clust_6="148.67141"></scales>
<clustering>
<clus scale="   37.075">  1  3  2 -1</clus>
<clus scale="   60.282">  1  4  2 -1</clus>
<clus scale="  148.671">  1  6  2 -1</clus>
<clus scale="   37.075">  1  3  2 -1</clus>
</clustering>
</event>
<event>
 6    0  0.2117869E+002  0.1296618E+03  0.7546771E-02  0.1227958E+00
          2   -1    0    0  503    0 -0.00000000000E+00  0.00000000000E+00  0.26039618180E+04  0.26039618180E+04  0.00000000000E+00 0.  1.
         21   -1    0    0  505  502  0.00000000000E+00 -0.00000000000E+00 -0.15631549944E+03  0.15631549944E+03  0.00000000000E+00 0. -1.
         21    1    1    2  503  504  0.44625933096E+02 -0.17172174186E+02 -0.82966773390E+02  0.95759296979E+02  0.00000000000E+00 0. -1.
         21    1    1    2  504  502 -0.35589705869E+01 -0.30811875919E+02 -0.51325576305E+02  0.59969598567E+02  0.00000000000E+00 0. -1.
         21    1    1    2  505  501  0.84806164435E+02 -0.13505368818E+02  0.18993571449E+03  0.20844677055E+03  0.00000000000E+00 0.  1.
          2    1    1    2  501    0 -0.12587312694E+03  0.61489418924E+02  0.23920029538E+04  0.23961016514E+04  0.00000000000E+00 0.  1.
<scales pt_clust_3="60.84292" pt_clust_4="31.01674" pt_clust_5="14000.00000" pt_clust_6="129.66182"></scales>
<clustering>
<clus scale="   31.017">  2  4  1 -1</clus>
<clus scale="   60.843">  2  3  1 -1</clus>
<clus scale="  129.662">  1  6  2 -1</clus>
<clus scale="   31.017">  2  3  1 -1</clus>
</clustering>
</event>
<event>
 6    0  0.2117869E+002  0.1478038E+03  0.7546771E-02  0.1203198E+00
         21   -1    0    0  505  502  0.00000000000E+00  0.00000000000E+00  0.42367376222E+02  0.42367376222E+02  0.00000000000E+00 0.  1.
          2   -1    0    0  503    0 -0.00000000000E+00 -0.00000000000E+00 -0.19507966029E+04  0.19507966029E+04  0.00000000000E+00 0.  1.
         21    1    1    2  503  504 -0.28989192754E+02  0.12336949105E+03 -0.72200211103E+03  0.73303987132E+03  0.00000000000E+00 0.  1.
         21    1    1    2  504  502 -0.14222137790E+03  0.15242882662E+02 -0.28898475448E+03  0.32244604839E+03  0.00000000000E+00 0.  1.
         21    1    1    2  505  501  0.67361496471E+01 -0.37242580977E+02 -0.28132960751E+02  0.47157703829E+02  0.00000000000E+00 0. -1.
          2    1    1    2  501    0  0.16447442100E+03 -0.10136979273E+03 -0.86930940042E+03  0.89052035558E+03  0.00000000000E+00 0.  1.
<scales pt_clust_3="120.38125" pt_clust_4="147.80380" pt_clust_5="37.84687" pt_clust_6="14000.00000"></scales>
<clustering>
<clus scale="   37.847">  1  5  2 -1</clus>
<clus scale="  120.381">  2  3  1 -1</clus>
<clus scale="  147.804">  1  4  2 -1</clus>
<clus scale="   37.847">  1  3  2 -1</clus>
</clustering>
</event>
<event>
 6    0  0.2117869E+002  0.5790645E+02  0.7546771E-02  0.1406833E+00
         21   -1    0    0  503  502  0.00000000000E+00  0.00000000000E+00  0.66491715686E+03  0.66491715686E+03  0.00000000000E+00 0.  1.
          2   -1    0    0  504    0 -0.00000000000E+00 -0.00000000000E+00 -0.58339227830E+03  0.58339227830E+03  0.00000000000E+00 0.  1.
         21    1    1    2  503  501  0.56823325997E+02 -0.10253633733E+02  0.64599245318E+03  0.64856786611E+03  0.00000000000E+00 0.  1.
         21    1    1    2  504  505 -0.29323614478E+02 -0.26710683896E+02 -0.15535538852E+03  0.16033911482E+03  0.00000000000E+00 0.  1.
         21    1    1    2  505  502  0.51559341316E+02 -0.26184853898E+02 -0.17663429056E+03  0.18585931468E+03  0.00000000000E+00 0.  1.
          2    1    1    2  501    0 -0.79059052835E+02  0.63149171527E+02 -0.23247789554E+03  0.25354313956E+03  0.00000000000E+00 0.  1.
<scales pt_clust_3="14000.00000" pt_clust_4="39.66529" pt_clust_5="54.19701" pt_clust_6="57.90645"></scales>
<clustering>
<clus scale="   39.665">  2  4  1 -1</clus>
<clus scale="   54.197">  2  5  1 -1</clus>
<clus scale="   57.906">  2  6  1 -1</clus>
<clus scale="   57.906">  1  3  2 -1</clus>
</clustering>
</event>
<event>
 6    0  0.2117869E+002  0.1428300E+03  0.7546771E-02  0.1209571E+00
          1   -1    0    0  504    0 -0.00000000000E+00  0.00000000000E+00  0.48591107117E+03  0.48591107117E+03  0.00000000000E+00 0. -1.
         21   -1    0    0  503  502  0.00000000000E+00 -0.00000000000E+00 -0.25775495879E+03  0.25775495879E+03  0.00000000000E+00 0.  1.
         21    1    1    2  503  505  0.11316623620E+02  0.36720194330E+02 -0.13546472564E+03  0.14080884395E+03  0.00000000000E+00 0.  1.
         21    1    1    2  504  502  0.11773770340E+03 -0.27164383750E+02 -0.74314555203E+02  0.14185458632E+03  0.00000000000E+00 0.  1.
         21    1    1    2  505  501 -0.83675414162E+02  0.10882174325E+02  0.18666454506E+03  0.20485030885E+03  0.00000000000E+00 0. -1.
          1    1    1    2  501    0 -0.45378912858E+02 -0.20437984905E+02  0.25127084817E+03  0.25615229083E+03  0.00000000000E+00 0. -1.
<scales pt_clust_3="38.42445" pt_clust_4="128.10448" pt_clust_5="48.38545" pt_clust_6="48.38545"></scales>
<clustering>
<clus scale="   38.424">  2  3  1 -1</clus>
<clus scale="   48.385">  5  6 -1 -1</clus>
<clus scale="  128.104">  2  4  1 -1</clus>
<clus scale="   38.424">  2  3  1 -1</clus>
</clustering>
</event>
<event>
 6    0  0.2117869E+002  0.9102202E+02  0.7546771E-02  0.1300395E+00
         21   -1    0    0  504  502  0.00000000000E+00  0.00000000000E+00  0.12802779662E+03  0.12802779662E+03  0.00000000000E+00 0. -1.
          1   -1    0    0  503    0 -0.00000000000E+00 -0.00000000000E+00 -0.29367146932E+04  0.29367146932E+04  0.00000000000E+00 0. -1.
         21    1    1    2  503  505  0.32996792142E+01 -0.74058117523E+02 -0.58413440987E+03  0.58881958311E+03  0.00000000000E+00 0.  1.
         21    1    1    2  504  501 -0.22088913061E+02  0.10294643678E+03  0.92806481533E+02  0.14035288362E+03  0.00000000000E+00 0. -1.
         21    1    1    2  505  502 -0.23031864338E+02 -0.21884664996E+02 -0.19412558070E+02  0.37232415282E+02  0.00000000000E+00 0.  1.
          1    1    1    2  501    0  0.41821098185E+02 -0.70036542597E+01 -0.22979464102E+04  0.22983376078E+04  0.00000000000E+00 0. -1.
<scales pt_clust_3="14000.00000" pt_clust_4="91.02202" pt_clust_5="31.77114" pt_clust_6="42.37214"></scales>
<clustering>
<clus scale="   31.771">  1  5  2 -1</clus>
<clus scale="   42.372">  2  6  1 -1</clus>
<clus scale="   91.022">  1  4  2 -1</clus>
<clus scale="   31.771">  1  3  2 -1</clus>
</clustering>
</event>
<event>
 6    0  0.2117869E+002  0.1871909E+03  0.7546771E-02  0.1161020E+00
         21   -1    0    0  503  502  0.00000000000E+00  0.00000000000E+00  0.29974187720E+03  0.29974187720E+03  0.00000000000E+00 0. -1.
          2   -1    0    0  505    0 -0.00000000000E+00 -0.00000000000E+00 -0.42332551629E+03  0.42332551629E+03  0.00000000000E+00 0. -1.
         21    1    1    2  503  504 -0.14164656189E+02  0.54905291657E+02  0.27087059508E+02  0.62840570730E+02  0.00000000000E+00 0. -1.
         21    1    1    2  504  501 -0.89931414333E+02  0.34753915317E+02  0.13375681405E+03  0.16488292580E+03  0.00000000000E+00 0. -1.
         21    1    1    2  505  502 -0.83976358138E+02 -0.17463247476E+03 -0.17808950897E+03  0.26318131236E+03  0.00000000000E+00 0. -1.
          2    1    1    2  501    0  0.18807242866E+03  0.84973267789E+02 -0.10633800368E+03  0.23216258460E+03  0.00000000000E+00 0. -1.
<scales pt_clust_3="56.70299" pt_clust_4="118.86847" pt_clust_5="187.19091" pt_clust_6="14000.00000"></scales>
<clustering>
<clus scale="   56.703">  1  3  2 -1</clus>
<clus scale="  118.868">  1  4  2 -1</clus>
<clus scale="  187.191">  2  5  1 -1</clus>
<clus scale="   56.703">  1  3  2 -1</clus>
</clustering>
</event>
<event>
 6    0  0.2117869E+002  0.2662785E+03  0.7546771E-02  0.1103429E+00
          2   -1    0    0  505    0 -0.00000000000E+00  0.00000000000E+00  0.95718198249E+03  0.95718198249E+03  0.00000000000E+00 0. -1.
         21   -1    0    0  501  502  0.00000000000E+00 -0.00000000000E+00 -0.21927660461E+03  0.21927660461E+03  0.00000000000E+00 0. -1.
         21    1    1    2  503  504 -0.12538131791E+02 -0.25940488080E+03 -0.26347615854E+02  0.26104078952E+03  0.00000000000E+00 0. -1.
         21    1    1    2  504  502 -0.34288056258E+02  0.11898338863E+02 -0.13963397057E+01  0.36320669518E+02  0.00000000000E+00 0. -1.
         21    1    1    2  505  503 -0.54187033761E+02 -0.74095036879E+02  0.12387503975E+03  0.15417955309E+03  0.00000000000E+00 0. -1.
          2    1    1    2  501    0  0.10101322181E+03  0.32160157881E+03  0.64177429368E+03  0.72491757498E+03  0.00000000000E+00 0. -1.
<scales pt_clust_3="266.27853" pt_clust_4="36.29382" pt_clust_5="92.63623" pt_clust_6="14000.00000"></scales>
<clustering>
<clus scale="   36.294">  2  4  1 -1</clus>
<clus scale="   92.636">  1  5  2 -1</clus>
<clus scale="  266.279">  2  3  1 -1</clus>
<clus scale="   36.294">  2  3  1 -1</clus>
</clustering>
</event>
<event>
 6    0  0.2117869E+002  0.9488723E+02  0.7546771E-02  0.1291430E+00
         21   -1    0    0  504  502  0.00000000000E+00  0.00000000000E+00  0.34128994654E+03  0.34128994654E+03  0.00000000000E+00 0. -1.
          2   -1    0    0  503    0 -0.00000000000E+00 -0.00000000000E+00 -0.26370529674E+04  0.26370529674E+04  0.00000000000E+00 0.  1.
         21    1    1    2  503  505  0.32103220019E+02  0.82850821040E+02 -0.10185251143E+04  0.10223934095E+04  0.00000000000E+00 0.  1.
         21    1    1    2  504  501  0.87853338510E+01 -0.28989401420E+02  0.24818632350E+03  0.25002803574E+03  0.00000000000E+00 0. -1.
         21    1    1    2  505  502  0.31323935540E+02 -0.59029579073E+02  0.76947736013E+02  0.10191483808E+03  0.00000000000E+00 0.  1.
          2    1    1    2  501    0 -0.72212489411E+02  0.51681594521E+01 -0.16023719661E+04  0.16040066307E+04  0.00000000000E+00 0.  1.
<scales pt_clust_3="94.88723" pt_clust_4="30.29138" pt_clust_5="14000.00000" pt_clust_6="72.30158"></scales>
<clustering>
<clus scale="   30.291">  1  4  2 -1</clus>
<clus scale="   72.302">  2  6  1 -1</clus>
<clus scale="   94.887">  2  3  1 -1</clus>
<clus scale="   30.291">  1  3  2 -1</clus>
</clustering>
</event>
<event>
 6    0  0.2117869E+002  0.1452120E+03  0.7546771E-02  0.1206483E+00
         21   -1    0    0  501  502  0.00000000000E+00  0.00000000000E+00  0.81809183484E+02  0.81809183484E+02  0.00000000000E+00 0.  1.
          3   -1    0    0  503    0 -0.00000000000E+00 -0.00000000000E+00 -0.14774617822E+04  0.14774617822E+04  0.00000000000E+00 0. -1.
         21    1    1    2  503  505  0.49766104960E+02  0.34865911359E+01 -0.19155255370E+03  0.19794242181E+03  0.00000000000E+00 0. -1.
         21    1    1    2  504  502  0.95748246914E+02 -0.95596769986E+02 -0.25953509232E+02  0.13776811627E+03  0.00000000000E+00 0.  1.
         21    1    1    2  505  504 -0.16647495535E+03  0.17398290032E+03 -0.77072702393E+03  0.80746771191E+03  0.00000000000E+00 0. -1.
          3    1    1    2  501    0  0.20960603480E+02 -0.81872721470E+02 -0.40741951187E+03  0.41609271572E+03  0.00000000000E+00 0. -1.
<scales pt_clust_3="49.88809" pt_clust_4="14000.00000" pt_clust_5="145.21203" pt_clust_6="88.79964"></scales>
<clustering>
<clus scale="   49.888">  2  3  1 -1</clus>
<clus scale="   88.800">  2  6  1 -1</clus>
<clus scale="  145.212">  2  5  1 -1</clus>
<clus scale="  145.212">  1  3  2 -1</clus>
</clustering>
</event>
<event>
 6    0  0.2117869E+002  0.1039369E+03  0.7546771E-02  0.1272229E+00
         21   -1    0    0  503  502  0.00000000000E+00  0.00000000000E+00  0.13508166066E+03  0.13508166066E+03  0.00000000000E+00 0. -1.
          2   -1    0    0  504    0 -0.00000000000E+00 -0.00000000000E+00 -0.32456257239E+04  0.32456257239E+04  0.00000000000E+00 0.  1.
         21    1    1    2  503  505 -0.84068133467E+02 -0.88285423306E+02  0.85331810330E+02  0.14880619909E+03  0.00000000000E+00 0. -1.
         21    1    1    2  504  502 -0.33321599125E+02  0.72571480894E+01 -0.15337125336E+03  0.15711695174E+03  0.00000000000E+00 0.  1.
         21    1    1    2  505  501  0.33930194758E+02  0.56306142609E+02 -0.54170421103E+02  0.85182594081E+02  0.00000000000E+00 0. -1.
          2    1    1    2  501    0  0.83459537835E+02  0.24722132607E+02 -0.29883341991E+04  0.29896016396E+04  0.00000000000E+00 0.  1.
<scales pt_clust_3="103.93687" pt_clust_4="34.10271" pt_clust_5="14000.00000" pt_clust_6="60.26738"></scales>
<clustering>
<clus scale="   34.103">  2  4  1 -1</clus>
<clus scale="   60.267">  2  6  1 -1</clus>
<clus scale="  103.937">  1  3  2 -1</clus>
<clus scale="  103.937">  1  3  2 -1</clus>
</clustering>
</event>
<event>
 6    0  0.2117869E+002  0.7899842E+02  0.7546771E-02  0.1331918E+00
         -2   -1    0    0    0  501 -0.00000000000E+00  0.00000000000E+00  0.63588505756E+03  0.63588505756E+03  0.00000000000E+00 0.  1.
         21   -1    0    0  503  502  0.00000000000E+00 -0.00000000000E+00 -0.31610660803E+03  0.31610660803E+03  0.00000000000E+00 0. -1.
         21    1    1    2  503  505 -0.24263715647E+02 -0.79965240963E+02 -0.30733184090E+02  0.89037611510E+02  0.00000000000E+00 0. -1.
         21    1    1    2  504  502  0.76728080561E+02  0.20658487603E+02 -0.24077035545E+03  0.25354355744E+03  0.00000000000E+00 0. -1.
         21    1    1    2  505  501 -0.28054278626E+02 -0.35900886642E+02  0.12940908949E+03  0.13719558540E+03  0.00000000000E+00 0. -1.
         -2    1    1    2    0  504 -0.24410086289E+02  0.95207640001E+02  0.46187289957E+03  0.47221491123E+03  0.00000000000E+00 0.  1.
<scales pt_clust_3="76.66335" pt_clust_4="78.99842" pt_clust_5="45.56222" pt_clust_6="14000.00000"></scales>
<clustering>
<clus scale="   45.562">  1  5  2 -1</clus>
<clus scale="   78.998">  2  4  1 -1</clus>
<clus scale="   76.663">  2  3  1 -1</clus>
<clus scale="   78.998">  2  3  1 -1</clus>
</clustering>
</event>
<event>
 6    0  0.2117869E+002  0.1198229E+03  0.7546771E-02  0.1243390E+00
         21   -1    0    0  503  502  0.00000000000E+00  0.00000000000E+00  0.12001660065E+03  0.12001660065E+03  0.00000000000E+00 0.  1.
          1   -1    0    0  504    0 -0.00000000000E+00 -0.00000000000E+00 -0.47166451473E+04  0.47166451473E+04  0.00000000000E+00 0.  1.
         21    1    1    2  503  501  0.79215960504E+02  0.83288945594E+02  0.63388143648E+02  0.13126413681E+03  0.00000000000E+00 0.  1.
         21    1    1    2  504  505  0.63440208072E+02 -0.72349386347E+01 -0.36069659651E+04  0.36075310779E+04  0.00000000000E+00 0.  1.
         21    1    1    2  505  502 -0.10348673002E+03 -0.14921195621E+03 -0.39663139723E+03  0.43622262256E+03  0.00000000000E+00 0.  1.
          1    1    1    2  501    0 -0.39169438559E+02  0.73157949251E+02 -0.65641932801E+03  0.66164391075E+03  0.00000000000E+00 0.  1.
<scales pt_clust_3="14000.00000" pt_clust_4="63.85142" pt_clust_5="119.82288" pt_clust_6="68.87604"></scales>
<clustering>
<clus scale="   63.851">  2  4  1 -1</clus>
<clus scale="   68.876">  2  6  1 -1</clus>
<clus scale="  119.823">  2  5  1 -1</clus>
<clus scale="  119.823">  1  3  2 -1</clus>
</clustering>
</event>
<event>
 6    0  0.2117869E+002  0.7994905E+02  0.7546771E-02  0.1329196E+00
          4   -1    0    0  504    0 -0.00000000000E+00  0.00000000000E+00  0.65091855666E+03  0.65091855666E+03  0.00000000000E+00 0.  1.
         21   -1    0    0  501  502  0.00000000000E+00 -0.00000000000E+00 -0.14829885652E+03  0.14829885652E+03  0.00000000000E+00 0. -1.
         21    1    1    2  503  505  0.62728177100E+01 -0.48357460158E+02 -0.47455667947E+02  0.68042873362E+02  0.00000000000E+00 0. -1.
         21    1    1    2  504  503  0.20733481793E+01 -0.59754565479E+02  0.16062665223E+03  0.17139378132E+03  0.00000000000E+00 0.  1.
         21    1    1    2  505  502  0.39974072391E+02  0.13227221974E+02 -0.73520781880E+02  0.84724206889E+02  0.00000000000E+00 0. -1.
          4    1    1    2  501    0 -0.48320238280E+02  0.94884803663E+02  0.46296949774E+03  0.47505655161E+03  0.00000000000E+00 0.  1.
<scales pt_clust_3="54.44304" pt_clust_4="79.94905" pt_clust_5="42.10565" pt_clust_6="14000.00000"></scales>
<clustering>
<clus scale="   42.106">  2  5  1 -1</clus>
<clus scale="   54.443">  2  3  1 -1</clus>
<clus scale="   79.949">  1  4  2 -1</clus>
<clus scale="   42.106">  2  3  1 -1</clus>
</clustering>
</event>
<event>
 6    0  0.2117869E+002  0.1873761E+03  0.7546771E-02  0.1160849E+00
         21   -1    0    0  501  502  0.00000000000E+00  0.00000000000E+00  0.15383758246E+03  0.15383758246E+03  0.00000000000E+00 0. -1.
          2   -1    0    0  504    0 -0.00000000000E+00 -0.00000000000E+00 -0.95357126808E+03  0.95357126808E+03  0.00000000000E+00 0. -1.
         21    1    1    2  503  505  0.10717827193E+03 -0.16628431805E+01 -0.12895224762E+03  0.16768610315E+03  0.00000000000E+00 0. -1.
         21    1    1    2  504  503  0.65303948210E+01 -0.65764286878E+02 -0.21567982087E+03  0.22557786376E+03  0.00000000000E+00 0. -1.
         21    1    1    2  505  502  0.13396360405E+03  0.12158026193E+03  0.13443814280E+02  0.18140767195E+03  0.00000000000E+00 0. -1.
          2    1    1    2  501    0 -0.24767227080E+03 -0.54153131871E+02 -0.46854543141E+03  0.53273721168E+03  0.00000000000E+00 0. -1.
<scales pt_clust_3="109.52776" pt_clust_4="66.08773" pt_clust_5="14000.00000" pt_clust_6="187.37614"></scales>
<clustering>
<clus scale="   66.088">  2  4  1 -1</clus>
<clus scale="  109.528">  2  3  1 -1</clus>
<clus scale="  187.376">  2  6  1 -1</clus>
<clus scale="  187.376">  1  3  2 -1</clus>
</clustering>
</event>
<event>
 6    0  0.2117869E+002  0.1290487E+03  0.7546771E-02  0.1228874E+00
          1   -1    0    0  504    0 -0.00000000000E+00  0.00000000000E+00  0.95480451682E+03  0.95480451682E+03  0.00000000000E+00 0.  1.
         21   -1    0    0  501  502  0.00000000000E+00 -0.00000000000E+00 -0.15496724381E+03  0.15496724381E+03  0.00000000000E+00 0.  1.
         21    1    1    2  503  505  0.32731526706E+02 -0.13767568967E+03 -0.14029163917E+00  0.14151313737E+03  0.00000000000E+00 0.  1.
         21    1    1    2  504  503  0.58226446043E+02 -0.69929999029E+01  0.32734852979E+03  0.33256019158E+03  0.00000000000E+00 0.  1.
         21    1    1    2  505  502 -0.35430886301E+02  0.11221589547E+02 -0.67233478343E+02  0.76821952501E+02  0.00000000000E+00 0.  1.
          1    1    1    2  501    0 -0.55527086447E+02  0.13344710002E+03  0.53986251320E+03  0.55887647919E+03  0.00000000000E+00 0.  1.
<scales pt_clust_3="14000.00000" pt_clust_4="57.49800" pt_clust_5="37.16546" pt_clust_6="129.04869"></scales>
<clustering>
<clus scale="   37.165">  2  5  1 -1</clus>
<clus scale="   57.498">  1  4  2 -1</clus>
<clus scale="  129.049">  1  6  2 -1</clus>
<clus scale="   37.165">  2  3  1 -1</clus>
</clustering>
</event>
<event>
 6    0  0.2117869E+002  0.9435786E+02  0.7546771E-02  0.1292629E+00
          4   -1    0    0  504    0 -0.00000000000E+00  0.00000000000E+00  0.29295620401E+04  0.29295620401E+04  0.00000000000E+00 0.  1.
         21   -1    0    0  501  502  0.00000000000E+00 -0.00000000000E+00 -0.32513242895E+03  0.32513242895E+03  0.00000000000E+00 0.  1.
         21    1    1    2  503  505  0.88586578787E+02 -0.18861057345E+02  0.95420958081E+02  0.13156169909E+03  0.00000000000E+00 0. -1.
         21    1    1    2  504  503 -0.57783295928E+02  0.29795141907E+02  0.19729836591E+04  0.19740545025E+04  0.00000000000E+00 0.  1.
         21    1    1    2  505  502  0.33987425143E+02  0.87825059260E+02 -0.29501786023E+03  0.30968358684E+03  0.00000000000E+00 0.  1.
          4    1    1    2  501    0 -0.64790708002E+02 -0.98759143822E+02  0.83104285419E+03  0.83939468061E+03  0.00000000000E+00 0.  1.
<scales pt_clust_3="83.15140" pt_clust_4="65.01277" pt_clust_5="14000.00000" pt_clust_6="94.35786"></scales>
<clustering>
<clus scale="   65.013">  1  4  2 -1</clus>
<clus scale="   83.151">  1  3  2 -1</clus>
<clus scale="   94.358">  1  6  2 -1</clus>
<clus scale="   94.358">  2  3  1 -1</clus>
</clustering>
</event>
<event>
 6    0  0.2117869E+002  0.1186396E+03  0.7546771E-02  0.1245358E+00
         21   -1    0    0  503  502  0.00000000000E+00  0.00000000000E+00  0.85912212969E+02  0.85912212969E+02  0.00000000000E+00 0.  1.
          2   -1    0    0  505    0 -0.00000000000E+00 -0.00000000000E+00 -0.12092388415E+04  0.12092388415E+04  0.00000000000E+00 0.  1.
         21    1    1    2  503  501 -0.14257735139E+03 -0.14465692366E+03 -0.14956559592E+03  0.25223757487E+03  0.00000000000E+00 0.  1.
         21    1    1    2  504  502  0.92004642800E+02  0.51307586500E+02 -0.72450638517E+02  0.12785311005E+03  0.00000000000E+00 0. -1.
         21    1    1    2  505  504  0.17248504014E+02 -0.25265489477E+02 -0.10837045062E+03  0.11260555234E+03  0.00000000000E+00 0. -1.
          2    1    1    2  501    0  0.33324204581E+02  0.11861482664E+03 -0.79293994351E+03  0.80245481725E+03  0.00000000000E+00 0.  1.
<scales pt_clust_3="118.63962" pt_clust_4="105.63182" pt_clust_5="30.59176" pt_clust_6="14000.00000"></scales>
<clustering>
<clus scale="   30.592">  2  5  1 -1</clus>
<clus scale="  105.632">  1  4  2 -1</clus>
<clus scale="  118.640">  1  3  2 -1</clus>
<clus scale="  105.632">  1  3  2 -1</clus>
</clustering>
</event>
<event>
 6    0  0.2117869E+002  0.1472380E+03  0.7546771E-02  0.1203909E+00
         21   -1    0    0  503  502  0.00000000000E+00  0.00000000000E+00  0.21585343831E+03  0.21585343831E+03  0.00000000000E+00 0. -1.
         -3   -1    0    0    0  501 -0.00000000000E+00 -0.00000000000E+00 -0.38098782169E+03  0.38098782169E+03  0.00000000000E+00 0. -1.
         21    1    1    2  503  504  0.36716854595E+02 -0.94902976628E+01  0.55768734272E+02  0.67441418160E+02  0.00000000000E+00 0.  1.
         21    1    1    2  504  505 -0.38522580440E+02 -0.24586157987E+02 -0.21472790359E+02  0.50493059861E+02  0.00000000000E+00 0. -1.
         21    1    1    2  505  501  0.40682836008E+01 -0.11766075735E+03  0.92610628504E+02  0.14979096523E+03  0.00000000000E+00 0. -1.
         -3    1    1    2    0  502 -0.22625577556E+01  0.15173721300E+03 -0.29204095579E+03  0.32911581675E+03  0.00000000000E+00 0. -1.
<scales pt_clust_3="37.92352" pt_clust_4="43.34724" pt_clust_5="14000.00000" pt_clust_6="147.23795"></scales>
<clustering>
<clus scale="   37.924">  1  3  2 -1</clus>
<clus scale="   43.347">  1  4  2 -1</clus>
<clus scale="  147.238">  2  6  1 -1</clus>
<clus scale="   37.924">  1  3  2 -1</clus>
</clustering>
</event>
<event>
 6    0  0.2117869E+002  0.1450508E+03  0.7546771E-02  0.1206690E+00
          4   -1    0    0  504    0 -0.00000000000E+00  0.00000000000E+00  0.99621714769E+03  0.99621714769E+03  0.00000000000E+00 0. -1.
         21   -1    0    0  501  502  0.00000000000E+00 -0.00000000000E+00 -0.25331827408E+03  0.25331827408E+03  0.00000000000E+00 0. -1.
         21    1    1    2  503  505 -0.74317509367E+02  0.77879328841E+02 -0.22082998091E+02  0.10989058587E+03  0.00000000000E+00 0. -1.
         21    1    1    2  504  503 -0.14405127255E+02 -0.32136686395E+02  0.38386965465E+03  0.38548175841E+03  0.00000000000E+00 0. -1.
         21    1    1    2  505  502  0.12834215567E+02  0.64242275750E+02 -0.17256893944E+03  0.18458555183E+03  0.00000000000E+00 0. -1.
          4    1    1    2  501    0  0.75888421055E+02 -0.10998491820E+03  0.55368115650E+03  0.56957752566E+03  0.00000000000E+00 0. -1.
<scales pt_clust_3="145.05077" pt_clust_4="35.21753" pt_clust_5="65.17443" pt_clust_6="14000.00000"></scales>
<clustering>
<clus scale="   35.218">  1  4  2 -1</clus>
<clus scale="   65.174">  2  5  1 -1</clus>
<clus scale="  145.051">  2  3  1 -1</clus>
<clus scale="   65.174">  2  3  1 -1</clus>
</clustering>
</event>
<event>
 6    0  0.2117869E+002  0.1334720E+03  0.7546771E-02  0.1222393E+00
          1   -1    0    0  503    0 -0.00000000000E+00  0.00000000000E+00  0.51615679554E+03  0.51615679554E+03  0.00000000000E+00 0. -1.
         21   -1    0    0  501  502  0.00000000000E+00 -0.00000000000E+00 -0.14222027011E+03  0.14222027011E+03  0.00000000000E+00 0.  1.
         21    1    1    2  503  504 -0.75432381278E+02  0.41541746166E+02  0.13463559203E+03  0.15982022231E+03  0.00000000000E+00 0.  1.
         21    1    1    2  504  505 -0.11669135610E+03  0.11873325104E+01 -0.23237391585E+02  0.11898848143E+03  0.00000000000E+00 0.  1.
         21    1    1    2  505  502 -0.55539128804E+01 -0.33896931276E+02 -0.16005059587E+02  0.37894720353E+02  0.00000000000E+00 0.  1.
          1    1    1    2  501    0  0.19767765025E+03 -0.88321474005E+01  0.27854338458E+03  0.34167364155E+03  0.00000000000E+00 0. -1.
<scales pt_clust_3="84.93361" pt_clust_4="133.47195" pt_clust_5="34.34891" pt_clust_6="14000.00000"></scales>
<clustering>
<clus scale="   34.349">  2  5  1 -1</clus>
<clus scale="   84.934">  1  3  2 -1</clus>
<clus scale="  133.472">  2  4  1 -1</clus>
<clus scale="   34.349">  2  3  1 -1</clus>
</clustering>
</event>
<event>
 6    0  0.2117869E+002  0.3110299E+03  0.7546771E-02  0.1079853E+00
         21   -1    0    0  504  502  0.00000000000E+00  0.00000000000E+00  0.80205693242E+03  0.80205693242E+03  0.00000000000E+00 0.  1.
          3   -1    0    0  503    0 -0.00000000000E+00 -0.00000000000E+00 -0.13275928231E+04  0.13275928231E+04  0.00000000000E+00 0.  1.
         21    1    1    2  503  502 -0.37864467092E+02 -0.32493241966E+02 -0.10851534755E+03  0.11943663297E+03  0.00000000000E+00 0.  1.
         21    1    1    2  504  505 -0.61449408793E+02 -0.22045737453E+02  0.64762552796E+03  0.65090772683E+03  0.00000000000E+00 0.  1.
         21    1    1    2  505  501 -0.21601130021E+03  0.17535633510E+03 -0.40790614702E+02  0.28120206316E+03  0.00000000000E+00 0.  1.
          3    1    1    2  501    0  0.31532517609E+03 -0.12081735569E+03 -0.10238554564E+04  0.10781033326E+04  0.00000000000E+00 0.  1.
<scales pt_clust_3="49.89518" pt_clust_4="65.34737" pt_clust_5="14000.00000" pt_clust_6="311.02989"></scales>
<clustering>
<clus scale="   49.895">  2  3  1 -1</clus>
<clus scale="   65.347">  1  4  2 -1</clus>
<clus scale="  311.030">  2  6  1 -1</clus>
<clus scale="   65.347">  1  3  2 -1</clus>
</clustering>
</event>
<event>
 6    0  0.2117869E+002  0.2077128E+03  0.7546771E-02  0.1143390E+00
          2   -1    0    0  503    0 -0.00000000000E+00  0.00000000000E+00  0.12279121388E+04  0.12279121388E+04  0.00000000000E+00 0.  1.
         21   -1    0    0  505  502  0.00000000000E+00 -0.00000000000E+00 -0.10420409614E+03  0.10420409614E+03  0.00000000000E+00 0.  1.
         21    1    1    2  503  502 -0.22455377485E+03 -0.12974797528E+03  0.34673595332E+03  0.43299509953E+03  0.00000000000E+00 0.  1.
         21    1    1    2  504  501  0.79606976325E+02 -0.19336769010E+02  0.28300000434E+03  0.29461870914E+03  0.00000000000E+00 0. -1.
         21    1    1    2  505  504  0.49531628494E+02  0.94113328207E+02  0.84918726985E+01  0.10669026511E+03  0.00000000000E+00 0.  1.
          2    1    1    2  501    0  0.95415170034E+02  0.54971416086E+02  0.48548021227E+03  0.49781216112E+03  0.00000000000E+00 0.  1.
<scales pt_clust_3="194.06784" pt_clust_4="63.86325" pt_clust_5="106.35178" pt_clust_6="63.86325"></scales>
<clustering>
<clus scale="   63.863">  4  6 -1 -1</clus>
<clus scale="  106.352">  2  5  1 -1</clus>
<clus scale="  194.068">  2  3  1 -1</clus>
<clus scale="  106.352">  2  3  1 -1</clus>
</clustering>
</event>
<event>
 6    0  0.2117869E+002  0.1269662E+03  0.7546771E-02  0.1232028E+00
         21   -1    0    0  501  502  0.00000000000E+00  0.00000000000E+00  0.33628024896E+02  0.33628024896E+02  0.00000000000E+00 0. -1.
          1   -1    0    0  505    0 -0.00000000000E+00 -0.00000000000E+00 -0.35033170591E+04  0.35033170591E+04  0.00000000000E+00 0. -1.
         21    1    1    2  503  504  0.28214891672E+02 -0.43365697250E+02 -0.30918789640E+03  0.31348655328E+03  0.00000000000E+00 0. -1.
         21    1    1    2  504  502 -0.38465174614E+02  0.89448073991E+01  0.14076408589E+02  0.41925225298E+02  0.00000000000E+00 0. -1.
         21    1    1    2  505  503  0.29536040242E+02 -0.79788411849E+02 -0.90123281759E+03  0.90523983553E+03  0.00000000000E+00 0. -1.
          1    1    1    2  501    0 -0.19285757300E+02  0.11420930170E+03 -0.22733447288E+04  0.22762934699E+04  0.00000000000E+00 0. -1.
<scales pt_clust_3="31.90151" pt_clust_4="39.49151" pt_clust_5="31.90151" pt_clust_6="120.19493"></scales>
<clustering>
<clus scale="   31.902">  3  5 -1 -1</clus>
<clus scale="   39.492">  1  4  2 -1</clus>
<clus scale="  120.195">  2  6  1 -1</clus>
<clus scale="   39.492">  1  3  2 -1</clus>
</clustering>
</event>
<event>
 6    0  0.2117869E+002  0.1062674E+03  0.7546771E-02  0.1267642E+00
          2   -1    0    0  505    0 -0.00000000000E+00  0.00000000000E+00  0.40304406295E+04  0.40304406295E+04  0.00000000000E+00 0. -1.
         21   -1    0    0  503  502  0.00000000000E+00 -0.00000000000E+00 -0.27679341463E+02  0.27679341463E+02  0.00000000000E+00 0. -1.
         21    1    1    2  503  501 -0.39037077694E+02 -0.16766725226E+02  0.87213785570E+02  0.97011653439E+02  0.00000000000E+00 0. -1.
         21    1    1    2  504  502 -0.13251977562E+02  0.76074171218E+02  0.59089793243E+02  0.97234243460E+02  0.00000000000E+00 0. -1.
         21    1    1    2  505  504  0.13298894082E+03  0.14065886075E+01  0.17797523106E+04  0.17847146338E+04  0.00000000000E+00 0.  1.
          2    1    1    2  501    0 -0.80699885560E+02 -0.60714034599E+02  0.20767053987E+04  0.20791594403E+04  0.00000000000E+00 0. -1.
<scales pt_clust_3="42.48549" pt_clust_4="77.19161" pt_clust_5="14000.00000" pt_clust_6="106.26738"></scales>
<clustering>
<clus scale="   42.485">  2  3  1 -1</clus>
<clus scale="   77.192">  2  4  1 -1</clus>
<clus scale="  106.267">  1  6  2 -1</clus>
<clus scale="   42.485">  2  3  1 -1</clus>
</clustering>
</event>
<event>
 6    0  0.2117869E+002  0.1028429E+03  0.7546771E-02  0.1274429E+00
         21   -1    0    0  504  502  0.00000000000E+00  0.00000000000E+00  0.31989092551E+03  0.31989092551E+03  0.00000000000E+00 0.  1.
          2   -1    0    0  505    0 -0.00000000000E+00 -0.00000000000E+00 -0.15630141826E+04  0.15630141826E+04  0.00000000000E+00 0. -1.
         21    1    1    2  503  501 -0.88140814763E+02  0.13135825145E+02 -0.39662625571E+02  0.97542180602E+02  0.00000000000E+00 0.  1.
         21    1    1    2  504  503  0.10417591994E+03  0.14854911573E+02  0.27870205698E+03  0.29790623903E+03  0.00000000000E+00 0.  1.
         21    1    1    2  505  502  0.17377393054E+02  0.41314912400E+02 -0.38513706328E+03  0.38773631928E+03  0.00000000000E+00 0. -1.
          2    1    1    2  501    0 -0.33412498228E+02 -0.69305649118E+02 -0.10970256252E+04  0.10997203692E+04  0.00000000000E+00 0. -1.
<scales pt_clust_3="14000.00000" pt_clust_4="102.84292" pt_clust_5="44.82071" pt_clust_6="35.21725"></scales>
<clustering>
<clus scale="   44.821">  2  5  1 -1</clus>
<clus scale="   35.217">  2  6  1 -1</clus>
<clus scale="  102.843">  1  4  2 -1</clus>
<clus scale="  102.843">  1  3  2 -1</clus>
</clustering>
</event>
<event>
 6    0  0.2117869E+002  0.1921828E+03  0.7546771E-02  0.1156507E+00
          2   -1    0    0  503    0 -0.00000000000E+00  0.00000000000E+00  0.25780793976E+04  0.25780793976E+04  0.00000000000E+00 0. -1.
         21   -1    0    0  505  502  0.00000000000E+00 -0.00000000000E+00 -0.66363174959E+02  0.66363174959E+02  0.00000000000E+00 0. -1.
         21    1    1    2  503  502 -0.14588590093E+03 -0.36006488769E+02  0.96796761172E+03  0.97956136136E+03  0.00000000000E+00 0.  1.
         21    1    1    2  504  501 -0.34964723077E+02  0.28135913116E+02  0.46547216669E+03  0.46763072978E+03  0.00000000000E+00 0.  1.
         21    1    1    2  505  504  0.19240373937E+03 -0.67550478738E+02  0.12136303892E+03  0.23729992271E+03  0.00000000000E+00 0. -1.
          2    1    1    2  501    0 -0.11553115361E+02  0.75421054391E+02  0.95691340527E+03  0.95995055868E+03  0.00000000000E+00 0. -1.
<scales pt_clust_3="192.18282" pt_clust_4="33.60252" pt_clust_5="14000.00000" pt_clust_6="121.68656"></scales>
<clustering>
<clus scale="   33.603">  4  6 -1 -1</clus>
<clus scale="  121.687">  1  4  2 -1</clus>
<clus scale="  192.183">  1  3  2 -1</clus>
<clus scale="  192.183">  2  3  1 -1</clus>
</clustering>
</event>
<event>
 6    0  0.2117869E+002  0.8823794E+02  0.7546771E-02  0.1307176E+00
         21   -1    0    0  503  502  0.00000000000E+00  0.00000000000E+00  0.56897711883E+03  0.56897711883E+03  0.00000000000E+00 0.  1.
          1   -1    0    0  504    0 -0.00000000000E+00 -0.00000000000E+00 -0.82593820549E+03  0.82593820549E+03  0.00000000000E+00 0.  1.
         21    1    1    2  503  505  0.23354448497E+02 -0.34555964623E+02  0.89404896778E+02  0.98654855550E+02  0.00000000000E+00 0. -1.
         21    1    1    2  504  502  0.39789520586E+01  0.12002569721E+03  0.46184895152E+03  0.47720693003E+03  0.00000000000E+00 0.  1.
         21    1    1    2  505  501  0.10025305914E+02 -0.57959688469E+02 -0.18526565519E+03  0.19437899896E+03  0.00000000000E+00 0.  1.
          1    1    1    2  501    0 -0.37358706469E+02 -0.27510044118E+02 -0.62294927977E+03  0.62467453977E+03  0.00000000000E+00 0.  1.
<scales pt_clust_3="41.70785" pt_clust_4="14000.00000" pt_clust_5="88.23794" pt_clust_6="46.39790"></scales>
<clustering>
<clus scale="   41.708">  1  3  2 -1</clus>
<clus scale="   46.398">  2  6  1 -1</clus>
<clus scale="   88.238">  2  5  1 -1</clus>
<clus scale="   41.708">  1  3  2 -1</clus>
</clustering>
</event>
<event>
 6    0  0.2117869E+002  0.1382396E+03  0.7546771E-02  0.1215718E+00
          2   -1    0    0  504    0 -0.00000000000E+00  0.00000000000E+00  0.45716254041E+03  0.45716254041E+03  0.00000000000E+00 0. -1.
         21   -1    0    0  503  502  0.00000000000E+00 -0.00000000000E+00 -0.42436496030E+03  0.42436496030E+03  0.00000000000E+00 0.  1.
         21    1    1    2  503  501  0.17550025587E+02 -0.15888059566E+03 -0.14484493959E+03  0.21571069422E+03  0.00000000000E+00 0.  1.
         21    1    1    2  504  505  0.48033873753E+02 -0.20332758481E+02  0.25342294321E+02  0.57990567997E+02  0.00000000000E+00 0.  1.
         21    1    1    2  505  502  0.12645281811E+02  0.12743654618E+03 -0.20318267988E+03  0.24017322469E+03  0.00000000000E+00 0.  1.
          2    1    1    2  501    0 -0.78229181151E+02  0.51776807962E+02  0.35548290526E+03  0.36765301380E+03  0.00000000000E+00 0. -1.
<scales pt_clust_3="138.23960" pt_clust_4="52.16008" pt_clust_5="14000.00000" pt_clust_6="49.88769"></scales>
<clustering>
<clus scale="   52.160">  1  4  2 -1</clus>
<clus scale="   49.888">  1  6  2 -1</clus>
<clus scale="  138.240">  1  3  2 -1</clus>
<clus scale="  138.240">  2  3  1 -1</clus>
</clustering>
</event>
<event>
 6    0  0.2117869E+002  0.1119692E+03  0.7546771E-02  0.1256966E+00
          2   -1    0    0  505    0 -0.00000000000E+00  0.00000000000E+00  0.27164477999E+04  0.27164477999E+04  0.00000000000E+00 0. -1.
         21   -1    0    0  503  502  0.00000000000E+00 -0.00000000000E+00 -0.12683373792E+03  0.12683373792E+03  0.00000000000E+00 0. -1.
         21    1    1    2  503  501  0.11378364500E+02 -0.12103093285E+03 -0.57756459809E+02  0.13458737881E+03  0.00000000000E+00 0. -1.
         21    1    1    2  504  502  0.45867774057E+02  0.89437848616E+02  0.66758497273E+02  0.12066349249E+03  0.00000000000E+00 0. -1.
         21    1    1    2  505  504 -0.33990446873E+02  0.38874806874E+01  0.24931375192E+04  0.24933722451E+04  0.00000000000E+00 0. -1.
          2    1    1    2  501    0 -0.23255691683E+02  0.27705603548E+02  0.87474505265E+02  0.94658421364E+02  0.00000000000E+00 0. -1.
<scales pt_clust_3="14000.00000" pt_clust_4="111.96921" pt_clust_5="34.21203" pt_clust_6="47.28875"></scales>
<clustering>
<clus scale="   34.212">  1  5  2 -1</clus>
<clus scale="   47.289">  1  6  2 -1</clus>
<clus scale="  111.969">  1  4  2 -1</clus>
<clus scale="  111.969">  2  3  1 -1</clus>
</clustering>
</event>
<event>
 6    0  0.2117869E+002  0.1004064E+03  0.7546771E-02  0.1279444E+00
         21   -1    0    0  503  502  0.00000000000E+00  0.00000000000E+00  0.18250924736E+04  0.18250924736E+04  0.00000000000E+00 0. -1.
         -1   -1    0    0    0  501 -0.00000000000E+00 -0.00000000000E+00 -0.42349923924E+02  0.42349923924E+02  0.00000000000E+00 0.  1.
         21    1    1    2  503  504 -0.23351979397E+01  0.99538880337E+02  0.14345442704E+04  0.14379953775E+04  0.00000000000E+00 0. -1.
         21    1    1    2  504  501 -0.19124534512E+02 -0.30828274089E+02  0.12710348138E+02  0.38440645850E+02  0.00000000000E+00 0.  1.
         21    1    1    2  505  502 -0.43441812919E+02 -0.65060530968E+01  0.28406313670E+03  0.28743935963E+03  0.00000000000E+00 0.  1.
         -1    1    1    2    0  505  0.64901545371E+02 -0.62204553151E+02  0.51424794422E+02  0.10356701456E+03  0.00000000000E+00 0.  1.
<scales pt_clust_3="100.40636" pt_clust_4="36.27851" pt_clust_5="45.29828" pt_clust_6="14000.00000"></scales>
<clustering>
<clus scale="   36.279">  2  4  1 -1</clus>
<clus scale="   45.298">  1  5  2 -1</clus>
<clus scale="  100.406">  1  3  2 -1</clus>
<clus scale="   45.298">  1  3  2 -1</clus>
</clustering>
</event>
<event>
 6    0  0.2117869E+002  0.1232588E+03  0.7546771E-02  0.1237816E+00
         -2   -1    0    0    0  501 -0.00000000000E+00  0.00000000000E+00  0.69796651508E+03  0.69796651508E+03  0.00000000000E+00 0.  1.
         21   -1    0    0  503  502  0.00000000000E+00 -0.00000000000E+00 -0.91902908572E+03  0.91902908572E+03  0.00000000000E+00 0.  1.
         21    1    1    2  503  504 -0.33091655442E+02 -0.12159975068E+03 -0.82736947870E+03  0.83691206904E+03  0.00000000000E+00 0.  1.
         21    1    1    2  504  501 -0.21275395104E+02  0.29268176100E+02  0.84208230302E+02  0.91653121167E+02  0.00000000000E+00 0. -1.
         21    1    1    2  505  502 -0.61329643017E+02  0.41831485878E+02 -0.58343024672E+02  0.94419843524E+02  0.00000000000E+00 0.  1.
         -2    1    1    2    0  505  0.11569669356E+03  0.50500088703E+02  0.58044170244E+03  0.59401056707E+03  0.00000000000E+00 0.  1.
<scales pt_clust_3="14000.00000" pt_clust_4="36.18382" pt_clust_5="75.24569" pt_clust_6="123.25881"></scales>
<clustering>
<clus scale="   36.184">  1  4  2 -1</clus>
<clus scale="   75.246">  2  5  1 -1</clus>
<clus scale="  123.259">  1  6  2 -1</clus>
<clus scale="   75.246">  2  3  1 -1</clus>
</clustering>
</event>
<event>
 6    0  0.2117869E+002  0.1092610E+03  0.7546771E-02  0.1261945E+00
          2   -1    0    0  505    0 -0.00000000000E+00  0.00000000000E+00  0.15184483558E+04  0.15184483558E+04  0.00000000000E+00 0. -1.
         21   -1    0    0  501  502  0.00000000000E+00 -0.00000000000E+00 -0.13659622871E+03  0.13659622871E+03  0.00000000000E+00 0. -1.
         21    1    1    2  503  502  0.16006476108E+02  0.29881602739E+02 -0.44395256012E+02  0.55857463387E+02  0.00000000000E+00 0. -1.
         21    1    1    2  504  503  0.94305276869E+02 -0.22116162703E+02 -0.52707887108E+02  0.11027570567E+03  0.00000000000E+00 0. -1.
         21    1    1    2  505  504 -0.11870930643E+02  0.42513087370E+02  0.18289034179E+03  0.18814132643E+03  0.00000000000E+00 0. -1.
          2    1    1    2  501    0 -0.98440822335E+02 -0.50278527406E+02  0.12960649285E+04  0.13007700891E+04  0.00000000000E+00 0. -1.
<scales pt_clust_3="33.89864" pt_clust_4="14000.00000" pt_clust_5="44.88815" pt_clust_6="109.26095"></scales>
<clustering>
<clus scale="   33.899">  2  3  1 -1</clus>
<clus scale="   44.888">  1  5  2 -1</clus>
<clus scale="  109.261">  1  6  2 -1</clus>
<clus scale="   33.899">  2  3  1 -1</clus>
</clustering>
</event>
<event>
 6    0  0.2117869E+002  0.1034630E+03  0.7546771E-02  0.1273178E+00
         21   -1    0    0  505  502  0.00000000000E+00  0.00000000000E+00  0.46350850666E+02  0.46350850666E+02  0.00000000000E+00 0. -1.
          2   -1    0    0  503    0 -0.00000000000E+00 -0.00000000000E+00 -0.12955576879E+04  0.12955576879E+04  0.00000000000E+00 0. -1.
         21    1    1    2  503  504  0.90596368065E+01  0.10157995499E+03 -0.93054992988E+03  0.93612164609E+03  0.00000000000E+00 0. -1.
         21    1    1    2  504  502  0.52777241470E+02  0.40276514942E+02 -0.46747378676E+02  0.81196996780E+02  0.00000000000E+00 0. -1.
         21    1    1    2  505  501 -0.51351733909E+02 -0.31753870448E+02 -0.57707201048E+02  0.83519039247E+02  0.00000000000E+00 0. -1.
          2    1    1    2  501    0 -0.10485144367E+02 -0.11010259948E+03 -0.21420232758E+03  0.24107085641E+03  0.00000000000E+00 0. -1.
<scales pt_clust_3="14000.00000" pt_clust_4="35.57478" pt_clust_5="60.37639" pt_clust_6="103.46297"></scales>
<clustering>
<clus scale="   60.376">  1  5  2 -1</clus>
<clus scale="   35.575">  1  4  2 -1</clus>
<clus scale="  103.463">  1  6  2 -1</clus>
<clus scale="   60.376">  1  3  2 -1</clus>
</clustering>
</event>
<event>
 6    0  0.2117869E+002  0.1272644E+03  0.7546771E-02  0.1231572E+00
         -3   -1    0    0    0  501 -0.00000000000E+00  0.00000000000E+00  0.37655125419E+02  0.37655125419E+02  0.00000000000E+00 0.  1.
         21   -1    0    0  503  502  0.00000000000E+00 -0.00000000000E+00 -0.15427506186E+04  0.15427506186E+04  0.00000000000E+00 0. -1.
         21    1    1    2  503  504 -0.20142419184E+02 -0.38038191694E+02 -0.86937661715E+03  0.87044145324E+03  0.00000000000E+00 0. -1.
         21    1    1    2  504  501 -0.31592715446E+02 -0.89978710811E+01 -0.35929647101E+02  0.48682654961E+02  0.00000000000E+00 0. -1.
         21    1    1    2  505  502  0.60239736967E+02  0.15221372085E+03 -0.44311485487E+03  0.47238608926E+03  0.00000000000E+00 0. -1.
         -3    1    1    2    0  505 -0.85046023370E+01 -0.10517765808E+03 -0.15667437407E+03  0.18889554656E+03  0.00000000000E+00 0.  1.
<scales pt_clust_3="43.43097" pt_clust_4="32.84907" pt_clust_5="127.26444" pt_clust_6="14000.00000"></scales>
<clustering>
<clus scale="   32.849">  1  4  2 -1</clus>
<clus scale="   43.431">  2  3  1 -1</clus>
<clus scale="  127.264">  2  5  1 -1</clus>
<clus scale="   43.431">  2  3  1 -1</clus>
</clustering>
</event>
<event>
 6    0  0.2117869E+002  0.1255180E+03  0.7546771E-02  0.1234262E+00
          2   -1    0    0  505    0 -0.00000000000E+00  0.00000000000E+00  0.88517249790E+03  0.88517249790E+03  0.00000000000E+00 0. -1.
         21   -1    0    0  503  502  0.00000000000E+00 -0.00000000000E+00 -0.87220943251E+02  0.87220943251E+02  0.00000000000E+00 0. -1.
         21    1    1    2  503  501 -0.48354723835E+02  0.42624289540E+02  0.17222840732E+02  0.66720578676E+02  0.00000000000E+00 0. -1.
         21    1    1    2  504  502  0.13935665194E+03  0.16605507848E+02  0.64817853739E+02  0.15458775338E+03  0.00000000000E+00 0. -1.
         21    1    1    2  505  504  0.49670736611E+02  0.16902223641E+02  0.31679161223E+03  0.32110713605E+03  0.00000000000E+00 0.  1.
          2    1    1    2  501    0 -0.14067266472E+03 -0.76132021028E+02  0.39911924794E+03  0.42997797304E+03  0.00000000000E+00 0. -1.
<scales pt_clust_3="62.61685" pt_clust_4="125.51797" pt_clust_5="52.46777" pt_clust_6="14000.00000"></scales>
<clustering>
<clus scale="   52.468">  1  5  2 -1</clus>
<clus scale="   62.617">  2  3  1 -1</clus>
<clus scale="  125.518">  2  4  1 -1</clus>
<clus scale="   62.617">  2  3  1 -1</clus>
</clustering>
</event>
<event>
 6    0  0.2117869E+002  0.1019363E+03  0.7546771E-02  0.1276276E+00
          2   -1    0    0  505    0 -0.00000000000E+00  0.00000000000E+00  0.71092925436E+02  0.71092925436E+02  0.00000000000E+00 0. -1.
         21   -1    0    0  504  502  0.00000000000E+00 -0.00000000000E+00 -0.13887731801E+04  0.13887731801E+04  0.00000000000E+00 0.  1.
         21    1    1    2  503  502 -0.20864419237E+02  0.83474546390E+02 -0.20435298140E+03  0.22172835834E+03  0.00000000000E+00 0. -1.
         21    1    1    2  504  501 -0.91061128238E+02 -0.67588639003E+02 -0.11042343606E+04  0.11100422858E+04  0.00000000000E+00 0.  1.
         21    1    1    2  505  503  0.46162482674E+02 -0.78120728696E+01 -0.33409992075E+02  0.57517222287E+02  0.00000000000E+00 0.  1.
          2    1    1    2  501    0  0.65763064800E+02 -0.80738345175E+01  0.24317079330E+02  0.70578239160E+02  0.00000000000E+00 0. -1.
<scales pt_clust_3="83.51894" pt_clust_4="101.93625" pt_clust_5="46.81883" pt_clust_6="14000.00000"></scales>
<clustering>
<clus scale="   46.819">  1  5  2 -1</clus>
<clus scale="   83.519">  2  3  1 -1</clus>
<clus scale="  101.936">  2  4  1 -1</clus>
<clus scale="   83.519">  2  3  1 -1</clus>
</clustering>
</event>
<event>
 6    0  0.2117869E+002  0.8008878E+02  0.7546771E-02  0.1328800E+00
          2   -1    0    0  505    0 -0.00000000000E+00  0.00000000000E+00  0.28411136941E+04  0.28411136941E+04  0.00000000000E+00 0. -1.
         21   -1    0    0  503  502  0.00000000000E+00 -0.00000000000E+00 -0.18454337919E+02  0.18454337919E+02  0.00000000000E+00 0. -1.
         21    1    1    2  503  501  0.35381511121E+02 -0.12512013617E+01  0.20749078749E+02  0.41035851435E+02  0.00000000000E+00 0. -1.
         21    1    1    2  504  502 -0.77905107690E+02 -0.65391800486E+02  0.39743645010E+03  0.41024507949E+03  0.00000000000E+00 0. -1.
         21    1    1    2  505  504  0.51861291337E+02 -0.14434705258E+02  0.93326130499E+03  0.93481261098E+03  0.00000000000E+00 0. -1.
          2    1    1    2  501    0 -0.93376947682E+01  0.81077707105E+02  0.14712125223E+04  0.14734744901E+04  0.00000000000E+00 0. -1.
<scales pt_clust_3="35.40363" pt_clust_4="14000.00000" pt_clust_5="57.05040" pt_clust_6="80.08878"></scales>
<clustering>
<clus scale="   35.404">  2  3  1 -1</clus>
<clus scale="   57.050">  1  5  2 -1</clus>
<clus scale="   80.089">  1  6  2 -1</clus>
<clus scale="   35.404">  2  3  1 -1</clus>
</clustering>
</event>
<event>
 6    0  0.8136446E+002  0.9573044E+02  0.7546771E-02  0.1289539E+00
          1   -1    0    0  504    0 -0.00000000000E+00  0.00000000000E+00  0.48724560532E+03  0.48724560532E+03  0.00000000000E+00 0.  1.
         21   -1    0    0  501  502  0.00000000000E+00 -0.00000000000E+00 -0.22670042260E+04  0.22670042260E+04  0.00000000000E+00 0.  1.
         21    1    1    2  503  502  0.95122109343E+02 -0.10403254392E+02 -0.22054721464E+04  0.22075470169E+04  0.00000000000E+00 0.  1.
         21    1    1    2  504  505 -0.30221747916E+02 -0.79520084773E+01 -0.22148395030E+02  0.38303262110E+02  0.00000000000E+00 0. -1.
         21    1    1    2  505  503  0.50334407122E+02  0.31358601859E+02  0.16263602091E+02  0.61493245189E+02  0.00000000000E+00 0.  1.
          1    1    1    2  501    0 -0.11523476855E+03 -0.13003338990E+02  0.43159831862E+03  0.44690630712E+03  0.00000000000E+00 0.  1.
<scales pt_clust_3="14000.00000" pt_clust_4="31.25042" pt_clust_5="56.88609" pt_clust_6="95.73044"></scales>
<clustering>
<clus scale="   31.250">  1  4  2 -1</clus>
<clus scale="   56.886">  1  5  2 -1</clus>
<clus scale="   95.730">  1  6  2 -1</clus>
<clus scale="   95.730">  2  3  1 -1</clus>
</clustering>
</event>
<event>
 6    0  0.2117869E+002  0.1153895E+03  0.7546771E-02  0.1250903E+00
         21   -1    0    0  503  502  0.00000000000E+00  0.00000000000E+00  0.13322022523E+04  0.13322022523E+04  0.00000000000E+00 0. -1.
          1   -1    0    0  504    0 -0.00000000000E+00 -0.00000000000E+00 -0.40755325263E+03  0.40755325263E+03  0.00000000000E+00 0.  1.
         21    1    1    2  503  501 -0.12980657668E+03  0.60975355426E+02  0.93474663406E+03  0.94568441417E+03  0.00000000000E+00 0. -1.
         21    1    1    2  504  505 -0.55706310263E+02  0.14285320745E+02 -0.40024646763E+02  0.70065938518E+02  0.00000000000E+00 0. -1.
         21    1    1    2  505  502  0.74806312992E+02 -0.47290303131E+02  0.36209788692E+03  0.37275627016E+03  0.00000000000E+00 0. -1.
          1    1    1    2  501    0  0.11070657395E+03 -0.27970373040E+02 -0.33217087453E+03  0.35124888210E+03  0.00000000000E+00 0.  1.
<scales pt_clust_3="14000.00000" pt_clust_4="57.50881" pt_clust_5="115.38945" pt_clust_6="58.43882"></scales>
<clustering>
<clus scale="   57.509">  2  4  1 -1</clus>
<clus scale="   58.439">  2  6  1 -1</clus>
<clus scale="  115.389">  1  5  2 -1</clus>
<clus scale="  115.389">  1  3  2 -1</clus>
</clustering>
</event>
<event>
 6    0  0.2117869E+002  0.1278307E+03  0.7546771E-02  0.1230711E+00
         21   -1    0    0  505  502  0.00000000000E+00  0.00000000000E+00  0.18120128215E+03  0.18120128215E+03  0.00000000000E+00 0. -1.
          2   -1    0    0  503    0 -0.00000000000E+00 -0.00000000000E+00 -0.14224568710E+04  0.14224568710E+04  0.00000000000E+00 0.  1.
         21    1    1    2  503  504  0.25326725366E+02 -0.17343533618E+02 -0.21382554146E+03  0.21601759965E+03  0.00000000000E+00 0.  1.
         21    1    1    2  504  502 -0.13385541952E+03 -0.44428177292E+01 -0.47405975464E+03  0.49261512658E+03  0.00000000000E+00 0. -1.
         21    1    1    2  505  501  0.12086309894E+03 -0.41996746500E+02  0.14514777982E+03  0.19349287684E+03  0.00000000000E+00 0. -1.
          2    1    1    2  501    0 -0.12334404787E+02  0.63783097847E+02 -0.69851807261E+03  0.70153255012E+03  0.00000000000E+00 0.  1.
<scales pt_clust_3="30.69595" pt_clust_4="127.83071" pt_clust_5="14000.00000" pt_clust_6="53.78008"></scales>
<clustering>
<clus scale="   30.696">  2  3  1 -1</clus>
<clus scale="   53.780">  2  6  1 -1</clus>
<clus scale="  127.831">  2  4  1 -1</clus>
<clus scale="  127.831">  1  3  2 -1</clus>
</clustering>
</event>
<event>
 6    0  0.2117869E+002  0.7825998E+02  0.7546771E-02  0.1334063E+00
         -2   -1    0    0    0  501 -0.00000000000E+00  0.00000000000E+00  0.50915445906E+03  0.50915445906E+03  0.00000000000E+00 0. -1.
         21   -1    0    0  503  502  0.00000000000E+00 -0.00000000000E+00 -0.28980743619E+03  0.28980743619E+03  0.00000000000E+00 0. -1.
         21    1    1    2  503  501 -0.11771893586E+02  0.43110214717E+02 -0.21211903782E+03  0.21677535445E+03  0.00000000000E+00 0. -1.
         21    1    1    2  504  505  0.78879157903E+02 -0.28339735406E+02 -0.13957785668E+02  0.84969888402E+02  0.00000000000E+00 0. -1.
         21    1    1    2  505  502 -0.62010032132E+01 -0.63764541301E+02  0.23697875469E+02  0.68307821440E+02  0.00000000000E+00 0.  1.
         -2    1    1    2    0  504 -0.60906261104E+02  0.48994061990E+02  0.42172597088E+03  0.42890883095E+03  0.00000000000E+00 0. -1.
<scales pt_clust_3="44.68857" pt_clust_4="14000.00000" pt_clust_5="51.91628" pt_clust_6="78.25998"></scales>
<clustering>
<clus scale="   44.689">  2  3  1 -1</clus>
<clus scale="   51.916">  2  5  1 -1</clus>
<clus scale="   78.260">  1  6  2 -1</clus>
<clus scale="   44.689">  2  3  1 -1</clus>
</clustering>
</event>
<event>
 6    0  0.2117869E+002  0.9515047E+02  0.7546771E-02  0.1290838E+00
          2   -1    0    0  503    0 -0.00000000000E+00  0.00000000000E+00  0.25831991323E+04  0.25831991323E+04  0.00000000000E+00 0.  1.
         21   -1    0    0  504  502  0.00000000000E+00 -0.00000000000E+00 -0.97758674650E+02  0.97758674650E+02  0.00000000000E+00 0. -1.
         21    1    1    2  503  502  0.12643470811E+03 -0.12031267375E+02  0.84766242221E+03  0.85712430186E+03  0.00000000000E+00 0. -1.
         21    1    1    2  504  505  0.17587960346E+02  0.32089097533E+02 -0.10534330948E+02  0.38079110522E+02  0.00000000000E+00 0. -1.
         21    1    1    2  505  501 -0.56830748842E+02 -0.28156374193E+02 -0.52717480370E+02  0.82472105334E+02  0.00000000000E+00 0. -1.
          2    1    1    2  501    0 -0.87191919612E+02  0.80985440354E+01  0.17010298468E+04  0.17032822892E+04  0.00000000000E+00 0.  1.
<scales pt_clust_3="14000.00000" pt_clust_4="36.59298" pt_clust_5="40.66849" pt_clust_6="95.15047"></scales>
<clustering>
<clus scale="   36.593">  2  4  1 -1</clus>
<clus scale="   40.668">  2  5  1 -1</clus>
<clus scale="   95.150">  1  6  2 -1</clus>
<clus scale="   36.593">  2  3  1 -1</clus>
</clustering>
</event>
<event>
 6    0  0.2117869E+002  0.1099790E+03  0.7546771E-02  0.1260609E+00
          2   -1    0    0  505    0 -0.00000000000E+00  0.00000000000E+00  0.74326977245E+03  0.74326977245E+03  0.00000000000E+00 0. -1.
         21   -1    0    0  504  502  0.00000000000E+00 -0.00000000000E+00 -0.83572878566E+02  0.83572878566E+02  0.00000000000E+00 0. -1.
         21    1    1    2  503  502  0.48469385018E+02 -0.26091040293E+02 -0.45870530556E+02  0.71652838333E+02  0.00000000000E+00 0. -1.
         21    1    1    2  504  501 -0.25686324362E+02 -0.16830466746E+02  0.34630934397E+02  0.46285564567E+02  0.00000000000E+00 0. -1.
         21    1    1    2  505  503  0.52614339750E+02 -0.62565168267E+02  0.13776695935E+03  0.16019489417E+03  0.00000000000E+00 0. -1.
          2    1    1    2  501    0 -0.75397400406E+02  0.10548667531E+03  0.53316953069E+03  0.54870935395E+03  0.00000000000E+00 0. -1.
<scales pt_clust_3="48.48258" pt_clust_4="30.70915" pt_clust_5="109.97903" pt_clust_6="14000.00000"></scales>
<clustering>
<clus scale="   30.709">  2  4  1 -1</clus>
<clus scale="   48.483">  2  3  1 -1</clus>
<clus scale="  109.979">  2  5  1 -1</clus>
<clus scale="   30.709">  2  3  1 -1</clus>
</clustering>
</event>
<event>
 6    0  0.2117869E+002  0.6384180E+02  0.7546771E-02  0.1382382E+00
         21   -1    0    0  503  502  0.00000000000E+00  0.00000000000E+00  0.24153915665E+03  0.24153915665E+03  0.00000000000E+00 0. -1.
          1   -1    0    0  504    0 -0.00000000000E+00 -0.00000000000E+00 -0.29354466583E+04  0.29354466583E+04  0.00000000000E+00 0.  1.
         21    1    1    2  503  501  0.62318386574E+02  0.63729500604E+01  0.21055938442E+03  0.21968033632E+03  0.00000000000E+00 0. -1.
         21    1    1    2  504  505 -0.41763961502E+02  0.46197770301E+01 -0.49880780964E+03  0.50057447176E+03  0.00000000000E+00 0. -1.
         21    1    1    2  505  502 -0.80900760500E+02 -0.37270601702E+02 -0.54025911865E+02  0.10417691661E+03  0.00000000000E+00 0. -1.
          1    1    1    2  501    0  0.60346335428E+02  0.26277874612E+02 -0.23516331646E+04  0.23525540903E+04  0.00000000000E+00 0.  1.
<scales pt_clust_3="63.84180" pt_clust_4="42.01870" pt_clust_5="14000.00000" pt_clust_6="36.68186"></scales>
<clustering>
<clus scale="   42.019">  2  4  1 -1</clus>
<clus scale="   36.682">  2  6  1 -1</clus>
<clus scale="   63.842">  1  3  2 -1</clus>
<clus scale="   63.842">  1  3  2 -1</clus>
</clustering>
</event>
<event>
 6    0  0.2117869E+002  0.1872752E+03  0.7546771E-02  0.1160942E+00
         21   -1    0    0  505  502  0.00000000000E+00  0.00000000000E+00  0.24294085425E+04  0.24294085425E+04  0.00000000000E+00 0. -1.
          2   -1    0    0  503    0 -0.00000000000E+00 -0.00000000000E+00 -0.10385499600E+03  0.10385499600E+03  0.00000000000E+00 0.  1.
         21    1    1    2  503  504  0.26251693954E+02 -0.24301923218E+02  0.30285370894E+02  0.46871511580E+02  0.00000000000E+00 0.  1.
         21    1    1    2  504  502  0.36521169778E+02 -0.14612037196E+03  0.33461098415E+03  0.36694613999E+03  0.00000000000E+00 0.  1.
         21    1    1    2  505  501 -0.35428192999E+02  0.91532110251E+00  0.19468724719E+04  0.19471950125E+04  0.00000000000E+00 0. -1.
          2    1    1    2  501    0 -0.27344670733E+02  0.16950697407E+03  0.13784719594E+02  0.17225087452E+03  0.00000000000E+00 0.  1.
<scales pt_clust_3="34.84336" pt_clust_4="34.84336" pt_clust_5="35.44002" pt_clust_6="173.09104"></scales>
<clustering>
<clus scale="   34.843">  3  4 -1 -1</clus>
<clus scale="   35.440">  1  5  2 -1</clus>
<clus scale="  173.091">  2  6  1 -1</clus>
<clus scale="   35.440">  1  3  2 -1</clus>
</clustering>
</event>
<event>
 6    0  0.2117869E+002  0.1879718E+03  0.7546771E-02  0.1160303E+00
         21   -1    0    0  505  502  0.00000000000E+00  0.00000000000E+00  0.20825010643E+03  0.20825010643E+03  0.00000000000E+00 0. -1.
         -2   -1    0    0    0  501 -0.00000000000E+00 -0.00000000000E+00 -0.15630906044E+04  0.15630906044E+04  0.00000000000E+00 0. -1.
         21    1    1    2  503  502  0.82820325129E+02 -0.22278603188E+02  0.11675112991E+03  0.14486672755E+03  0.00000000000E+00 0. -1.
         21    1    1    2  504  503  0.90507378960E+02 -0.20654223978E+02  0.40795773824E+02  0.10140255311E+03  0.00000000000E+00 0. -1.
         21    1    1    2  505  501 -0.25680850370E+02  0.28898759326E+02 -0.54626885367E+03  0.54763519323E+03  0.00000000000E+00 0.  1.
         -2    1    1    2    0  504 -0.14764685372E+03  0.14034067840E+02 -0.96611854801E+03  0.97743623694E+03  0.00000000000E+00 0. -1.
<scales pt_clust_3="60.49435" pt_clust_4="60.49435" pt_clust_5="38.66063" pt_clust_6="177.17672"></scales>
<clustering>
<clus scale="   38.661">  2  5  1 -1</clus>
<clus scale="   60.494">  3  4 -1 -1</clus>
<clus scale="  177.177">  2  6  1 -1</clus>
<clus scale="  187.972">  1  3  2 -1</clus>
</clustering>
</event>
<event>
 6    0  0.2117869E+002  0.6788443E+02  0.7546771E-02  0.1367439E+00
          1   -1    0    0  505    0 -0.00000000000E+00  0.00000000000E+00  0.28265195807E+03  0.28265195807E+03  0.00000000000E+00 0. -1.
         21   -1    0    0  504  502  0.00000000000E+00 -0.00000000000E+00 -0.23762289535E+03  0.23762289535E+03  0.00000000000E+00 0. -1.
         21    1    1    2  503  502 -0.39902680940E+02  0.61781177360E+02 -0.13389287352E+03  0.15276268982E+03  0.00000000000E+00 0. -1.
         21    1    1    2  504  501  0.42388001622E+02  0.83003185666E+01 -0.63480940922E+02  0.76781949898E+02  0.00000000000E+00 0.  1.
         21    1    1    2  505  503 -0.66070180873E+02 -0.22085252190E+02  0.16738436254E+03  0.18130237723E+03  0.00000000000E+00 0. -1.
          1    1    1    2  501    0  0.63584860192E+02 -0.47996243736E+02  0.75018514617E+02  0.10942783647E+03  0.00000000000E+00 0. -1.
<scales pt_clust_3="67.05070" pt_clust_4="43.19303" pt_clust_5="67.88443" pt_clust_6="14000.00000"></scales>
<clustering>
<clus scale="   43.193">  2  4  1 -1</clus>
<clus scale="   67.884">  1  5  2 -1</clus>
<clus scale="   67.051">  2  3  1 -1</clus>
<clus scale="   43.193">  2  3  1 -1</clus>
</clustering>
</event>
<event>
 6    0  0.2117869E+002  0.2216930E+03  0.7546771E-02  0.1132627E+00
         -2   -1    0    0    0  501 -0.00000000000E+00  0.00000000000E+00  0.13738086868E+04  0.13738086868E+04  0.00000000000E+00 0.  1.
         21   -1    0    0  504  502  0.00000000000E+00 -0.00000000000E+00 -0.22275929606E+03  0.22275929606E+03  0.00000000000E+00 0. -1.
         21    1    1    2  503  501  0.11279853210E+03  0.18495359004E+03 -0.46774127303E+02  0.22162842394E+03  0.00000000000E+00 0. -1.
         21    1    1    2  504  503  0.56255069295E+02 -0.20463004689E+02 -0.49160294218E+02  0.77460324747E+02  0.00000000000E+00 0. -1.
         21    1    1    2  505  502  0.19252816755E+02 -0.43882052128E+02  0.22851404003E+02  0.53089472749E+02  0.00000000000E+00 0.  1.
         -2    1    1    2    0  505 -0.18830641815E+03 -0.12060853322E+03  0.12241324083E+04  0.12443897615E+04  0.00000000000E+00 0.  1.
<scales pt_clust_3="221.69298" pt_clust_4="70.74526" pt_clust_5="47.91978" pt_clust_6="14000.00000"></scales>
<clustering>
<clus scale="   47.920">  2  5  1 -1</clus>
<clus scale="   70.745">  2  4  1 -1</clus>
<clus scale="  221.693">  2  3  1 -1</clus>
<clus scale="   47.920">  2  3  1 -1</clus>
</clustering>
</event>
<event>
 6    0  0.2117869E+002  0.7870336E+02  0.7546771E-02  0.1332772E+00
          1   -1    0    0  503    0 -0.00000000000E+00  0.00000000000E+00  0.39447642118E+03  0.39447642118E+03  0.00000000000E+00 0. -1.
         21   -1    0    0  501  502  0.00000000000E+00 -0.00000000000E+00 -0.94183963261E+03  0.94183963261E+03  0.00000000000E+00 0. -1.
         21    1    1    2  503  504  0.21961407216E+02 -0.55670535778E+02  0.10724423201E+03  0.12281220322E+03  0.00000000000E+00 0.  1.
         21    1    1    2  504  505  0.66277275274E+02 -0.38702089339E+02 -0.40347173409E+02  0.86708842334E+02  0.00000000000E+00 0.  1.
         21    1    1    2  505  502 -0.30488974361E+02  0.49794535686E+01 -0.85918887988E+03  0.85974409206E+03  0.00000000000E+00 0. -1.
          1    1    1    2  501    0 -0.57749708129E+02  0.89393171548E+02  0.24492860984E+03  0.26705091617E+03  0.00000000000E+00 0. -1.
<scales pt_clust_3="14000.00000" pt_clust_4="55.17303" pt_clust_5="30.89292" pt_clust_6="78.70336"></scales>
<clustering>
<clus scale="   30.893">  2  5  1 -1</clus>
<clus scale="   55.173">  2  4  1 -1</clus>
<clus scale="   78.703">  2  6  1 -1</clus>
<clus scale="   30.893">  2  3  1 -1</clus>
</clustering>
</event>
<event>
 6    0  0.2117869E+002  0.1309274E+03  0.7546771E-02  0.1226086E+00
          2   -1    0    0  505    0 -0.00000000000E+00  0.00000000000E+00  0.25626097371E+04  0.25626097371E+04  0.00000000000E+00 0. -1.
         21   -1    0    0  503  502  0.00000000000E+00 -0.00000000000E+00 -0.30730916095E+03  0.30730916095E+03  0.00000000000E+00 0.  1.
         21    1    1    2  503  504  0.17116346884E+02  0.54746822262E+02 -0.17565192469E+03  0.18478036294E+03  0.00000000000E+00 0.  1.
         21    1    1    2  504  501  0.15434243841E+02  0.66914336168E+02 -0.11426830947E+03  0.13331538102E+03  0.00000000000E+00 0.  1.
         21    1    1    2  505  502 -0.40621706533E+02  0.17160230332E+02  0.55327828414E+03  0.55503284250E+03  0.00000000000E+00 0. -1.
          2    1    1    2  501    0  0.80711158086E+01 -0.13882138876E+03  0.19919425262E+04  0.19967903116E+04  0.00000000000E+00 0. -1.
<scales pt_clust_3="32.57245" pt_clust_4="32.57245" pt_clust_5="44.09758" pt_clust_6="125.98338"></scales>
<clustering>
<clus scale="   32.572">  3  4 -1 -1</clus>
<clus scale="   44.098">  1  5  2 -1</clus>
<clus scale="  125.983">  1  6  2 -1</clus>
<clus scale="  130.927">  2  3  1 -1</clus>
</clustering>
</event>
<event>
 6    0  0.2117869E+002  0.8575635E+02  0.7546771E-02  0.1313466E+00
         21   -1    0    0  503  502  0.00000000000E+00  0.00000000000E+00  0.40388635201E+02  0.40388635201E+02  0.00000000000E+00 0. -1.
          1   -1    0    0  504    0 -0.00000000000E+00 -0.00000000000E+00 -0.12409574442E+04  0.12409574442E+04  0.00000000000E+00 0.  1.
         21    1    1    2  503  505  0.11112799643E+03  0.49855477976E+02 -0.22389910431E+03  0.25488391315E+03  0.00000000000E+00 0. -1.
         21    1    1    2  504  502 -0.39166412686E+02  0.64980547005E+01  0.16565365157E+01  0.39736339928E+02  0.00000000000E+00 0. -1.
         21    1    1    2  505  501 -0.58884117570E+02 -0.16165735326E+02 -0.25668667537E+03  0.26384980502E+03  0.00000000000E+00 0.  1.
          1    1    1    2  501    0 -0.13077466174E+02 -0.40187797350E+02 -0.72163956587E+03  0.72287602132E+03  0.00000000000E+00 0.  1.
<scales pt_clust_3="85.75635" pt_clust_4="39.70180" pt_clust_5="14000.00000" pt_clust_6="42.46641"></scales>
<clustering>
<clus scale="   39.702">  1  4  2 -1</clus>
<clus scale="   42.466">  2  6  1 -1</clus>
<clus scale="   85.756">  1  3  2 -1</clus>
<clus scale="   39.702">  1  3  2 -1</clus>
</clustering>
</event>
<event>
 6    0  0.2117869E+002  0.9273650E+02  0.7546771E-02  0.1296357E+00
         21   -1    0    0  504  502  0.00000000000E+00  0.00000000000E+00  0.81376481575E+02  0.81376481575E+02  0.00000000000E+00 0. -1.
          2   -1    0    0  505    0 -0.00000000000E+00 -0.00000000000E+00 -0.11331117975E+04  0.11331117975E+04  0.00000000000E+00 0.  1.
         21    1    1    2  503  501 -0.41980438942E+02 -0.56531827369E+02 -0.21833695223E+03  0.22941061324E+03  0.00000000000E+00 0. -1.
         21    1    1    2  504  503  0.81530467061E+02  0.51832387288E+02  0.38712313149E+02  0.10407908830E+03  0.00000000000E+00 0. -1.
         21    1    1    2  505  502  0.38404946251E+02  0.22512828410E+02 -0.28121783911E+03  0.28471958200E+03  0.00000000000E+00 0. -1.
          2    1    1    2  501    0 -0.77954974370E+02 -0.17813388329E+02 -0.59089283772E+03  0.59627899553E+03  0.00000000000E+00 0.  1.
<scales pt_clust_3="92.73650" pt_clust_4="14000.00000" pt_clust_5="44.51705" pt_clust_6="51.18279"></scales>
<clustering>
<clus scale="   44.517">  2  5  1 -1</clus>
<clus scale="   51.183">  2  6  1 -1</clus>
<clus scale="   92.736">  2  3  1 -1</clus>
<clus scale="   92.736">  1  3  2 -1</clus>
</clustering>
</event>
<event>
 6    0  0.2117869E+002  0.2067684E+03  0.7546771E-02  0.1144151E+00
         21   -1    0    0  504  502  0.00000000000E+00  0.00000000000E+00  0.45736830647E+02  0.45736830647E+02  0.00000000000E+00 0. -1.
          2   -1    0    0  503    0 -0.00000000000E+00 -0.00000000000E+00 -0.13612254244E+04  0.13612254244E+04  0.00000000000E+00 0. -1.
         21    1    1    2  503  502  0.52049167577E+02  0.27910054517E+02 -0.18893829143E+03  0.19795394655E+03  0.00000000000E+00 0.  1.
         21    1    1    2  504  505  0.69201873927E+02 -0.15270558055E+03 -0.30691248333E+03  0.34971869568E+03  0.00000000000E+00 0. -1.
         21    1    1    2  505  501 -0.12569989398E+02 -0.35599172949E+02 -0.36395557523E+02  0.52439892787E+02  0.00000000000E+00 0.  1.
          2    1    1    2  501    0 -0.10868105211E+03  0.16039469898E+03 -0.78324226142E+03  0.80684971998E+03  0.00000000000E+00 0. -1.
<scales pt_clust_3="59.06003" pt_clust_4="34.23667" pt_clust_5="34.23667" pt_clust_6="193.77279"></scales>
<clustering>
<clus scale="   34.237">  4  5 -1 -1</clus>
<clus scale="   59.060">  2  3  1 -1</clus>
<clus scale="  193.773">  2  6  1 -1</clus>
<clus scale="  206.768">  1  3  2 -1</clus>
</clustering>
</event>
<event>
 6    0  0.2117869E+002  0.1246963E+03  0.7546771E-02  0.1235545E+00
          1   -1    0    0  505    0 -0.00000000000E+00  0.00000000000E+00  0.23448368528E+03  0.23448368528E+03  0.00000000000E+00 0. -1.
         21   -1    0    0  501  502  0.00000000000E+00 -0.00000000000E+00 -0.15279160336E+03  0.15279160336E+03  0.00000000000E+00 0. -1.
         21    1    1    2  503  502 -0.47729279441E+02 -0.66217855040E+02 -0.22271719584E+02  0.84610389051E+02  0.00000000000E+00 0. -1.
         21    1    1    2  504  503  0.77591202823E+01 -0.51026491857E+02 -0.41419371262E+02  0.66177572746E+02  0.00000000000E+00 0. -1.
         21    1    1    2  505  504 -0.41873972765E+02  0.87402777837E+02  0.95690737912E+02  0.13619615446E+03  0.00000000000E+00 0. -1.
          1    1    1    2  501    0  0.81844131924E+02  0.29841569060E+02  0.49692434859E+02  0.10029117238E+03  0.00000000000E+00 0. -1.
<scales pt_clust_3="45.93212" pt_clust_4="45.93212" pt_clust_5="110.51048" pt_clust_6="87.11476"></scales>
<clustering>
<clus scale="   45.932">  3  4 -1 -1</clus>
<clus scale="   87.115">  1  6  2 -1</clus>
<clus scale="  110.510">  1  5  2 -1</clus>
<clus scale="  124.696">  2  3  1 -1</clus>
</clustering>
</event>
<event>
 6    0  0.2117869E+002  0.1572810E+03  0.7546771E-02  0.1191801E+00
         21   -1    0    0  504  502  0.00000000000E+00  0.00000000000E+00  0.15058511915E+03  0.15058511915E+03  0.00000000000E+00 0. -1.
         -1   -1    0    0    0  501 -0.00000000000E+00 -0.00000000000E+00 -0.13463739945E+04  0.13463739945E+04  0.00000000000E+00 0. -1.
         21    1    1    2  503  505  0.63534796480E+02  0.41288193389E+02  0.36650898979E+02  0.84170503581E+02  0.00000000000E+00 0.  1.
         21    1    1    2  504  501 -0.57501765186E+02 -0.33851148403E+01 -0.10314238995E+03  0.11813663533E+03  0.00000000000E+00 0. -1.
         21    1    1    2  505  502  0.81053733893E+02  0.16236884845E+02  0.59240008653E+02  0.10169917813E+03  0.00000000000E+00 0. -1.
         -1    1    1    2    0  503 -0.87086765186E+02 -0.54139963394E+02 -0.11885373930E+04  0.11929527966E+04  0.00000000000E+00 0. -1.
<scales pt_clust_3="32.29019" pt_clust_4="57.60132" pt_clust_5="32.29019" pt_clust_6="153.62231"></scales>
<clustering>
<clus scale="   32.290">  3  5 -1 -1</clus>
<clus scale="   57.601">  2  4  1 -1</clus>
<clus scale="  153.622">  2  6  1 -1</clus>
<clus scale="  157.281">  1  3  2 -1</clus>
</clustering>
</event>
<event>
 6    0  0.2117869E+002  0.1349992E+03  0.7546771E-02  0.1220221E+00
         21   -1    0    0  505  502  0.00000000000E+00  0.00000000000E+00  0.34407647674E+02  0.34407647674E+02  0.00000000000E+00 0. -1.
          2   -1    0    0  504    0 -0.00000000000E+00 -0.00000000000E+00 -0.25820669976E+04  0.25820669976E+04  0.00000000000E+00 0. -1.
         21    1    1    2  503  501 -0.63266744785E+02  0.35329336192E+02 -0.92028349083E+02  0.11713265995E+03  0.00000000000E+00 0. -1.
         21    1    1    2  504  502 -0.14159565606E+01  0.32577167017E+02 -0.16493073369E+03  0.16812323950E+03  0.00000000000E+00 0. -1.
         21    1    1    2  505  503 -0.48962103618E+02  0.26010359884E+02 -0.25155483931E+02  0.60882056337E+02  0.00000000000E+00 0. -1.
          2    1    1    2  501    0  0.11364480496E+03 -0.93916863093E+02 -0.22655447832E+04  0.22703366895E+04  0.00000000000E+00 0. -1.
<scales pt_clust_3="34.89391" pt_clust_4="32.60792" pt_clust_5="34.89391" pt_clust_6="128.93978"></scales>
<clustering>
<clus scale="   32.608">  2  4  1 -1</clus>
<clus scale="   34.894">  3  5 -1 -1</clus>
<clus scale="  128.940">  2  6  1 -1</clus>
<clus scale="  134.999">  1  3  2 -1</clus>
</clustering>
</event>
<event>
 6    0  0.2117869E+002  0.1562224E+03  0.7546771E-02  0.1193029E+00
          2   -1    0    0  504    0 -0.00000000000E+00  0.00000000000E+00  0.11121800080E+04  0.11121800080E+04  0.00000000000E+00 0. -1.
         21   -1    0    0  505  502  0.00000000000E+00 -0.00000000000E+00 -0.10903077033E+04  0.10903077033E+04  0.00000000000E+00 0.  1.
         21    1    1    2  503  501  0.15747986287E+03 -0.14060639587E+02 -0.53005762885E+03  0.55313533489E+03  0.00000000000E+00 0. -1.
         21    1    1    2  504  502  0.30279436860E+02  0.44519500925E+01  0.36963984036E+02  0.47989585037E+02  0.00000000000E+00 0.  1.
         21    1    1    2  505  503 -0.41811227652E+01  0.42652691412E+02 -0.53411331887E+03  0.53582998354E+03  0.00000000000E+00 0.  1.
          2    1    1    2  501    0 -0.18357817697E+03 -0.33044001918E+02  0.10490792684E+04  0.10655328078E+04  0.00000000000E+00 0. -1.
<scales pt_clust_3="14000.00000" pt_clust_4="30.60497" pt_clust_5="42.85833" pt_clust_6="156.22238"></scales>
<clustering>
<clus scale="   30.605">  1  4  2 -1</clus>
<clus scale="   42.858">  2  5  1 -1</clus>
<clus scale="  156.222">  1  6  2 -1</clus>
<clus scale="   42.858">  2  3  1 -1</clus>
</clustering>
</event>
<event>
 6    0  0.2117869E+002  0.5371827E+02  0.7546771E-02  0.1426259E+00
          2   -1    0    0  504    0 -0.00000000000E+00  0.00000000000E+00  0.43220188060E+03  0.43220188060E+03  0.00000000000E+00 0.  1.
         21   -1    0    0  503  502  0.00000000000E+00 -0.00000000000E+00 -0.14541888664E+03  0.14541888664E+03  0.00000000000E+00 0. -1.
         21    1    1    2  503  501  0.26009580476E+02 -0.42991031608E+02 -0.95175424788E+02  0.10762475811E+03  0.00000000000E+00 0. -1.
         21    1    1    2  504  505 -0.25218156295E+02 -0.41716659450E+02  0.60435783488E+02  0.77644826024E+02  0.00000000000E+00 0.  1.
         21    1    1    2  505  502 -0.63057624705E+02  0.69184540481E+02  0.36959089090E+02  0.10064163622E+03  0.00000000000E+00 0.  1.
          2    1    1    2  501    0  0.62266200523E+02  0.15523150577E+02  0.28456354617E+03  0.29170954688E+03  0.00000000000E+00 0.  1.
<scales pt_clust_3="14000.00000" pt_clust_4="48.74664" pt_clust_5="53.71827" pt_clust_6="45.76697"></scales>
<clustering>
<clus scale="   48.747">  1  4  2 -1</clus>
<clus scale="   45.767">  1  6  2 -1</clus>
<clus scale="   53.718">  1  5  2 -1</clus>
<clus scale="   53.718">  2  3  1 -1</clus>
</clustering>
</event>
<event>
 6    0  0.2117869E+002  0.1395016E+03  0.7546771E-02  0.1214001E+00
         21   -1    0    0  504  502  0.00000000000E+00  0.00000000000E+00  0.17024720889E+03  0.17024720889E+03  0.00000000000E+00 0.  1.
          1   -1    0    0  503    0 -0.00000000000E+00 -0.00000000000E+00 -0.57764508859E+03  0.57764508859E+03  0.00000000000E+00 0.  1.
         21    1    1    2  503  505  0.29223112088E+02  0.59287575654E+02 -0.18751327021E+03  0.19882211500E+03  0.00000000000E+00 0.  1.
         21    1    1    2  504  501 -0.16914791006E+03  0.23238252468E+02 -0.27572870076E+02  0.17294882197E+03  0.00000000000E+00 0.  1.
         21    1    1    2  505  502  0.11463600271E+03 -0.56785772983E+02  0.45354375788E+02  0.13573156057E+03  0.00000000000E+00 0.  1.
          1    1    1    2  501    0  0.25288795264E+02 -0.25740055139E+02 -0.23766611520E+03  0.24038979995E+03  0.00000000000E+00 0.  1.
<scales pt_clust_3="62.40813" pt_clust_4="14000.00000" pt_clust_5="139.50163" pt_clust_6="36.08426"></scales>
<clustering>
<clus scale="   36.084">  2  6  1 -1</clus>
<clus scale="   62.408">  2  3  1 -1</clus>
<clus scale="  139.502">  1  5  2 -1</clus>
<clus scale="  139.502">  1  3  2 -1</clus>
</clustering>
</event>
<event>
 6    0  0.2117869E+002  0.9595490E+02  0.7546771E-02  0.1289040E+00
          2   -1    0    0  503    0 -0.00000000000E+00  0.00000000000E+00  0.12030863272E+04  0.12030863272E+04  0.00000000000E+00 0. -1.
         21   -1    0    0  501  502  0.00000000000E+00 -0.00000000000E+00 -0.54442572564E+03  0.54442572564E+03  0.00000000000E+00 0. -1.
         21    1    1    2  503  504 -0.37654246402E+02 -0.16458970327E+02  0.58424917517E+03  0.58569261449E+03  0.00000000000E+00 0. -1.
         21    1    1    2  504  505 -0.34629725592E+02 -0.45112927025E+02  0.11746838449E+03  0.13051136132E+03  0.00000000000E+00 0.  1.
         21    1    1    2  505  502  0.25166208394E+02  0.94203001231E+02 -0.53106690727E+03  0.53994407441E+03  0.00000000000E+00 0. -1.
          2    1    1    2  501    0  0.47117763600E+02 -0.32631103879E+02  0.48800994915E+03  0.49136400261E+03  0.00000000000E+00 0. -1.
<scales pt_clust_3="41.09428" pt_clust_4="95.95490" pt_clust_5="14000.00000" pt_clust_6="48.83259"></scales>
<clustering>
<clus scale="   41.094">  1  3  2 -1</clus>
<clus scale="   48.833">  1  6  2 -1</clus>
<clus scale="   95.955">  1  4  2 -1</clus>
<clus scale="   95.955">  2  3  1 -1</clus>
</clustering>
</event>
<event>
 6    0  0.2117869E+002  0.9661683E+02  0.7546771E-02  0.1287576E+00
         21   -1    0    0  503  502  0.00000000000E+00  0.00000000000E+00  0.12671139668E+03  0.12671139668E+03  0.00000000000E+00 0.  1.
          2   -1    0    0  504    0 -0.00000000000E+00 -0.00000000000E+00 -0.58121726940E+03  0.58121726940E+03  0.00000000000E+00 0.  1.
         21    1    1    2  503  505 -0.57177033917E+02 -0.83666519706E+02  0.78547986958E+02  0.12821499905E+03  0.00000000000E+00 0.  1.
         21    1    1    2  504  502  0.20551903253E+02 -0.22472755879E+02 -0.13516382420E+03  0.13855202942E+03  0.00000000000E+00 0.  1.
         21    1    1    2  505  501  0.58891811238E+02  0.56612485994E+02 -0.66452086110E+02  0.10530478978E+03  0.00000000000E+00 0.  1.
          2    1    1    2  501    0 -0.22266680574E+02  0.49526789591E+02 -0.33143794937E+03  0.33585684783E+03  0.00000000000E+00 0.  1.
<scales pt_clust_3="96.61683" pt_clust_4="30.45333" pt_clust_5="14000.00000" pt_clust_6="33.36086"></scales>
<clustering>
<clus scale="   30.453">  2  4  1 -1</clus>
<clus scale="   33.361">  2  6  1 -1</clus>
<clus scale="   96.617">  1  3  2 -1</clus>
<clus scale="   96.617">  1  3  2 -1</clus>
</clustering>
</event>
<event>
 6    0  0.2117869E+002  0.1289842E+03  0.7546771E-02  0.1228971E+00
          1   -1    0    0  505    0 -0.00000000000E+00  0.00000000000E+00  0.48995391598E+03  0.48995391598E+03  0.00000000000E+00 0. -1.
         21   -1    0    0  501  502  0.00000000000E+00 -0.00000000000E+00 -0.28196384038E+03  0.28196384038E+03  0.00000000000E+00 0. -1.
         21    1    1    2  503  502  0.18417455163E+02  0.13267695877E+03 -0.23948981126E+03  0.27440435080E+03  0.00000000000E+00 0. -1.
         21    1    1    2  504  503  0.79126667955E+01 -0.60585682416E+02  0.26477979495E+02  0.66590679587E+02  0.00000000000E+00 0. -1.
         21    1    1    2  505  504 -0.30230302007E+02 -0.13927063870E+02  0.17164868236E+03  0.17484594483E+03  0.00000000000E+00 0. -1.
          1    1    1    2  501    0  0.39001800492E+01 -0.58164212479E+02  0.24935322500E+03  0.25607678114E+03  0.00000000000E+00 0. -1.
<scales pt_clust_3="128.98422" pt_clust_4="62.72811" pt_clust_5="33.28414" pt_clust_6="14000.00000"></scales>
<clustering>
<clus scale="   33.284">  1  5  2 -1</clus>
<clus scale="   62.728">  1  4  2 -1</clus>
<clus scale="  128.984">  2  3  1 -1</clus>
<clus scale="  128.984">  2  3  1 -1</clus>
</clustering>
</event>
<event>
 6    0  0.2117869E+002  0.1251231E+03  0.7546771E-02  0.1234877E+00
          2   -1    0    0  505    0 -0.00000000000E+00  0.00000000000E+00  0.12347000676E+03  0.12347000676E+03  0.00000000000E+00 0. -1.
         21   -1    0    0  503  502  0.00000000000E+00 -0.00000000000E+00 -0.61188249571E+03  0.61188249571E+03  0.00000000000E+00 0.  1.
         21    1    1    2  503  501  0.41912530846E+02  0.41400504326E+02  0.10385997029E+02  0.59820823587E+02  0.00000000000E+00 0. -1.
         21    1    1    2  504  502 -0.45533115427E+01 -0.48943480870E+02 -0.41735087015E+03  0.42023558367E+03  0.00000000000E+00 0.  1.
         21    1    1    2  505  504 -0.52599506496E+02 -0.58959501223E+02 -0.14301986425E+03  0.16339404040E+03  0.00000000000E+00 0.  1.
          2    1    1    2  501    0  0.15240287193E+02  0.66502477767E+02  0.61572248424E+02  0.91902054813E+02  0.00000000000E+00 0. -1.
<scales pt_clust_3="49.69840" pt_clust_4="49.15483" pt_clust_5="112.79827" pt_clust_6="49.69840"></scales>
<clustering>
<clus scale="   49.155">  2  4  1 -1</clus>
<clus scale="   49.698">  3  6 -1 -1</clus>
<clus scale="  112.798">  2  5  1 -1</clus>
<clus scale="   49.155">  2  3  1 -1</clus>
</clustering>
</event>
<event>
 6    0  0.2117869E+002  0.6076622E+02  0.7546771E-02  0.1394644E+00
         21   -1    0    0  503  502  0.00000000000E+00  0.00000000000E+00  0.16011638982E+03  0.16011638982E+03  0.00000000000E+00 0.  1.
          2   -1    0    0  505    0 -0.00000000000E+00 -0.00000000000E+00 -0.10263842275E+04  0.10263842275E+04  0.00000000000E+00 0. -1.
         21    1    1    2  503  501  0.86048773005E+02 -0.50544037898E+02  0.10878793896E+03  0.14762759487E+03  0.00000000000E+00 0.  1.
         21    1    1    2  504  502 -0.25803327865E+02  0.43938777973E+02  0.24562737071E+01  0.51014323667E+02  0.00000000000E+00 0.  1.
         21    1    1    2  505  504 -0.18168888601E+02  0.49779446363E+02 -0.16925821268E+03  0.17735964691E+03  0.00000000000E+00 0.  1.
          2    1    1    2  501    0 -0.42076556539E+02 -0.43174186439E+02 -0.80825383764E+03  0.81049905185E+03  0.00000000000E+00 0. -1.
<scales pt_clust_3="14000.00000" pt_clust_4="50.95516" pt_clust_5="54.51443" pt_clust_6="60.76622"></scales>
<clustering>
<clus scale="   50.955">  1  4  2 -1</clus>
<clus scale="   54.514">  2  5  1 -1</clus>
<clus scale="   60.766">  2  6  1 -1</clus>
<clus scale="   50.955">  1  3  2 -1</clus>
</clustering>
</event>
<event>
 6    0  0.2117869E+002  0.8895405E+02  0.7546771E-02  0.1305405E+00
         21   -1    0    0  501  502  0.00000000000E+00  0.00000000000E+00  0.68201278048E+03  0.68201278048E+03  0.00000000000E+00 0. -1.
          1   -1    0    0  505    0 -0.00000000000E+00 -0.00000000000E+00 -0.97443847427E+02  0.97443847427E+02  0.00000000000E+00 0.  1.
         21    1    1    2  503  502  0.17777833910E+02 -0.25832710464E+02  0.82568348710E+02  0.88322774623E+02  0.00000000000E+00 0. -1.
         21    1    1    2  504  503 -0.17159744484E+02  0.11469075377E+03  0.54030765034E+03  0.55261268792E+03  0.00000000000E+00 0. -1.
         21    1    1    2  505  504 -0.37150713836E+02 -0.24734506275E+02  0.15436796343E+02  0.47225692378E+02  0.00000000000E+00 0. -1.
          1    1    1    2  501    0  0.36532624410E+02 -0.64123537033E+02 -0.53743862344E+02  0.91295472985E+02  0.00000000000E+00 0.  1.
<scales pt_clust_3="31.35890" pt_clust_4="88.95405" pt_clust_5="44.63659" pt_clust_6="14000.00000"></scales>
<clustering>
<clus scale="   31.359">  1  3  2 -1</clus>
<clus scale="   44.637">  2  5  1 -1</clus>
<clus scale="   88.954">  1  4  2 -1</clus>
<clus scale="   31.359">  1  3  2 -1</clus>
</clustering>
</event>
<event>
 6    0  0.2117869E+002  0.8370069E+02  0.7546771E-02  0.1318866E+00
          1   -1    0    0  504    0 -0.00000000000E+00  0.00000000000E+00  0.48671526602E+03  0.48671526602E+03  0.00000000000E+00 0.  1.
         21   -1    0    0  503  502  0.00000000000E+00 -0.00000000000E+00 -0.58966602738E+03  0.58966602738E+03  0.00000000000E+00 0. -1.
         21    1    1    2  503  501  0.19146305826E+02  0.44633183797E+02 -0.30266797874E+03  0.30653973230E+03  0.00000000000E+00 0. -1.
         21    1    1    2  504  505 -0.29343429633E+02 -0.49483027376E+02 -0.36635705276E+02  0.68203971746E+02  0.00000000000E+00 0. -1.
         21    1    1    2  505  502 -0.28099604579E+02 -0.71809720527E+02 -0.22217212350E+03  0.23517371494E+03  0.00000000000E+00 0. -1.
          1    1    1    2  501    0  0.38296728386E+02  0.76659564105E+02  0.45852504616E+03  0.46646387441E+03  0.00000000000E+00 0.  1.
<scales pt_clust_3="48.56647" pt_clust_4="83.70069" pt_clust_5="38.19331" pt_clust_6="14000.00000"></scales>
<clustering>
<clus scale="   48.566">  2  3  1 -1</clus>
<clus scale="   38.193">  2  5  1 -1</clus>
<clus scale="   83.701">  2  4  1 -1</clus>
<clus scale="   48.566">  2  3  1 -1</clus>
</clustering>
</event>
<event>
 6    0  0.2117869E+002  0.1558564E+03  0.7546771E-02  0.1193456E+00
         21   -1    0    0  505  502  0.00000000000E+00  0.00000000000E+00  0.74227935960E+03  0.74227935960E+03  0.00000000000E+00 0. -1.
         -2   -1    0    0    0  501 -0.00000000000E+00 -0.00000000000E+00 -0.39716008599E+03  0.39716008599E+03  0.00000000000E+00 0. -1.
         21    1    1    2  503  501 -0.39681644117E+02 -0.10090420161E+02 -0.74249978885E+02  0.84790971355E+02  0.00000000000E+00 0. -1.
         21    1    1    2  504  502 -0.51674331142E+02 -0.36754879213E+01  0.95171570282E+02  0.10835761856E+03  0.00000000000E+00 0. -1.
         21    1    1    2  505  503 -0.53720154407E+02  0.11920959645E+03  0.60177391153E+03  0.61581541347E+03  0.00000000000E+00 0. -1.
         -2    1    1    2    0  504  0.14507612967E+03 -0.10544368837E+03 -0.27757622932E+03  0.33047544220E+03  0.00000000000E+00 0. -1.
<scales pt_clust_3="40.94447" pt_clust_4="52.64152" pt_clust_5="155.85642" pt_clust_6="14000.00000"></scales>
<clustering>
<clus scale="   40.944">  2  3  1 -1</clus>
<clus scale="   52.642">  1  4  2 -1</clus>
<clus scale="  155.856">  1  5  2 -1</clus>
<clus scale="   52.642">  1  3  2 -1</clus>
</clustering>
</event>
<event>
 6    0  0.2117869E+002  0.2566344E+03  0.7546771E-02  0.1109182E+00
          2   -1    0    0  504    0 -0.00000000000E+00  0.00000000000E+00  0.39117604772E+03  0.39117604772E+03  0.00000000000E+00 0.  1.
         21   -1    0    0  503  502  0.00000000000E+00 -0.00000000000E+00 -0.43702994326E+03  0.43702994326E+03  0.00000000000E+00 0.  1.
         21    1    1    2  503  505 -0.59458278984E+02 -0.19918943647E+02 -0.14844682561E+03  0.16114748303E+03  0.00000000000E+00 0. -1.
         21    1    1    2  504  502  0.29229556105E+02 -0.18885881979E+02  0.78411325285E+02  0.85786825452E+02  0.00000000000E+00 0. -1.
         21    1    1    2  505  501  0.10939525490E+03  0.26586782055E+03 -0.10770942067E+03  0.30700869548E+03  0.00000000000E+00 0.  1.
          2    1    1    2  501    0 -0.79166532022E+02 -0.22706299492E+03  0.13189102545E+03  0.27426298702E+03  0.00000000000E+00 0.  1.
<scales pt_clust_3="62.26239" pt_clust_4="34.80005" pt_clust_5="256.63435" pt_clust_6="14000.00000"></scales>
<clustering>
<clus scale="   34.800">  1  4  2 -1</clus>
<clus scale="   62.262">  2  3  1 -1</clus>
<clus scale="  256.634">  2  5  1 -1</clus>
<clus scale="   62.262">  2  3  1 -1</clus>
</clustering>
</event>
<event>
 6    0  0.2117869E+002  0.7557787E+02  0.7546771E-02  0.1342091E+00
         21   -1    0    0  505  502  0.00000000000E+00  0.00000000000E+00  0.90332020344E+02  0.90332020344E+02  0.00000000000E+00 0. -1.
          2   -1    0    0  504    0 -0.00000000000E+00 -0.00000000000E+00 -0.45404239112E+03  0.45404239112E+03  0.00000000000E+00 0. -1.
         21    1    1    2  503  502 -0.62425361487E+01  0.91766098901E+02  0.15582029775E+01  0.91991380909E+02  0.00000000000E+00 0. -1.
         21    1    1    2  504  503 -0.12547548110E+02  0.54952767540E+02 -0.16849076034E+03  0.17766931064E+03  0.00000000000E+00 0. -1.
         21    1    1    2  505  501  0.37898732981E+02 -0.40298624030E+02 -0.62859302336E+01  0.55675901243E+02  0.00000000000E+00 0. -1.
          2    1    1    2  501    0 -0.19108648722E+02 -0.10642024241E+03 -0.19049188318E+03  0.21903781867E+03  0.00000000000E+00 0. -1.
<scales pt_clust_3="14000.00000" pt_clust_4="53.06634" pt_clust_5="55.31992" pt_clust_6="75.57787"></scales>
<clustering>
<clus scale="   55.320">  1  5  2 -1</clus>
<clus scale="   53.066">  2  4  1 -1</clus>
<clus scale="   75.578">  2  6  1 -1</clus>
<clus scale="   55.320">  1  3  2 -1</clus>
</clustering>
</event>
<event>
 6    0  0.2117869E+002  0.7040818E+02  0.7546771E-02  0.1358710E+00
         21   -1    0    0  503  502  0.00000000000E+00  0.00000000000E+00  0.29008517319E+03  0.29008517319E+03  0.00000000000E+00 0.  1.
          2   -1    0    0  505    0 -0.00000000000E+00 -0.00000000000E+00 -0.16079557099E+04  0.16079557099E+04  0.00000000000E+00 0.  1.
         21    1    1    2  503  504 -0.35720252702E+02  0.29100437761E+01  0.45845892405E+01  0.36130641654E+02  0.00000000000E+00 0.  1.
         21    1    1    2  504  501  0.96808383626E+02  0.44110007406E+02 -0.22907016872E+03  0.25256820483E+03  0.00000000000E+00 0.  1.
         21    1    1    2  505  502  0.31855324050E+01 -0.64643154078E+02  0.25308200802E+03  0.26122669804E+03  0.00000000000E+00 0.  1.
          2    1    1    2  501    0 -0.64273663329E+02  0.17623102895E+02 -0.13464669652E+04  0.13481153385E+04  0.00000000000E+00 0.  1.
<scales pt_clust_3="35.83859" pt_clust_4="14000.00000" pt_clust_5="70.40818" pt_clust_6="66.75353"></scales>
<clustering>
<clus scale="   35.839">  1  3  2 -1</clus>
<clus scale="   66.754">  2  6  1 -1</clus>
<clus scale="   70.408">  1  5  2 -1</clus>
<clus scale="   35.839">  1  3  2 -1</clus>
</clustering>
</event>
<event>
 6    0  0.2117869E+002  0.1226791E+03  0.7546771E-02  0.1238742E+00
          2   -1    0    0  503    0 -0.00000000000E+00  0.00000000000E+00  0.20648930936E+03  0.20648930936E+03  0.00000000000E+00 0.  1.
         21   -1    0    0  504  502  0.00000000000E+00 -0.00000000000E+00 -0.61669514302E+03  0.61669514302E+03  0.00000000000E+00 0. -1.
         21    1    1    2  503  502  0.19648382393E+02 -0.25914132756E+02 -0.32205539759E+01  0.32679858859E+02  0.00000000000E+00 0. -1.
         21    1    1    2  504  505 -0.24906384666E+02 -0.26187412885E+02 -0.51566900279E+03  0.51693387297E+03  0.00000000000E+00 0. -1.
         21    1    1    2  505  501 -0.10320202236E+03 -0.35515622910E+02  0.28795164370E+02  0.11287682836E+03  0.00000000000E+00 0.  1.
          2    1    1    2  501    0  0.10846002464E+03  0.87617168551E+02  0.79888558739E+02  0.16069389219E+03  0.00000000000E+00 0.  1.
<scales pt_clust_3="32.52078" pt_clust_4="36.15755" pt_clust_5="14000.00000" pt_clust_6="122.67911"></scales>
<clustering>
<clus scale="   32.521">  1  3  2 -1</clus>
<clus scale="   36.158">  2  4  1 -1</clus>
<clus scale="  122.679">  1  6  2 -1</clus>
<clus scale="   36.158">  2  3  1 -1</clus>
</clustering>
</event>
<event>
 6    0  0.2117869E+002  0.1038967E+03  0.7546771E-02  0.1272309E+00
         21   -1    0    0  505  502  0.00000000000E+00  0.00000000000E+00  0.14983676430E+03  0.14983676430E+03  0.00000000000E+00 0. -1.
          2   -1    0    0  504    0 -0.00000000000E+00 -0.00000000000E+00 -0.20536704828E+04  0.20536704828E+04  0.00000000000E+00 0. -1.
         21    1    1    2  503  502 -0.32495143244E+01  0.42743880122E+02 -0.49477016366E+01  0.43151806250E+02  0.00000000000E+00 0. -1.
         21    1    1    2  504  503  0.24568566489E+02 -0.26229917316E+02 -0.73869276590E+02  0.82147994775E+02  0.00000000000E+00 0. -1.
         21    1    1    2  505  501 -0.10055362194E+03 -0.53451879288E+02  0.99791523960E+02  0.15141493500E+03  0.00000000000E+00 0. -1.
          2    1    1    2  501    0  0.79234569779E+02  0.36937916482E+02 -0.19248082642E+04  0.19267925111E+04  0.00000000000E+00 0. -1.
<scales pt_clust_3="42.52705" pt_clust_4="35.93916" pt_clust_5="14000.00000" pt_clust_6="103.89671"></scales>
<clustering>
<clus scale="   35.939">  2  4  1 -1</clus>
<clus scale="   42.527">  1  3  2 -1</clus>
<clus scale="  103.897">  2  6  1 -1</clus>
<clus scale="   42.527">  1  3  2 -1</clus>
</clustering>
</event>
<event>
 6    0  0.2117869E+002  0.8223064E+02  0.7546771E-02  0.1322838E+00
         21   -1    0    0  501  502  0.00000000000E+00  0.00000000000E+00  0.40105033043E+03  0.40105033043E+03  0.00000000000E+00 0.  1.
          1   -1    0    0  504    0 -0.00000000000E+00 -0.00000000000E+00 -0.18835244374E+04  0.18835244374E+04  0.00000000000E+00 0.  1.
         21    1    1    2  503  505  0.10883621126E+03  0.28937001272E+02 -0.37988385700E+03  0.39622520835E+03  0.00000000000E+00 0.  1.
         21    1    1    2  504  503 -0.14005004515E+02  0.27938837750E+02 -0.50554315244E+03  0.50650824059E+03  0.00000000000E+00 0.  1.
         21    1    1    2  505  502 -0.29792572006E+02 -0.27999205634E+02  0.39004780051E+03  0.39218470081E+03  0.00000000000E+00 0.  1.
          1    1    1    2  501    0 -0.65038634739E+02 -0.28876633388E+02 -0.98709489807E+03  0.98965661811E+03  0.00000000000E+00 0.  1.
<scales pt_clust_3="14000.00000" pt_clust_4="31.25250" pt_clust_5="40.87771" pt_clust_6="82.23064"></scales>
<clustering>
<clus scale="   31.253">  2  4  1 -1</clus>
<clus scale="   40.878">  1  5  2 -1</clus>
<clus scale="   82.231">  2  6  1 -1</clus>
<clus scale="   40.878">  1  3  2 -1</clus>
</clustering>
</event>
<event>
 6    0  0.2117869E+002  0.7822237E+02  0.7546771E-02  0.1334173E+00
         21   -1    0    0  504  502  0.00000000000E+00  0.00000000000E+00  0.30301217426E+04  0.30301217426E+04  0.00000000000E+00 0.  1.
          4   -1    0    0  503    0 -0.00000000000E+00 -0.00000000000E+00 -0.56347903946E+02  0.56347903946E+02  0.00000000000E+00 0.  1.
         21    1    1    2  503  502  0.37069975982E+02  0.20958466317E+02  0.14113968294E+03  0.14742405004E+03  0.00000000000E+00 0.  1.
         21    1    1    2  504  505  0.51339809816E+02  0.22899198128E+02  0.22827648314E+04  0.22834569023E+04  0.00000000000E+00 0.  1.
         21    1    1    2  505  501 -0.18540796518E+02  0.57206119180E+02  0.52723966726E+03  0.53065805180E+03  0.00000000000E+00 0.  1.
          4    1    1    2  501    0 -0.69868989280E+02 -0.10106378362E+03  0.22629657047E+02  0.12493064236E+03  0.00000000000E+00 0.  1.
<scales pt_clust_3="42.58451" pt_clust_4="56.49092" pt_clust_5="78.22237" pt_clust_6="14000.00000"></scales>
<clustering>
<clus scale="   42.585">  2  3  1 -1</clus>
<clus scale="   56.491">  1  4  2 -1</clus>
<clus scale="   78.222">  1  5  2 -1</clus>
<clus scale="   56.491">  1  3  2 -1</clus>
</clustering>
</event>
<event>
 6    0  0.2117869E+002  0.1134563E+03  0.7546771E-02  0.1254300E+00
         21   -1    0    0  504  502  0.00000000000E+00  0.00000000000E+00  0.11024326577E+04  0.11024326577E+04  0.00000000000E+00 0. -1.
          2   -1    0    0  505    0 -0.00000000000E+00 -0.00000000000E+00 -0.53709966809E+03  0.53709966809E+03  0.00000000000E+00 0.  1.
         21    1    1    2  503  501 -0.14866082796E+03  0.35058766643E+02  0.66803667664E+03  0.68527524414E+03  0.00000000000E+00 0. -1.
         21    1    1    2  504  503  0.38210586271E+02 -0.25151838676E+02  0.39483417387E+03  0.39747539389E+03  0.00000000000E+00 0. -1.
         21    1    1    2  505  502 -0.34461744581E+02  0.71123592488E+02 -0.21509133399E+03  0.22915160747E+03  0.00000000000E+00 0.  1.
          2    1    1    2  501    0  0.14491198627E+03 -0.81030520455E+02 -0.28244652685E+03  0.32763008034E+03  0.00000000000E+00 0.  1.
<scales pt_clust_3="14000.00000" pt_clust_4="45.74564" pt_clust_5="78.64196" pt_clust_6="113.45634"></scales>
<clustering>
<clus scale="   45.746">  1  4  2 -1</clus>
<clus scale="   78.642">  2  5  1 -1</clus>
<clus scale="  113.456">  2  6  1 -1</clus>
<clus scale="   45.746">  1  3  2 -1</clus>
</clustering>
</event>
<event>
 6    0  0.2117869E+002  0.1335565E+03  0.7546771E-02  0.1222272E+00
         -1   -1    0    0    0  501 -0.00000000000E+00  0.00000000000E+00  0.15727478450E+04  0.15727478450E+04  0.00000000000E+00 0. -1.
         21   -1    0    0  501  502  0.00000000000E+00 -0.00000000000E+00 -0.10054788413E+03  0.10054788413E+03  0.00000000000E+00 0. -1.
         21    1    1    2  503  502  0.41810331107E+02  0.30827315568E+02  0.84188808742E+02  0.98925136795E+02  0.00000000000E+00 0. -1.
         21    1    1    2  504  503  0.12483318323E+03  0.28098428548E+02 -0.14914402268E+02  0.12882268712E+03  0.00000000000E+00 0. -1.
         21    1    1    2  505  504 -0.11282556485E+03  0.57253849533E+00  0.13877028680E+03  0.17884945732E+03  0.00000000000E+00 0.  1.
         -1    1    1    2    0  505 -0.53817949480E+02 -0.59498282612E+02  0.12641552676E+04  0.12666984479E+04  0.00000000000E+00 0. -1.
<scales pt_clust_3="51.94639" pt_clust_4="133.55653" pt_clust_5="14000.00000" pt_clust_6="79.53267"></scales>
<clustering>
<clus scale="   51.946">  2  3  1 -1</clus>
<clus scale="   79.533">  1  6  2 -1</clus>
<clus scale="  133.557">  2  4  1 -1</clus>
<clus scale="   51.946">  2  3  1 -1</clus>
</clustering>
</event>
<event>
 6    0  0.2117869E+002  0.9236899E+02  0.7546771E-02  0.1297214E+00
         -2   -1    0    0    0  501 -0.00000000000E+00  0.00000000000E+00  0.10151095865E+04  0.10151095865E+04  0.00000000000E+00 0. -1.
         21   -1    0    0  505  502  0.00000000000E+00 -0.00000000000E+00 -0.14811052805E+03  0.14811052805E+03  0.00000000000E+00 0. -1.
         21    1    1    2  503  501 -0.30292522473E+01  0.59804825043E+02  0.12830612759E+03  0.14159186362E+03  0.00000000000E+00 0.  1.
         21    1    1    2  504  502 -0.91012608470E+02 -0.97292290518E+01 -0.10811529791E+03  0.14165758166E+03  0.00000000000E+00 0. -1.
         21    1    1    2  505  503 -0.28272694983E+02 -0.86628142967E+02  0.18815401164E+03  0.20905911253E+03  0.00000000000E+00 0.  1.
         -2    1    1    2    0  504  0.12231455570E+03  0.36552546975E+02  0.65865421713E+03  0.67091155674E+03  0.00000000000E+00 0. -1.
<scales pt_clust_3="59.88150" pt_clust_4="92.36899" pt_clust_5="78.65712" pt_clust_6="14000.00000"></scales>
<clustering>
<clus scale="   59.881">  1  3  2 -1</clus>
<clus scale="   78.657">  1  5  2 -1</clus>
<clus scale="   92.369">  2  4  1 -1</clus>
<clus scale="   92.369">  2  3  1 -1</clus>
</clustering>
</event>
<event>
 6    0  0.2117869E+002  0.6327669E+02  0.7546771E-02  0.1384574E+00
         21   -1    0    0  501  502  0.00000000000E+00  0.00000000000E+00  0.13782335033E+03  0.13782335033E+03  0.00000000000E+00 0.  1.
          1   -1    0    0  505    0 -0.00000000000E+00 -0.00000000000E+00 -0.47081930067E+03  0.47081930067E+03  0.00000000000E+00 0. -1.
         21    1    1    2  503  504  0.90099834380E+02  0.67156729045E+02 -0.85666099852E+01  0.11270045793E+03  0.00000000000E+00 0.  1.
         21    1    1    2  504  502 -0.44695282729E+02 -0.32918810834E+02  0.70714956126E+02  0.89899507367E+02  0.00000000000E+00 0.  1.
         21    1    1    2  505  503  0.12404978548E+02 -0.31337971150E+02 -0.18637052673E+03  0.18939357212E+03  0.00000000000E+00 0. -1.
          1    1    1    2  501    0 -0.57809530200E+02 -0.28999470610E+01 -0.20877376975E+03  0.21664911357E+03  0.00000000000E+00 0. -1.
<scales pt_clust_3="14000.00000" pt_clust_4="63.27669" pt_clust_5="33.70389" pt_clust_6="55.23376"></scales>
<clustering>
<clus scale="   33.704">  2  5  1 -1</clus>
<clus scale="   55.234">  2  6  1 -1</clus>
<clus scale="   63.277">  1  4  2 -1</clus>
<clus scale="   63.277">  1  3  2 -1</clus>
</clustering>
</event>
<event>
 6    0  0.2117869E+002  0.3713805E+03  0.7546771E-02  0.1054166E+00
          4   -1    0    0  504    0 -0.00000000000E+00  0.00000000000E+00  0.10664726117E+04  0.10664726117E+04  0.00000000000E+00 0. -1.
         21   -1    0    0  501  502  0.00000000000E+00 -0.00000000000E+00 -0.24667834979E+04  0.24667834979E+04  0.00000000000E+00 0. -1.
         21    1    1    2  503  502 -0.92225671148E+02 -0.31159382676E+03 -0.23122049934E+04  0.23349278830E+04  0.00000000000E+00 0. -1.
         21    1    1    2  504  505  0.36392042576E+02  0.34439482714E+02  0.34611922396E+03  0.34972700200E+03  0.00000000000E+00 0. -1.
         21    1    1    2  505  503 -0.24134558990E+02 -0.25511271776E+02 -0.10373453976E+03  0.10951783720E+03  0.00000000000E+00 0. -1.
          4    1    1    2  501    0  0.79968187562E+02  0.30266561583E+03  0.66950942296E+03  0.73908338735E+03  0.00000000000E+00 0. -1.
<scales pt_clust_3="35.05614" pt_clust_4="50.10448" pt_clust_5="35.05614" pt_clust_6="355.74143"></scales>
<clustering>
<clus scale="   35.056">  3  5 -1 -1</clus>
<clus scale="   50.104">  1  4  2 -1</clus>
<clus scale="  355.741">  1  6  2 -1</clus>
<clus scale="  371.380">  2  3  1 -1</clus>
</clustering>
</event>
<event>
 6    0  0.2117869E+002  0.8332782E+02  0.7546771E-02  0.1319864E+00
          2   -1    0    0  504    0 -0.00000000000E+00  0.00000000000E+00  0.92675166941E+03  0.92675166941E+03  0.00000000000E+00 0. -1.
         21   -1    0    0  503  502  0.00000000000E+00 -0.00000000000E+00 -0.82474348526E+03  0.82474348526E+03  0.00000000000E+00 0.  1.
         21    1    1    2  503  501 -0.53587708851E+02 -0.22742851244E+02 -0.74204193408E+02  0.94314061210E+02  0.00000000000E+00 0.  1.
         21    1    1    2  504  505  0.23051731004E+02 -0.29922974599E+02  0.47222450305E+02  0.60470873352E+02  0.00000000000E+00 0.  1.
         21    1    1    2  505  502  0.43627598894E+02 -0.59967448273E+02 -0.72824360628E+03  0.73200970780E+03  0.00000000000E+00 0.  1.
          2    1    1    2  501    0 -0.13091621048E+02  0.11263327412E+03  0.85723353352E+03  0.86470051230E+03  0.00000000000E+00 0. -1.
<scales pt_clust_3="58.10584" pt_clust_4="37.77257" pt_clust_5="83.32782" pt_clust_6="14000.00000"></scales>
<clustering>
<clus scale="   37.773">  1  4  2 -1</clus>
<clus scale="   58.106">  2  3  1 -1</clus>
<clus scale="   83.328">  2  5  1 -1</clus>
<clus scale="   58.106">  2  3  1 -1</clus>
</clustering>
</event>
<event>
 6    0  0.2117869E+002  0.1804650E+03  0.7546771E-02  0.1167354E+00
         21   -1    0    0  504  502  0.00000000000E+00  0.00000000000E+00  0.22242272991E+03  0.22242272991E+03  0.00000000000E+00 0.  1.
          2   -1    0    0  503    0 -0.00000000000E+00 -0.00000000000E+00 -0.24928329884E+04  0.24928329884E+04  0.00000000000E+00 0.  1.
         21    1    1    2  503  505 -0.59891339754E+02  0.69392064205E+02 -0.11769145389E+04  0.11804787431E+04  0.00000000000E+00 0.  1.
         21    1    1    2  504  501 -0.50885541912E+02 -0.14237783965E+01  0.12849797732E+01  0.50921672141E+02  0.00000000000E+00 0. -1.
         21    1    1    2  505  502  0.18278620081E+03  0.12143573562E+03  0.12148174748E+03  0.25082912124E+03  0.00000000000E+00 0.  1.
          2    1    1    2  501    0 -0.72009319144E+02 -0.18940402143E+03 -0.12162624468E+04  0.12330261818E+04  0.00000000000E+00 0.  1.
<scales pt_clust_3="91.95641" pt_clust_4="50.90546" pt_clust_5="14000.00000" pt_clust_6="180.46504"></scales>
<clustering>
<clus scale="   50.905">  1  4  2 -1</clus>
<clus scale="   91.956">  2  3  1 -1</clus>
<clus scale="  180.465">  2  6  1 -1</clus>
<clus scale="   50.905">  1  3  2 -1</clus>
</clustering>
</event>
<event>
 6    0  0.2117869E+002  0.1154044E+03  0.7546771E-02  0.1250877E+00
         21   -1    0    0  504  502  0.00000000000E+00  0.00000000000E+00  0.25810791632E+02  0.25810791632E+02  0.00000000000E+00 0. -1.
          2   -1    0    0  503    0 -0.00000000000E+00 -0.00000000000E+00 -0.15844308632E+04  0.15844308632E+04  0.00000000000E+00 0. -1.
         21    1    1    2  503  502  0.71135066820E+02 -0.72725853428E+02 -0.24482567843E+03  0.26512046377E+03  0.00000000000E+00 0. -1.
         21    1    1    2  504  505  0.26490642582E+02  0.27952328709E+02 -0.15488914991E+02  0.41508954604E+02  0.00000000000E+00 0. -1.
         21    1    1    2  505  501 -0.24403086293E+02  0.28946362269E+02 -0.62647372745E+03  0.62761670922E+03  0.00000000000E+00 0. -1.
          2    1    1    2  501    0 -0.73222623109E+02  0.15827162449E+02 -0.67183175066E+03  0.67599552720E+03  0.00000000000E+00 0. -1.
<scales pt_clust_3="105.09935" pt_clust_4="38.51087" pt_clust_5="33.88789" pt_clust_6="33.88789"></scales>
<clustering>
<clus scale="   33.888">  5  6 -1 -1</clus>
<clus scale="   38.511">  1  4  2 -1</clus>
<clus scale="  105.099">  1  3  2 -1</clus>
<clus scale="   38.511">  1  3  2 -1</clus>
</clustering>
</event>
<event>
 6    0  0.2117869E+002  0.8629074E+02  0.7546771E-02  0.1312091E+00
         21   -1    0    0  504  502  0.00000000000E+00  0.00000000000E+00  0.85950464874E+02  0.85950464874E+02  0.00000000000E+00 0. -1.
          1   -1    0    0  505    0 -0.00000000000E+00 -0.00000000000E+00 -0.17831270219E+04  0.17831270219E+04  0.00000000000E+00 0. -1.
         21    1    1    2  503  502  0.41581170223E+02 -0.12393057090E+03 -0.23830631415E+03  0.27180448761E+03  0.00000000000E+00 0. -1.
         21    1    1    2  504  501 -0.52117118266E+02  0.37034546957E+02  0.52481976561E+02  0.82717045089E+02  0.00000000000E+00 0. -1.
         21    1    1    2  505  503  0.16565380297E+02  0.29541759278E+02 -0.31523348594E+03  0.31704775354E+03  0.00000000000E+00 0. -1.
          1    1    1    2  501    0 -0.60294322538E+01  0.57354264667E+02 -0.11961187335E+04  0.11975082005E+04  0.00000000000E+00 0. -1.
<scales pt_clust_3="14000.00000" pt_clust_4="63.97366" pt_clust_5="33.86927" pt_clust_6="86.29074"></scales>
<clustering>
<clus scale="   33.869">  2  5  1 -1</clus>
<clus scale="   63.974">  1  4  2 -1</clus>
<clus scale="   86.291">  2  6  1 -1</clus>
<clus scale="   63.974">  1  3  2 -1</clus>
</clustering>
</event>
<event>
 6    0  0.2117869E+002  0.1109525E+03  0.7546771E-02  0.1258816E+00
         21   -1    0    0  501  502  0.00000000000E+00  0.00000000000E+00  0.34027006328E+03  0.34027006328E+03  0.00000000000E+00 0. -1.
          2   -1    0    0  504    0 -0.00000000000E+00 -0.00000000000E+00 -0.21469296066E+04  0.21469296066E+04  0.00000000000E+00 0. -1.
         21    1    1    2  503  502 -0.22828133351E+02 -0.32217515584E+02  0.24139795012E+03  0.24460593269E+03  0.00000000000E+00 0. -1.
         21    1    1    2  504  505 -0.13532305434E+02  0.35047941859E+02 -0.30604273841E+03  0.30834013565E+03  0.00000000000E+00 0. -1.
         21    1    1    2  505  503 -0.71232997979E+02 -0.28884615082E+02  0.78797266418E+02  0.11007938129E+03  0.00000000000E+00 0.  1.
          2    1    1    2  501    0  0.10759343676E+03  0.26054188807E+02 -0.18208120215E+04  0.18241742203E+04  0.00000000000E+00 0. -1.
<scales pt_clust_3="39.46724" pt_clust_4="37.56969" pt_clust_5="110.95254" pt_clust_6="14000.00000"></scales>
<clustering>
<clus scale="   37.570">  2  4  1 -1</clus>
<clus scale="   39.467">  1  3  2 -1</clus>
<clus scale="  110.953">  1  5  2 -1</clus>
<clus scale="   39.467">  1  3  2 -1</clus>
</clustering>
</event>
<event>
 6    0  0.2117869E+002  0.1281964E+03  0.7546771E-02  0.1230157E+00
         21   -1    0    0  501  502  0.00000000000E+00  0.00000000000E+00  0.33891358944E+03  0.33891358944E+03  0.00000000000E+00 0.  1.
          1   -1    0    0  505    0 -0.00000000000E+00 -0.00000000000E+00 -0.29831977326E+03  0.29831977326E+03  0.00000000000E+00 0.  1.
         21    1    1    2  503  504  0.39502149089E+02  0.13009699788E+03  0.12470727081E+03  0.18449268829E+03  0.00000000000E+00 0.  1.
         21    1    1    2  504  502 -0.50496608661E-01 -0.12480899657E+03  0.15170265980E+03  0.19644588355E+03  0.00000000000E+00 0.  1.
         21    1    1    2  505  503 -0.30245263344E+02  0.41224325823E+02 -0.97758820011E+02  0.11032229097E+03  0.00000000000E+00 0. -1.
          1    1    1    2  501    0 -0.92063891359E+01 -0.46512327137E+02 -0.13805729443E+03  0.14597249989E+03  0.00000000000E+00 0.  1.
<scales pt_clust_3="128.19637" pt_clust_4="14000.00000" pt_clust_5="37.79385" pt_clust_6="47.41470"></scales>
<clustering>
<clus scale="   47.415">  2  6  1 -1</clus>
<clus scale="   37.794">  2  5  1 -1</clus>
<clus scale="  128.196">  2  3  1 -1</clus>
<clus scale="  128.196">  1  3  2 -1</clus>
</clustering>
</event>
<event>
 6    0  0.2117869E+002  0.6885812E+02  0.7546771E-02  0.1364020E+00
         21   -1    0    0  504  502  0.00000000000E+00  0.00000000000E+00  0.40691474798E+03  0.40691474798E+03  0.00000000000E+00 0.  1.
          1   -1    0    0  505    0 -0.00000000000E+00 -0.00000000000E+00 -0.56404611568E+03  0.56404611568E+03  0.00000000000E+00 0. -1.
         21    1    1    2  503  501 -0.58755009133E+02  0.36028628280E+01 -0.62262125507E+02  0.85683744033E+02  0.00000000000E+00 0.  1.
         21    1    1    2  504  503 -0.29276918545E+01 -0.10012072275E+03  0.33370692513E+03  0.34841504328E+03  0.00000000000E+00 0.  1.
         21    1    1    2  505  502 -0.70384850589E+00  0.57379083397E+02  0.35170470464E+02  0.67303912270E+02  0.00000000000E+00 0.  1.
          1    1    1    2  501    0  0.62386549494E+02  0.39138776528E+02 -0.46374663779E+03  0.46955816408E+03  0.00000000000E+00 0. -1.
<scales pt_clust_3="68.85812" pt_clust_4="45.24330" pt_clust_5="57.38340" pt_clust_6="14000.00000"></scales>
<clustering>
<clus scale="   57.383">  1  5  2 -1</clus>
<clus scale="   45.243">  1  4  2 -1</clus>
<clus scale="   68.858">  1  3  2 -1</clus>
<clus scale="   57.383">  1  3  2 -1</clus>
</clustering>
</event>
<event>
 6    0  0.2117869E+002  0.2366828E+03  0.7546771E-02  0.1122023E+00
         21   -1    0    0  501  502  0.00000000000E+00  0.00000000000E+00  0.15680898338E+03  0.15680898338E+03  0.00000000000E+00 0.  1.
          1   -1    0    0  505    0 -0.00000000000E+00 -0.00000000000E+00 -0.22940545218E+04  0.22940545218E+04  0.00000000000E+00 0.  1.
         21    1    1    2  503  504  0.20736699263E+03 -0.17920221245E+03 -0.68523830790E+02  0.28250666889E+03  0.00000000000E+00 0.  1.
         21    1    1    2  504  502  0.54976415571E+02  0.93671933750E+02 -0.65638770368E+02  0.12690660194E+03  0.00000000000E+00 0.  1.
         21    1    1    2  505  503 -0.18390386368E+03 -0.38425782478E+02 -0.55459200537E+03  0.58555056507E+03  0.00000000000E+00 0. -1.
          1    1    1    2  501    0 -0.78439544517E+02  0.12395606118E+03 -0.14484909319E+04  0.14558996693E+04  0.00000000000E+00 0.  1.
<scales pt_clust_3="236.68277" pt_clust_4="108.61325" pt_clust_5="14000.00000" pt_clust_6="148.17763"></scales>
<clustering>
<clus scale="  108.613">  1  4  2 -1</clus>
<clus scale="  148.178">  2  6  1 -1</clus>
<clus scale="  236.683">  1  3  2 -1</clus>
<clus scale="  108.613">  1  3  2 -1</clus>
</clustering>
</event>
<event>
 6    0  0.2117869E+002  0.9937118E+02  0.7546771E-02  0.1281624E+00
         21   -1    0    0  501  502  0.00000000000E+00  0.00000000000E+00  0.25738071133E+03  0.25738071133E+03  0.00000000000E+00 0.  1.
          3   -1    0    0  504    0 -0.00000000000E+00 -0.00000000000E+00 -0.30504422381E+03  0.30504422381E+03  0.00000000000E+00 0. -1.
         21    1    1    2  503  502  0.90730490436E+02 -0.51977084924E+02  0.18162121043E+03  0.20957075972E+03  0.00000000000E+00 0.  1.
         21    1    1    2  504  505 -0.29230877662E+02 -0.23359571902E+02 -0.62461758489E+02  0.72811984466E+02  0.00000000000E+00 0. -1.
         21    1    1    2  505  503 -0.88204381606E+02  0.13738342463E+02  0.11022808516E+02  0.89945857579E+02  0.00000000000E+00 0. -1.
          3    1    1    2  501    0  0.26704768832E+02  0.61598314364E+02 -0.17784577293E+03  0.19009633337E+03  0.00000000000E+00 0. -1.
<scales pt_clust_3="99.37118" pt_clust_4="37.41809" pt_clust_5="14000.00000" pt_clust_6="43.68502"></scales>
<clustering>
<clus scale="   37.418">  2  4  1 -1</clus>
<clus scale="   43.685">  2  6  1 -1</clus>
<clus scale="   99.371">  1  3  2 -1</clus>
<clus scale="   99.371">  1  3  2 -1</clus>
</clustering>
</event>
<event>
 6    0  0.2117869E+002  0.8788056E+02  0.7546771E-02  0.1308067E+00
         21   -1    0    0  505  502  0.00000000000E+00  0.00000000000E+00  0.41582209058E+02  0.41582209058E+02  0.00000000000E+00 0. -1.
          2   -1    0    0  504    0 -0.00000000000E+00 -0.00000000000E+00 -0.12427291243E+04  0.12427291243E+04  0.00000000000E+00 0. -1.
         21    1    1    2  503  502  0.15890351012E+02 -0.42906951143E+02 -0.75555526502E+02  0.88329764500E+02  0.00000000000E+00 0. -1.
         21    1    1    2  504  503 -0.27038961014E+02  0.45623105753E+02 -0.46932623515E+03  0.47231312515E+03  0.00000000000E+00 0.  1.
         21    1    1    2  505  501 -0.88918059430E+02 -0.74424543682E+01 -0.37404086635E+02  0.96751625913E+02  0.00000000000E+00 0. -1.
          2    1    1    2  501    0  0.10006666943E+03  0.47262997581E+01 -0.61886106699E+03  0.62691681783E+03  0.00000000000E+00 0. -1.
<scales pt_clust_3="45.75489" pt_clust_4="51.12483" pt_clust_5="87.88056" pt_clust_6="14000.00000"></scales>
<clustering>
<clus scale="   45.755">  1  3  2 -1</clus>
<clus scale="   51.125">  2  4  1 -1</clus>
<clus scale="   87.881">  1  5  2 -1</clus>
<clus scale="   45.755">  1  3  2 -1</clus>
</clustering>
</event>
<event>
 6    0  0.2117869E+002  0.7146070E+02  0.7546771E-02  0.1355195E+00
         21   -1    0    0  503  502  0.00000000000E+00  0.00000000000E+00  0.25115572218E+03  0.25115572218E+03  0.00000000000E+00 0. -1.
          1   -1    0    0  504    0 -0.00000000000E+00 -0.00000000000E+00 -0.21754679270E+04  0.21754679270E+04  0.00000000000E+00 0.  1.
         21    1    1    2  503  505  0.16746405873E+02 -0.51411576733E+02  0.20024560589E+03  0.20741720037E+03  0.00000000000E+00 0. -1.
         21    1    1    2  504  502 -0.74984642020E+02  0.22946518415E+02  0.21915392158E+01  0.78447702900E+02  0.00000000000E+00 0.  1.
         21    1    1    2  505  501 -0.16982679804E+01  0.67259304103E+02 -0.17177735133E+03  0.18448348580E+03  0.00000000000E+00 0.  1.
          1    1    1    2  501    0  0.59936504127E+02 -0.38794245785E+02 -0.19549719986E+04  0.19562752601E+04  0.00000000000E+00 0.  1.
<scales pt_clust_3="54.07025" pt_clust_4="14000.00000" pt_clust_5="60.36005" pt_clust_6="71.46070"></scales>
<clustering>
<clus scale="   54.070">  1  3  2 -1</clus>
<clus scale="   60.360">  1  5  2 -1</clus>
<clus scale="   71.461">  2  6  1 -1</clus>
<clus scale="   54.070">  1  3  2 -1</clus>
</clustering>
</event>
<event>
 6    0  0.2117869E+002  0.1119771E+03  0.7546771E-02  0.1256952E+00
         21   -1    0    0  504  502  0.00000000000E+00  0.00000000000E+00  0.66870107270E+03  0.66870107270E+03  0.00000000000E+00 0. -1.
          2   -1    0    0  505    0 -0.00000000000E+00 -0.00000000000E+00 -0.69685223340E+02  0.69685223340E+02  0.00000000000E+00 0.  1.
         21    1    1    2  503  501  0.29812364862E+02  0.14364264278E+02  0.20183221546E+02  0.38761728791E+02  0.00000000000E+00 0.  1.
         21    1    1    2  504  503  0.67213211696E+02 -0.95345325075E+01  0.12072918969E+03  0.13850653551E+03  0.00000000000E+00 0.  1.
         21    1    1    2  505  502 -0.51893250897E+01  0.49781764851E+02  0.45128656229E+03  0.45405364717E+03  0.00000000000E+00 0. -1.
          2    1    1    2  501    0 -0.91836251468E+02 -0.54611496621E+02  0.68168758383E+01  0.10706438457E+03  0.00000000000E+00 0.  1.
<scales pt_clust_3="32.22617" pt_clust_4="32.22617" pt_clust_5="50.05151" pt_clust_6="102.02171"></scales>
<clustering>
<clus scale="   32.226">  3  4 -1 -1</clus>
<clus scale="   50.052">  1  5  2 -1</clus>
<clus scale="  102.022">  2  6  1 -1</clus>
<clus scale="   50.052">  1  3  2 -1</clus>
</clustering>
</event>
<event>
 6    0  0.2117869E+002  0.2708077E+03  0.7546771E-02  0.1100818E+00
         21   -1    0    0  501  502  0.00000000000E+00  0.00000000000E+00  0.24758029575E+03  0.24758029575E+03  0.00000000000E+00 0. -1.
          2   -1    0    0  504    0 -0.00000000000E+00 -0.00000000000E+00 -0.27409311421E+04  0.27409311421E+04  0.00000000000E+00 0. -1.
         21    1    1    2  503  502  0.23030918174E+01 -0.67350819011E+02  0.13503046218E+03  0.15091276543E+03  0.00000000000E+00 0. -1.
         21    1    1    2  504  505 -0.17176217955E+02 -0.37808701915E+02 -0.75347278313E+03  0.75461629675E+03  0.00000000000E+00 0. -1.
         21    1    1    2  505  503  0.10603074151E+03 -0.18611018594E+03 -0.33916610266E+02  0.21686368047E+03  0.00000000000E+00 0. -1.
          2    1    1    2  501    0 -0.91157615376E+02  0.29126970687E+03 -0.18409919152E+04  0.18661186952E+04  0.00000000000E+00 0. -1.
<scales pt_clust_3="67.53890" pt_clust_4="41.52735" pt_clust_5="14000.00000" pt_clust_6="270.80766"></scales>
<clustering>
<clus scale="   41.527">  2  4  1 -1</clus>
<clus scale="   67.539">  1  3  2 -1</clus>
<clus scale="  270.808">  2  6  1 -1</clus>
<clus scale="   67.539">  1  3  2 -1</clus>
</clustering>
</event>
<event>
 6    0  0.2117869E+002  0.7047306E+02  0.7546771E-02  0.1358492E+00
          1   -1    0    0  503    0 -0.00000000000E+00  0.00000000000E+00  0.22829665259E+04  0.22829665259E+04  0.00000000000E+00 0.  1.
         21   -1    0    0  504  502  0.00000000000E+00 -0.00000000000E+00 -0.29520803355E+03  0.29520803355E+03  0.00000000000E+00 0. -1.
         21    1    1    2  503  502  0.43948620027E+02 -0.24988602390E+02  0.49131889418E+03  0.49391311708E+03  0.00000000000E+00 0.  1.
         21    1    1    2  504  505 -0.72001530120E+01  0.67126452996E+02 -0.23757100968E+03  0.24697730166E+03  0.00000000000E+00 0. -1.
         21    1    1    2  505  501  0.43067104307E+01 -0.10438025966E+03  0.28391100399E+01  0.10450764043E+03  0.00000000000E+00 0. -1.
          1    1    1    2  501    0 -0.41055177446E+02  0.62242409058E+02  0.17311714978E+04  0.17327765002E+04  0.00000000000E+00 0.  1.
<scales pt_clust_3="50.55602" pt_clust_4="70.47306" pt_clust_5="14000.00000" pt_clust_6="38.09659"></scales>
<clustering>
<clus scale="   50.556">  1  3  2 -1</clus>
<clus scale="   38.097">  1  6  2 -1</clus>
<clus scale="   70.473">  2  4  1 -1</clus>
<clus scale="   70.473">  2  3  1 -1</clus>
</clustering>
</event>
<event>
 6    0  0.2117869E+002  0.5372961E+02  0.7546771E-02  0.1426204E+00
         21   -1    0    0  501  502  0.00000000000E+00  0.00000000000E+00  0.12952970954E+03  0.12952970954E+03  0.00000000000E+00 0.  1.
          2   -1    0    0  504    0 -0.00000000000E+00 -0.00000000000E+00 -0.10164306964E+04  0.10164306964E+04  0.00000000000E+00 0.  1.
         21    1    1    2  503  505 -0.42219007637E+02 -0.22983462974E+02 -0.19223920762E+02  0.51771066297E+02  0.00000000000E+00 0. -1.
         21    1    1    2  504  503 -0.14861944636E+02  0.44883988147E+02 -0.78321047281E+03  0.78463628166E+03  0.00000000000E+00 0.  1.
         21    1    1    2  505  502 -0.47629784271E+02  0.19788328288E+02  0.88896472760E+02  0.10277527502E+03  0.00000000000E+00 0.  1.
          2    1    1    2  501    0  0.10471073654E+03 -0.41688853461E+02 -0.17336306603E+03  0.20677778293E+03  0.00000000000E+00 0.  1.
<scales pt_clust_3="47.32219" pt_clust_4="47.28054" pt_clust_5="14000.00000" pt_clust_6="53.72961"></scales>
<clustering>
<clus scale="   47.281">  2  4  1 -1</clus>
<clus scale="   47.322">  2  3  1 -1</clus>
<clus scale="   53.730">  2  6  1 -1</clus>
<clus scale="   53.730">  1  3  2 -1</clus>
</clustering>
</event>
<event>
 6    0  0.2117869E+002  0.1483863E+03  0.7546771E-02  0.1202470E+00
         21   -1    0    0  503  502  0.00000000000E+00  0.00000000000E+00  0.20100131552E+04  0.20100131552E+04  0.00000000000E+00 0. -1.
          1   -1    0    0  504    0 -0.00000000000E+00 -0.00000000000E+00 -0.41967126568E+02  0.41967126568E+02  0.00000000000E+00 0. -1.
         21    1    1    2  503  505 -0.14536910486E+03  0.52860541335E+02  0.98760784898E+03  0.99964777639E+03  0.00000000000E+00 0. -1.
         21    1    1    2  504  502  0.72406479113E+02 -0.22832411901E+02  0.97308979326E+02  0.12342226180E+03  0.00000000000E+00 0. -1.
         21    1    1    2  505  501  0.12001656497E+03 -0.79611910448E+02  0.82981694334E+03  0.84222217473E+03  0.00000000000E+00 0. -1.
          1    1    1    2  501    0 -0.47053939218E+02  0.49583781014E+02  0.53312256995E+02  0.86688068854E+02  0.00000000000E+00 0. -1.
<scales pt_clust_3="14000.00000" pt_clust_4="48.18338" pt_clust_5="148.38630" pt_clust_6="68.35660"></scales>
<clustering>
<clus scale="   68.357">  2  6  1 -1</clus>
<clus scale="   48.183">  2  4  1 -1</clus>
<clus scale="  148.386">  2  5  1 -1</clus>
<clus scale="  148.386">  1  3  2 -1</clus>
</clustering>
</event>
<event>
 6    0  0.2117869E+002  0.1183578E+03  0.7546771E-02  0.1245831E+00
          2   -1    0    0  505    0 -0.00000000000E+00  0.00000000000E+00  0.15901455774E+04  0.15901455774E+04  0.00000000000E+00 0.  1.
         21   -1    0    0  503  502  0.00000000000E+00 -0.00000000000E+00 -0.55231734819E+02  0.55231734819E+02  0.00000000000E+00 0. -1.
         21    1    1    2  503  501  0.47448974178E+02 -0.39411144254E+02  0.12857045945E+02  0.63007515998E+02  0.00000000000E+00 0. -1.
         21    1    1    2  504  502 -0.76097550983E+02 -0.72816116806E+02  0.10879360101E+03  0.15142348481E+03  0.00000000000E+00 0. -1.
         21    1    1    2  505  504 -0.38362431335E+02 -0.32325806087E+02  0.60836836833E+03  0.61043321130E+03  0.00000000000E+00 0.  1.
          2    1    1    2  501    0  0.67011008140E+02  0.14455306715E+03  0.80489482728E+03  0.82051310009E+03  0.00000000000E+00 0.  1.
<scales pt_clust_3="61.36899" pt_clust_4="118.35783" pt_clust_5="50.16606" pt_clust_6="14000.00000"></scales>
<clustering>
<clus scale="   50.166">  1  5  2 -1</clus>
<clus scale="   61.369">  2  3  1 -1</clus>
<clus scale="  118.358">  2  4  1 -1</clus>
<clus scale="   61.369">  2  3  1 -1</clus>
</clustering>
</event>
<event>
 6    0  0.2117869E+002  0.1168642E+03  0.7546771E-02  0.1248362E+00
         -1   -1    0    0    0  501 -0.00000000000E+00  0.00000000000E+00  0.69851695886E+03  0.69851695886E+03  0.00000000000E+00 0. -1.
         21   -1    0    0  505  502  0.00000000000E+00 -0.00000000000E+00 -0.39097567452E+03  0.39097567452E+03  0.00000000000E+00 0. -1.
         21    1    1    2  503  501 -0.46726985996E+02 -0.10107752833E+02  0.11892926410E+03  0.12817857757E+03  0.00000000000E+00 0. -1.
         21    1    1    2  504  502  0.14345931852E+03 -0.58491341791E+02 -0.34032574368E+03  0.37392970589E+03  0.00000000000E+00 0. -1.
         21    1    1    2  505  503 -0.23603481308E+02  0.54153462452E+02  0.62449712367E+01  0.59403042777E+02  0.00000000000E+00 0.  1.
         -1    1    1    2    0  504 -0.73128851214E+02  0.14445632172E+02  0.52269279268E+03  0.52798130714E+03  0.00000000000E+00 0. -1.
<scales pt_clust_3="47.80772" pt_clust_4="14000.00000" pt_clust_5="59.67078" pt_clust_6="116.86419"></scales>
<clustering>
<clus scale="   47.808">  1  3  2 -1</clus>
<clus scale="   59.671">  2  5  1 -1</clus>
<clus scale="  116.864">  1  6  2 -1</clus>
<clus scale="   59.671">  2  3  1 -1</clus>
</clustering>
</event>
<event>
 6    0  0.2117869E+002  0.1034912E+03  0.7546771E-02  0.1273121E+00
          3   -1    0    0  505    0 -0.00000000000E+00  0.00000000000E+00  0.21077908621E+03  0.21077908621E+03  0.00000000000E+00 0.  1.
         21   -1    0    0  503  502  0.00000000000E+00 -0.00000000000E+00 -0.33505411873E+03  0.33505411873E+03  0.00000000000E+00 0. -1.
         21    1    1    2  503  501 -0.70275260608E+02  0.54868397946E+02 -0.11587011465E+03  0.14620204108E+03  0.00000000000E+00 0. -1.
         21    1    1    2  504  502  0.81601035819E+02 -0.95528930736E+02 -0.15673643429E+03  0.20087512411E+03  0.00000000000E+00 0. -1.
         21    1    1    2  505  504  0.38020540764E+02 -0.28130343052E+02  0.60091716116E+02  0.76471511467E+02  0.00000000000E+00 0. -1.
          3    1    1    2  501    0 -0.49346315976E+02  0.68790875842E+02  0.88239800302E+02  0.12228452828E+03  0.00000000000E+00 0.  1.
<scales pt_clust_3="14000.00000" pt_clust_4="103.49115" pt_clust_5="47.29564" pt_clust_6="52.50798"></scales>
<clustering>
<clus scale="   47.296">  1  5  2 -1</clus>
<clus scale="   52.508">  1  6  2 -1</clus>
<clus scale="  103.491">  1  4  2 -1</clus>
<clus scale="  103.491">  2  3  1 -1</clus>
</clustering>
</event>
<event>
 6    0  0.2117869E+002  0.1211370E+03  0.7546771E-02  0.1241233E+00
         -1   -1    0    0    0  501 -0.00000000000E+00  0.00000000000E+00  0.60778176706E+02  0.60778176706E+02  0.00000000000E+00 0. -1.
         21   -1    0    0  505  502  0.00000000000E+00 -0.00000000000E+00 -0.33008486564E+03  0.33008486564E+03  0.00000000000E+00 0. -1.
         21    1    1    2  503  502  0.64503381371E+02 -0.64501684542E+02 -0.15453275004E+03  0.17944783184E+03  0.00000000000E+00 0. -1.
         21    1    1    2  504  501 -0.38806786101E+02 -0.11126633006E+02 -0.90405840793E+01  0.41370288493E+02  0.00000000000E+00 0. -1.
         21    1    1    2  505  504 -0.63115927596E+02  0.71281253705E+02 -0.70545329580E+02  0.11849591120E+03  0.00000000000E+00 0. -1.
         -1    1    1    2    0  503  0.37419332326E+02  0.43470638442E+01 -0.35188025238E+02  0.51549010815E+02  0.00000000000E+00 0. -1.
<scales pt_clust_3="37.24316" pt_clust_4="40.37039" pt_clust_5="106.37393" pt_clust_6="37.24316"></scales>
<clustering>
<clus scale="   37.243">  3  6 -1 -1</clus>
<clus scale="   40.370">  1  4  2 -1</clus>
<clus scale="  106.374">  1  5  2 -1</clus>
<clus scale="  121.137">  2  3  1 -1</clus>
</clustering>
</event>
<event>
 6    0  0.2117869E+002  0.7138744E+02  0.7546771E-02  0.1355438E+00
         21   -1    0    0  505  502  0.00000000000E+00  0.00000000000E+00  0.36609226397E+03  0.36609226397E+03  0.00000000000E+00 0. -1.
          4   -1    0    0  504    0 -0.00000000000E+00 -0.00000000000E+00 -0.59950108436E+02  0.59950108436E+02  0.00000000000E+00 0.  1.
         21    1    1    2  503  501  0.94482820893E+02 -0.13862400790E+02  0.14576808523E+03  0.17426274493E+03  0.00000000000E+00 0. -1.
         21    1    1    2  504  502 -0.58015425862E+02 -0.24502992690E+02  0.12358694077E+03  0.13870803228E+03  0.00000000000E+00 0. -1.
         21    1    1    2  505  503  0.11384060922E+02  0.43024606167E+02  0.46124943575E+02  0.64095428844E+02  0.00000000000E+00 0. -1.
          4    1    1    2  501    0 -0.47851455953E+02 -0.46592126876E+01 -0.93378140431E+01  0.48976166354E+02  0.00000000000E+00 0.  1.
<scales pt_clust_3="14000.00000" pt_clust_4="71.38744" pt_clust_5="44.50521" pt_clust_6="47.16492"></scales>
<clustering>
<clus scale="   44.505">  1  5  2 -1</clus>
<clus scale="   47.165">  2  6  1 -1</clus>
<clus scale="   71.387">  1  4  2 -1</clus>
<clus scale="   44.505">  1  3  2 -1</clus>
</clustering>
</event>
<event>
 6    0  0.2117869E+002  0.1091511E+03  0.7546771E-02  0.1262150E+00
          2   -1    0    0  504    0 -0.00000000000E+00  0.00000000000E+00  0.19368855496E+04  0.19368855496E+04  0.00000000000E+00 0. -1.
         21   -1    0    0  503  502  0.00000000000E+00 -0.00000000000E+00 -0.51638745609E+02  0.51638745609E+02  0.00000000000E+00 0. -1.
         21    1    1    2  503  505  0.10438873272E+02 -0.35452494050E+02  0.76242235258E+02  0.84727373656E+02  0.00000000000E+00 0. -1.
         21    1    1    2  504  502 -0.47276593661E+02  0.17796428878E+02 -0.20044652236E+02  0.54346823939E+02  0.00000000000E+00 0. -1.
         21    1    1    2  505  501 -0.75614248422E+02 -0.15978214584E+02  0.17577671117E+03  0.19201632768E+03  0.00000000000E+00 0. -1.
          2    1    1    2  501    0  0.11245196881E+03  0.33634279756E+02  0.16532725098E+04  0.16574337700E+04  0.00000000000E+00 0. -1.
<scales pt_clust_3="36.95740" pt_clust_4="40.34982" pt_clust_5="14000.00000" pt_clust_6="109.15109"></scales>
<clustering>
<clus scale="   36.957">  2  3  1 -1</clus>
<clus scale="   40.350">  2  4  1 -1</clus>
<clus scale="  109.151">  1  6  2 -1</clus>
<clus scale="   36.957">  2  3  1 -1</clus>
</clustering>
</event>
<event>
 6    0  0.2117869E+002  0.1136454E+03  0.7546771E-02  0.1253964E+00
         -1   -1    0    0    0  501 -0.00000000000E+00  0.00000000000E+00  0.64458448587E+03  0.64458448587E+03  0.00000000000E+00 0. -1.
         21   -1    0    0  505  502  0.00000000000E+00 -0.00000000000E+00 -0.30675484633E+03  0.30675484633E+03  0.00000000000E+00 0. -1.
         21    1    1    2  503  502 -0.19211047699E+02 -0.93964829404E+02 -0.67117500142E+02  0.11706072076E+03  0.00000000000E+00 0. -1.
         21    1    1    2  504  501  0.21344587721E+02 -0.27181339697E+02  0.18183198561E+03  0.18508724333E+03  0.00000000000E+00 0. -1.
         21    1    1    2  505  504 -0.34724985516E+02  0.12951696041E+03 -0.19118815466E+03  0.23352382777E+03  0.00000000000E+00 0. -1.
         -1    1    1    2    0  503  0.32591445494E+02 -0.83707913077E+01  0.41430330874E+03  0.41566754035E+03  0.00000000000E+00 0. -1.
<scales pt_clust_3="113.64544" pt_clust_4="58.24656" pt_clust_5="14000.00000" pt_clust_6="33.64926"></scales>
<clustering>
<clus scale="   33.649">  1  6  2 -1</clus>
<clus scale="   58.247">  1  4  2 -1</clus>
<clus scale="  113.645">  1  3  2 -1</clus>
<clus scale="  113.645">  2  3  1 -1</clus>
</clustering>
</event>
<event>
 6    0  0.2117869E+002  0.1563585E+03  0.7546771E-02  0.1192870E+00
          1   -1    0    0  504    0 -0.00000000000E+00  0.00000000000E+00  0.45114176683E+04  0.45114176683E+04  0.00000000000E+00 0.  1.
         21   -1    0    0  505  502  0.00000000000E+00 -0.00000000000E+00 -0.15119875369E+02  0.15119875369E+02  0.00000000000E+00 0.  1.
         21    1    1    2  503  502  0.37109708085E+02  0.10800954842E+02  0.10661074187E+03  0.11340035865E+03  0.00000000000E+00 0.  1.
         21    1    1    2  504  503  0.22163654216E+01  0.63269994826E+02  0.63492560763E+03  0.63807408014E+03  0.00000000000E+00 0. -1.
         21    1    1    2  505  501 -0.10648868835E+03 -0.16014040453E+03  0.10108877505E+04  0.10290183837E+04  0.00000000000E+00 0.  1.
          1    1    1    2  501    0  0.67162614841E+02  0.86069454859E+02  0.27438736930E+04  0.27460447212E+04  0.00000000000E+00 0.  1.
<scales pt_clust_3="38.64959" pt_clust_4="65.11929" pt_clust_5="14000.00000" pt_clust_6="156.35847"></scales>
<clustering>
<clus scale="   38.650">  2  3  1 -1</clus>
<clus scale="   65.119">  1  4  2 -1</clus>
<clus scale="  156.358">  1  6  2 -1</clus>
<clus scale="   38.650">  2  3  1 -1</clus>
</clustering>
</event>
<event>
 6    0  0.2117869E+002  0.7602711E+02  0.7546771E-02  0.1340720E+00
         21   -1    0    0  505  502  0.00000000000E+00  0.00000000000E+00  0.76475602529E+02  0.76475602529E+02  0.00000000000E+00 0. -1.
          1   -1    0    0  503    0 -0.00000000000E+00 -0.00000000000E+00 -0.97934282182E+03  0.97934282182E+03  0.00000000000E+00 0. -1.
         21    1    1    2  503  504 -0.43383862472E+02  0.58287246532E+02 -0.51854332886E+03  0.52360934535E+03  0.00000000000E+00 0. -1.
         21    1    1    2  504  502 -0.69533784882E+01  0.58922655752E+02  0.37320521435E+02  0.70093153399E+02  0.00000000000E+00 0. -1.
         21    1    1    2  505  501  0.32981821348E+02 -0.31633803806E+02 -0.17970945322E+02  0.49106547001E+02  0.00000000000E+00 0. -1.
          1    1    1    2  501    0  0.17355419613E+02 -0.85576098478E+02 -0.40367346654E+03  0.41300937860E+03  0.00000000000E+00 0. -1.
<scales pt_clust_3="14000.00000" pt_clust_4="38.11148" pt_clust_5="45.70009" pt_clust_6="76.02711"></scales>
<clustering>
<clus scale="   45.700">  1  5  2 -1</clus>
<clus scale="   38.111">  1  4  2 -1</clus>
<clus scale="   76.027">  1  6  2 -1</clus>
<clus scale="   45.700">  1  3  2 -1</clus>
</clustering>
</event>
<event>
 6    0  0.2117869E+002  0.1196374E+03  0.7546771E-02  0.1243696E+00
          2   -1    0    0  503    0 -0.00000000000E+00  0.00000000000E+00  0.17844183648E+04  0.17844183648E+04  0.00000000000E+00 0. -1.
         21   -1    0    0  505  502  0.00000000000E+00 -0.00000000000E+00 -0.62781636679E+02  0.62781636679E+02  0.00000000000E+00 0.  1.
         21    1    1    2  503  502  0.47069244245E+02  0.15151623190E+02  0.18436508600E+03  0.19088103723E+03  0.00000000000E+00 0.  1.
         21    1    1    2  504  501 -0.72669135255E+02  0.70305089780E+02  0.22716493899E+03  0.24865139930E+03  0.00000000000E+00 0.  1.
         21    1    1    2  505  504  0.10467251266E+03 -0.71239229267E+02  0.36835732356E+02  0.13186445265E+03  0.00000000000E+00 0.  1.
          2    1    1    2  501    0 -0.79072621651E+02 -0.14217483702E+02  0.12732709707E+04  0.12758031123E+04  0.00000000000E+00 0. -1.
<scales pt_clust_3="49.44781" pt_clust_4="14000.00000" pt_clust_5="119.63744" pt_clust_6="41.55699"></scales>
<clustering>
<clus scale="   49.448">  1  3  2 -1</clus>
<clus scale="   41.557">  1  6  2 -1</clus>
<clus scale="  119.637">  2  5  1 -1</clus>
<clus scale="  119.637">  2  3  1 -1</clus>
</clustering>
</event>
<event>
 6    0  0.2117869E+002  0.5721910E+02  0.7546771E-02  0.1409887E+00
         21   -1    0    0  504  502  0.00000000000E+00  0.00000000000E+00  0.13476631041E+04  0.13476631041E+04  0.00000000000E+00 0.  1.
         -1   -1    0    0    0  501 -0.00000000000E+00 -0.00000000000E+00 -0.55733245673E+02  0.55733245673E+02  0.00000000000E+00 0. -1.
         21    1    1    2  503  501 -0.15700686707E+02  0.41373370376E+02  0.52450653789E+02  0.68624619651E+02  0.00000000000E+00 0. -1.
         21    1    1    2  504  503 -0.53631101309E+02  0.35338926918E+02  0.18546628051E+03  0.19627245347E+03  0.00000000000E+00 0.  1.
         21    1    1    2  505  502  0.57691007467E+02  0.81752380836E+01  0.10511559899E+04  0.10527696814E+04  0.00000000000E+00 0.  1.
         -1    1    1    2    0  505  0.11640780549E+02 -0.84887535378E+02  0.28569342025E+01  0.85729595283E+02  0.00000000000E+00 0. -1.
<scales pt_clust_3="44.25231" pt_clust_4="14000.00000" pt_clust_5="57.21910" pt_clust_6="48.94796"></scales>
<clustering>
<clus scale="   44.252">  2  3  1 -1</clus>
<clus scale="   48.948">  2  6  1 -1</clus>
<clus scale="   57.219">  1  5  2 -1</clus>
<clus scale="   57.219">  1  3  2 -1</clus>
</clustering>
</event>
<event>
 6    0  0.2117869E+002  0.4673918E+03  0.7546771E-02  0.1022659E+00
         21   -1    0    0  501  502  0.00000000000E+00  0.00000000000E+00  0.15529638139E+03  0.15529638139E+03  0.00000000000E+00 0. -1.
          2   -1    0    0  504    0 -0.00000000000E+00 -0.00000000000E+00 -0.18938715156E+04  0.18938715156E+04  0.00000000000E+00 0. -1.
         21    1    1    2  503  505 -0.49899809089E+02 -0.16961999433E+02 -0.47564255245E+02  0.70993371161E+02  0.00000000000E+00 0. -1.
         21    1    1    2  504  503 -0.40201121779E+02 -0.95864275357E+01 -0.41477125208E+03  0.41682516879E+03  0.00000000000E+00 0.  1.
         21    1    1    2  505  502 -0.36901213262E+03 -0.75148778614E+02 -0.83725918896E+03  0.91805241814E+03  0.00000000000E+00 0. -1.
          2    1    1    2  501    0  0.45911306349E+03  0.10169720558E+03 -0.43898043789E+03  0.64329693886E+03  0.00000000000E+00 0. -1.
<scales pt_clust_3="39.81575" pt_clust_4="41.32832" pt_clust_5="39.81575" pt_clust_6="455.11284"></scales>
<clustering>
<clus scale="   39.816">  3  5 -1 -1</clus>
<clus scale="   41.328">  2  4  1 -1</clus>
<clus scale="  455.113">  1  6  2 -1</clus>
<clus scale="  455.113">  1  3  2 -1</clus>
</clustering>
</event>
<event>
 6    0  0.2117869E+002  0.8642225E+02  0.7546771E-02  0.1311755E+00
         21   -1    0    0  505  502  0.00000000000E+00  0.00000000000E+00  0.14713691466E+03  0.14713691466E+03  0.00000000000E+00 0.  1.
         -3   -1    0    0    0  501 -0.00000000000E+00 -0.00000000000E+00 -0.22287965915E+03  0.22287965915E+03  0.00000000000E+00 0. -1.
         21    1    1    2  503  502  0.61356898378E+02  0.27978409601E+02  0.20880067499E+02  0.70593467128E+02  0.00000000000E+00 0.  1.
         21    1    1    2  504  501 -0.10393123402E+02 -0.30374347586E+02 -0.47097189562E+02  0.56997923383E+02  0.00000000000E+00 0. -1.
         21    1    1    2  505  504 -0.11663102041E+03 -0.31230341168E+02  0.39283413490E+02  0.12696974327E+03  0.00000000000E+00 0.  1.
         -3    1    1    2    0  503  0.65667245432E+02  0.33626279153E+02 -0.88809035911E+02  0.11545544003E+03  0.00000000000E+00 0. -1.
<scales pt_clust_3="14000.00000" pt_clust_4="32.10324" pt_clust_5="86.42225" pt_clust_6="61.43263"></scales>
<clustering>
<clus scale="   32.103">  2  4  1 -1</clus>
<clus scale="   61.433">  2  6  1 -1</clus>
<clus scale="   86.422">  2  5  1 -1</clus>
<clus scale="   86.422">  1  3  2 -1</clus>
</clustering>
</event>
<event>
 6    0  0.2117869E+002  0.6358286E+02  0.7546771E-02  0.1383383E+00
         21   -1    0    0  505  502  0.00000000000E+00  0.00000000000E+00  0.19569003797E+04  0.19569003797E+04  0.00000000000E+00 0. -1.
         -3   -1    0    0    0  501 -0.00000000000E+00 -0.00000000000E+00 -0.98299605570E+02  0.98299605570E+02  0.00000000000E+00 0. -1.
         21    1    1    2  503  501 -0.43387969495E+02  0.18922636758E+02 -0.51141127540E+02  0.69684984070E+02  0.00000000000E+00 0. -1.
         21    1    1    2  504  502 -0.66925596454E+02  0.59873980151E+02  0.17435679025E+04  0.17458788503E+04  0.00000000000E+00 0. -1.
         21    1    1    2  505  503  0.40854026955E+02 -0.74919543780E+01  0.12533946921E+03  0.13204227899E+03  0.00000000000E+00 0. -1.
         -3    1    1    2    0  504  0.69459538994E+02 -0.71304662531E+02  0.40834529958E+02  0.10759387200E+03  0.00000000000E+00 0. -1.
<scales pt_clust_3="47.12970" pt_clust_4="63.58286" pt_clust_5="41.53530" pt_clust_6="14000.00000"></scales>
<clustering>
<clus scale="   41.535">  1  5  2 -1</clus>
<clus scale="   47.130">  2  3  1 -1</clus>
<clus scale="   63.583">  1  4  2 -1</clus>
<clus scale="   41.535">  1  3  2 -1</clus>
</clustering>
</event>
<event>
 6    0  0.2117869E+002  0.7283930E+02  0.7546771E-02  0.1350696E+00
          2   -1    0    0  505    0 -0.00000000000E+00  0.00000000000E+00  0.20191426386E+04  0.20191426386E+04  0.00000000000E+00 0. -1.
         21   -1    0    0  504  502  0.00000000000E+00 -0.00000000000E+00 -0.15464399681E+03  0.15464399681E+03  0.00000000000E+00 0. -1.
         21    1    1    2  503  502 -0.54490147385E+01  0.41897438625E+02 -0.12135484773E+03  0.12849936261E+03  0.00000000000E+00 0. -1.
         21    1    1    2  504  501  0.20795585625E+02  0.30297047906E+02 -0.12418822336E+02  0.38789104676E+02  0.00000000000E+00 0.  1.
         21    1    1    2  505  503 -0.67710102354E+02  0.19219387908E+02  0.56658825861E+03  0.57094334012E+03  0.00000000000E+00 0.  1.
          2    1    1    2  501    0  0.52363531467E+02 -0.91413874440E+02  0.14316840533E+04  0.14355548280E+04  0.00000000000E+00 0. -1.
<scales pt_clust_3="72.83930" pt_clust_4="36.74735" pt_clust_5="70.18944" pt_clust_6="14000.00000"></scales>
<clustering>
<clus scale="   36.747">  2  4  1 -1</clus>
<clus scale="   70.189">  1  5  2 -1</clus>
<clus scale="   72.839">  2  3  1 -1</clus>
<clus scale="   36.747">  2  3  1 -1</clus>
</clustering>
</event>
<event>
 6    0  0.2117869E+002  0.1511990E+03  0.7546771E-02  0.1199007E+00
         21   -1    0    0  505  502  0.00000000000E+00  0.00000000000E+00  0.67058371627E+03  0.67058371627E+03  0.00000000000E+00 0.  1.
          2   -1    0    0  504    0 -0.00000000000E+00 -0.00000000000E+00 -0.50748571952E+03  0.50748571952E+03  0.00000000000E+00 0. -1.
         21    1    1    2  503  502 -0.77894264040E+02 -0.22889136771E+03  0.46204451536E+03  0.52148241462E+03  0.00000000000E+00 0.  1.
         21    1    1    2  504  503 -0.42197991802E+02 -0.77987244160E+01 -0.38882203767E+02  0.57907826625E+02  0.00000000000E+00 0.  1.
         21    1    1    2  505  501 -0.28128090547E+02  0.13225207800E+03  0.11795085205E+03  0.17942743690E+03  0.00000000000E+00 0. -1.
          2    1    1    2  501    0  0.14822034639E+03  0.10443801413E+03 -0.37801516690E+03  0.41925175764E+03  0.00000000000E+00 0. -1.
<scales pt_clust_3="151.19898" pt_clust_4="42.91259" pt_clust_5="135.31773" pt_clust_6="14000.00000"></scales>
<clustering>
<clus scale="   42.913">  2  4  1 -1</clus>
<clus scale="  135.318">  1  5  2 -1</clus>
<clus scale="  151.199">  1  3  2 -1</clus>
<clus scale="  135.318">  1  3  2 -1</clus>
</clustering>
</event>
<event>
 6    0  0.2117869E+002  0.1341895E+03  0.7546771E-02  0.1221368E+00
          2   -1    0    0  503    0 -0.00000000000E+00  0.00000000000E+00  0.11987088539E+04  0.11987088539E+04  0.00000000000E+00 0.  1.
         21   -1    0    0  504  502  0.00000000000E+00 -0.00000000000E+00 -0.36970197929E+03  0.36970197929E+03  0.00000000000E+00 0. -1.
         21    1    1    2  503  505  0.36189284156E+02  0.90499784667E+02 -0.18172200081E+03  0.20621047716E+03  0.00000000000E+00 0. -1.
         21    1    1    2  504  501 -0.54942267949E+02 -0.36813946787E+02  0.42398375285E+03  0.42911087398E+03  0.00000000000E+00 0. -1.
         21    1    1    2  505  502  0.32851075199E+02  0.64911214914E+01 -0.17028209001E+03  0.17354341813E+03  0.00000000000E+00 0. -1.
          2    1    1    2  501    0 -0.14098091407E+02 -0.60176959372E+02  0.75702721255E+03  0.75954606389E+03  0.00000000000E+00 0.  1.
<scales pt_clust_3="118.58420" pt_clust_4="60.85707" pt_clust_5="33.48623" pt_clust_6="60.85707"></scales>
<clustering>
<clus scale="   33.486">  2  5  1 -1</clus>
<clus scale="   60.857">  4  6 -1 -1</clus>
<clus scale="  118.584">  2  3  1 -1</clus>
<clus scale="   33.486">  2  3  1 -1</clus>
</clustering>
</event>
<event>
 6    0  0.2117869E+002  0.9628151E+02  0.7546771E-02  0.1288316E+00
          2   -1    0    0  505    0 -0.00000000000E+00  0.00000000000E+00  0.12798160913E+04  0.12798160913E+04  0.00000000000E+00 0.  1.
         21   -1    0    0  504  502  0.00000000000E+00 -0.00000000000E+00 -0.73879735956E+02  0.73879735956E+02  0.00000000000E+00 0.  1.
         21    1    1    2  503  502  0.62815051507E+02 -0.39039839275E+02  0.63700851058E+02  0.97609621308E+02  0.00000000000E+00 0.  1.
         21    1    1    2  504  501 -0.10903823424E+03  0.43273330408E+02  0.26887782174E+02  0.12035310749E+03  0.00000000000E+00 0.  1.
         21    1    1    2  505  503  0.12926276052E+02 -0.97290063342E+02  0.33284151735E+03  0.34700997206E+03  0.00000000000E+00 0.  1.
          2    1    1    2  501    0  0.33296906685E+02  0.93056572208E+02  0.78250620472E+03  0.78872312636E+03  0.00000000000E+00 0.  1.
<scales pt_clust_3="73.95836" pt_clust_4="58.55616" pt_clust_5="96.28151" pt_clust_6="14000.00000"></scales>
<clustering>
<clus scale="   73.958">  2  3  1 -1</clus>
<clus scale="   58.556">  2  4  1 -1</clus>
<clus scale="   96.282">  2  5  1 -1</clus>
<clus scale="   73.958">  2  3  1 -1</clus>
</clustering>
</event>
<event>
 6    0  0.2117869E+002  0.1012418E+03  0.7546771E-02  0.1277706E+00
         21   -1    0    0  504  502  0.00000000000E+00  0.00000000000E+00  0.24143549738E+03  0.24143549738E+03  0.00000000000E+00 0.  1.
          1   -1    0    0  503    0 -0.00000000000E+00 -0.00000000000E+00 -0.15650359985E+03  0.15650359985E+03  0.00000000000E+00 0. -1.
         21    1    1    2  503  505  0.18690486448E+02 -0.39209240384E+02 -0.51966982690E+02  0.67729359255E+02  0.00000000000E+00 0.  1.
         21    1    1    2  504  501 -0.80613256466E+02 -0.47243132806E+02  0.15598312945E+03  0.18182724600E+03  0.00000000000E+00 0.  1.
         21    1    1    2  505  502 -0.22081135721E+02  0.23112331410E+02  0.18176705599E+02  0.36771579302E+02  0.00000000000E+00 0. -1.
          1    1    1    2  501    0  0.84003905739E+02  0.63340041780E+02 -0.37260954838E+02  0.11161091267E+03  0.00000000000E+00 0. -1.
<scales pt_clust_3="42.31927" pt_clust_4="101.24180" pt_clust_5="31.96492" pt_clust_6="14000.00000"></scales>
<clustering>
<clus scale="   31.965">  1  5  2 -1</clus>
<clus scale="   42.319">  2  3  1 -1</clus>
<clus scale="  101.242">  1  4  2 -1</clus>
<clus scale="   31.965">  1  3  2 -1</clus>
</clustering>
</event>
<event>
 6    0  0.2117869E+002  0.1009845E+03  0.7546771E-02  0.1278239E+00
         21   -1    0    0  501  502  0.00000000000E+00  0.00000000000E+00  0.31490188777E+02  0.31490188777E+02  0.00000000000E+00 0. -1.
          2   -1    0    0  504    0 -0.00000000000E+00 -0.00000000000E+00 -0.29134857101E+04  0.29134857101E+04  0.00000000000E+00 0. -1.
         21    1    1    2  503  502  0.41175879014E+02 -0.42462386246E+01  0.23526509366E+01  0.41461048244E+02  0.00000000000E+00 0. -1.
         21    1    1    2  504  505  0.28819672135E+02  0.15808864556E+02 -0.44800068659E+03  0.44920497424E+03  0.00000000000E+00 0. -1.
         21    1    1    2  505  503  0.29831665741E+02 -0.75022080405E+02 -0.21252593761E+03  0.22734448528E+03  0.00000000000E+00 0. -1.
          2    1    1    2  501    0 -0.99827216890E+02  0.63459454473E+02 -0.22238215480E+04  0.22269653911E+04  0.00000000000E+00 0. -1.
<scales pt_clust_3="41.60907" pt_clust_4="32.87086" pt_clust_5="100.98451" pt_clust_6="14000.00000"></scales>
<clustering>
<clus scale="   32.871">  2  4  1 -1</clus>
<clus scale="   41.609">  1  3  2 -1</clus>
<clus scale="  100.985">  1  5  2 -1</clus>
<clus scale="   41.609">  1  3  2 -1</clus>
</clustering>
</event>
<event>
 6    0  0.2117869E+002  0.1056204E+03  0.7546771E-02  0.1268902E+00
          2   -1    0    0  503    0 -0.00000000000E+00  0.00000000000E+00  0.32630841167E+04  0.32630841167E+04  0.00000000000E+00 0. -1.
         21   -1    0    0  501  502  0.00000000000E+00 -0.00000000000E+00 -0.11225200388E+03  0.11225200388E+03  0.00000000000E+00 0. -1.
         21    1    1    2  503  504 -0.78900773864E+02 -0.45530656561E+01  0.15351497808E+04  0.15371827841E+04  0.00000000000E+00 0. -1.
         21    1    1    2  504  505  0.17023881105E+02 -0.49361795032E+02 -0.27663358835E+02  0.59090276347E+02  0.00000000000E+00 0. -1.
         21    1    1    2  505  502  0.35453089833E+02 -0.37156345232E+02 -0.56627399128E+02  0.76447222983E+02  0.00000000000E+00 0. -1.
          2    1    1    2  501    0  0.26423802926E+02  0.91071205921E+02  0.16999730900E+04  0.17026158371E+04  0.00000000000E+00 0. -1.
<scales pt_clust_3="79.03203" pt_clust_4="31.77095" pt_clust_5="31.77095" pt_clust_6="100.64500"></scales>
<clustering>
<clus scale="   31.771">  4  5 -1 -1</clus>
<clus scale="   79.032">  1  3  2 -1</clus>
<clus scale="  100.645">  1  6  2 -1</clus>
<clus scale="  105.620">  2  3  1 -1</clus>
</clustering>
</event>
<event>
 6    0  0.2117869E+002  0.1581949E+03  0.7546771E-02  0.1190750E+00
          2   -1    0    0  503    0 -0.00000000000E+00  0.00000000000E+00  0.99680731337E+03  0.99680731337E+03  0.00000000000E+00 0.  1.
         21   -1    0    0  504  502  0.00000000000E+00 -0.00000000000E+00 -0.47413584446E+03  0.47413584446E+03  0.00000000000E+00 0. -1.
         21    1    1    2  503  505  0.14641787523E+02 -0.30211806445E+02  0.10320826234E+03  0.10853147289E+03  0.00000000000E+00 0.  1.
         21    1    1    2  504  501  0.20857194175E+02  0.35875999793E+02 -0.16221526744E+02  0.44556120117E+02  0.00000000000E+00 0.  1.
         21    1    1    2  505  502  0.11322471187E+03  0.49831186678E+02 -0.42500879612E+03  0.44264597516E+03  0.00000000000E+00 0. -1.
          2    1    1    2  501    0 -0.14872369357E+03 -0.55495380026E+02  0.86069352943E+03  0.87520958966E+03  0.00000000000E+00 0.  1.
<scales pt_clust_3="33.57283" pt_clust_4="41.20238" pt_clust_5="158.19488" pt_clust_6="14000.00000"></scales>
<clustering>
<clus scale="   33.573">  1  3  2 -1</clus>
<clus scale="   41.202">  2  4  1 -1</clus>
<clus scale="  158.195">  2  5  1 -1</clus>
<clus scale="   41.202">  2  3  1 -1</clus>
</clustering>
</event>
<event>
 6    0  0.2117869E+002  0.7994164E+02  0.7546771E-02  0.1329217E+00
         -2   -1    0    0    0  501 -0.00000000000E+00  0.00000000000E+00  0.28603534596E+03  0.28603534596E+03  0.00000000000E+00 0.  1.
         21   -1    0    0  504  502  0.00000000000E+00 -0.00000000000E+00 -0.49441931999E+03  0.49441931999E+03  0.00000000000E+00 0.  1.
         21    1    1    2  503  502  0.33792939952E+02 -0.16070217764E+02 -0.32481676187E+03  0.32696504932E+03  0.00000000000E+00 0.  1.
         21    1    1    2  504  505 -0.15008148811E+02 -0.31290664090E+02 -0.33581905330E+02  0.48291764883E+02  0.00000000000E+00 0. -1.
         21    1    1    2  505  501 -0.52315366320E+02 -0.58933051499E+02  0.24587080267E+03  0.25819073128E+03  0.00000000000E+00 0.  1.
         -2    1    1    2    0  503  0.33530575179E+02  0.10629393335E+03 -0.95856109506E+02  0.14700712047E+03  0.00000000000E+00 0.  1.
<scales pt_clust_3="44.89970" pt_clust_4="34.70375" pt_clust_5="14000.00000" pt_clust_6="79.94164"></scales>
<clustering>
<clus scale="   34.704">  2  4  1 -1</clus>
<clus scale="   44.900">  2  3  1 -1</clus>
<clus scale="   79.942">  2  6  1 -1</clus>
<clus scale="   34.704">  2  3  1 -1</clus>
</clustering>
</event>
<event>
 6    0  0.2117869E+002  0.1331458E+03  0.7546771E-02  0.1222861E+00
          2   -1    0    0  505    0 -0.00000000000E+00  0.00000000000E+00  0.22366002173E+04  0.22366002173E+04  0.00000000000E+00 0. -1.
         21   -1    0    0  503  502  0.00000000000E+00 -0.00000000000E+00 -0.25302276647E+03  0.25302276647E+03  0.00000000000E+00 0. -1.
         21    1    1    2  503  501 -0.21655330575E+01  0.89913216193E+02  0.19196370025E+02  0.91965083601E+02  0.00000000000E+00 0.  1.
         21    1    1    2  504  502  0.13695123894E+03 -0.86554891611E+02 -0.17970152116E+03  0.24195046562E+03  0.00000000000E+00 0. -1.
         21    1    1    2  505  504 -0.35736112612E+02 -0.76070046858E+02  0.49773855303E+03  0.50478449753E+03  0.00000000000E+00 0.  1.
          2    1    1    2  501    0 -0.99049593269E+02  0.72711722276E+02  0.16463440490E+04  0.16509229370E+04  0.00000000000E+00 0. -1.
<scales pt_clust_3="87.53939" pt_clust_4="14000.00000" pt_clust_5="84.04595" pt_clust_6="133.14585"></scales>
<clustering>
<clus scale="   84.046">  1  5  2 -1</clus>
<clus scale="   87.539">  2  3  1 -1</clus>
<clus scale="  133.146">  1  6  2 -1</clus>
<clus scale="   87.539">  2  3  1 -1</clus>
</clustering>
</event>
<event>
 6    0  0.2117869E+002  0.2164478E+03  0.7546771E-02  0.1136559E+00
          1   -1    0    0  505    0 -0.00000000000E+00  0.00000000000E+00  0.18682694494E+04  0.18682694494E+04  0.00000000000E+00 0. -1.
         21   -1    0    0  504  502  0.00000000000E+00 -0.00000000000E+00 -0.40430812252E+03  0.40430812252E+03  0.00000000000E+00 0. -1.
         21    1    1    2  503  502  0.20336409921E+02 -0.78610424401E+02 -0.10013257045E+03  0.12891741565E+03  0.00000000000E+00 0.  1.
         21    1    1    2  504  501 -0.52698985016E+02  0.30274142931E+03 -0.19096785790E+03  0.36179867163E+03  0.00000000000E+00 0. -1.
         21    1    1    2  505  503  0.37363616916E+02 -0.92044683569E+02  0.13910694643E+04  0.13946119597E+04  0.00000000000E+00 0. -1.
          1    1    1    2  501    0 -0.50010418221E+01 -0.13208632134E+03  0.36399229091E+03  0.38724952492E+03  0.00000000000E+00 0. -1.
<scales pt_clust_3="81.19833" pt_clust_4="14000.00000" pt_clust_5="99.83112" pt_clust_6="216.44777"></scales>
<clustering>
<clus scale="   81.198">  2  3  1 -1</clus>
<clus scale="   99.831">  1  5  2 -1</clus>
<clus scale="  216.448">  1  6  2 -1</clus>
<clus scale="   81.198">  2  3  1 -1</clus>
</clustering>
</event>
<event>
 6    0  0.2117869E+002  0.1514260E+03  0.7546771E-02  0.1198732E+00
         21   -1    0    0  501  502  0.00000000000E+00  0.00000000000E+00  0.42729481385E+03  0.42729481385E+03  0.00000000000E+00 0.  1.
          1   -1    0    0  505    0 -0.00000000000E+00 -0.00000000000E+00 -0.28331867805E+03  0.28331867805E+03  0.00000000000E+00 0. -1.
         21    1    1    2  503  502 -0.73537145400E+02 -0.26655316067E+02  0.24318523441E+03  0.25545503687E+03  0.00000000000E+00 0.  1.
         21    1    1    2  504  503  0.12095139537E+03 -0.64856447004E+02 -0.81862701578E+02  0.15980331871E+03  0.00000000000E+00 0. -1.
         21    1    1    2  505  504  0.35175384619E+02 -0.19064174156E+02 -0.11795930149E+03  0.12455981385E+03  0.00000000000E+00 0. -1.
          1    1    1    2  501    0 -0.82589634590E+02  0.11057593723E+03  0.10061290445E+03  0.17079532247E+03  0.00000000000E+00 0. -1.
<scales pt_clust_3="77.22138" pt_clust_4="14000.00000" pt_clust_5="40.00938" pt_clust_6="151.42605"></scales>
<clustering>
<clus scale="   40.009">  2  5  1 -1</clus>
<clus scale="   77.221">  1  3  2 -1</clus>
<clus scale="  151.426">  1  6  2 -1</clus>
<clus scale="   77.221">  1  3  2 -1</clus>
</clustering>
</event>
<event>
 6    0  0.2117869E+002  0.9369988E+02  0.7546771E-02  0.1294131E+00
          1   -1    0    0  505    0 -0.00000000000E+00  0.00000000000E+00  0.43782258509E+03  0.43782258509E+03  0.00000000000E+00 0.  1.
         21   -1    0    0  504  502  0.00000000000E+00 -0.00000000000E+00 -0.20475102641E+03  0.20475102641E+03  0.00000000000E+00 0. -1.
         21    1    1    2  503  502  0.55938810561E+02 -0.11373970066E+03 -0.12526650469E+03  0.17820652971E+03  0.00000000000E+00 0. -1.
         21    1    1    2  504  501 -0.31694625644E+02  0.38398150063E+01 -0.58467543993E+01  0.32457325999E+02  0.00000000000E+00 0. -1.
         21    1    1    2  505  503 -0.54405771348E+01  0.65546723689E+02  0.12421285739E+01  0.65783856297E+02  0.00000000000E+00 0. -1.
          1    1    1    2  501    0 -0.18803607782E+02  0.44353161963E+02  0.36294268919E+03  0.36612589950E+03  0.00000000000E+00 0.  1.
<scales pt_clust_3="14000.00000" pt_clust_4="31.92638" pt_clust_5="93.69988" pt_clust_6="48.31145"></scales>
<clustering>
<clus scale="   31.926">  2  4  1 -1</clus>
<clus scale="   48.311">  1  6  2 -1</clus>
<clus scale="   93.700">  1  5  2 -1</clus>
<clus scale="   31.926">  2  3  1 -1</clus>
</clustering>
</event>
<event>
 6    0  0.2117869E+002  0.1035041E+03  0.7546771E-02  0.1273095E+00
         21   -1    0    0  504  502  0.00000000000E+00  0.00000000000E+00  0.17791137727E+03  0.17791137727E+03  0.00000000000E+00 0. -1.
          2   -1    0    0  503    0 -0.00000000000E+00 -0.00000000000E+00 -0.55954031169E+03  0.55954031169E+03  0.00000000000E+00 0.  1.
         21    1    1    2  503  502  0.89461821781E+01 -0.30304130675E+02 -0.34075481961E+02  0.46470560384E+02  0.00000000000E+00 0.  1.
         21    1    1    2  504  505  0.51776505023E+02  0.93075113686E+01  0.11217099967E+03  0.12389418633E+03  0.00000000000E+00 0. -1.
         21    1    1    2  505  501  0.53931376659E+02  0.34282271754E+02  0.25141152831E+02  0.68672739210E+02  0.00000000000E+00 0. -1.
          2    1    1    2  501    0 -0.11465406386E+03 -0.13285652448E+02 -0.48486560495E+03  0.49841420303E+03  0.00000000000E+00 0.  1.
<scales pt_clust_3="31.59706" pt_clust_4="52.64649" pt_clust_5="14000.00000" pt_clust_6="103.50408"></scales>
<clustering>
<clus scale="   31.597">  2  3  1 -1</clus>
<clus scale="   52.646">  1  4  2 -1</clus>
<clus scale="  103.504">  2  6  1 -1</clus>
<clus scale="   52.646">  1  3  2 -1</clus>
</clustering>
</event>
<event>
 6    0  0.2117869E+002  0.1022348E+03  0.7546771E-02  0.1275665E+00
         21   -1    0    0  501  502  0.00000000000E+00  0.00000000000E+00  0.51830205051E+03  0.51830205051E+03  0.00000000000E+00 0.  1.
          4   -1    0    0  503    0 -0.00000000000E+00 -0.00000000000E+00 -0.92541537817E+03  0.92541537817E+03  0.00000000000E+00 0. -1.
         21    1    1    2  503  505 -0.30565534006E+02 -0.13832474280E+01 -0.24547942939E+03  0.24737889057E+03  0.00000000000E+00 0. -1.
         21    1    1    2  504  502 -0.81270802573E+02 -0.52557578586E+02  0.40696581570E+03  0.41831616938E+03  0.00000000000E+00 0.  1.
         21    1    1    2  505  504  0.13355057859E+03  0.10430003898E+03  0.34085660938E+02  0.17284700592E+03  0.00000000000E+00 0. -1.
          4    1    1    2  501    0 -0.21714242014E+02 -0.50359212967E+02 -0.60268537490E+03  0.60517536281E+03  0.00000000000E+00 0. -1.
<scales pt_clust_3="30.59682" pt_clust_4="14000.00000" pt_clust_5="102.23481" pt_clust_6="71.08300"></scales>
<clustering>
<clus scale="   30.597">  2  3  1 -1</clus>
<clus scale="   71.083">  2  6  1 -1</clus>
<clus scale="  102.235">  2  5  1 -1</clus>
<clus scale="  102.235">  1  3  2 -1</clus>
</clustering>
</event>
<event>
 6    0  0.2117869E+002  0.1309924E+03  0.7546771E-02  0.1225991E+00
          3   -1    0    0  504    0 -0.00000000000E+00  0.00000000000E+00  0.21500749025E+03  0.21500749025E+03  0.00000000000E+00 0. -1.
         21   -1    0    0  503  502  0.00000000000E+00 -0.00000000000E+00 -0.81164941469E+03  0.81164941469E+03  0.00000000000E+00 0. -1.
         21    1    1    2  503  501  0.57081583821E+02  0.64380011537E+01 -0.37338161821E+03  0.37777451990E+03  0.00000000000E+00 0. -1.
         21    1    1    2  504  505 -0.28659389553E+02 -0.14452064729E+02  0.63608589697E+02  0.71247985710E+02  0.00000000000E+00 0. -1.
         21    1    1    2  505  502 -0.50537012020E+02 -0.13538179972E+03 -0.37910128570E+03  0.40570926302E+03  0.00000000000E+00 0. -1.
          3    1    1    2  501    0  0.22114817752E+02  0.14339586330E+03  0.92232389765E+02  0.17192513631E+03  0.00000000000E+00 0. -1.
<scales pt_clust_3="56.99577" pt_clust_4="32.09708" pt_clust_5="14000.00000" pt_clust_6="130.99238"></scales>
<clustering>
<clus scale="   32.097">  1  4  2 -1</clus>
<clus scale="   56.996">  2  3  1 -1</clus>
<clus scale="  130.992">  1  6  2 -1</clus>
<clus scale="   56.996">  2  3  1 -1</clus>
</clustering>
</event>
<event>
 6    0  0.2117869E+002  0.2329518E+03  0.7546771E-02  0.1124579E+00
         21   -1    0    0  503  502  0.00000000000E+00  0.00000000000E+00  0.17710684538E+03  0.17710684538E+03  0.00000000000E+00 0.  1.
          1   -1    0    0  505    0 -0.00000000000E+00 -0.00000000000E+00 -0.12802022422E+04  0.12802022422E+04  0.00000000000E+00 0.  1.
         21    1    1    2  503  501 -0.49128538069E+02  0.40366218823E+02  0.73420246996E+02  0.97126605747E+02  0.00000000000E+00 0.  1.
         21    1    1    2  504  502  0.24418645835E+03 -0.21353871516E+01 -0.25318268772E+03  0.35175710324E+03  0.00000000000E+00 0.  1.
         21    1    1    2  505  504  0.52405761402E+02 -0.11404811275E+03 -0.46940894581E+03  0.48589926348E+03  0.00000000000E+00 0. -1.
          1    1    1    2  501    0 -0.24746368168E+03  0.75817281081E+02 -0.45392401030E+03  0.52252611513E+03  0.00000000000E+00 0.  1.
<scales pt_clust_3="63.58494" pt_clust_4="232.95176" pt_clust_5="120.40322" pt_clust_6="14000.00000"></scales>
<clustering>
<clus scale="   63.585">  1  3  2 -1</clus>
<clus scale="  120.403">  2  5  1 -1</clus>
<clus scale="  232.952">  1  4  2 -1</clus>
<clus scale="   63.585">  1  3  2 -1</clus>
</clustering>
</event>
<event>
 6    0  0.2117869E+002  0.3250570E+03  0.7546771E-02  0.1073345E+00
         21   -1    0    0  501  502  0.00000000000E+00  0.00000000000E+00  0.42590947284E+03  0.42590947284E+03  0.00000000000E+00 0. -1.
          2   -1    0    0  504    0 -0.00000000000E+00 -0.00000000000E+00 -0.10233016519E+04  0.10233016519E+04  0.00000000000E+00 0. -1.
         21    1    1    2  503  505  0.15647013931E+03  0.65275946154E+02  0.11728880924E+03  0.20615653862E+03  0.00000000000E+00 0. -1.
         21    1    1    2  504  503  0.24412262737E+02 -0.65804748117E+02 -0.25610795104E+03  0.26555132467E+03  0.00000000000E+00 0. -1.
         21    1    1    2  505  502  0.12828547861E+03  0.73138080904E+02  0.19867840226E+03  0.24754686511E+03  0.00000000000E+00 0. -1.
          2    1    1    2  501    0 -0.30916788065E+03 -0.72609278942E+02 -0.65725143957E+03  0.72995639639E+03  0.00000000000E+00 0. -1.
<scales pt_clust_3="70.81567" pt_clust_4="70.18706" pt_clust_5="70.81567" pt_clust_6="316.06136"></scales>
<clustering>
<clus scale="   70.187">  2  4  1 -1</clus>
<clus scale="   70.816">  3  5 -1 -1</clus>
<clus scale="  316.061">  2  6  1 -1</clus>
<clus scale="  325.057">  1  3  2 -1</clus>
</clustering>
</event>
<event>
 6    0  0.2117869E+002  0.2052864E+03  0.7546771E-02  0.1145354E+00
         -2   -1    0    0    0  501 -0.00000000000E+00  0.00000000000E+00  0.96078300098E+03  0.96078300098E+03  0.00000000000E+00 0.  1.
         21   -1    0    0  505  502  0.00000000000E+00 -0.00000000000E+00 -0.46123599437E+03  0.46123599437E+03  0.00000000000E+00 0. -1.
         21    1    1    2  503  504  0.79404153303E+02  0.52447477173E+02 -0.16795306409E+03  0.19303882812E+03  0.00000000000E+00 0. -1.
         21    1    1    2  504  502  0.10870240078E+03 -0.87757890045E+01 -0.24079156441E+03  0.26433653530E+03  0.00000000000E+00 0. -1.
         21    1    1    2  505  501 -0.11503418713E+02  0.58060693660E+02  0.36932543556E+02  0.69766650800E+02  0.00000000000E+00 0. -1.
         -2    1    1    2    0  503 -0.17660313537E+03 -0.10173238183E+03  0.87135909155E+03  0.89487698113E+03  0.00000000000E+00 0.  1.
<scales pt_clust_3="65.08016" pt_clust_4="65.08016" pt_clust_5="59.18930" pt_clust_6="193.16762"></scales>
<clustering>
<clus scale="   59.189">  1  5  2 -1</clus>
<clus scale="   65.080">  3  4 -1 -1</clus>
<clus scale="  193.168">  1  6  2 -1</clus>
<clus scale="  205.286">  2  3  1 -1</clus>
</clustering>
</event>
<event>
 6    0  0.2117869E+002  0.6916765E+02  0.7546771E-02  0.1362947E+00
         -1   -1    0    0    0  501 -0.00000000000E+00  0.00000000000E+00  0.27034217313E+03  0.27034217313E+03  0.00000000000E+00 0. -1.
         21   -1    0    0  504  502  0.00000000000E+00 -0.00000000000E+00 -0.24023649410E+03  0.24023649410E+03  0.00000000000E+00 0. -1.
         21    1    1    2  503  505 -0.87111140083E+02 -0.29485743912E+02  0.77830087024E+01  0.92294826751E+02  0.00000000000E+00 0.  1.
         21    1    1    2  504  503  0.25198226319E+02  0.65292031795E+02 -0.16805916871E+03  0.18204912582E+03  0.00000000000E+00 0. -1.
         21    1    1    2  505  501  0.58131685450E+02  0.30903673539E+02  0.13199149843E+03  0.14749944253E+03  0.00000000000E+00 0. -1.
         -1    1    1    2    0  502  0.37812283136E+01 -0.66709961421E+02  0.58390340619E+02  0.88735272119E+02  0.00000000000E+00 0. -1.
<scales pt_clust_3="69.16765" pt_clust_4="14000.00000" pt_clust_5="65.83563" pt_clust_6="61.35850"></scales>
<clustering>
<clus scale="   65.836">  1  5  2 -1</clus>
<clus scale="   61.359">  1  6  2 -1</clus>
<clus scale="   69.168">  1  3  2 -1</clus>
<clus scale="   69.168">  2  3  1 -1</clus>
</clustering>
</event>
<event>
 6    0  0.2117869E+002  0.8214833E+02  0.7546771E-02  0.1323063E+00
         21   -1    0    0  503  502  0.00000000000E+00  0.00000000000E+00  0.91501347966E+02  0.91501347966E+02  0.00000000000E+00 0. -1.
          1   -1    0    0  504    0 -0.00000000000E+00 -0.00000000000E+00 -0.69390381576E+03  0.69390381576E+03  0.00000000000E+00 0.  1.
         21    1    1    2  503  505  0.26059667869E+02 -0.27083346502E+02  0.47182572618E+02  0.60322542270E+02  0.00000000000E+00 0. -1.
         21    1    1    2  504  502 -0.18625100288E+02  0.58319319248E+02 -0.17948966073E+02  0.63798140579E+02  0.00000000000E+00 0. -1.
         21    1    1    2  505  501 -0.76637340521E+02  0.17550321711E+02 -0.12534150930E+03  0.14795874326E+03  0.00000000000E+00 0. -1.
          1    1    1    2  501    0  0.69202772940E+02 -0.48786294457E+02 -0.50629456504E+03  0.51332573762E+03  0.00000000000E+00 0.  1.
<scales pt_clust_3="37.58476" pt_clust_4="41.96525" pt_clust_5="14000.00000" pt_clust_6="82.14833"></scales>
<clustering>
<clus scale="   37.585">  1  3  2 -1</clus>
<clus scale="   41.965">  1  4  2 -1</clus>
<clus scale="   82.148">  2  6  1 -1</clus>
<clus scale="   37.585">  1  3  2 -1</clus>
</clustering>
</event>
<event>
 6    0  0.2117869E+002  0.1960335E+03  0.7546771E-02  0.1153129E+00
          2   -1    0    0  504    0 -0.00000000000E+00  0.00000000000E+00  0.13226356374E+04  0.13226356374E+04  0.00000000000E+00 0. -1.
         21   -1    0    0  503  502  0.00000000000E+00 -0.00000000000E+00 -0.10647466240E+03  0.10647466240E+03  0.00000000000E+00 0. -1.
         21    1    1    2  503  501  0.73827891427E+02 -0.18926185455E+03  0.41008721896E+02  0.20724942077E+03  0.00000000000E+00 0. -1.
         21    1    1    2  504  505  0.22767439495E+02 -0.38098636518E+02  0.15455049882E+03  0.16079713645E+03  0.00000000000E+00 0. -1.
         21    1    1    2  505  502 -0.93929960347E+02  0.65842988620E+02  0.27141944124E+03  0.29466362124E+03  0.00000000000E+00 0. -1.
          2    1    1    2  501    0 -0.26653705747E+01  0.16151750245E+03  0.74918231303E+03  0.76640012132E+03  0.00000000000E+00 0. -1.
<scales pt_clust_3="196.03348" pt_clust_4="44.38313" pt_clust_5="104.95853" pt_clust_6="14000.00000"></scales>
<clustering>
<clus scale="   44.383">  1  4  2 -1</clus>
<clus scale="  104.959">  1  5  2 -1</clus>
<clus scale="  196.033">  2  3  1 -1</clus>
<clus scale="  196.033">  2  3  1 -1</clus>
</clustering>
</event>
<event>
 6    0  0.2117869E+002  0.7434420E+02  0.7546771E-02  0.1345914E+00
          2   -1    0    0  504    0 -0.00000000000E+00  0.00000000000E+00  0.10857977357E+04  0.10857977357E+04  0.00000000000E+00 0. -1.
         21   -1    0    0  505  502  0.00000000000E+00 -0.00000000000E+00 -0.55138833086E+02  0.55138833086E+02  0.00000000000E+00 0. -1.
         21    1    1    2  503  502  0.44524568349E+02 -0.50012263549E+02  0.79134503697E+01  0.67426155079E+02  0.00000000000E+00 0. -1.
         21    1    1    2  504  503 -0.40422830869E+02 -0.13735691951E+02  0.17556090196E+03  0.18067734995E+03  0.00000000000E+00 0. -1.
         21    1    1    2  505  501 -0.45495457816E+02  0.85756292188E+02  0.84479671552E+02  0.12868874557E+03  0.00000000000E+00 0. -1.
          2    1    1    2  501    0  0.41393720336E+02 -0.22008336687E+02  0.76270487875E+03  0.76414431820E+03  0.00000000000E+00 0. -1.
<scales pt_clust_3="14000.00000" pt_clust_4="42.69279" pt_clust_5="74.34420" pt_clust_6="34.36616"></scales>
<clustering>
<clus scale="   42.693">  1  4  2 -1</clus>
<clus scale="   34.366">  1  6  2 -1</clus>
<clus scale="   74.344">  1  5  2 -1</clus>
<clus scale="   74.344">  2  3  1 -1</clus>
</clustering>
</event>
<event>
 6    0  0.2117869E+002  0.9401411E+02  0.7546771E-02  0.1293412E+00
         21   -1    0    0  504  502  0.00000000000E+00  0.00000000000E+00  0.12757672391E+03  0.12757672391E+03  0.00000000000E+00 0. -1.
          2   -1    0    0  505    0 -0.00000000000E+00 -0.00000000000E+00 -0.77399898309E+03  0.77399898309E+03  0.00000000000E+00 0.  1.
         21    1    1    2  503  501  0.24991654965E+02  0.65827503594E+02 -0.17117286861E+03  0.18508915148E+03  0.00000000000E+00 0. -1.
         21    1    1    2  504  503 -0.36607611259E+02  0.43752911899E+01  0.95217523903E+02  0.10210600978E+03  0.00000000000E+00 0. -1.
         21    1    1    2  505  502  0.58159956038E+01  0.49107091979E+02 -0.23918479689E+02  0.54931101920E+02  0.00000000000E+00 0. -1.
          2    1    1    2  501    0  0.57999606907E+01 -0.11930988676E+03 -0.54654843479E+03  0.55944944382E+03  0.00000000000E+00 0.  1.
<scales pt_clust_3="14000.00000" pt_clust_4="36.86815" pt_clust_5="53.27598" pt_clust_6="94.01411"></scales>
<clustering>
<clus scale="   36.868">  1  4  2 -1</clus>
<clus scale="   53.276">  1  5  2 -1</clus>
<clus scale="   94.014">  2  6  1 -1</clus>
<clus scale="   36.868">  1  3  2 -1</clus>
</clustering>
</event>
<event>
 6    0  0.2117869E+002  0.1083562E+03  0.7546771E-02  0.1263645E+00
          2   -1    0    0  505    0 -0.00000000000E+00  0.00000000000E+00  0.20124486760E+04  0.20124486760E+04  0.00000000000E+00 0. -1.
         21   -1    0    0  501  502  0.00000000000E+00 -0.00000000000E+00 -0.15245417382E+03  0.15245417382E+03  0.00000000000E+00 0. -1.
         21    1    1    2  503  502  0.56339947380E+02 -0.97393622765E+02 -0.11943217986E+03  0.16408459103E+03  0.00000000000E+00 0. -1.
         21    1    1    2  504  503 -0.42511819618E+01  0.82919217821E+02  0.17152194322E+03  0.19056087279E+03  0.00000000000E+00 0.  1.
         21    1    1    2  505  504 -0.53007084668E+00  0.30092162659E+02  0.32956996451E+03  0.33094135543E+03  0.00000000000E+00 0.  1.
          2    1    1    2  501    0 -0.51558694571E+02 -0.15617757715E+02  0.14783347743E+04  0.14793160305E+04  0.00000000000E+00 0. -1.
<scales pt_clust_3="14000.00000" pt_clust_4="108.35615" pt_clust_5="30.09683" pt_clust_6="53.14128"></scales>
<clustering>
<clus scale="   30.097">  1  5  2 -1</clus>
<clus scale="   53.141">  1  6  2 -1</clus>
<clus scale="  108.356">  1  4  2 -1</clus>
<clus scale="  108.356">  2  3  1 -1</clus>
</clustering>
</event>
<event>
 6    0  0.2117869E+002  0.2012575E+03  0.7546771E-02  0.1148682E+00
          2   -1    0    0  504    0 -0.00000000000E+00  0.00000000000E+00  0.34808179994E+04  0.34808179994E+04  0.00000000000E+00 0. -1.
         21   -1    0    0  503  502  0.00000000000E+00 -0.00000000000E+00 -0.18456771295E+03  0.18456771295E+03  0.00000000000E+00 0. -1.
         21    1    1    2  503  505  0.17760330817E+03  0.19215498645E+03  0.18645330600E+02  0.26232445987E+03  0.00000000000E+00 0. -1.
         21    1    1    2  504  502 -0.11976098180E+03 -0.16652627447E+02  0.15685749440E+01  0.12092337735E+03  0.00000000000E+00 0. -1.
         21    1    1    2  505  501  0.22324501620E+01 -0.55670312259E+02  0.55182009801E+03  0.55462562875E+03  0.00000000000E+00 0. -1.
          2    1    1    2  501    0 -0.60074776537E+02 -0.11983204674E+03  0.27242162829E+04  0.27275122464E+04  0.00000000000E+00 0. -1.
<scales pt_clust_3="186.10951" pt_clust_4="120.91320" pt_clust_5="49.38518" pt_clust_6="49.38518"></scales>
<clustering>
<clus scale="   49.385">  5  6 -1 -1</clus>
<clus scale="  120.913">  2  4  1 -1</clus>
<clus scale="  186.110">  2  3  1 -1</clus>
<clus scale="  120.913">  2  3  1 -1</clus>
</clustering>
</event>
<event>
 6    0  0.2117869E+002  0.1122861E+03  0.7546771E-02  0.1256394E+00
         21   -1    0    0  505  502  0.00000000000E+00  0.00000000000E+00  0.17610504634E+04  0.17610504634E+04  0.00000000000E+00 0.  1.
         -1   -1    0    0    0  501 -0.00000000000E+00 -0.00000000000E+00 -0.66615999063E+03  0.66615999063E+03  0.00000000000E+00 0.  1.
         21    1    1    2  503  501  0.28042034034E+02 -0.31767190768E+02 -0.21014253630E+02  0.47298085983E+02  0.00000000000E+00 0.  1.
         21    1    1    2  504  502  0.54080562540E+02  0.31400539212E+02  0.38059448182E+03  0.38569788786E+03  0.00000000000E+00 0.  1.
         21    1    1    2  505  503 -0.11843331353E+01  0.68556462932E+02  0.13594435649E+04  0.13611716267E+04  0.00000000000E+00 0.  1.
         -1    1    1    2    0  504 -0.80938263439E+02 -0.68189811376E+02 -0.62413332029E+03  0.63304285349E+03  0.00000000000E+00 0.  1.
<scales pt_clust_3="42.37346" pt_clust_4="62.56933" pt_clust_5="14000.00000" pt_clust_6="112.28610"></scales>
<clustering>
<clus scale="   42.373">  2  3  1 -1</clus>
<clus scale="   62.569">  1  4  2 -1</clus>
<clus scale="  112.286">  2  6  1 -1</clus>
<clus scale="   62.569">  1  3  2 -1</clus>
</clustering>
</event>
<event>
 6    0  0.2117869E+002  0.2454895E+03  0.7546771E-02  0.1116189E+00
         -2   -1    0    0    0  501 -0.00000000000E+00  0.00000000000E+00  0.20303909892E+04  0.20303909892E+04  0.00000000000E+00 0. -1.
         21   -1    0    0  503  502  0.00000000000E+00 -0.00000000000E+00 -0.61919971490E+03  0.61919971490E+03  0.00000000000E+00 0. -1.
         21    1    1    2  503  505  0.19900830492E+01 -0.40376122378E+02 -0.29305270682E+03  0.29582778887E+03  0.00000000000E+00 0. -1.
         21    1    1    2  504  502 -0.12621517519E+03 -0.17223241006E+03 -0.26940999363E+03  0.34376738965E+03  0.00000000000E+00 0. -1.
         21    1    1    2  505  501 -0.28585202066E+02 -0.33011482581E+02  0.57880442336E+02  0.72505291975E+02  0.00000000000E+00 0. -1.
         -2    1    1    2    0  504  0.15281029421E+03  0.24562001501E+03  0.19157735324E+04  0.19374902336E+04  0.00000000000E+00 0. -1.
<scales pt_clust_3="40.42514" pt_clust_4="245.48954" pt_clust_5="44.33014" pt_clust_6="14000.00000"></scales>
<clustering>
<clus scale="   40.425">  2  3  1 -1</clus>
<clus scale="   44.330">  1  5  2 -1</clus>
<clus scale="  245.490">  2  4  1 -1</clus>
<clus scale="   40.425">  2  3  1 -1</clus>
</clustering>
</event>
<event>
 6    0  0.2117869E+002  0.7537826E+02  0.7546771E-02  0.1342704E+00
         21   -1    0    0  505  502  0.00000000000E+00  0.00000000000E+00  0.62062811252E+02  0.62062811252E+02  0.00000000000E+00 0. -1.
          2   -1    0    0  504    0 -0.00000000000E+00 -0.00000000000E+00 -0.34453990469E+04  0.34453990469E+04  0.00000000000E+00 0.  1.
         21    1    1    2  503  502 -0.65314360392E+01 -0.35675431086E+02  0.43483151329E+01  0.36528124567E+02  0.00000000000E+00 0. -1.
         21    1    1    2  504  503 -0.57993936546E+02 -0.30343654890E+01 -0.38686998103E+03  0.39120440472E+03  0.00000000000E+00 0. -1.
         21    1    1    2  505  501 -0.83342547090E+01  0.75053402417E+02  0.22625878836E+01  0.75548608987E+02  0.00000000000E+00 0. -1.
          2    1    1    2  501    0  0.72859627294E+02 -0.36343605842E+02 -0.30030771576E+04  0.30041807198E+04  0.00000000000E+00 0.  1.
<scales pt_clust_3="36.26839" pt_clust_4="14000.00000" pt_clust_5="44.13698" pt_clust_6="75.37826"></scales>
<clustering>
<clus scale="   36.268">  1  3  2 -1</clus>
<clus scale="   44.137">  1  5  2 -1</clus>
<clus scale="   75.378">  2  6  1 -1</clus>
<clus scale="   36.268">  1  3  2 -1</clus>
</clustering>
</event>
<event>
 6    0  0.2117869E+002  0.1366294E+03  0.7546771E-02  0.1217938E+00
         21   -1    0    0  503  502  0.00000000000E+00  0.00000000000E+00  0.16347971166E+04  0.16347971166E+04  0.00000000000E+00 0. -1.
          2   -1    0    0  504    0 -0.00000000000E+00 -0.00000000000E+00 -0.22169078390E+03  0.22169078390E+03  0.00000000000E+00 0. -1.
         21    1    1    2  503  505 -0.52897936800E+02  0.17341710494E+02  0.88329011215E+03  0.88504256895E+03  0.00000000000E+00 0. -1.
         21    1    1    2  504  502  0.12214595430E+03  0.19318577044E+02  0.59775663745E+03  0.61041448147E+03  0.00000000000E+00 0. -1.
         21    1    1    2  505  501 -0.57798966223E+02 -0.16617949522E+03  0.52692576222E+02  0.18366505579E+03  0.00000000000E+00 0. -1.
          2    1    1    2  501    0 -0.11449051276E+02  0.12951920769E+03 -0.12063299315E+03  0.17736579425E+03  0.00000000000E+00 0. -1.
<scales pt_clust_3="55.66800" pt_clust_4="86.25210" pt_clust_5="136.62944" pt_clust_6="14000.00000"></scales>
<clustering>
<clus scale="   55.668">  1  3  2 -1</clus>
<clus scale="   86.252">  1  4  2 -1</clus>
<clus scale="  136.629">  1  5  2 -1</clus>
<clus scale="   55.668">  1  3  2 -1</clus>
</clustering>
</event>
<event>
 6    0  0.2117869E+002  0.1236131E+03  0.7546771E-02  0.1237253E+00
         21   -1    0    0  505  502  0.00000000000E+00  0.00000000000E+00  0.48235596474E+03  0.48235596474E+03  0.00000000000E+00 0. -1.
         -1   -1    0    0    0  501 -0.00000000000E+00 -0.00000000000E+00 -0.12892419830E+04  0.12892419830E+04  0.00000000000E+00 0.  1.
         21    1    1    2  503  504 -0.41313723132E+02 -0.11873886209E+03  0.22988996414E+03  0.26202125238E+03  0.00000000000E+00 0. -1.
         21    1    1    2  504  502  0.40405980563E+02 -0.64859007101E+01  0.22980013276E+03  0.23341553331E+03  0.00000000000E+00 0. -1.
         21    1    1    2  505  501 -0.66893724928E+00  0.36429495017E+02 -0.82169280246E+03  0.82250022322E+03  0.00000000000E+00 0. -1.
         -1    1    1    2    0  503  0.15766798187E+01  0.88795267779E+02 -0.44488331270E+03  0.45366093882E+03  0.00000000000E+00 0.  1.
<scales pt_clust_3="14000.00000" pt_clust_4="40.89856" pt_clust_5="36.43564" pt_clust_6="123.61311"></scales>
<clustering>
<clus scale="   36.436">  2  5  1 -1</clus>
<clus scale="   40.899">  1  4  2 -1</clus>
<clus scale="  123.613">  2  6  1 -1</clus>
<clus scale="   40.899">  1  3  2 -1</clus>
</clustering>
</event>
<event>
 6    0  0.2117869E+002  0.8769631E+02  0.7546771E-02  0.1308528E+00
          2   -1    0    0  503    0 -0.00000000000E+00  0.00000000000E+00  0.11656093987E+04  0.11656093987E+04  0.00000000000E+00 0. -1.
         21   -1    0    0  505  502  0.00000000000E+00 -0.00000000000E+00 -0.25915708914E+02  0.25915708914E+02  0.00000000000E+00 0. -1.
         21    1    1    2  503  504  0.83593314119E+01  0.63105545834E+02  0.28320106599E+03  0.29026717367E+03  0.00000000000E+00 0. -1.
         21    1    1    2  504  502 -0.68500795567E+01  0.54417748146E+02  0.56759752139E+02  0.78929616534E+02  0.00000000000E+00 0. -1.
         21    1    1    2  505  501  0.42312945537E+02  0.46744099191E-01  0.69294699543E+02  0.81192012722E+02  0.00000000000E+00 0. -1.
          2    1    1    2  501    0 -0.43822197392E+02 -0.11757003808E+03  0.73043817216E+03  0.74113630472E+03  0.00000000000E+00 0. -1.
<scales pt_clust_3="14000.00000" pt_clust_4="56.92996" pt_clust_5="42.31297" pt_clust_6="87.69631"></scales>
<clustering>
<clus scale="   42.313">  2  5  1 -1</clus>
<clus scale="   56.930">  2  4  1 -1</clus>
<clus scale="   87.696">  2  6  1 -1</clus>
<clus scale="   42.313">  2  3  1 -1</clus>
</clustering>
</event>
<event>
 6    0  0.2117869E+002  0.1294032E+03  0.7546771E-02  0.1228344E+00
         -1   -1    0    0    0  501 -0.00000000000E+00  0.00000000000E+00  0.22754047116E+03  0.22754047116E+03  0.00000000000E+00 0.  1.
         21   -1    0    0  505  502  0.00000000000E+00 -0.00000000000E+00 -0.57538228987E+03  0.57538228987E+03  0.00000000000E+00 0.  1.
         21    1    1    2  503  502  0.12735550205E+03 -0.71327184417E+02 -0.12887116378E+03  0.19471714869E+03  0.00000000000E+00 0.  1.
         21    1    1    2  504  501  0.22641938928E+02  0.57467953686E+02  0.67836285963E+02  0.91744126747E+02  0.00000000000E+00 0.  1.
         21    1    1    2  505  504 -0.89400801060E+01  0.35655444703E+02 -0.35596497425E+03  0.35785793084E+03  0.00000000000E+00 0.  1.
         -1    1    1    2    0  503 -0.14105736088E+03 -0.21796213972E+02  0.69158033368E+02  0.15860355475E+03  0.00000000000E+00 0.  1.
<scales pt_clust_3="14000.00000" pt_clust_4="63.41411" pt_clust_5="36.75916" pt_clust_6="129.40322"></scales>
<clustering>
<clus scale="   36.759">  2  5  1 -1</clus>
<clus scale="   63.414">  1  4  2 -1</clus>
<clus scale="  129.403">  1  6  2 -1</clus>
<clus scale="   36.759">  2  3  1 -1</clus>
</clustering>
</event>
<event>
 6    0  0.2117869E+002  0.1279267E+03  0.7546771E-02  0.1230565E+00
         21   -1    0    0  503  502  0.00000000000E+00  0.00000000000E+00  0.74255326099E+02  0.74255326099E+02  0.00000000000E+00 0. -1.
          2   -1    0    0  504    0 -0.00000000000E+00 -0.00000000000E+00 -0.34198609236E+04  0.34198609236E+04  0.00000000000E+00 0.  1.
         21    1    1    2  503  501 -0.24016947076E+02  0.10932830735E+03 -0.27062876786E+03  0.29286417078E+03  0.00000000000E+00 0.  1.
         21    1    1    2  504  505  0.33361733148E+02 -0.98295042491E+01 -0.30488632704E+03  0.30686364530E+03  0.00000000000E+00 0.  1.
         21    1    1    2  505  502 -0.87958414590E+02 -0.11223087165E+03 -0.20982806391E+02  0.14412747626E+03  0.00000000000E+00 0. -1.
          2    1    1    2  501    0  0.78613628518E+02  0.12732068550E+02 -0.27491076962E+04  0.27502609573E+04  0.00000000000E+00 0.  1.
<scales pt_clust_3="127.92673" pt_clust_4="34.77965" pt_clust_5="14000.00000" pt_clust_6="108.14837"></scales>
<clustering>
<clus scale="   34.780">  2  4  1 -1</clus>
<clus scale="  108.148">  2  6  1 -1</clus>
<clus scale="  127.927">  2  3  1 -1</clus>
<clus scale="  127.927">  1  3  2 -1</clus>
</clustering>
</event>
<event>
 6    0  0.2117869E+002  0.1013842E+03  0.7546771E-02  0.1277412E+00
         21   -1    0    0  504  502  0.00000000000E+00  0.00000000000E+00  0.33230172836E+03  0.33230172836E+03  0.00000000000E+00 0.  1.
          1   -1    0    0  503    0 -0.00000000000E+00 -0.00000000000E+00 -0.99836936847E+03  0.99836936847E+03  0.00000000000E+00 0.  1.
         21    1    1    2  503  502  0.38789718495E+02  0.11394381005E+03  0.22531015348E+03  0.25544568771E+03  0.00000000000E+00 0.  1.
         21    1    1    2  504  505  0.13139902681E+02 -0.37247934255E+02  0.84943853116E+02  0.93677765937E+02  0.00000000000E+00 0.  1.
         21    1    1    2  505  501 -0.32464520038E+02 -0.15249213553E+02 -0.41146424975E+03  0.41302459055E+03  0.00000000000E+00 0.  1.
          1    1    1    2  501    0 -0.19465101138E+02 -0.61446662240E+02 -0.56485739696E+03  0.56852305263E+03  0.00000000000E+00 0.  1.
<scales pt_clust_3="92.87566" pt_clust_4="39.49767" pt_clust_5="30.32768" pt_clust_6="30.32768"></scales>
<clustering>
<clus scale="   30.328">  5  6 -1 -1</clus>
<clus scale="   39.498">  1  4  2 -1</clus>
<clus scale="   92.876">  1  3  2 -1</clus>
<clus scale="   39.498">  1  3  2 -1</clus>
</clustering>
</event>
<event>
 6    0  0.2117869E+002  0.1202793E+03  0.7546771E-02  0.1242637E+00
          2   -1    0    0  504    0 -0.00000000000E+00  0.00000000000E+00  0.15165784722E+04  0.15165784722E+04  0.00000000000E+00 0.  1.
         21   -1    0    0  505  502  0.00000000000E+00 -0.00000000000E+00 -0.17583361881E+03  0.17583361881E+03  0.00000000000E+00 0. -1.
         21    1    1    2  503  502 -0.74614340322E+02  0.13714585799E+02  0.21452966382E+02  0.78839199716E+02  0.00000000000E+00 0.  1.
         21    1    1    2  504  503 -0.72293394920E+02 -0.68451854482E+01  0.11525047463E+03  0.13621990829E+03  0.00000000000E+00 0.  1.
         21    1    1    2  505  501  0.15813890042E+02 -0.44825087316E+02 -0.12893006512E+03  0.13741298797E+03  0.00000000000E+00 0. -1.
          2    1    1    2  501    0  0.13109384520E+03  0.37955686965E+02  0.13329714775E+04  0.13399399950E+04  0.00000000000E+00 0.  1.
<scales pt_clust_3="66.05523" pt_clust_4="120.27932" pt_clust_5="47.53281" pt_clust_6="14000.00000"></scales>
<clustering>
<clus scale="   47.533">  2  5  1 -1</clus>
<clus scale="   66.055">  2  3  1 -1</clus>
<clus scale="  120.279">  2  4  1 -1</clus>
<clus scale="   47.533">  2  3  1 -1</clus>
</clustering>
</event>
<event>
 6    0  0.2117869E+002  0.6852939E+02  0.7546771E-02  0.1365167E+00
          1   -1    0    0  504    0 -0.00000000000E+00  0.00000000000E+00  0.34475124995E+03  0.34475124995E+03  0.00000000000E+00 0.  1.
         21   -1    0    0  501  502  0.00000000000E+00 -0.00000000000E+00 -0.57531297305E+03  0.57531297305E+03  0.00000000000E+00 0.  1.
         21    1    1    2  503  505  0.46680081610E+02  0.23231667475E+01 -0.13364029582E+03  0.14157738446E+03  0.00000000000E+00 0.  1.
         21    1    1    2  504  503  0.50781924145E+02  0.65412386176E+01  0.20920882915E+02  0.55310712927E+02  0.00000000000E+00 0.  1.
         21    1    1    2  505  502  0.20588061512E+02 -0.27479261856E+02 -0.40796276592E+03  0.40940517398E+03  0.00000000000E+00 0.  1.
          1    1    1    2  501    0 -0.11805006727E+03  0.18614856491E+02  0.29012045572E+03  0.31377095164E+03  0.00000000000E+00 0.  1.
<scales pt_clust_3="14000.00000" pt_clust_4="53.03607" pt_clust_5="34.33625" pt_clust_6="68.52939"></scales>
<clustering>
<clus scale="   34.336">  2  5  1 -1</clus>
<clus scale="   53.036">  1  4  2 -1</clus>
<clus scale="   68.529">  1  6  2 -1</clus>
<clus scale="   34.336">  2  3  1 -1</clus>
</clustering>
</event>
<event>
 6    0  0.2117869E+002  0.9594849E+02  0.7546771E-02  0.1289054E+00
          2   -1    0    0  505    0 -0.00000000000E+00  0.00000000000E+00  0.43642166053E+04  0.43642166053E+04  0.00000000000E+00 0.  1.
         21   -1    0    0  504  502  0.00000000000E+00 -0.00000000000E+00 -0.92194858297E+02  0.92194858297E+02  0.00000000000E+00 0. -1.
         21    1    1    2  503  502 -0.46336235734E+02 -0.51953849261E+02 -0.69246134280E+02  0.98190001058E+02  0.00000000000E+00 0. -1.
         21    1    1    2  504  501 -0.47115916842E+02  0.28940670262E+02  0.12129695306E+03  0.13330574945E+03  0.00000000000E+00 0.  1.
         21    1    1    2  505  503 -0.33190323647E+01 -0.58135590057E+02  0.61954434273E+03  0.62227482307E+03  0.00000000000E+00 0.  1.
          2    1    1    2  501    0  0.96771184941E+02  0.81148769056E+02  0.36004265855E+04  0.36026408900E+04  0.00000000000E+00 0.  1.
<scales pt_clust_3="14000.00000" pt_clust_4="55.29441" pt_clust_5="57.82027" pt_clust_6="95.94849"></scales>
<clustering>
<clus scale="   55.294">  2  4  1 -1</clus>
<clus scale="   57.820">  1  5  2 -1</clus>
<clus scale="   95.948">  1  6  2 -1</clus>
<clus scale="   55.294">  2  3  1 -1</clus>
</clustering>
</event>
<event>
 6    0  0.2117869E+002  0.1098355E+03  0.7546771E-02  0.1260875E+00
         21   -1    0    0  505  502  0.00000000000E+00  0.00000000000E+00  0.47088128554E+02  0.47088128554E+02  0.00000000000E+00 0. -1.
          2   -1    0    0  503    0 -0.00000000000E+00 -0.00000000000E+00 -0.22305160589E+04  0.22305160589E+04  0.00000000000E+00 0.  1.
         21    1    1    2  503  504  0.31010863622E+02  0.91841067560E+02 -0.47428429021E+02  0.10791622321E+03  0.00000000000E+00 0. -1.
         21    1    1    2  504  502  0.45882157653E+00  0.32889513385E+02 -0.82425739434E+02  0.88746454178E+02  0.00000000000E+00 0. -1.
         21    1    1    2  505  501  0.25321217277E+02 -0.29846690153E+02 -0.19256717090E+02  0.43621211704E+02  0.00000000000E+00 0. -1.
          2    1    1    2  501    0 -0.56790902475E+02 -0.94883890792E+02 -0.20343170448E+04  0.20373202983E+04  0.00000000000E+00 0.  1.
<scales pt_clust_3="109.83554" pt_clust_4="32.89271" pt_clust_5="32.82035" pt_clust_6="14000.00000"></scales>
<clustering>
<clus scale="   32.893">  1  4  2 -1</clus>
<clus scale="   32.820">  1  5  2 -1</clus>
<clus scale="  109.836">  1  3  2 -1</clus>
<clus scale="   32.893">  1  3  2 -1</clus>
</clustering>
</event>
<event>
 6    0  0.2117869E+002  0.8519110E+02  0.7546771E-02  0.1314934E+00
         21   -1    0    0  505  502  0.00000000000E+00  0.00000000000E+00  0.86604107381E+02  0.86604107381E+02  0.00000000000E+00 0.  1.
          2   -1    0    0  504    0 -0.00000000000E+00 -0.00000000000E+00 -0.10047754756E+04  0.10047754756E+04  0.00000000000E+00 0. -1.
         21    1    1    2  503  502  0.70521631591E+02  0.59669967122E+02  0.33617041962E+02  0.98305193194E+02  0.00000000000E+00 0.  1.
         21    1    1    2  504  503 -0.24774323294E+01  0.70341889503E+02 -0.13971173734E+03  0.15644004807E+03  0.00000000000E+00 0.  1.
         21    1    1    2  505  501  0.11231715772E+02 -0.43529774609E+02 -0.57480343511E+02  0.72972478420E+02  0.00000000000E+00 0.  1.
          2    1    1    2  501    0 -0.79275915034E+02 -0.86482082017E+02 -0.75459632934E+03  0.76366186331E+03  0.00000000000E+00 0. -1.
<scales pt_clust_3="85.19110" pt_clust_4="65.73744" pt_clust_5="44.95545" pt_clust_6="14000.00000"></scales>
<clustering>
<clus scale="   44.955">  1  5  2 -1</clus>
<clus scale="   65.737">  2  4  1 -1</clus>
<clus scale="   85.191">  1  3  2 -1</clus>
<clus scale="   44.955">  1  3  2 -1</clus>
</clustering>
</event>
<event>
 6    0  0.2117869E+002  0.2621991E+03  0.7546771E-02  0.1105829E+00
         21   -1    0    0  505  502  0.00000000000E+00  0.00000000000E+00  0.36987012141E+03  0.36987012141E+03  0.00000000000E+00 0. -1.
          1   -1    0    0  503    0 -0.00000000000E+00 -0.00000000000E+00 -0.29325643957E+03  0.29325643957E+03  0.00000000000E+00 0.  1.
         21    1    1    2  503  504  0.72105838112E+02 -0.18013964900E+02  0.47828059911E+02  0.88381435471E+02  0.00000000000E+00 0. -1.
         21    1    1    2  504  502  0.17115065976E+03 -0.12378952550E+02  0.19851839347E+03  0.26240300941E+03  0.00000000000E+00 0. -1.
         21    1    1    2  505  501 -0.69519779182E+02 -0.69780203193E+01 -0.50386099557E+01  0.70050553569E+02  0.00000000000E+00 0. -1.
          1    1    1    2  501    0 -0.17373671869E+03  0.37370937770E+02 -0.16469416158E+03  0.24229156252E+03  0.00000000000E+00 0.  1.
<scales pt_clust_3="31.32592" pt_clust_4="249.72615" pt_clust_5="58.31999" pt_clust_6="58.31999"></scales>
<clustering>
<clus scale="   31.326">  3  4 -1 -1</clus>
<clus scale="   58.320">  5  6 -1 -1</clus>
<clus scale="  249.726">  1  3  2 -1</clus>
<clus scale="  249.726">  1  3  2 -1</clus>
</clustering>
</event>
<event>
 6    0  0.2117869E+002  0.1500648E+03  0.7546771E-02  0.1200393E+00
         21   -1    0    0  503  502  0.00000000000E+00  0.00000000000E+00  0.37474197111E+03  0.37474197111E+03  0.00000000000E+00 0.  1.
          2   -1    0    0  504    0 -0.00000000000E+00 -0.00000000000E+00 -0.17029548710E+04  0.17029548710E+04  0.00000000000E+00 0.  1.
         21    1    1    2  503  505  0.82549254600E+02  0.11850017299E+03  0.27520208100E+03  0.31079391214E+03  0.00000000000E+00 0.  1.
         21    1    1    2  504  502 -0.17248093509E+03 -0.11075360153E+03 -0.52157076351E+02  0.21150979608E+03  0.00000000000E+00 0.  1.
         21    1    1    2  505  501  0.48773613199E+02  0.11181109938E+02 -0.38270332270E+03  0.38596076973E+03  0.00000000000E+00 0.  1.
          2    1    1    2  501    0  0.41158067293E+02 -0.18927681400E+02 -0.11685545819E+04  0.11694323642E+04  0.00000000000E+00 0.  1.
<scales pt_clust_3="150.06478" pt_clust_4="14000.00000" pt_clust_5="78.43620" pt_clust_6="45.30170"></scales>
<clustering>
<clus scale="   45.302">  2  6  1 -1</clus>
<clus scale="   78.436">  2  5  1 -1</clus>
<clus scale="  150.065">  1  3  2 -1</clus>
<clus scale="  150.065">  1  3  2 -1</clus>
</clustering>
</event>
<event>
 6    0  0.2117869E+002  0.7720940E+02  0.7546771E-02  0.1337163E+00
         21   -1    0    0  501  502  0.00000000000E+00  0.00000000000E+00  0.74570370254E+03  0.74570370254E+03  0.00000000000E+00 0. -1.
          3   -1    0    0  503    0 -0.00000000000E+00 -0.00000000000E+00 -0.27409389890E+03  0.27409389890E+03  0.00000000000E+00 0.  1.
         21    1    1    2  503  505 -0.42257539410E+02  0.12280590325E+01 -0.72857210319E+02  0.84234083728E+02  0.00000000000E+00 0.  1.
         21    1    1    2  504  502  0.83400886183E+02 -0.12631935930E+02  0.42824268879E+03  0.43647116070E+03  0.00000000000E+00 0. -1.
         21    1    1    2  505  504 -0.51124556568E+02  0.61684065614E+02  0.29885320654E+03  0.30940569370E+03  0.00000000000E+00 0.  1.
          3    1    1    2  501    0  0.99812097949E+01 -0.50280188717E+02 -0.18262888137E+03  0.18968666331E+03  0.00000000000E+00 0.  1.
<scales pt_clust_3="42.27538" pt_clust_4="77.20940" pt_clust_5="14000.00000" pt_clust_6="57.67829"></scales>
<clustering>
<clus scale="   42.275">  2  3  1 -1</clus>
<clus scale="   57.678">  2  6  1 -1</clus>
<clus scale="   77.209">  1  4  2 -1</clus>
<clus scale="   77.209">  1  3  2 -1</clus>
</clustering>
</event>
<event>
 6    0  0.2117869E+002  0.1435675E+03  0.7546771E-02  0.1208608E+00
         21   -1    0    0  504  502  0.00000000000E+00  0.00000000000E+00  0.17783042725E+03  0.17783042725E+03  0.00000000000E+00 0. -1.
         -2   -1    0    0    0  501 -0.00000000000E+00 -0.00000000000E+00 -0.59590372881E+03  0.59590372881E+03  0.00000000000E+00 0. -1.
         21    1    1    2  503  502 -0.13812457128E+03  0.40135076035E+02  0.12024979216E+03  0.18748128983E+03  0.00000000000E+00 0. -1.
         21    1    1    2  504  505  0.17122879965E+02 -0.43139017483E+02 -0.87541568545E+02  0.99084277618E+02  0.00000000000E+00 0. -1.
         21    1    1    2  505  501 -0.16007752853E+02  0.34086851324E+02 -0.50835219993E+02  0.63264375255E+02  0.00000000000E+00 0. -1.
         -2    1    1    2    0  503  0.13700944417E+03 -0.31082909877E+02 -0.39994630518E+03  0.42390421337E+03  0.00000000000E+00 0. -1.
<scales pt_clust_3="14000.00000" pt_clust_4="39.90592" pt_clust_5="37.65849" pt_clust_6="143.56751"></scales>
<clustering>
<clus scale="   37.658">  2  5  1 -1</clus>
<clus scale="   39.906">  2  4  1 -1</clus>
<clus scale="  143.568">  2  6  1 -1</clus>
<clus scale="  143.568">  1  3  2 -1</clus>
</clustering>
</event>
<event>
 6    0  0.2117869E+002  0.2929718E+03  0.7546771E-02  0.1088808E+00
          2   -1    0    0  503    0 -0.00000000000E+00  0.00000000000E+00  0.16004748018E+04  0.16004748018E+04  0.00000000000E+00 0. -1.
         21   -1    0    0  501  502  0.00000000000E+00 -0.00000000000E+00 -0.11887487796E+03  0.11887487796E+03  0.00000000000E+00 0. -1.
         21    1    1    2  503  505  0.23141614647E+02  0.19377831073E+02  0.50319957076E+03  0.50410399986E+03  0.00000000000E+00 0. -1.
         21    1    1    2  504  502  0.14533068897E+03 -0.72176303721E+02  0.44037069749E+02  0.16813593158E+03  0.00000000000E+00 0. -1.
         21    1    1    2  505  504  0.11404626881E+03 -0.43178156639E+02  0.89953694560E+02  0.15153406154E+03  0.00000000000E+00 0. -1.
          2    1    1    2  501    0 -0.28251857243E+03  0.95976629288E+02  0.84440958873E+03  0.89557568674E+03  0.00000000000E+00 0. -1.
<scales pt_clust_3="30.18335" pt_clust_4="52.55353" pt_clust_5="52.55353" pt_clust_6="286.67078"></scales>
<clustering>
<clus scale="   30.183">  1  3  2 -1</clus>
<clus scale="   52.554">  4  5 -1 -1</clus>
<clus scale="  286.671">  1  6  2 -1</clus>
<clus scale="  292.972">  2  3  1 -1</clus>
</clustering>
</event>
<event>
 6    0  0.2117869E+002  0.1159915E+03  0.7546771E-02  0.1249860E+00
         21   -1    0    0  504  502  0.00000000000E+00  0.00000000000E+00  0.15203877851E+03  0.15203877851E+03  0.00000000000E+00 0.  1.
          4   -1    0    0  505    0 -0.00000000000E+00 -0.00000000000E+00 -0.23628569979E+04  0.23628569979E+04  0.00000000000E+00 0. -1.
         21    1    1    2  503  502 -0.51909767841E+02 -0.30429364208E+02  0.10207639558E+03  0.11849118422E+03  0.00000000000E+00 0.  1.
         21    1    1    2  504  501 -0.24599682217E+02  0.46343867245E+02 -0.14004695724E+02  0.54304971215E+02  0.00000000000E+00 0.  1.
         21    1    1    2  505  503  0.94729735731E+02  0.98769350465E+02 -0.21425379325E+03  0.25423177485E+03  0.00000000000E+00 0.  1.
          4    1    1    2  501    0 -0.18220285673E+02 -0.11468385350E+03 -0.20846361260E+04  0.20878678461E+04  0.00000000000E+00 0. -1.
<scales pt_clust_3="72.95604" pt_clust_4="52.46807" pt_clust_5="115.99155" pt_clust_6="14000.00000"></scales>
<clustering>
<clus scale="   52.468">  1  4  2 -1</clus>
<clus scale="   72.956">  1  3  2 -1</clus>
<clus scale="  115.992">  1  5  2 -1</clus>
<clus scale="   52.468">  1  3  2 -1</clus>
</clustering>
</event>
<event>
 6    0  0.2117869E+002  0.5651731E+02  0.7546771E-02  0.1413057E+00
          2   -1    0    0  503    0 -0.00000000000E+00  0.00000000000E+00  0.21104380400E+04  0.21104380400E+04  0.00000000000E+00 0.  1.
         21   -1    0    0  504  502  0.00000000000E+00 -0.00000000000E+00 -0.55682974989E+03  0.55682974989E+03  0.00000000000E+00 0. -1.
         21    1    1    2  503  505 -0.99609209549E+01 -0.39996530493E+02  0.28662768626E+03  0.28957619538E+03  0.00000000000E+00 0.  1.
         21    1    1    2  504  501  0.33437724613E+02  0.38735800943E+02 -0.30602885306E+02  0.59624494053E+02  0.00000000000E+00 0. -1.
         21    1    1    2  505  502 -0.80021948944E+02 -0.69773267723E+02 -0.50356318582E+03  0.51463356217E+03  0.00000000000E+00 0. -1.
          2    1    1    2  501    0  0.56545145285E+02  0.71033997274E+02  0.18011466750E+04  0.18034335383E+04  0.00000000000E+00 0.  1.
<scales pt_clust_3="41.21823" pt_clust_4="50.87901" pt_clust_5="56.51731" pt_clust_6="14000.00000"></scales>
<clustering>
<clus scale="   41.218">  1  3  2 -1</clus>
<clus scale="   50.879">  2  4  1 -1</clus>
<clus scale="   56.517">  2  5  1 -1</clus>
<clus scale="   50.879">  2  3  1 -1</clus>
</clustering>
</event>
<event>
 6    0  0.2117869E+002  0.1256082E+03  0.7546771E-02  0.1234122E+00
          1   -1    0    0  503    0 -0.00000000000E+00  0.00000000000E+00  0.53707114777E+03  0.53707114777E+03  0.00000000000E+00 0. -1.
         21   -1    0    0  505  502  0.00000000000E+00 -0.00000000000E+00 -0.25772179349E+03  0.25772179349E+03  0.00000000000E+00 0. -1.
         21    1    1    2  503  504 -0.62166490191E+02  0.94420890048E+01  0.76899942644E+02  0.99334921987E+02  0.00000000000E+00 0. -1.
         21    1    1    2  504  502 -0.10589983468E+03  0.22193805923E+02 -0.38247207937E+02  0.11476144354E+03  0.00000000000E+00 0. -1.
         21    1    1    2  505  501  0.28657463620E+00  0.44202332707E+02 -0.14592350683E+03  0.15247163076E+03  0.00000000000E+00 0. -1.
          1    1    1    2  501    0  0.16777975024E+03 -0.75838227635E+02  0.38662012640E+03  0.42822494498E+03  0.00000000000E+00 0. -1.
<scales pt_clust_3="63.69693" pt_clust_4="125.60818" pt_clust_5="44.20326" pt_clust_6="14000.00000"></scales>
<clustering>
<clus scale="   44.203">  2  5  1 -1</clus>
<clus scale="   63.697">  1  3  2 -1</clus>
<clus scale="  125.608">  2  4  1 -1</clus>
<clus scale="   44.203">  2  3  1 -1</clus>
</clustering>
</event>
<event>
 6    0  0.2117869E+002  0.8126535E+02  0.7546771E-02  0.1325498E+00
          1   -1    0    0  503    0 -0.00000000000E+00  0.00000000000E+00  0.25620401170E+04  0.25620401170E+04  0.00000000000E+00 0.  1.
         21   -1    0    0  505  502  0.00000000000E+00 -0.00000000000E+00 -0.85555403134E+02  0.85555403134E+02  0.00000000000E+00 0.  1.
         21    1    1    2  503  502 -0.24894452381E+02 -0.59374466467E+02  0.21547809118E+03  0.22489079307E+03  0.00000000000E+00 0. -1.
         21    1    1    2  504  501  0.10966619189E+03  0.39886048692E+02  0.32145472367E+03  0.34198056946E+03  0.00000000000E+00 0.  1.
         21    1    1    2  505  504 -0.56075066254E+02  0.59308707695E+02 -0.46586080467E+02  0.93979778447E+02  0.00000000000E+00 0.  1.
          1    1    1    2  501    0 -0.28696673258E+02 -0.39820289920E+02  0.19861379795E+04  0.19867443792E+04  0.00000000000E+00 0.  1.
<scales pt_clust_3="14000.00000" pt_clust_4="79.52965" pt_clust_5="81.26535" pt_clust_6="49.08314"></scales>
<clustering>
<clus scale="   49.083">  1  6  2 -1</clus>
<clus scale="   81.265">  2  5  1 -1</clus>
<clus scale="   79.530">  1  4  2 -1</clus>
<clus scale="   81.265">  2  3  1 -1</clus>
</clustering>
</event>
<event>
 6    0  0.2117869E+002  0.7625534E+02  0.7546771E-02  0.1340027E+00
          2   -1    0    0  504    0 -0.00000000000E+00  0.00000000000E+00  0.11675920108E+04  0.11675920108E+04  0.00000000000E+00 0.  1.
         21   -1    0    0  501  502  0.00000000000E+00 -0.00000000000E+00 -0.11031152345E+03  0.11031152345E+03  0.00000000000E+00 0. -1.
         21    1    1    2  503  505 -0.41877866660E+02  0.66558319626E+02  0.14955869884E+02  0.80046509426E+02  0.00000000000E+00 0. -1.
         21    1    1    2  504  503 -0.34767033503E+02  0.11585979980E+02  0.13301737956E+03  0.13797320325E+03  0.00000000000E+00 0.  1.
         21    1    1    2  505  502  0.64805286975E+02  0.87250069084E+01 -0.58725328811E+02  0.87889221236E+02  0.00000000000E+00 0. -1.
          2    1    1    2  501    0  0.11839613189E+02 -0.86869306514E+02  0.96803256675E+03  0.97199460037E+03  0.00000000000E+00 0.  1.
<scales pt_clust_3="76.25534" pt_clust_4="36.64671" pt_clust_5="64.92542" pt_clust_6="14000.00000"></scales>
<clustering>
<clus scale="   36.647">  1  4  2 -1</clus>
<clus scale="   64.925">  2  5  1 -1</clus>
<clus scale="   76.255">  2  3  1 -1</clus>
<clus scale="   64.925">  2  3  1 -1</clus>
</clustering>
</event>
<event>
 6    0  0.2117869E+002  0.1105503E+03  0.7546771E-02  0.1259554E+00
          2   -1    0    0  503    0 -0.00000000000E+00  0.00000000000E+00  0.16333719129E+04  0.16333719129E+04  0.00000000000E+00 0.  1.
         21   -1    0    0  505  502  0.00000000000E+00 -0.00000000000E+00 -0.11113019605E+03  0.11113019605E+03  0.00000000000E+00 0. -1.
         21    1    1    2  503  504 -0.49434295133E+02  0.58415852706E+02  0.55329466447E+03  0.55856167709E+03  0.00000000000E+00 0. -1.
         21    1    1    2  504  502  0.23857089650E+02 -0.84206516883E+02 -0.57537306736E+02  0.10473986766E+03  0.00000000000E+00 0. -1.
         21    1    1    2  505  501  0.46004862544E+02 -0.84305334279E+01 -0.66994825648E+01  0.47248326301E+02  0.00000000000E+00 0. -1.
          2    1    1    2  501    0 -0.20427657061E+02  0.34221197604E+02  0.10331838417E+04  0.10339522379E+04  0.00000000000E+00 0.  1.
<scales pt_clust_3="14000.00000" pt_clust_4="110.55030" pt_clust_5="45.89445" pt_clust_6="39.85448"></scales>
<clustering>
<clus scale="   39.854">  1  6  2 -1</clus>
<clus scale="   45.894">  2  5  1 -1</clus>
<clus scale="  110.550">  2  4  1 -1</clus>
<clus scale="   45.894">  2  3  1 -1</clus>
</clustering>
</event>
<event>
 6    0  0.2117869E+002  0.9636356E+02  0.7546771E-02  0.1288134E+00
          4   -1    0    0  504    0 -0.00000000000E+00  0.00000000000E+00  0.10217820687E+04  0.10217820687E+04  0.00000000000E+00 0.  1.
         21   -1    0    0  503  502  0.00000000000E+00 -0.00000000000E+00 -0.11396539723E+04  0.11396539723E+04  0.00000000000E+00 0. -1.
         21    1    1    2  503  501  0.14114587469E+02 -0.51994236326E+02 -0.19085328828E+03  0.19831187518E+03  0.00000000000E+00 0. -1.
         21    1    1    2  504  505  0.54582895142E+02  0.32104716727E+02  0.39151882107E+02  0.74450487915E+02  0.00000000000E+00 0. -1.
         21    1    1    2  505  502  0.70927530901E+01 -0.40693878557E+02 -0.92451123421E+03  0.92543358545E+03  0.00000000000E+00 0. -1.
          4    1    1    2  501    0 -0.75790235701E+02  0.60583398156E+02  0.95834073680E+03  0.96324009249E+03  0.00000000000E+00 0.  1.
<scales pt_clust_3="14000.00000" pt_clust_4="62.21238" pt_clust_5="41.30737" pt_clust_6="96.36356"></scales>
<clustering>
<clus scale="   41.307">  2  5  1 -1</clus>
<clus scale="   62.212">  2  4  1 -1</clus>
<clus scale="   96.364">  1  6  2 -1</clus>
<clus scale="   41.307">  2  3  1 -1</clus>
</clustering>
</event>
<event>
 6    0  0.2117869E+002  0.6235803E+02  0.7546771E-02  0.1388194E+00
         21   -1    0    0  503  502  0.00000000000E+00  0.00000000000E+00  0.13827396416E+03  0.13827396416E+03  0.00000000000E+00 0. -1.
          2   -1    0    0  504    0 -0.00000000000E+00 -0.00000000000E+00 -0.17290878760E+04  0.17290878760E+04  0.00000000000E+00 0. -1.
         21    1    1    2  503  501 -0.77701763743E+02 -0.31707730261E+02  0.77611648312E+02  0.11430884568E+03  0.00000000000E+00 0. -1.
         21    1    1    2  504  505 -0.54272899031E+02  0.22199698557E+02 -0.12119484954E+04  0.12133661977E+04  0.00000000000E+00 0. -1.
         21    1    1    2  505  502  0.41088631475E+02  0.67891244244E+01  0.25749114278E+02  0.48963095624E+02  0.00000000000E+00 0.  1.
          2    1    1    2  501    0  0.90886031299E+02  0.27189072798E+01 -0.48222617904E+03  0.49072370117E+03  0.00000000000E+00 0. -1.
<scales pt_clust_3="46.15270" pt_clust_4="14000.00000" pt_clust_5="41.64574" pt_clust_6="62.35803"></scales>
<clustering>
<clus scale="   41.646">  1  5  2 -1</clus>
<clus scale="   46.153">  1  3  2 -1</clus>
<clus scale="   62.358">  1  6  2 -1</clus>
<clus scale="   41.646">  1  3  2 -1</clus>
</clustering>
</event>
<event>
 6    0  0.2117869E+002  0.1664780E+03  0.7546771E-02  0.1181571E+00
          2   -1    0    0  503    0 -0.00000000000E+00  0.00000000000E+00  0.32821049943E+04  0.32821049943E+04  0.00000000000E+00 0. -1.
         21   -1    0    0  505  502  0.00000000000E+00 -0.00000000000E+00 -0.47860126769E+03  0.47860126769E+03  0.00000000000E+00 0.  1.
         21    1    1    2  503  504  0.13812012125E+03  0.45411512585E+02  0.40526168443E+03  0.43055360437E+03  0.00000000000E+00 0.  1.
         21    1    1    2  504  502  0.51576132814E+02 -0.94260756320E+02 -0.35044356965E+03  0.36654588140E+03  0.00000000000E+00 0.  1.
         21    1    1    2  505  501  0.72412858897E+02 -0.20506210183E+02 -0.86973450068E+02  0.11501525032E+03  0.00000000000E+00 0.  1.
          2    1    1    2  501    0 -0.26210911297E+03  0.69355453918E+02  0.28356590619E+04  0.28485915259E+04  0.00000000000E+00 0. -1.
<scales pt_clust_3="147.48987" pt_clust_4="14000.00000" pt_clust_5="75.26039" pt_clust_6="166.47798"></scales>
<clustering>
<clus scale="   75.260">  2  5  1 -1</clus>
<clus scale="  147.490">  1  3  2 -1</clus>
<clus scale="  166.478">  1  6  2 -1</clus>
<clus scale="   75.260">  2  3  1 -1</clus>
</clustering>
</event>
<event>
 6    0  0.2117869E+002  0.1145361E+03  0.7546771E-02  0.1252393E+00
         21   -1    0    0  504  502  0.00000000000E+00  0.00000000000E+00  0.45051468645E+03  0.45051468645E+03  0.00000000000E+00 0.  1.
          2   -1    0    0  505    0 -0.00000000000E+00 -0.00000000000E+00 -0.15988242751E+04  0.15988242751E+04  0.00000000000E+00 0. -1.
         21    1    1    2  503  502  0.30838271236E+02 -0.35004134965E+00  0.43828614530E+02  0.53591687353E+02  0.00000000000E+00 0. -1.
         21    1    1    2  504  501  0.21085215512E+02  0.33985658321E+02  0.38648755918E+03  0.38855146980E+03  0.00000000000E+00 0.  1.
         21    1    1    2  505  503  0.51134908466E+02  0.38753237297E+02 -0.76693030447E+02  0.99992065605E+02  0.00000000000E+00 0. -1.
          2    1    1    2  501    0 -0.10305839521E+03 -0.72388854268E+02 -0.15019327319E+04  0.15072037388E+04  0.00000000000E+00 0. -1.
<scales pt_clust_3="30.84026" pt_clust_4="60.95562" pt_clust_5="114.53609" pt_clust_6="14000.00000"></scales>
<clustering>
<clus scale="   30.840">  1  3  2 -1</clus>
<clus scale="   60.956">  1  4  2 -1</clus>
<clus scale="  114.536">  1  5  2 -1</clus>
<clus scale="   30.840">  1  3  2 -1</clus>
</clustering>
</event>
<event>
 6    0  0.2117869E+002  0.1578586E+03  0.7546771E-02  0.1191136E+00
          1   -1    0    0  504    0 -0.00000000000E+00  0.00000000000E+00  0.11306955501E+04  0.11306955501E+04  0.00000000000E+00 0.  1.
         21   -1    0    0  501  502  0.00000000000E+00 -0.00000000000E+00 -0.17601156061E+03  0.17601156061E+03  0.00000000000E+00 0.  1.
         21    1    1    2  503  505  0.11173382385E+03  0.17964202045E+02  0.12832700471E+03  0.17109932812E+03  0.00000000000E+00 0.  1.
         21    1    1    2  504  503 -0.92482498555E+00 -0.40574450264E+02  0.13195439507E+03  0.13805471269E+03  0.00000000000E+00 0.  1.
         21    1    1    2  505  502 -0.42277563276E+01 -0.15666141757E+03 -0.93515752513E+02  0.18249895794E+03  0.00000000000E+00 0.  1.
          1    1    1    2  501    0 -0.10658124253E+03  0.17927166579E+03  0.78791834224E+03  0.81505411198E+03  0.00000000000E+00 0.  1.
<scales pt_clust_3="112.22358" pt_clust_4="40.58499" pt_clust_5="157.85864" pt_clust_6="14000.00000"></scales>
<clustering>
<clus scale="   40.585">  1  4  2 -1</clus>
<clus scale="  112.224">  1  3  2 -1</clus>
<clus scale="  157.859">  2  5  1 -1</clus>
<clus scale="  157.859">  2  3  1 -1</clus>
</clustering>
</event>
<event>
 6    0  0.2117869E+002  0.9421000E+02  0.7546771E-02  0.1292965E+00
         21   -1    0    0  505  502  0.00000000000E+00  0.00000000000E+00  0.82598946793E+03  0.82598946793E+03  0.00000000000E+00 0. -1.
          2   -1    0    0  503    0 -0.00000000000E+00 -0.00000000000E+00 -0.84556656643E+03  0.84556656643E+03  0.00000000000E+00 0. -1.
         21    1    1    2  503  504  0.11107736214E+02 -0.75760860103E+02  0.30492033752E+03  0.31438750287E+03  0.00000000000E+00 0. -1.
         21    1    1    2  504  502  0.38024520197E+02  0.49768233701E+02  0.48868162204E+03  0.49267887000E+03  0.00000000000E+00 0. -1.
         21    1    1    2  505  501  0.19354528119E+02 -0.39133378081E+02  0.21409360459E+01  0.43710440926E+02  0.00000000000E+00 0. -1.
          2    1    1    2  501    0 -0.68486784530E+02  0.65126004483E+02 -0.81531999411E+03  0.82077922056E+03  0.00000000000E+00 0. -1.
<scales pt_clust_3="14000.00000" pt_clust_4="56.15744" pt_clust_5="43.65798" pt_clust_6="94.21000"></scales>
<clustering>
<clus scale="   43.658">  1  5  2 -1</clus>
<clus scale="   56.157">  1  4  2 -1</clus>
<clus scale="   94.210">  2  6  1 -1</clus>
<clus scale="   43.658">  1  3  2 -1</clus>
</clustering>
</event>
<event>
 6    0  0.2117869E+002  0.6552849E+02  0.7546771E-02  0.1375994E+00
          2   -1    0    0  504    0 -0.00000000000E+00  0.00000000000E+00  0.38633797982E+04  0.38633797982E+04  0.00000000000E+00 0. -1.
         21   -1    0    0  505  502  0.00000000000E+00 -0.00000000000E+00 -0.32987226038E+02  0.32987226038E+02  0.00000000000E+00 0. -1.
         21    1    1    2  503  502  0.40902389846E+02 -0.17409814805E+02  0.17009327365E+02  0.47596474282E+02  0.00000000000E+00 0. -1.
         21    1    1    2  504  503  0.42086218479E+02  0.19525236288E+02  0.12416352899E+04  0.12425017818E+04  0.00000000000E+00 0.  1.
         21    1    1    2  505  501  0.18755498847E+02  0.45788786672E+02  0.22185068405E+02  0.54226921193E+02  0.00000000000E+00 0. -1.
          2    1    1    2  501    0 -0.10174410717E+03 -0.47904208155E+02  0.25495628865E+04  0.25520418470E+04  0.00000000000E+00 0. -1.
<scales pt_clust_3="44.45343" pt_clust_4="47.13092" pt_clust_5="14000.00000" pt_clust_6="65.52849"></scales>
<clustering>
<clus scale="   44.453">  2  3  1 -1</clus>
<clus scale="   47.131">  1  4  2 -1</clus>
<clus scale="   65.528">  1  6  2 -1</clus>
<clus scale="   44.453">  2  3  1 -1</clus>
</clustering>
</event>
<event>
 6    0  0.2117869E+002  0.1032920E+03  0.7546771E-02  0.1273522E+00
         21   -1    0    0  503  502  0.00000000000E+00  0.00000000000E+00  0.19632030965E+03  0.19632030965E+03  0.00000000000E+00 0.  1.
          2   -1    0    0  505    0 -0.00000000000E+00 -0.00000000000E+00 -0.69110428078E+03  0.69110428078E+03  0.00000000000E+00 0. -1.
         21    1    1    2  503  501 -0.45434515915E+02 -0.34083494775E+01  0.11100229858E+03  0.11998925940E+03  0.00000000000E+00 0.  1.
         21    1    1    2  504  502 -0.35486376455E+02  0.81638554178E+02  0.35098972260E+02  0.95687377933E+02  0.00000000000E+00 0.  1.
         21    1    1    2  505  504 -0.27487254295E+02 -0.55511483267E+02 -0.42108367056E+03  0.42561547380E+03  0.00000000000E+00 0. -1.
          2    1    1    2  501    0  0.10840814666E+03 -0.22718721433E+02 -0.21980157141E+03  0.24613247929E+03  0.00000000000E+00 0. -1.
<scales pt_clust_3="45.56218" pt_clust_4="103.29196" pt_clust_5="62.60461" pt_clust_6="14000.00000"></scales>
<clustering>
<clus scale="   45.562">  1  3  2 -1</clus>
<clus scale="   62.605">  2  5  1 -1</clus>
<clus scale="  103.292">  1  4  2 -1</clus>
<clus scale="   45.562">  1  3  2 -1</clus>
</clustering>
</event>
<event>
 6    0  0.2117869E+002  0.8475390E+02  0.7546771E-02  0.1316077E+00
          2   -1    0    0  505    0 -0.00000000000E+00  0.00000000000E+00  0.78392689593E+03  0.78392689593E+03  0.00000000000E+00 0.  1.
         21   -1    0    0  504  502  0.00000000000E+00 -0.00000000000E+00 -0.92201669345E+03  0.92201669345E+03  0.00000000000E+00 0.  1.
         21    1    1    2  503  502 -0.34946525316E+02  0.36346033651E+02 -0.81094442442E+01  0.51069138232E+02  0.00000000000E+00 0. -1.
         21    1    1    2  504  501  0.78113388899E+02  0.36370465136E+02 -0.88431516074E+03  0.88850313211E+03  0.00000000000E+00 0.  1.
         21    1    1    2  505  503 -0.21204938435E+02  0.21799037926E+02  0.90279001780E+02  0.95263558777E+02  0.00000000000E+00 0.  1.
          2    1    1    2  501    0 -0.21961925148E+02 -0.94515536712E+02  0.66405580568E+03  0.67110776027E+03  0.00000000000E+00 0.  1.
<scales pt_clust_3="51.36628" pt_clust_4="84.75390" pt_clust_5="30.41130" pt_clust_6="14000.00000"></scales>
<clustering>
<clus scale="   30.411">  1  5  2 -1</clus>
<clus scale="   51.366">  2  3  1 -1</clus>
<clus scale="   84.754">  2  4  1 -1</clus>
<clus scale="   51.366">  2  3  1 -1</clus>
</clustering>
</event>
<event>
 6    0  0.2117869E+002  0.1347495E+03  0.7546771E-02  0.1220574E+00
         21   -1    0    0  505  502  0.00000000000E+00  0.00000000000E+00  0.93199201080E+02  0.93199201080E+02  0.00000000000E+00 0. -1.
          2   -1    0    0  503    0 -0.00000000000E+00 -0.00000000000E+00 -0.18800590323E+04  0.18800590323E+04  0.00000000000E+00 0.  1.
         21    1    1    2  503  504  0.29983442433E+02 -0.25385823515E+02 -0.20886668474E+03  0.21252938349E+03  0.00000000000E+00 0. -1.
         21    1    1    2  504  502 -0.51467055963E+02  0.12806107477E+03 -0.81585640189E+01  0.13825722002E+03  0.00000000000E+00 0. -1.
         21    1    1    2  505  501  0.13291483436E+03 -0.71492307963E+02 -0.21487948590E+03  0.26258464683E+03  0.00000000000E+00 0. -1.
          2    1    1    2  501    0 -0.11143122083E+03 -0.31182943290E+02 -0.13549550965E+04  0.13598869830E+04  0.00000000000E+00 0.  1.
<scales pt_clust_3="39.28673" pt_clust_4="14000.00000" pt_clust_5="134.74945" pt_clust_6="101.30963"></scales>
<clustering>
<clus scale="   39.287">  2  3  1 -1</clus>
<clus scale="  101.310">  2  6  1 -1</clus>
<clus scale="  134.749">  2  5  1 -1</clus>
<clus scale="  134.749">  1  3  2 -1</clus>
</clustering>
</event>
<event>
 6    0  0.2117869E+002  0.8041166E+02  0.7546771E-02  0.1327887E+00
          1   -1    0    0  505    0 -0.00000000000E+00  0.00000000000E+00  0.11140713843E+04  0.11140713843E+04  0.00000000000E+00 0.  1.
         21   -1    0    0  503  502  0.00000000000E+00 -0.00000000000E+00 -0.68636169316E+03  0.68636169316E+03  0.00000000000E+00 0.  1.
         21    1    1    2  503  501  0.78841827407E+02  0.64412690849E+02 -0.78055279137E+02  0.12828739257E+03  0.00000000000E+00 0.  1.
         21    1    1    2  504  502 -0.45305378089E+02  0.40972730046E+01 -0.56511586656E+03  0.56694383105E+03  0.00000000000E+00 0.  1.
         21    1    1    2  505  504  0.53165900042E+02  0.61180293558E+02  0.14365075663E+03  0.16493993188E+03  0.00000000000E+00 0.  1.
          1    1    1    2  501    0 -0.86702349359E+02 -0.12969025741E+03  0.92723008021E+03  0.94026192196E+03  0.00000000000E+00 0.  1.
<scales pt_clust_3="80.41166" pt_clust_4="45.49027" pt_clust_5="78.76570" pt_clust_6="14000.00000"></scales>
<clustering>
<clus scale="   45.490">  2  4  1 -1</clus>
<clus scale="   78.766">  1  5  2 -1</clus>
<clus scale="   80.412">  2  3  1 -1</clus>
<clus scale="   45.490">  2  3  1 -1</clus>
</clustering>
</event>
<event>
 6    0  0.2117869E+002  0.1760200E+03  0.7546771E-02  0.1171711E+00
         21   -1    0    0  501  502  0.00000000000E+00  0.00000000000E+00  0.25107136799E+03  0.25107136799E+03  0.00000000000E+00 0. -1.
          2   -1    0    0  504    0 -0.00000000000E+00 -0.00000000000E+00 -0.56045683443E+03  0.56045683443E+03  0.00000000000E+00 0.  1.
         21    1    1    2  503  505  0.71381680473E+02 -0.14890082016E+03 -0.18491528756E+03  0.24791220649E+03  0.00000000000E+00 0.  1.
         21    1    1    2  504  503  0.29704835051E+02 -0.57989189805E+01 -0.14341038234E+03  0.14656924115E+03  0.00000000000E+00 0.  1.
         21    1    1    2  505  502 -0.49558534145E+02  0.17119748997E+03  0.17627192584E+03  0.25067193843E+03  0.00000000000E+00 0. -1.
          2    1    1    2  501    0 -0.51527981379E+02 -0.16497750828E+02 -0.15733172238E+03  0.16637481635E+03  0.00000000000E+00 0.  1.
<scales pt_clust_3="14000.00000" pt_clust_4="30.26557" pt_clust_5="176.02004" pt_clust_6="44.13945"></scales>
<clustering>
<clus scale="   30.266">  2  4  1 -1</clus>
<clus scale="   44.139">  2  6  1 -1</clus>
<clus scale="  176.020">  1  5  2 -1</clus>
<clus scale="  176.020">  1  3  2 -1</clus>
</clustering>
</event>
<event>
 6    0  0.2117869E+002  0.3005588E+03  0.7546771E-02  0.1084962E+00
          1   -1    0    0  504    0 -0.00000000000E+00  0.00000000000E+00  0.71372809258E+03  0.71372809258E+03  0.00000000000E+00 0. -1.
         21   -1    0    0  505  502  0.00000000000E+00 -0.00000000000E+00 -0.27545626096E+03  0.27545626096E+03  0.00000000000E+00 0. -1.
         21    1    1    2  503  502  0.17419759858E+03 -0.22616136811E+03 -0.12860204707E+03  0.31310102888E+03  0.00000000000E+00 0. -1.
         21    1    1    2  504  503  0.26225139245E+02 -0.18382158690E+02  0.11281885693E+03  0.11727640925E+03  0.00000000000E+00 0. -1.
         21    1    1    2  505  501 -0.97423755375E+02  0.60433515749E+02  0.15266325119E+03  0.19091795673E+03  0.00000000000E+00 0. -1.
          1    1    1    2  501    0 -0.10299898245E+03  0.18411001105E+03  0.30139177056E+03  0.36788895868E+03  0.00000000000E+00 0. -1.
<scales pt_clust_3="290.18472" pt_clust_4="32.02595" pt_clust_5="57.57453" pt_clust_6="57.57453"></scales>
<clustering>
<clus scale="   32.026">  1  4  2 -1</clus>
<clus scale="   57.575">  5  6 -1 -1</clus>
<clus scale="  290.185">  2  3  1 -1</clus>
<clus scale="  290.185">  2  3  1 -1</clus>
</clustering>
</event>
<event>
 6    0  0.4145229E+002  0.7314117E+02  0.7546771E-02  0.1349726E+00
          2   -1    0    0  503    0 -0.00000000000E+00  0.00000000000E+00  0.19465313529E+04  0.19465313529E+04  0.00000000000E+00 0.  1.
         21   -1    0    0  504  502  0.00000000000E+00 -0.00000000000E+00 -0.22030309936E+04  0.22030309936E+04  0.00000000000E+00 0.  1.
         21    1    1    2  503  505 -0.36943008211E+02 -0.40668627752E+01  0.83052433282E+02  0.90989185635E+02  0.00000000000E+00 0. -1.
         21    1    1    2  504  501 -0.22725008886E+02  0.38159344457E+02 -0.21917856648E+04  0.21922356082E+04  0.00000000000E+00 0.  1.
         21    1    1    2  505  502 -0.24231814720E+02 -0.80495911178E+02  0.31211768085E+03  0.32324018819E+03  0.00000000000E+00 0.  1.
          2    1    1    2  501    0  0.83899831817E+02  0.46403429496E+02  0.15401159099E+04  0.15430973644E+04  0.00000000000E+00 0.  1.
<scales pt_clust_3="37.16618" pt_clust_4="44.41539" pt_clust_5="14000.00000" pt_clust_6="73.14117"></scales>
<clustering>
<clus scale="   37.166">  1  3  2 -1</clus>
<clus scale="   44.415">  2  4  1 -1</clus>
<clus scale="   73.141">  1  6  2 -1</clus>
<clus scale="   44.415">  2  3  1 -1</clus>
</clustering>
</event>
<event>
 6    0  0.2117869E+002  0.1128772E+03  0.7546771E-02  0.1255333E+00
         21   -1    0    0  503  502  0.00000000000E+00  0.00000000000E+00  0.25931850234E+02  0.25931850234E+02  0.00000000000E+00 0. -1.
          2   -1    0    0  504    0 -0.00000000000E+00 -0.00000000000E+00 -0.21964329678E+04  0.21964329678E+04  0.00000000000E+00 0. -1.
         21    1    1    2  503  505 -0.19465844860E+02 -0.78089508219E+02 -0.12604761547E+03  0.14954896113E+03  0.00000000000E+00 0. -1.
         21    1    1    2  504  502  0.85528820700E+02 -0.71104655053E+02 -0.33704111294E+03  0.35491937528E+03  0.00000000000E+00 0. -1.
         21    1    1    2  505  501 -0.63828708468E+02  0.80803679811E+02 -0.63423207725E+03  0.64253689895E+03  0.00000000000E+00 0.  1.
          2    1    1    2  501    0 -0.22342673726E+01  0.68390483462E+02 -0.10731803119E+04  0.10753595826E+04  0.00000000000E+00 0. -1.
<scales pt_clust_3="72.43315" pt_clust_4="112.87715" pt_clust_5="14000.00000" pt_clust_6="68.42697"></scales>
<clustering>
<clus scale="   68.427">  2  6  1 -1</clus>
<clus scale="   72.433">  1  3  2 -1</clus>
<clus scale="  112.877">  1  4  2 -1</clus>
<clus scale="   72.433">  1  3  2 -1</clus>
</clustering>
</event>
<event>
 6    0  0.2117869E+002  0.1856546E+03  0.7546771E-02  0.1162440E+00
         21   -1    0    0  505  502  0.00000000000E+00  0.00000000000E+00  0.62896661473E+03  0.62896661473E+03  0.00000000000E+00 0.  1.
          1   -1    0    0  503    0 -0.00000000000E+00 -0.00000000000E+00 -0.17389483479E+04  0.17389483479E+04  0.00000000000E+00 0. -1.
         21    1    1    2  503  504  0.59707691606E+01 -0.41236812046E+02 -0.12404388948E+04  0.12411385001E+04  0.00000000000E+00 0. -1.
         21    1    1    2  504  502 -0.14940250413E+03 -0.10961687217E+02  0.83025113923E+02  0.17127298786E+03  0.00000000000E+00 0. -1.
         21    1    1    2  505  501  0.20090804676E+03  0.24379293381E+02  0.47860095823E+03  0.51963186048E+03  0.00000000000E+00 0.  1.
          1    1    1    2  501    0 -0.57476311793E+02  0.27819205882E+02 -0.43116891055E+03  0.43587161420E+03  0.00000000000E+00 0. -1.
<scales pt_clust_3="41.66683" pt_clust_4="14000.00000" pt_clust_5="185.65460" pt_clust_6="52.89899"></scales>
<clustering>
<clus scale="   41.667">  2  3  1 -1</clus>
<clus scale="   52.899">  2  6  1 -1</clus>
<clus scale="  185.655">  1  5  2 -1</clus>
<clus scale="  185.655">  1  3  2 -1</clus>
</clustering>
</event>
<event>
 6    0  0.2117869E+002  0.2006811E+03  0.7546771E-02  0.1149166E+00
         21   -1    0    0  501  502  0.00000000000E+00  0.00000000000E+00  0.43063245255E+03  0.43063245255E+03  0.00000000000E+00 0.  1.
          2   -1    0    0  504    0 -0.00000000000E+00 -0.00000000000E+00 -0.13591808250E+04  0.13591808250E+04  0.00000000000E+00 0.  1.
         21    1    1    2  503  502 -0.20069056546E+03 -0.26719088133E+01  0.36569390379E+03  0.41715209867E+03  0.00000000000E+00 0.  1.
         21    1    1    2  504  505  0.36228788892E+02  0.14588206731E+02 -0.36306459061E+03  0.36515919525E+03  0.00000000000E+00 0.  1.
         21    1    1    2  505  503  0.20048178301E+03 -0.51338952899E+02 -0.25137024620E+03  0.32560042088E+03  0.00000000000E+00 0.  1.
          2    1    1    2  501    0 -0.36020006442E+02  0.39422654981E+02 -0.67980743942E+03  0.68190156275E+03  0.00000000000E+00 0.  1.
<scales pt_clust_3="200.68111" pt_clust_4="39.05561" pt_clust_5="14000.00000" pt_clust_6="50.66486"></scales>
<clustering>
<clus scale="   39.056">  2  4  1 -1</clus>
<clus scale="   50.665">  2  6  1 -1</clus>
<clus scale="  200.681">  1  3  2 -1</clus>
<clus scale="  200.681">  1  3  2 -1</clus>
</clustering>
</event>
<event>
 6    0  0.2117869E+002  0.1167234E+03  0.7546771E-02  0.1248602E+00
          2   -1    0    0  503    0 -0.00000000000E+00  0.00000000000E+00  0.98727842490E+03  0.98727842490E+03  0.00000000000E+00 0.  1.
         21   -1    0    0  504  502  0.00000000000E+00 -0.00000000000E+00 -0.29380391085E+03  0.29380391085E+03  0.00000000000E+00 0. -1.
         21    1    1    2  503  505  0.28018347588E+02  0.20462120901E+02  0.57354543814E+03  0.57459385291E+03  0.00000000000E+00 0.  1.
         21    1    1    2  504  501  0.13769454760E+01  0.90719426481E+02  0.13971923564E+01  0.90740632940E+02  0.00000000000E+00 0.  1.
         21    1    1    2  505  502 -0.32182414644E+02  0.26901879353E+02 -0.23368546945E+03  0.23742012880E+03  0.00000000000E+00 0. -1.
          2    1    1    2  501    0  0.27871215799E+01 -0.13808342674E+03  0.35221735301E+03  0.37832772109E+03  0.00000000000E+00 0.  1.
<scales pt_clust_3="34.69476" pt_clust_4="14000.00000" pt_clust_5="41.90786" pt_clust_6="116.72340"></scales>
<clustering>
<clus scale="   34.695">  1  3  2 -1</clus>
<clus scale="   41.908">  2  5  1 -1</clus>
<clus scale="  116.723">  1  6  2 -1</clus>
<clus scale="   41.908">  2  3  1 -1</clus>
</clustering>
</event>
<event>
 6    0  0.2117869E+002  0.1077068E+03  0.7546771E-02  0.1264876E+00
          3   -1    0    0  504    0 -0.00000000000E+00  0.00000000000E+00  0.32253478180E+03  0.32253478180E+03  0.00000000000E+00 0.  1.
         21   -1    0    0  505  502  0.00000000000E+00 -0.00000000000E+00 -0.32704435190E+03  0.32704435190E+03  0.00000000000E+00 0.  1.
         21    1    1    2  503  502  0.40983868647E+01  0.37582264829E+02 -0.15803939880E+03  0.16249823069E+03  0.00000000000E+00 0.  1.
         21    1    1    2  504  503 -0.41842069760E+02  0.27297532320E+02  0.70119116417E+02  0.86096484015E+02  0.00000000000E+00 0. -1.
         21    1    1    2  505  501  0.10583639069E+03 -0.14515385785E+02 -0.13183017301E+03  0.16967979412E+03  0.00000000000E+00 0.  1.
          3    1    1    2  501    0 -0.68092707797E+02 -0.50364411364E+02  0.21524088529E+03  0.23130462487E+03  0.00000000000E+00 0.  1.
<scales pt_clust_3="37.80507" pt_clust_4="50.80402" pt_clust_5="107.70678" pt_clust_6="14000.00000"></scales>
<clustering>
<clus scale="   37.805">  2  3  1 -1</clus>
<clus scale="   50.804">  1  4  2 -1</clus>
<clus scale="  107.707">  2  5  1 -1</clus>
<clus scale="   37.805">  2  3  1 -1</clus>
</clustering>
</event>
<event>
 6    0  0.2117869E+002  0.1074008E+03  0.7546771E-02  0.1265460E+00
         21   -1    0    0  501  502  0.00000000000E+00  0.00000000000E+00  0.19759828149E+04  0.19759828149E+04  0.00000000000E+00 0. -1.
          1   -1    0    0  503    0 -0.00000000000E+00 -0.00000000000E+00 -0.10157384677E+04  0.10157384677E+04  0.00000000000E+00 0.  1.
         21    1    1    2  503  505 -0.36798627144E+02  0.63362042195E+02  0.38357671170E+02  0.82705491283E+02  0.00000000000E+00 0. -1.
         21    1    1    2  504  502 -0.18508063129E+02 -0.28277348612E+02  0.18269754467E+04  0.18272880013E+04  0.00000000000E+00 0. -1.
         21    1    1    2  505  504  0.45038996413E+02  0.73904853103E+02  0.63265523892E+02  0.10720524718E+03  0.00000000000E+00 0. -1.
          1    1    1    2  501    0  0.10267693860E+02 -0.10898954669E+03 -0.96835429453E+03  0.97452254287E+03  0.00000000000E+00 0.  1.
<scales pt_clust_3="107.40078" pt_clust_4="33.79581" pt_clust_5="67.20804" pt_clust_6="14000.00000"></scales>
<clustering>
<clus scale="   33.796">  1  4  2 -1</clus>
<clus scale="   67.208">  1  5  2 -1</clus>
<clus scale="  107.401">  1  3  2 -1</clus>
<clus scale="   33.796">  1  3  2 -1</clus>
</clustering>
</event>
<event>
 6    0  0.2117869E+002  0.1775227E+03  0.7546771E-02  0.1170222E+00
         -1   -1    0    0    0  501 -0.00000000000E+00  0.00000000000E+00  0.16015104199E+03  0.16015104199E+03  0.00000000000E+00 0. -1.
         21   -1    0    0  505  502  0.00000000000E+00 -0.00000000000E+00 -0.37188206031E+03  0.37188206031E+03  0.00000000000E+00 0. -1.
         21    1    1    2  503  504 -0.92770016155E+01  0.51232256578E+02 -0.69459073512E+02  0.86806507625E+02  0.00000000000E+00 0.  1.
         21    1    1    2  504  502 -0.10803608112E+03  0.50164241616E+02 -0.18039346152E+03  0.21617133695E+03  0.00000000000E+00 0. -1.
         21    1    1    2  505  501 -0.25204725112E+02  0.24895741202E+02  0.67765363073E+01  0.36069343524E+02  0.00000000000E+00 0. -1.
         -1    1    1    2    0  503  0.14251780784E+03 -0.12629223940E+03  0.31344980406E+02  0.19298591420E+03  0.00000000000E+00 0. -1.
<scales pt_clust_3="48.22291" pt_clust_4="48.22291" pt_clust_5="35.42705" pt_clust_6="161.82898"></scales>
<clustering>
<clus scale="   35.427">  1  5  2 -1</clus>
<clus scale="   48.223">  3  4 -1 -1</clus>
<clus scale="  161.829">  1  6  2 -1</clus>
<clus scale="  177.523">  2  3  1 -1</clus>
</clustering>
</event>
<event>
 6    0  0.2117869E+002  0.1362011E+03  0.7546771E-02  0.1218534E+00
         21   -1    0    0  505  502  0.00000000000E+00  0.00000000000E+00  0.97263495726E+03  0.97263495726E+03  0.00000000000E+00 0.  1.
          1   -1    0    0  503    0 -0.00000000000E+00 -0.00000000000E+00 -0.14078063982E+04  0.14078063982E+04  0.00000000000E+00 0. -1.
         21    1    1    2  503  504  0.63811584353E+02  0.87144033390E+00 -0.65341154143E+03  0.65652061672E+03  0.00000000000E+00 0. -1.
         21    1    1    2  504  502 -0.74053737957E+02 -0.16456597944E+03  0.86511069240E+03  0.88373210183E+03  0.00000000000E+00 0.  1.
         21    1    1    2  505  501  0.25084309490E+02  0.37463180333E+02  0.85613292040E+02  0.96759228176E+02  0.00000000000E+00 0.  1.
          1    1    1    2  501    0 -0.14842155885E+02  0.12623135878E+03 -0.73248388400E+03  0.74342940878E+03  0.00000000000E+00 0. -1.
<scales pt_clust_3="63.86271" pt_clust_4="136.20105" pt_clust_5="45.08561" pt_clust_6="14000.00000"></scales>
<clustering>
<clus scale="   45.086">  1  5  2 -1</clus>
<clus scale="   63.863">  2  3  1 -1</clus>
<clus scale="  136.201">  1  4  2 -1</clus>
<clus scale="   45.086">  1  3  2 -1</clus>
</clustering>
</event>
<event>
 6    0  0.2117869E+002  0.1302798E+03  0.7546771E-02  0.1227041E+00
         -1   -1    0    0    0  501 -0.00000000000E+00  0.00000000000E+00  0.37970285077E+03  0.37970285077E+03  0.00000000000E+00 0. -1.
         21   -1    0    0  505  502  0.00000000000E+00 -0.00000000000E+00 -0.27147754891E+03  0.27147754891E+03  0.00000000000E+00 0.  1.
         21    1    1    2  503  501 -0.97704037221E+01  0.52851737053E+02  0.41557849770E+02  0.67939839387E+02  0.00000000000E+00 0. -1.
         21    1    1    2  504  503 -0.37718307563E+02 -0.12810060250E+03 -0.11651535265E+03  0.17722376390E+03  0.00000000000E+00 0.  1.
         21    1    1    2  505  504 -0.36288819039E+02  0.14518371594E+02 -0.98477918747E+02  0.10595075262E+03  0.00000000000E+00 0.  1.
         -1    1    1    2    0  502  0.83777530324E+02  0.60730493852E+02  0.28166072349E+03  0.30006604378E+03  0.00000000000E+00 0. -1.
<scales pt_clust_3="55.43379" pt_clust_4="130.27979" pt_clust_5="39.08531" pt_clust_6="14000.00000"></scales>
<clustering>
<clus scale="   39.085">  2  5  1 -1</clus>
<clus scale="   55.434">  1  3  2 -1</clus>
<clus scale="  130.280">  2  4  1 -1</clus>
<clus scale="   39.085">  2  3  1 -1</clus>
</clustering>
</event>
<event>
 6    0  0.2117869E+002  0.1912871E+03  0.7546771E-02  0.1157306E+00
         21   -1    0    0  504  502  0.00000000000E+00  0.00000000000E+00  0.20575159908E+04  0.20575159908E+04  0.00000000000E+00 0. -1.
         -3   -1    0    0    0  501 -0.00000000000E+00 -0.00000000000E+00 -0.10660562781E+03  0.10660562781E+03  0.00000000000E+00 0.  1.
         21    1    1    2  503  502  0.61995151739E+02 -0.15975363921E+03  0.69007120627E+03  0.71102946057E+03  0.00000000000E+00 0. -1.
         21    1    1    2  504  501  0.84831502068E+01 -0.84025482563E+02  0.63783481004E+02  0.10583278323E+03  0.00000000000E+00 0.  1.
         21    1    1    2  505  503 -0.19518146628E+03  0.20365054532E+02  0.10136070326E+04  0.10324290565E+04  0.00000000000E+00 0. -1.
         -3    1    1    2    0  505  0.12470316434E+03  0.22341406724E+03  0.18344864310E+03  0.31483031825E+03  0.00000000000E+00 0.  1.
<scales pt_clust_3="181.34954" pt_clust_4="84.45262" pt_clust_5="14000.00000" pt_clust_6="191.28710"></scales>
<clustering>
<clus scale="   84.453">  2  4  1 -1</clus>
<clus scale="  181.350">  1  3  2 -1</clus>
<clus scale="  191.287">  2  6  1 -1</clus>
<clus scale="  181.350">  1  3  2 -1</clus>
</clustering>
</event>
<event>
 6    0  0.2117869E+002  0.9182044E+02  0.7546771E-02  0.1298502E+00
          2   -1    0    0  505    0 -0.00000000000E+00  0.00000000000E+00  0.96903271519E+03  0.96903271519E+03  0.00000000000E+00 0.  1.
         21   -1    0    0  501  502  0.00000000000E+00 -0.00000000000E+00 -0.12405242120E+03  0.12405242120E+03  0.00000000000E+00 0.  1.
         21    1    1    2  503  502  0.36686325862E+02 -0.65541692914E+02 -0.69334555555E+02  0.10221976624E+03  0.00000000000E+00 0.  1.
         21    1    1    2  504  503 -0.95199157613E+02 -0.81396957088E+01  0.44561820628E+02  0.10542717920E+03  0.00000000000E+00 0.  1.
         21    1    1    2  505  504 -0.39986884211E+02  0.19106188401E+02  0.13453088347E+03  0.14164235225E+03  0.00000000000E+00 0. -1.
          2    1    1    2  501    0  0.98499715963E+02  0.54575200221E+02  0.73522214544E+03  0.74379583871E+03  0.00000000000E+00 0.  1.
<scales pt_clust_3="74.39593" pt_clust_4="14000.00000" pt_clust_5="44.31701" pt_clust_6="91.82044"></scales>
<clustering>
<clus scale="   44.317">  1  5  2 -1</clus>
<clus scale="   74.396">  2  3  1 -1</clus>
<clus scale="   91.820">  1  6  2 -1</clus>
<clus scale="   74.396">  2  3  1 -1</clus>
</clustering>
</event>
<event>
 6    0  0.2117869E+002  0.1282572E+03  0.7546771E-02  0.1230065E+00
         21   -1    0    0  505  502  0.00000000000E+00  0.00000000000E+00  0.61502467158E+03  0.61502467158E+03  0.00000000000E+00 0.  1.
          2   -1    0    0  503    0 -0.00000000000E+00 -0.00000000000E+00 -0.11802645395E+04  0.11802645395E+04  0.00000000000E+00 0.  1.
         21    1    1    2  503  504  0.53751738650E+02  0.62091122713E+02 -0.24593066143E+03  0.25928063398E+03  0.00000000000E+00 0.  1.
         21    1    1    2  504  502  0.10573517786E+03 -0.13078817492E+03  0.55703316148E+03  0.58186890064E+03  0.00000000000E+00 0.  1.
         21    1    1    2  505  501 -0.38566801084E+02  0.21734962690E+02  0.19915443352E+02  0.48543090475E+02  0.00000000000E+00 0. -1.
          2    1    1    2  501    0 -0.12092011543E+03  0.46962089516E+02 -0.89625781129E+03  0.90559658594E+03  0.00000000000E+00 0.  1.
<scales pt_clust_3="82.02552" pt_clust_4="128.25722" pt_clust_5="44.26970" pt_clust_6="14000.00000"></scales>
<clustering>
<clus scale="   44.270">  1  5  2 -1</clus>
<clus scale="   82.026">  2  3  1 -1</clus>
<clus scale="  128.257">  1  4  2 -1</clus>
<clus scale="   44.270">  1  3  2 -1</clus>
</clustering>
</event>
<event>
 6    0  0.2117869E+002  0.6512165E+02  0.7546771E-02  0.1377514E+00
          1   -1    0    0  504    0 -0.00000000000E+00  0.00000000000E+00  0.62955945218E+03  0.62955945218E+03  0.00000000000E+00 0.  1.
         21   -1    0    0  503  502  0.00000000000E+00 -0.00000000000E+00 -0.27756552103E+03  0.27756552103E+03  0.00000000000E+00 0. -1.
         21    1    1    2  503  505 -0.58934291829E+02 -0.56718782084E+01 -0.17362895711E+03  0.18344600215E+03  0.00000000000E+00 0. -1.
         21    1    1    2  504  502  0.12265582974E+01 -0.35496715718E+02  0.32946611459E+02  0.48445850996E+02  0.00000000000E+00 0. -1.
         21    1    1    2  505  501  0.99623256624E+02  0.53098291083E+02 -0.55174251877E+02  0.12565197908E+03  0.00000000000E+00 0. -1.
          1    1    1    2  501    0 -0.41915523092E+02 -0.11929697156E+02  0.54785052868E+03  0.54958114098E+03  0.00000000000E+00 0.  1.
<scales pt_clust_3="59.22550" pt_clust_4="35.51790" pt_clust_5="14000.00000" pt_clust_6="65.12165"></scales>
<clustering>
<clus scale="   35.518">  1  4  2 -1</clus>
<clus scale="   59.226">  2  3  1 -1</clus>
<clus scale="   65.122">  1  6  2 -1</clus>
<clus scale="   59.226">  2  3  1 -1</clus>
</clustering>
</event>
<event>
 6    0  0.2117869E+002  0.1516929E+03  0.7546771E-02  0.1198408E+00
         21   -1    0    0  503  502  0.00000000000E+00  0.00000000000E+00  0.14126663102E+03  0.14126663102E+03  0.00000000000E+00 0.  1.
          3   -1    0    0  504    0 -0.00000000000E+00 -0.00000000000E+00 -0.52943743535E+03  0.52943743535E+03  0.00000000000E+00 0.  1.
         21    1    1    2  503  505  0.26591593352E+02 -0.59267193300E+02  0.56629955056E+02  0.86178099587E+02  0.00000000000E+00 0.  1.
         21    1    1    2  504  502 -0.94038407825E+01  0.41008853799E+02 -0.42358131872E+02  0.59702342057E+02  0.00000000000E+00 0. -1.
         21    1    1    2  505  501 -0.88077915754E+02 -0.10368224151E+03 -0.49548612565E+02  0.14478532887E+03  0.00000000000E+00 0.  1.
          3    1    1    2  501    0  0.70890163184E+02  0.12194058101E+03 -0.35289401494E+03  0.38003829586E+03  0.00000000000E+00 0.  1.
<scales pt_clust_3="63.68549" pt_clust_4="42.07325" pt_clust_5="14000.00000" pt_clust_6="151.69293"></scales>
<clustering>
<clus scale="   42.073">  2  4  1 -1</clus>
<clus scale="   63.685">  1  3  2 -1</clus>
<clus scale="  151.693">  2  6  1 -1</clus>
<clus scale="   63.685">  1  3  2 -1</clus>
</clustering>
</event>
<event>
 6    0  0.2117869E+002  0.1361261E+03  0.7546771E-02  0.1218639E+00
         21   -1    0    0  505  502  0.00000000000E+00  0.00000000000E+00  0.54024029947E+03  0.54024029947E+03  0.00000000000E+00 0.  1.
          2   -1    0    0  504    0 -0.00000000000E+00 -0.00000000000E+00 -0.35604088737E+04  0.35604088737E+04  0.00000000000E+00 0.  1.
         21    1    1    2  503  502  0.82985895409E+02  0.67093725549E+02  0.55176087129E+02  0.12013587073E+03  0.00000000000E+00 0.  1.
         21    1    1    2  504  503 -0.31892769970E+02  0.34189373905E+02 -0.10628249447E+04  0.10638528682E+04  0.00000000000E+00 0.  1.
         21    1    1    2  505  501  0.28389640279E+02  0.12838872333E+02  0.44956879888E+03  0.45064721595E+03  0.00000000000E+00 0.  1.
          2    1    1    2  501    0 -0.79482765717E+02 -0.11412197179E+03 -0.24620885155E+04  0.24660132183E+04  0.00000000000E+00 0.  1.
<scales pt_clust_3="14000.00000" pt_clust_4="46.69875" pt_clust_5="31.15780" pt_clust_6="136.12607"></scales>
<clustering>
<clus scale="   31.158">  1  5  2 -1</clus>
<clus scale="   46.699">  2  4  1 -1</clus>
<clus scale="  136.126">  2  6  1 -1</clus>
<clus scale="   31.158">  1  3  2 -1</clus>
</clustering>
</event>
<event>
 6    0  0.2117869E+002  0.3564533E+03  0.7546771E-02  0.1059997E+00
         21   -1    0    0  504  502  0.00000000000E+00  0.00000000000E+00  0.97933043917E+02  0.97933043917E+02  0.00000000000E+00 0. -1.
          1   -1    0    0  503    0 -0.00000000000E+00 -0.00000000000E+00 -0.33496810377E+04  0.33496810377E+04  0.00000000000E+00 0.  1.
         21    1    1    2  503  502 -0.34571861931E+02  0.27515271680E+01 -0.25591069360E+03  0.25825000994E+03  0.00000000000E+00 0. -1.
         21    1    1    2  504  505 -0.10871555085E+03  0.21852514977E+02 -0.32526636064E+02  0.11556204161E+03  0.00000000000E+00 0. -1.
         21    1    1    2  505  501  0.62948888156E+02 -0.37210117860E+03 -0.84184895068E+03  0.92256788661E+03  0.00000000000E+00 0. -1.
          1    1    1    2  501    0  0.80338524620E+02  0.34749713646E+03 -0.21214617134E+04  0.21512341434E+04  0.00000000000E+00 0.  1.
<scales pt_clust_3="34.68118" pt_clust_4="111.71458" pt_clust_5="356.45330" pt_clust_6="14000.00000"></scales>
<clustering>
<clus scale="   34.681">  2  3  1 -1</clus>
<clus scale="  111.715">  1  4  2 -1</clus>
<clus scale="  356.453">  1  5  2 -1</clus>
<clus scale="  111.715">  1  3  2 -1</clus>
</clustering>
</event>
<event>
 6    0  0.2117869E+002  0.1031870E+03  0.7546771E-02  0.1273733E+00
          1   -1    0    0  505    0 -0.00000000000E+00  0.00000000000E+00  0.15557316168E+04  0.15557316168E+04  0.00000000000E+00 0.  1.
         21   -1    0    0  503  502  0.00000000000E+00 -0.00000000000E+00 -0.37830485400E+02  0.37830485400E+02  0.00000000000E+00 0.  1.
         21    1    1    2  503  501  0.98504235195E+02 -0.47432424710E+02  0.36240000460E+03  0.37853227418E+03  0.00000000000E+00 0.  1.
         21    1    1    2  504  502 -0.57705558721E+01  0.35226941698E+02 -0.10374935346E+02  0.37173593045E+02  0.00000000000E+00 0.  1.
         21    1    1    2  505  504  0.20471923943E+02  0.32818139870E+02  0.54756059703E+03  0.54892507448E+03  0.00000000000E+00 0.  1.
          1    1    1    2  501    0 -0.11320560327E+03 -0.20612656858E+02  0.61831546514E+03  0.62893116051E+03  0.00000000000E+00 0.  1.
<scales pt_clust_3="103.18700" pt_clust_4="35.69645" pt_clust_5="39.99861" pt_clust_6="14000.00000"></scales>
<clustering>
<clus scale="   35.696">  2  4  1 -1</clus>
<clus scale="   39.999">  1  5  2 -1</clus>
<clus scale="  103.187">  2  3  1 -1</clus>
<clus scale="   35.696">  2  3  1 -1</clus>
</clustering>
</event>
<event>
 6    0  0.2117869E+002  0.9178274E+02  0.7546771E-02  0.1298591E+00
          2   -1    0    0  503    0 -0.00000000000E+00  0.00000000000E+00  0.29276250691E+04  0.29276250691E+04  0.00000000000E+00 0.  1.
         21   -1    0    0  501  502  0.00000000000E+00 -0.00000000000E+00 -0.52490279519E+03  0.52490279519E+03  0.00000000000E+00 0. -1.
         21    1    1    2  503  504  0.33323074476E+01 -0.42664514802E+02  0.42519173646E+03  0.42733988563E+03  0.00000000000E+00 0.  1.
         21    1    1    2  504  505 -0.40040666391E+01 -0.54805669556E+02  0.12188478131E+03  0.13369964054E+03  0.00000000000E+00 0. -1.
         21    1    1    2  505  502 -0.54259282945E+01 -0.45961520223E+02 -0.51471132781E+03  0.51678782204E+03  0.00000000000E+00 0. -1.
          2    1    1    2  501    0  0.60976874859E+01  0.14343170458E+03  0.23703570839E+04  0.23747005160E+04  0.00000000000E+00 0.  1.
<scales pt_clust_3="42.79445" pt_clust_4="91.78274" pt_clust_5="46.29811" pt_clust_6="14000.00000"></scales>
<clustering>
<clus scale="   42.794">  1  3  2 -1</clus>
<clus scale="   46.298">  2  5  1 -1</clus>
<clus scale="   91.783">  2  4  1 -1</clus>
<clus scale="   46.298">  2  3  1 -1</clus>
</clustering>
</event>
<event>
 6    0  0.2117869E+002  0.9623601E+02  0.7546771E-02  0.1288416E+00
          1   -1    0    0  505    0 -0.00000000000E+00  0.00000000000E+00  0.43716446402E+03  0.43716446402E+03  0.00000000000E+00 0. -1.
         21   -1    0    0  503  502  0.00000000000E+00 -0.00000000000E+00 -0.27635416496E+03  0.27635416496E+03  0.00000000000E+00 0. -1.
         21    1    1    2  503  501  0.33341094510E+02  0.96757384961E+02 -0.21181973961E+03  0.23524715134E+03  0.00000000000E+00 0. -1.
         21    1    1    2  504  502 -0.90466202927E+02 -0.11667219277E+02  0.14410196981E+02  0.92346692712E+02  0.00000000000E+00 0. -1.
         21    1    1    2  505  504  0.33837140049E+02 -0.91498374337E+01  0.24210780485E+02  0.42600862239E+02  0.00000000000E+00 0. -1.
          1    1    1    2  501    0  0.23287968368E+02 -0.75940328250E+02  0.33400906120E+03  0.34332392269E+03  0.00000000000E+00 0. -1.
<scales pt_clust_3="96.23601" pt_clust_4="86.95157" pt_clust_5="35.05241" pt_clust_6="14000.00000"></scales>
<clustering>
<clus scale="   35.052">  1  5  2 -1</clus>
<clus scale="   86.952">  2  4  1 -1</clus>
<clus scale="   96.236">  2  3  1 -1</clus>
<clus scale="   86.952">  2  3  1 -1</clus>
</clustering>
</event>
<event>
 6    0  0.2117869E+002  0.1245429E+03  0.7546771E-02  0.1235785E+00
         -1   -1    0    0    0  501 -0.00000000000E+00  0.00000000000E+00  0.90458340921E+03  0.90458340921E+03  0.00000000000E+00 0.  1.
         21   -1    0    0  503  502  0.00000000000E+00 -0.00000000000E+00 -0.46794601573E+03  0.46794601573E+03  0.00000000000E+00 0.  1.
         21    1    1    2  503  505  0.43671969223E+02 -0.13147937017E+03 -0.27469863783E+03  0.30765793879E+03  0.00000000000E+00 0.  1.
         21    1    1    2  504  501 -0.48436785429E+02  0.37876881916E+02  0.50261136774E+03  0.50635853636E+03  0.00000000000E+00 0.  1.
         21    1    1    2  505  504  0.93669573328E+02  0.11122068578E+03 -0.13779988672E+03  0.20033182147E+03  0.00000000000E+00 0.  1.
         -1    1    1    2    0  502 -0.88904757123E+02 -0.17618197526E+02  0.34652455029E+03  0.35818112831E+03  0.00000000000E+00 0.  1.
<scales pt_clust_3="124.54291" pt_clust_4="61.48805" pt_clust_5="14000.00000" pt_clust_6="132.49942"></scales>
<clustering>
<clus scale="   61.488">  1  4  2 -1</clus>
<clus scale="  132.499">  1  6  2 -1</clus>
<clus scale="  124.543">  2  3  1 -1</clus>
<clus scale="  124.543">  2  3  1 -1</clus>
</clustering>
</event>
<event>
 6    0  0.2117869E+002  0.9639937E+02  0.7546771E-02  0.1288055E+00
          2   -1    0    0  504    0 -0.00000000000E+00  0.00000000000E+00  0.11234953295E+04  0.11234953295E+04  0.00000000000E+00 0.  1.
         21   -1    0    0  503  502  0.00000000000E+00 -0.00000000000E+00 -0.25670708199E+02  0.25670708199E+02  0.00000000000E+00 0.  1.
         21    1    1    2  503  501 -0.41055518360E+02  0.20998393436E+01  0.56036285357E+02  0.69498418613E+02  0.00000000000E+00 0.  1.
         21    1    1    2  504  505 -0.78417548781E+02 -0.21420798778E+02  0.48650977180E+03  0.49325441776E+03  0.00000000000E+00 0.  1.
         21    1    1    2  505  502 -0.14379309254E+02 -0.36470247126E+02  0.73739376017E+02  0.83512508257E+02  0.00000000000E+00 0.  1.
          2    1    1    2  501    0  0.13385237639E+03  0.55791206560E+02  0.48153918817E+03  0.50290069312E+03  0.00000000000E+00 0.  1.
<scales pt_clust_3="46.73250" pt_clust_4="14000.00000" pt_clust_5="39.20260" pt_clust_6="96.39937"></scales>
<clustering>
<clus scale="   39.203">  2  5  1 -1</clus>
<clus scale="   46.733">  2  3  1 -1</clus>
<clus scale="   96.399">  2  6  1 -1</clus>
<clus scale="   39.203">  2  3  1 -1</clus>
</clustering>
</event>
<event>
 6    0  0.2117869E+002  0.1398858E+03  0.7546771E-02  0.1213483E+00
          2   -1    0    0  505    0 -0.00000000000E+00  0.00000000000E+00  0.14913269325E+04  0.14913269325E+04  0.00000000000E+00 0. -1.
         21   -1    0    0  503  502  0.00000000000E+00 -0.00000000000E+00 -0.12390064616E+04  0.12390064616E+04  0.00000000000E+00 0.  1.
         21    1    1    2  503  501  0.97118124062E+02  0.14762658500E+03  0.87889204223E+02  0.19735767236E+03  0.00000000000E+00 0. -1.
         21    1    1    2  504  502 -0.38824136876E+01 -0.53697290276E+02 -0.11752403351E+04  0.11764728290E+04  0.00000000000E+00 0.  1.
         21    1    1    2  505  504  0.47784167331E+02 -0.11725364397E+02  0.35504451144E+03  0.35843746445E+03  0.00000000000E+00 0. -1.
          2    1    1    2  501    0 -0.14101987770E+03 -0.82203930330E+02  0.98462709036E+03  0.99806542829E+03  0.00000000000E+00 0. -1.
<scales pt_clust_3="139.88583" pt_clust_4="53.84195" pt_clust_5="49.20174" pt_clust_6="14000.00000"></scales>
<clustering>
<clus scale="   49.202">  1  5  2 -1</clus>
<clus scale="   53.842">  2  4  1 -1</clus>
<clus scale="  139.886">  2  3  1 -1</clus>
<clus scale="   53.842">  2  3  1 -1</clus>
</clustering>
</event>
<event>
 6    0  0.2117869E+002  0.1151673E+03  0.7546771E-02  0.1251289E+00
          2   -1    0    0  504    0 -0.00000000000E+00  0.00000000000E+00  0.16878249745E+04  0.16878249745E+04  0.00000000000E+00 0. -1.
         21   -1    0    0  505  502  0.00000000000E+00 -0.00000000000E+00 -0.63245287313E+03  0.63245287313E+03  0.00000000000E+00 0.  1.
         21    1    1    2  503  501 -0.11871606062E+03 -0.65655454015E+02 -0.38490658910E+02  0.14101656823E+03  0.00000000000E+00 0.  1.
         21    1    1    2  504  502  0.48087902999E+02  0.13516778146E+02 -0.31219033774E+03  0.31616128271E+03  0.00000000000E+00 0.  1.
         21    1    1    2  505  503  0.18107198550E+01 -0.39959457094E+02 -0.22473360479E+03  0.22826570053E+03  0.00000000000E+00 0. -1.
          2    1    1    2  501    0  0.68817437768E+02  0.92098132962E+02  0.16307867028E+04  0.16348342962E+04  0.00000000000E+00 0. -1.
<scales pt_clust_3="14000.00000" pt_clust_4="52.46188" pt_clust_5="40.00046" pt_clust_6="115.16725"></scales>
<clustering>
<clus scale="   40.000">  2  5  1 -1</clus>
<clus scale="   52.462">  2  4  1 -1</clus>
<clus scale="  115.167">  1  6  2 -1</clus>
<clus scale="   40.000">  2  3  1 -1</clus>
</clustering>
</event>
<event>
 6    0  0.2117869E+002  0.1474229E+03  0.7546771E-02  0.1203676E+00
         21   -1    0    0  505  502  0.00000000000E+00  0.00000000000E+00  0.40118717976E+03  0.40118717976E+03  0.00000000000E+00 0.  1.
         -2   -1    0    0    0  501 -0.00000000000E+00 -0.00000000000E+00 -0.19682594326E+03  0.19682594326E+03  0.00000000000E+00 0.  1.
         21    1    1    2  503  501 -0.75411819208E+02 -0.47489234431E+01 -0.30429045997E+02  0.81458097144E+02  0.00000000000E+00 0.  1.
         21    1    1    2  504  503 -0.49896825547E+02  0.28920895393E+02  0.11518616179E+03  0.12881755803E+03  0.00000000000E+00 0.  1.
         21    1    1    2  505  504 -0.37369363882E+01  0.86539996973E+02  0.18601863876E+03  0.20519763579E+03  0.00000000000E+00 0.  1.
         -2    1    1    2    0  502  0.12904558114E+03 -0.11071196892E+03 -0.66414518049E+02  0.18253983204E+03  0.00000000000E+00 0.  1.
<scales pt_clust_3="75.56120" pt_clust_4="55.54595" pt_clust_5="55.54595" pt_clust_6="130.76498"></scales>
<clustering>
<clus scale="   55.546">  4  5 -1 -1</clus>
<clus scale="   75.561">  2  3  1 -1</clus>
<clus scale="  130.765">  2  6  1 -1</clus>
<clus scale="  147.423">  1  3  2 -1</clus>
</clustering>
</event>
<event>
 6    0  0.2117869E+002  0.9264557E+02  0.7546771E-02  0.1296569E+00
         21   -1    0    0  501  502  0.00000000000E+00  0.00000000000E+00  0.18093797559E+03  0.18093797559E+03  0.00000000000E+00 0. -1.
          3   -1    0    0  503    0 -0.00000000000E+00 -0.00000000000E+00 -0.19045844855E+03  0.19045844855E+03  0.00000000000E+00 0. -1.
         21    1    1    2  503  505  0.28492916656E+02  0.25035520334E+02 -0.39184069528E+01  0.38131056778E+02  0.00000000000E+00 0. -1.
         21    1    1    2  504  502 -0.93226687559E+02  0.25428694916E+02  0.85855990800E+02  0.12926362580E+03  0.00000000000E+00 0. -1.
         21    1    1    2  505  504  0.70257564116E+02  0.13995152624E+02 -0.11472066154E+03  0.13525095119E+03  0.00000000000E+00 0. -1.
          3    1    1    2  501    0 -0.55237932130E+01 -0.64459367875E+02  0.23262604737E+02  0.68750790377E+02  0.00000000000E+00 0. -1.
<scales pt_clust_3="37.92919" pt_clust_4="14000.00000" pt_clust_5="92.64557" pt_clust_6="61.12232"></scales>
<clustering>
<clus scale="   37.929">  2  3  1 -1</clus>
<clus scale="   61.122">  1  6  2 -1</clus>
<clus scale="   92.646">  2  5  1 -1</clus>
<clus scale="   61.122">  1  3  2 -1</clus>
</clustering>
</event>
<event>
 6    0  0.2117869E+002  0.1228869E+03  0.7546771E-02  0.1238409E+00
         21   -1    0    0  504  502  0.00000000000E+00  0.00000000000E+00  0.54348038520E+03  0.54348038520E+03  0.00000000000E+00 0. -1.
          2   -1    0    0  503    0 -0.00000000000E+00 -0.00000000000E+00 -0.55205925614E+03  0.55205925614E+03  0.00000000000E+00 0. -1.
         21    1    1    2  503  502  0.34645421636E+01  0.14242036038E+03  0.10192184804E+03  0.17516742052E+03  0.00000000000E+00 0. -1.
         21    1    1    2  504  505  0.12281553530E+02 -0.31039353856E+02  0.39705842361E+03  0.39845911937E+03  0.00000000000E+00 0. -1.
         21    1    1    2  505  501  0.16421856416E+02 -0.34837989537E+02 -0.16509751637E+03  0.16953038900E+03  0.00000000000E+00 0. -1.
          2    1    1    2  501    0 -0.32167952110E+02 -0.76543016989E+02 -0.34246162622E+03  0.35238271244E+03  0.00000000000E+00 0. -1.
<scales pt_clust_3="113.92043" pt_clust_4="33.38080" pt_clust_5="31.38407" pt_clust_6="31.38407"></scales>
<clustering>
<clus scale="   31.384">  5  6 -1 -1</clus>
<clus scale="   33.381">  1  4  2 -1</clus>
<clus scale="  113.920">  1  3  2 -1</clus>
<clus scale="   33.381">  1  3  2 -1</clus>
</clustering>
</event>
<event>
 6    0  0.2117869E+002  0.1376393E+03  0.7546771E-02  0.1216541E+00
         21   -1    0    0  503  502  0.00000000000E+00  0.00000000000E+00  0.20129944492E+04  0.20129944492E+04  0.00000000000E+00 0.  1.
          2   -1    0    0  504    0 -0.00000000000E+00 -0.00000000000E+00 -0.26784638369E+03  0.26784638369E+03  0.00000000000E+00 0.  1.
         21    1    1    2  503  501  0.34274798298E+02 -0.62558008281E+02  0.49287477298E+03  0.49800984733E+03  0.00000000000E+00 0.  1.
         21    1    1    2  504  505 -0.26886639825E+02  0.15646339248E+02 -0.25447299614E+01  0.31211776359E+02  0.00000000000E+00 0. -1.
         21    1    1    2  505  502  0.10085616122E+03  0.93284303280E+02  0.14859130171E+04  0.14922504552E+04  0.00000000000E+00 0.  1.
          2    1    1    2  501    0 -0.10824431970E+03 -0.46372634247E+02 -0.23109499471E+03  0.25936875396E+03  0.00000000000E+00 0.  1.
<scales pt_clust_3="71.05973" pt_clust_4="31.10787" pt_clust_5="14000.00000" pt_clust_6="137.63927"></scales>
<clustering>
<clus scale="   31.108">  2  4  1 -1</clus>
<clus scale="   71.060">  1  3  2 -1</clus>
<clus scale="  137.639">  2  6  1 -1</clus>
<clus scale="   71.060">  1  3  2 -1</clus>
</clustering>
</event>
<event>
 6    0  0.2117869E+002  0.1155843E+03  0.7546771E-02  0.1250565E+00
          2   -1    0    0  503    0 -0.00000000000E+00  0.00000000000E+00  0.13447737238E+04  0.13447737238E+04  0.00000000000E+00 0.  1.
         21   -1    0    0  501  502  0.00000000000E+00 -0.00000000000E+00 -0.49003344884E+03  0.49003344884E+03  0.00000000000E+00 0.  1.
         21    1    1    2  503  504  0.34371004169E+02 -0.38631454851E+00  0.35026396304E+03  0.35194652857E+03  0.00000000000E+00 0.  1.
         21    1    1    2  504  505  0.16715653003E+02  0.10734036932E+03  0.17237804332E+03  0.20375366931E+03  0.00000000000E+00 0.  1.
         21    1    1    2  505  502  0.73405447152E+02 -0.91357929640E+02 -0.46124661534E+03  0.47590237564E+03  0.00000000000E+00 0.  1.
          2    1    1    2  501    0 -0.12449210432E+03 -0.15596125130E+02  0.79334488390E+03  0.80320459908E+03  0.00000000000E+00 0.  1.
<scales pt_clust_3="34.37318" pt_clust_4="14000.00000" pt_clust_5="115.58433" pt_clust_6="98.17691"></scales>
<clustering>
<clus scale="   34.373">  1  3  2 -1</clus>
<clus scale="   98.177">  1  6  2 -1</clus>
<clus scale="  115.584">  2  5  1 -1</clus>
<clus scale="  115.584">  2  3  1 -1</clus>
</clustering>
</event>
<event>
 6    0  0.2117869E+002  0.8293642E+02  0.7546771E-02  0.1320919E+00
         21   -1    0    0  504  502  0.00000000000E+00  0.00000000000E+00  0.11911067361E+03  0.11911067361E+03  0.00000000000E+00 0.  1.
          1   -1    0    0  505    0 -0.00000000000E+00 -0.00000000000E+00 -0.13325905264E+04  0.13325905264E+04  0.00000000000E+00 0. -1.
         21    1    1    2  503  502 -0.11351756484E+03 -0.67993461620E+02  0.36873250594E+02  0.13736442392E+03  0.00000000000E+00 0.  1.
         21    1    1    2  504  501  0.43732780050E+02  0.33566741745E+02 -0.16543155586E+01  0.55154500834E+02  0.00000000000E+00 0.  1.
         21    1    1    2  505  503 -0.37614090829E+02 -0.18082550528E+02 -0.26940542658E+03  0.27261893245E+03  0.00000000000E+00 0.  1.
          1    1    1    2  501    0  0.10739887561E+03  0.52509270403E+02 -0.97929336130E+03  0.98656334284E+03  0.00000000000E+00 0. -1.
<scales pt_clust_3="82.93642" pt_clust_4="54.03721" pt_clust_5="41.73486" pt_clust_6="14000.00000"></scales>
<clustering>
<clus scale="   41.735">  2  5  1 -1</clus>
<clus scale="   54.037">  1  4  2 -1</clus>
<clus scale="   82.936">  1  3  2 -1</clus>
<clus scale="   54.037">  1  3  2 -1</clus>
</clustering>
</event>
<event>
 6    0  0.2117869E+002  0.4310622E+03  0.7546771E-02  0.1033525E+00
         21   -1    0    0  503  502  0.00000000000E+00  0.00000000000E+00  0.21960015979E+03  0.21960015979E+03  0.00000000000E+00 0.  1.
          1   -1    0    0  505    0 -0.00000000000E+00 -0.00000000000E+00 -0.20264275629E+04  0.20264275629E+04  0.00000000000E+00 0.  1.
         21    1    1    2  503  501 -0.21694619121E+02 -0.20877258770E+02  0.87162451760E+02  0.92216101790E+02  0.00000000000E+00 0. -1.
         21    1    1    2  504  502  0.34966759069E+02 -0.36419125888E+01  0.15497984646E+02  0.38420376042E+02  0.00000000000E+00 0.  1.
         21    1    1    2  505  504 -0.27894030190E+03  0.34076065759E+03 -0.13497125448E+04  0.14197357048E+04  0.00000000000E+00 0.  1.
          1    1    1    2  501    0  0.26566816196E+03 -0.31624148623E+03 -0.55977529472E+03  0.69565554010E+03  0.00000000000E+00 0.  1.
<scales pt_clust_3="30.10841" pt_clust_4="31.49107" pt_clust_5="431.06215" pt_clust_6="14000.00000"></scales>
<clustering>
<clus scale="   30.108">  1  3  2 -1</clus>
<clus scale="   31.491">  1  4  2 -1</clus>
<clus scale="  431.062">  2  5  1 -1</clus>
<clus scale="   30.108">  1  3  2 -1</clus>
</clustering>
</event>
<event>
 6    0  0.2117869E+002  0.1374690E+03  0.7546771E-02  0.1216776E+00
         21   -1    0    0  503  502  0.00000000000E+00  0.00000000000E+00  0.90415672920E+03  0.90415672920E+03  0.00000000000E+00 0. -1.
          2   -1    0    0  505    0 -0.00000000000E+00 -0.00000000000E+00 -0.74495513184E+03  0.74495513184E+03  0.00000000000E+00 0. -1.
         21    1    1    2  503  501  0.14200881689E+03  0.23440126385E+02  0.80551058146E+03  0.81826844033E+03  0.00000000000E+00 0. -1.
         21    1    1    2  504  502 -0.10241660924E+03 -0.26569138974E+02  0.56860181410E+02  0.12011728112E+03  0.00000000000E+00 0. -1.
         21    1    1    2  505  504 -0.19875943592E+02 -0.33529187852E+02 -0.12215409038E+03  0.12822200033E+03  0.00000000000E+00 0.  1.
          2    1    1    2  501    0 -0.19716264066E+02  0.36658200441E+02 -0.58101507513E+03  0.58250413926E+03  0.00000000000E+00 0. -1.
<scales pt_clust_3="137.46900" pt_clust_4="14000.00000" pt_clust_5="38.97768" pt_clust_6="38.72205"></scales>
<clustering>
<clus scale="   38.978">  2  5  1 -1</clus>
<clus scale="   38.722">  2  6  1 -1</clus>
<clus scale="  137.469">  1  3  2 -1</clus>
<clus scale="  137.469">  1  3  2 -1</clus>
</clustering>
</event>
<event>
 6    0  0.2117869E+002  0.8141755E+02  0.7546771E-02  0.1325076E+00
         21   -1    0    0  505  502  0.00000000000E+00  0.00000000000E+00  0.72990706444E+03  0.72990706444E+03  0.00000000000E+00 0. -1.
         -2   -1    0    0    0  501 -0.00000000000E+00 -0.00000000000E+00 -0.67017239908E+02  0.67017239908E+02  0.00000000000E+00 0.  1.
         21    1    1    2  503  502 -0.16226641321E+02  0.52787927481E+02  0.16506464289E+02  0.57639678518E+02  0.00000000000E+00 0.  1.
         21    1    1    2  504  501  0.46297904577E+02  0.55402080784E+02  0.13446929372E+03  0.15262659492E+03  0.00000000000E+00 0.  1.
         21    1    1    2  505  504  0.46171938349E+01 -0.91603951123E+02  0.53433417567E+03  0.54214906956E+03  0.00000000000E+00 0. -1.
         -2    1    1    2    0  503 -0.34688457090E+02 -0.16586057142E+02 -0.22420109140E+02  0.44508961352E+02  0.00000000000E+00 0.  1.
<scales pt_clust_3="56.76292" pt_clust_4="81.41755" pt_clust_5="14000.00000" pt_clust_6="38.44979"></scales>
<clustering>
<clus scale="   38.450">  2  6  1 -1</clus>
<clus scale="   56.763">  2  3  1 -1</clus>
<clus scale="   81.418">  2  4  1 -1</clus>
<clus scale="   81.418">  1  3  2 -1</clus>
</clustering>
</event>
<event>
 6    0  0.2117869E+002  0.1678891E+03  0.7546771E-02  0.1180067E+00
          2   -1    0    0  505    0 -0.00000000000E+00  0.00000000000E+00  0.10307535532E+04  0.10307535532E+04  0.00000000000E+00 0.  1.
         21   -1    0    0  504  502  0.00000000000E+00 -0.00000000000E+00 -0.11057589770E+04  0.11057589770E+04  0.00000000000E+00 0.  1.
         21    1    1    2  503  502 -0.33054639295E+02 -0.28031730607E+02 -0.36988955374E+03  0.37242001701E+03  0.00000000000E+00 0.  1.
         21    1    1    2  504  501  0.66705832737E+01 -0.10431648750E+03  0.17496009914E+02  0.10598366199E+03  0.00000000000E+00 0.  1.
         21    1    1    2  505  503  0.15192398236E+02 -0.47336118528E+02 -0.68107354150E+03  0.68288555850E+03  0.00000000000E+00 0.  1.
          2    1    1    2  501    0  0.11191657785E+02  0.17968433663E+03  0.95846166148E+03  0.97522329267E+03  0.00000000000E+00 0.  1.
<scales pt_clust_3="43.34036" pt_clust_4="14000.00000" pt_clust_5="74.97817" pt_clust_6="167.88914"></scales>
<clustering>
<clus scale="   43.340">  2  3  1 -1</clus>
<clus scale="   74.978">  2  5  1 -1</clus>
<clus scale="  167.889">  1  6  2 -1</clus>
<clus scale="   43.340">  2  3  1 -1</clus>
</clustering>
</event>
<event>
 6    0  0.2117869E+002  0.9994760E+02  0.7546771E-02  0.1280406E+00
         21   -1    0    0  505  502  0.00000000000E+00  0.00000000000E+00  0.14740201560E+03  0.14740201560E+03  0.00000000000E+00 0. -1.
         -4   -1    0    0    0  501 -0.00000000000E+00 -0.00000000000E+00 -0.69126246356E+03  0.69126246356E+03  0.00000000000E+00 0.  1.
         21    1    1    2  503  501  0.84765817023E+01  0.42955677659E+02 -0.70542758757E+02  0.83026041057E+02  0.00000000000E+00 0.  1.
         21    1    1    2  504  502  0.82473398546E+02 -0.10277011106E+03  0.18958056714E+02  0.13312762714E+03  0.00000000000E+00 0. -1.
         21    1    1    2  505  503 -0.53632462480E+02  0.65306099435E+02  0.36743284387E+02  0.92148774287E+02  0.00000000000E+00 0. -1.
         -4    1    1    2    0  504 -0.37317517769E+02 -0.54916660364E+01 -0.52901903030E+03  0.53036203668E+03  0.00000000000E+00 0.  1.
<scales pt_clust_3="41.39442" pt_clust_4="99.94760" pt_clust_5="14000.00000" pt_clust_6="37.71943"></scales>
<clustering>
<clus scale="   37.719">  2  6  1 -1</clus>
<clus scale="   41.394">  2  3  1 -1</clus>
<clus scale="   99.948">  2  4  1 -1</clus>
<clus scale="   99.948">  1  3  2 -1</clus>
</clustering>
</event>
<event>
 6    0  0.2117869E+002  0.1138794E+03  0.7546771E-02  0.1253550E+00
          2   -1    0    0  503    0 -0.00000000000E+00  0.00000000000E+00  0.86867636249E+03  0.86867636249E+03  0.00000000000E+00 0.  1.
         21   -1    0    0  505  502  0.00000000000E+00 -0.00000000000E+00 -0.12676139601E+04  0.12676139601E+04  0.00000000000E+00 0.  1.
         21    1    1    2  503  502 -0.56750189772E+01 -0.45573634029E+02 -0.10748247552E+04  0.10758054732E+04  0.00000000000E+00 0.  1.
         21    1    1    2  504  501  0.92139250970E+02  0.33066734268E+02  0.73480523197E+01  0.98168448889E+02  0.00000000000E+00 0.  1.
         21    1    1    2  505  504  0.27076653350E+02 -0.14565768841E+02 -0.14104698341E+03  0.14435912963E+03  0.00000000000E+00 0.  1.
          2    1    1    2  501    0 -0.11354088534E+03  0.27072668601E+02  0.80958608862E+03  0.81795727084E+03  0.00000000000E+00 0.  1.
<scales pt_clust_3="62.83531" pt_clust_4="113.87944" pt_clust_5="30.74584" pt_clust_6="14000.00000"></scales>
<clustering>
<clus scale="   30.746">  2  5  1 -1</clus>
<clus scale="   62.835">  2  3  1 -1</clus>
<clus scale="  113.879">  2  4  1 -1</clus>
<clus scale="   30.746">  2  3  1 -1</clus>
</clustering>
</event>
<event>
 6    0  0.2117869E+002  0.8990272E+02  0.7546771E-02  0.1303087E+00
         21   -1    0    0  505  502  0.00000000000E+00  0.00000000000E+00  0.35550298189E+02  0.35550298189E+02  0.00000000000E+00 0.  1.
         -1   -1    0    0    0  501 -0.00000000000E+00 -0.00000000000E+00 -0.25610595679E+04  0.25610595679E+04  0.00000000000E+00 0. -1.
         21    1    1    2  503  501 -0.74955724594E+02 -0.56967764763E+02 -0.70477265311E+03  0.71103317746E+03  0.00000000000E+00 0.  1.
         21    1    1    2  504  502  0.38415173596E+02  0.51784663490E+02 -0.14912318622E+03  0.16246569362E+03  0.00000000000E+00 0.  1.
         21    1    1    2  505  503 -0.38868425756E+02 -0.41018365844E+02 -0.79113429231E+01  0.57060057870E+02  0.00000000000E+00 0.  1.
         -1    1    1    2    0  504  0.75408976754E+02  0.46201467117E+02 -0.16637020875E+04  0.16660509372E+04  0.00000000000E+00 0. -1.
<scales pt_clust_3="14000.00000" pt_clust_4="30.65730" pt_clust_5="56.50894" pt_clust_6="89.90272"></scales>
<clustering>
<clus scale="   56.509">  1  5  2 -1</clus>
<clus scale="   30.657">  1  4  2 -1</clus>
<clus scale="   89.903">  2  6  1 -1</clus>
<clus scale="   56.509">  1  3  2 -1</clus>
</clustering>
</event>
<event>
 6    0  0.2117869E+002  0.1099709E+03  0.7546771E-02  0.1260624E+00
         -2   -1    0    0    0  501 -0.00000000000E+00  0.00000000000E+00  0.25558116923E+03  0.25558116923E+03  0.00000000000E+00 0.  1.
         21   -1    0    0  505  502  0.00000000000E+00 -0.00000000000E+00 -0.38024167167E+03  0.38024167167E+03  0.00000000000E+00 0.  1.
         21    1    1    2  503  504 -0.11107526959E+03 -0.91162299818E+02 -0.14255424600E+03  0.20241045792E+03  0.00000000000E+00 0. -1.
         21    1    1    2  504  502  0.19283577733E+02  0.40070637490E+02 -0.17736579862E+03  0.18285551367E+03  0.00000000000E+00 0.  1.
         21    1    1    2  505  501 -0.18964306948E+02  0.32005564602E+02  0.19677438387E+02  0.42085658900E+02  0.00000000000E+00 0.  1.
         -2    1    1    2    0  503  0.11075599881E+03  0.19086097726E+02  0.17558210379E+03  0.20847121041E+03  0.00000000000E+00 0.  1.
<scales pt_clust_3="109.97088" pt_clust_4="44.72267" pt_clust_5="37.20217" pt_clust_6="14000.00000"></scales>
<clustering>
<clus scale="   37.202">  1  5  2 -1</clus>
<clus scale="   44.723">  2  4  1 -1</clus>
<clus scale="  109.971">  2  3  1 -1</clus>
<clus scale="   44.723">  2  3  1 -1</clus>
</clustering>
</event>
<event>
 6    0  0.2117869E+002  0.6956969E+02  0.7546771E-02  0.1361562E+00
         21   -1    0    0  505  502  0.00000000000E+00  0.00000000000E+00  0.17061240118E+04  0.17061240118E+04  0.00000000000E+00 0.  1.
          1   -1    0    0  504    0 -0.00000000000E+00 -0.00000000000E+00 -0.46318030406E+02  0.46318030406E+02  0.00000000000E+00 0.  1.
         21    1    1    2  503  502 -0.33463949569E+02 -0.97826942423E+01  0.95577707564E+03  0.95641275365E+03  0.00000000000E+00 0.  1.
         21    1    1    2  504  503  0.54605965684E+02 -0.33795114958E+02  0.59022010924E+03  0.59370337596E+03  0.00000000000E+00 0.  1.
         21    1    1    2  505  501 -0.23221319696E+02  0.10174370823E+03  0.95095765822E+02  0.14118858498E+03  0.00000000000E+00 0.  1.
          1    1    1    2  501    0  0.20793035820E+01 -0.58165899027E+02  0.18713030740E+02  0.61137327653E+02  0.00000000000E+00 0.  1.
<scales pt_clust_3="34.86455" pt_clust_4="50.18483" pt_clust_5="69.56969" pt_clust_6="14000.00000"></scales>
<clustering>
<clus scale="   34.865">  1  3  2 -1</clus>
<clus scale="   50.185">  1  4  2 -1</clus>
<clus scale="   69.570">  1  5  2 -1</clus>
<clus scale="   34.865">  1  3  2 -1</clus>
</clustering>
</event>
<event>
 6    0  0.2117869E+002  0.1593551E+03  0.7546771E-02  0.1189427E+00
         21   -1    0    0  501  502  0.00000000000E+00  0.00000000000E+00  0.33000552617E+03  0.33000552617E+03  0.00000000000E+00 0.  1.
          1   -1    0    0  505    0 -0.00000000000E+00 -0.00000000000E+00 -0.92588947358E+03  0.92588947358E+03  0.00000000000E+00 0.  1.
         21    1    1    2  503  504  0.72080810139E+01  0.82380201972E+02  0.23009716833E+03  0.24450595286E+03  0.00000000000E+00 0.  1.
         21    1    1    2  504  502 -0.32227017656E+01  0.79715944080E+02  0.56543921649E+02  0.97786668941E+02  0.00000000000E+00 0. -1.
         21    1    1    2  505  503  0.29838426695E+02  0.29335688835E+02 -0.15191325543E+03  0.15757078257E+03  0.00000000000E+00 0.  1.
          1    1    1    2  501    0 -0.33823805943E+02 -0.19143183489E+03 -0.73061178196E+03  0.75603159537E+03  0.00000000000E+00 0.  1.
<scales pt_clust_3="14000.00000" pt_clust_4="80.53693" pt_clust_5="41.84393" pt_clust_6="159.35511"></scales>
<clustering>
<clus scale="   41.844">  2  5  1 -1</clus>
<clus scale="   80.537">  1  4  2 -1</clus>
<clus scale="  159.355">  2  6  1 -1</clus>
<clus scale="   80.537">  1  3  2 -1</clus>
</clustering>
</event>
<event>
 6    0  0.2117869E+002  0.7778290E+02  0.7546771E-02  0.1335464E+00
         21   -1    0    0  504  502  0.00000000000E+00  0.00000000000E+00  0.14033201105E+03  0.14033201105E+03  0.00000000000E+00 0. -1.
          2   -1    0    0  503    0 -0.00000000000E+00 -0.00000000000E+00 -0.20143070322E+03  0.20143070322E+03  0.00000000000E+00 0. -1.
         21    1    1    2  503  505 -0.68815436001E+02 -0.40873584904E+02 -0.79271376048E+02  0.11265063353E+03  0.00000000000E+00 0. -1.
         21    1    1    2  504  501  0.72898655108E+02 -0.53718022968E+02  0.30973353909E+01  0.90605923618E+02  0.00000000000E+00 0. -1.
         21    1    1    2  505  502  0.23248210434E+02  0.45052867972E+02  0.50657764259E+02  0.71669025950E+02  0.00000000000E+00 0. -1.
          2    1    1    2  501    0 -0.27331429541E+02  0.49538739900E+02 -0.35582415768E+02  0.66837131174E+02  0.00000000000E+00 0. -1.
<scales pt_clust_3="77.78290" pt_clust_4="14000.00000" pt_clust_5="50.69754" pt_clust_6="62.70168"></scales>
<clustering>
<clus scale="   50.698">  1  5  2 -1</clus>
<clus scale="   62.702">  2  6  1 -1</clus>
<clus scale="   77.783">  2  3  1 -1</clus>
<clus scale="   50.698">  1  3  2 -1</clus>
</clustering>
</event>
<event>
 6    0  0.2117869E+002  0.2625188E+03  0.7546771E-02  0.1105639E+00
         21   -1    0    0  504  502  0.00000000000E+00  0.00000000000E+00  0.66681820619E+03  0.66681820619E+03  0.00000000000E+00 0. -1.
          3   -1    0    0  505    0 -0.00000000000E+00 -0.00000000000E+00 -0.42337627126E+03  0.42337627126E+03  0.00000000000E+00 0.  1.
         21    1    1    2  503  502 -0.34815616187E+02  0.22974370684E+03  0.36298279536E+03  0.43098817581E+03  0.00000000000E+00 0. -1.
         21    1    1    2  504  501 -0.38179686774E+01  0.34072198697E+02  0.18610982166E+03  0.18924153172E+03  0.00000000000E+00 0.  1.
         21    1    1    2  505  503  0.34824965018E+02  0.15738969746E+02 -0.13971908998E+03  0.14485136334E+03  0.00000000000E+00 0. -1.
          3    1    1    2  501    0  0.38086198469E+01 -0.27955487528E+03 -0.16593159211E+03  0.32511340658E+03  0.00000000000E+00 0.  1.
<scales pt_clust_3="262.51883" pt_clust_4="34.28544" pt_clust_5="38.27332" pt_clust_6="14000.00000"></scales>
<clustering>
<clus scale="   34.285">  1  4  2 -1</clus>
<clus scale="   38.273">  2  5  1 -1</clus>
<clus scale="  262.519">  1  3  2 -1</clus>
<clus scale="   34.285">  1  3  2 -1</clus>
</clustering>
</event>
<event>
 6    0  0.2117869E+002  0.9269300E+02  0.7546771E-02  0.1296458E+00
         21   -1    0    0  505  502  0.00000000000E+00  0.00000000000E+00  0.10235730799E+04  0.10235730799E+04  0.00000000000E+00 0.  1.
         -2   -1    0    0    0  501 -0.00000000000E+00 -0.00000000000E+00 -0.11538839545E+03  0.11538839545E+03  0.00000000000E+00 0.  1.
         21    1    1    2  503  501  0.14679291837E+02  0.26787370441E+02  0.40761955917E+01  0.30816557149E+02  0.00000000000E+00 0. -1.
         21    1    1    2  504  502 -0.11395809084E+03 -0.48981225066E+02  0.72132351227E+03  0.73191066138E+03  0.00000000000E+00 0.  1.
         21    1    1    2  505  503  0.29308622742E+02  0.11803889222E+02  0.26551340827E+03  0.26738679313E+03  0.00000000000E+00 0.  1.
         -2    1    1    2    0  504  0.69970176262E+02  0.10389965402E+02 -0.82728431681E+02  0.10884746371E+03  0.00000000000E+00 0.  1.
<scales pt_clust_3="30.54578" pt_clust_4="92.69300" pt_clust_5="31.81372" pt_clust_6="14000.00000"></scales>
<clustering>
<clus scale="   30.546">  2  3  1 -1</clus>
<clus scale="   31.814">  1  5  2 -1</clus>
<clus scale="   92.693">  1  4  2 -1</clus>
<clus scale="   31.814">  1  3  2 -1</clus>
</clustering>
</event>
<event>
 6    0  0.2117869E+002  0.6900221E+02  0.7546771E-02  0.1363519E+00
         21   -1    0    0  505  502  0.00000000000E+00  0.00000000000E+00  0.99058350780E+03  0.99058350780E+03  0.00000000000E+00 0.  1.
          2   -1    0    0  504    0 -0.00000000000E+00 -0.00000000000E+00 -0.87540994278E+03  0.87540994278E+03  0.00000000000E+00 0.  1.
         21    1    1    2  503  502 -0.94219603620E+01 -0.93753870414E+02  0.76002186392E+03  0.76584058080E+03  0.00000000000E+00 0.  1.
         21    1    1    2  504  503 -0.35292139238E+02  0.58669935075E+02  0.20111781495E+03  0.21245251673E+03  0.00000000000E+00 0. -1.
         21    1    1    2  505  501 -0.13066261373E+02  0.27554679985E+02  0.81762651268E+01  0.31572755451E+02  0.00000000000E+00 0. -1.
          2    1    1    2  501    0  0.57780360974E+02  0.75292553531E+01 -0.85414237898E+03  0.85612759760E+03  0.00000000000E+00 0.  1.
<scales pt_clust_3="69.00221" pt_clust_4="14000.00000" pt_clust_5="30.49570" pt_clust_6="58.25926"></scales>
<clustering>
<clus scale="   30.496">  1  5  2 -1</clus>
<clus scale="   58.259">  2  6  1 -1</clus>
<clus scale="   69.002">  1  3  2 -1</clus>
<clus scale="   30.496">  1  3  2 -1</clus>
</clustering>
</event>
<event>
 6    0  0.2117869E+002  0.7962872E+02  0.7546771E-02  0.1330108E+00
          1   -1    0    0  504    0 -0.00000000000E+00  0.00000000000E+00  0.26987995589E+04  0.26987995589E+04  0.00000000000E+00 0.  1.
         21   -1    0    0  501  502  0.00000000000E+00 -0.00000000000E+00 -0.95584916516E+02  0.95584916516E+02  0.00000000000E+00 0. -1.
         21    1    1    2  503  505 -0.62228911200E+02  0.10459253743E+02  0.17500388258E+04  0.17511760977E+04  0.00000000000E+00 0.  1.
         21    1    1    2  504  503  0.49461479408E+01 -0.34729229058E+02  0.63326422899E+03  0.63423510424E+03  0.00000000000E+00 0.  1.
         21    1    1    2  505  502 -0.29770318308E+02  0.73833151705E+02 -0.67645253918E+02  0.10446763384E+03  0.00000000000E+00 0. -1.
          1    1    1    2  501    0  0.87053081567E+02 -0.49563176390E+02  0.28755684149E+03  0.30450563961E+03  0.00000000000E+00 0.  1.
<scales pt_clust_3="61.06124" pt_clust_4="35.07968" pt_clust_5="79.62872" pt_clust_6="14000.00000"></scales>
<clustering>
<clus scale="   35.080">  1  4  2 -1</clus>
<clus scale="   61.061">  1  3  2 -1</clus>
<clus scale="   79.629">  2  5  1 -1</clus>
<clus scale="   79.629">  2  3  1 -1</clus>
</clustering>
</event>
<event>
 6    0  0.2117869E+002  0.9784933E+02  0.7546771E-02  0.1284885E+00
         21   -1    0    0  504  502  0.00000000000E+00  0.00000000000E+00  0.32496901340E+03  0.32496901340E+03  0.00000000000E+00 0. -1.
         -2   -1    0    0    0  501 -0.00000000000E+00 -0.00000000000E+00 -0.15057161114E+03  0.15057161114E+03  0.00000000000E+00 0. -1.
         21    1    1    2  503  502  0.67278673215E+02 -0.15196650904E+02  0.20048804463E+03  0.21202078697E+03  0.00000000000E+00 0. -1.
         21    1    1    2  504  505  0.31249095182E+02  0.29999195925E+02  0.32937477048E+02  0.54418150466E+02  0.00000000000E+00 0.  1.
         21    1    1    2  505  501  0.43194756306E+02 -0.34480566930E+02 -0.27125907072E+01  0.55335834831E+02  0.00000000000E+00 0.  1.
         -2    1    1    2    0  503 -0.14172252470E+03  0.19678021909E+02 -0.56315528700E+02  0.15376585228E+03  0.00000000000E+00 0. -1.
<scales pt_clust_3="14000.00000" pt_clust_4="43.31810" pt_clust_5="55.94748" pt_clust_6="97.84933"></scales>
<clustering>
<clus scale="   43.318">  1  4  2 -1</clus>
<clus scale="   55.947">  2  5  1 -1</clus>
<clus scale="   97.849">  2  6  1 -1</clus>
<clus scale="   43.318">  1  3  2 -1</clus>
</clustering>
</event>
<event>
 6    0  0.2117869E+002  0.1085902E+03  0.7546771E-02  0.1263203E+00
          1   -1    0    0  505    0 -0.00000000000E+00  0.00000000000E+00  0.33445731920E+04  0.33445731920E+04  0.00000000000E+00 0.  1.
         21   -1    0    0  503  502  0.00000000000E+00 -0.00000000000E+00 -0.13267916155E+03  0.13267916155E+03  0.00000000000E+00 0. -1.
         21    1    1    2  503  501 -0.83019586568E+02  0.49462009993E+01  0.72533085803E+02  0.11035291203E+03  0.00000000000E+00 0.  1.
         21    1    1    2  504  502 -0.34554539369E+02  0.48131690057E+02 -0.10022509308E+03  0.11642914181E+03  0.00000000000E+00 0. -1.
         21    1    1    2  505  504  0.72884987524E+02  0.58421025736E+02  0.24518140555E+04  0.24535927536E+04  0.00000000000E+00 0.  1.
          1    1    1    2  501    0  0.44689138413E+02 -0.11149891679E+03  0.78777198229E+03  0.79687754619E+03  0.00000000000E+00 0.  1.
<scales pt_clust_3="108.59023" pt_clust_4="59.25096" pt_clust_5="93.54865" pt_clust_6="14000.00000"></scales>
<clustering>
<clus scale="   59.251">  2  4  1 -1</clus>
<clus scale="   93.549">  1  5  2 -1</clus>
<clus scale="  108.590">  2  3  1 -1</clus>
<clus scale="   59.251">  2  3  1 -1</clus>
</clustering>
</event>
<event>
 6    0  0.2117869E+002  0.8679123E+02  0.7546771E-02  0.1310814E+00
         -3   -1    0    0    0  501 -0.00000000000E+00  0.00000000000E+00  0.12837331236E+04  0.12837331236E+04  0.00000000000E+00 0.  1.
         21   -1    0    0  503  502  0.00000000000E+00 -0.00000000000E+00 -0.92619531142E+03  0.92619531142E+03  0.00000000000E+00 0.  1.
         21    1    1    2  503  504 -0.56449749879E+02  0.40159448323E+02 -0.84928586273E+03  0.85210670235E+03  0.00000000000E+00 0.  1.
         21    1    1    2  504  501  0.57809063610E+02 -0.91593327526E+02  0.26408494858E+03  0.28543315425E+03  0.00000000000E+00 0.  1.
         21    1    1    2  505  502  0.83921915148E+02  0.48124635571E+02 -0.25779609074E+02  0.10011721448E+03  0.00000000000E+00 0. -1.
         -3    1    1    2    0  505 -0.85281228879E+02  0.33092436317E+01  0.96851833540E+03  0.97227136392E+03  0.00000000000E+00 0.  1.
<scales pt_clust_3="69.27738" pt_clust_4="85.38974" pt_clust_5="14000.00000" pt_clust_6="86.79123"></scales>
<clustering>
<clus scale="   69.277">  2  3  1 -1</clus>
<clus scale="   86.791">  1  6  2 -1</clus>
<clus scale="   85.390">  1  4  2 -1</clus>
<clus scale="   69.277">  2  3  1 -1</clus>
</clustering>
</event>
<event>
 6    0  0.2117869E+002  0.1277287E+03  0.7546771E-02  0.1230865E+00
          1   -1    0    0  503    0 -0.00000000000E+00  0.00000000000E+00  0.98691992356E+03  0.98691992356E+03  0.00000000000E+00 0.  1.
         21   -1    0    0  504  502  0.00000000000E+00 -0.00000000000E+00 -0.48701278511E+02  0.48701278511E+02  0.00000000000E+00 0.  1.
         21    1    1    2  503  505  0.64061295529E+02 -0.21617455373E+02  0.69101488853E+02  0.96675641831E+02  0.00000000000E+00 0.  1.
         21    1    1    2  504  501 -0.43642996106E+01  0.42773619830E+02  0.72762318441E+02  0.84516179808E+02  0.00000000000E+00 0.  1.
         21    1    1    2  505  502  0.57733967764E+02 -0.42035725658E+02  0.27738101835E+02  0.76613416311E+02  0.00000000000E+00 0.  1.
          1    1    1    2  501    0 -0.11743096368E+03  0.20879561201E+02  0.76861673591E+03  0.77781596412E+03  0.00000000000E+00 0.  1.
<scales pt_clust_3="40.88165" pt_clust_4="42.99569" pt_clust_5="40.88165" pt_clust_6="120.62029"></scales>
<clustering>
<clus scale="   40.882">  3  5 -1 -1</clus>
<clus scale="   42.996">  2  4  1 -1</clus>
<clus scale="  120.620">  1  6  2 -1</clus>
<clus scale="   42.996">  2  3  1 -1</clus>
</clustering>
</event>
<event>
 6    0  0.2117869E+002  0.8529610E+02  0.7546771E-02  0.1314660E+00
          2   -1    0    0  505    0 -0.00000000000E+00  0.00000000000E+00  0.37965922421E+04  0.37965922421E+04  0.00000000000E+00 0.  1.
         21   -1    0    0  504  502  0.00000000000E+00 -0.00000000000E+00 -0.13044997966E+02  0.13044997966E+02  0.00000000000E+00 0. -1.
         21    1    1    2  503  502  0.38441489727E+02  0.67330826917E+01  0.38867509819E+02  0.55079631938E+02  0.00000000000E+00 0. -1.
         21    1    1    2  504  501  0.31361778579E+02 -0.84764866461E+02  0.13432920573E+04  0.13463291555E+04  0.00000000000E+00 0. -1.
         21    1    1    2  505  503  0.16858370237E+02  0.41639901544E+02  0.20653497317E+03  0.21136409627E+03  0.00000000000E+00 0. -1.
          2    1    1    2  501    0 -0.86661638543E+02  0.36391882226E+02  0.21948527039E+04  0.21968643564E+04  0.00000000000E+00 0.  1.
<scales pt_clust_3="39.02669" pt_clust_4="85.29610" pt_clust_5="57.35761" pt_clust_6="14000.00000"></scales>
<clustering>
<clus scale="   39.027">  2  3  1 -1</clus>
<clus scale="   57.358">  2  5  1 -1</clus>
<clus scale="   85.296">  2  4  1 -1</clus>
<clus scale="   39.027">  2  3  1 -1</clus>
</clustering>
</event>
<event>
 6    0  0.2117869E+002  0.2409605E+03  0.7546771E-02  0.1119155E+00
         21   -1    0    0  505  502  0.00000000000E+00  0.00000000000E+00  0.71324453956E+03  0.71324453956E+03  0.00000000000E+00 0. -1.
          3   -1    0    0  503    0 -0.00000000000E+00 -0.00000000000E+00 -0.27851142155E+03  0.27851142155E+03  0.00000000000E+00 0.  1.
         21    1    1    2  503  504 -0.83925396847E+02 -0.18805896603E+03  0.30066265745E+03  0.36442788110E+03  0.00000000000E+00 0. -1.
         21    1    1    2  504  502  0.26189832077E+02 -0.25259931493E+02  0.50670056506E+02  0.62381295831E+02  0.00000000000E+00 0.  1.
         21    1    1    2  505  501 -0.47391837631E+02 -0.11012435374E+02  0.25755898756E+03  0.26211427294E+03  0.00000000000E+00 0. -1.
          3    1    1    2  501    0  0.10512740240E+03  0.22433133290E+03 -0.17415858349E+03  0.30283251123E+03  0.00000000000E+00 0.  1.
<scales pt_clust_3="14000.00000" pt_clust_4="36.38642" pt_clust_5="42.57317" pt_clust_6="240.96046"></scales>
<clustering>
<clus scale="   36.386">  1  4  2 -1</clus>
<clus scale="   42.573">  1  5  2 -1</clus>
<clus scale="  240.960">  2  6  1 -1</clus>
<clus scale="   36.386">  1  3  2 -1</clus>
</clustering>
</event>
<event>
 6    0  0.2117869E+002  0.1336900E+03  0.7546771E-02  0.1222081E+00
         21   -1    0    0  501  502  0.00000000000E+00  0.00000000000E+00  0.42284494768E+03  0.42284494768E+03  0.00000000000E+00 0. -1.
          2   -1    0    0  505    0 -0.00000000000E+00 -0.00000000000E+00 -0.63295299945E+03  0.63295299945E+03  0.00000000000E+00 0.  1.
         21    1    1    2  503  502  0.82830361826E+02 -0.43963631170E+02  0.28791855642E+03  0.30280482962E+03  0.00000000000E+00 0. -1.
         21    1    1    2  504  503  0.35359327220E+02  0.18831323970E+02  0.11041821851E+03  0.11746098826E+03  0.00000000000E+00 0. -1.
         21    1    1    2  505  504 -0.88750331982E+01  0.41042481784E+02 -0.45760707509E+02  0.62107116154E+02  0.00000000000E+00 0.  1.
          2    1    1    2  501    0 -0.10931465585E+03 -0.15910174584E+02 -0.56268411920E+03  0.57342501309E+03  0.00000000000E+00 0.  1.
<scales pt_clust_3="37.83464" pt_clust_4="37.83464" pt_clust_5="41.99109" pt_clust_6="120.50841"></scales>
<clustering>
<clus scale="   37.835">  3  4 -1 -1</clus>
<clus scale="   41.991">  2  5  1 -1</clus>
<clus scale="  120.508">  2  6  1 -1</clus>
<clus scale="  133.690">  1  3  2 -1</clus>
</clustering>
</event>
<event>
 6    0  0.2117869E+002  0.2970140E+03  0.7546771E-02  0.1086743E+00
         21   -1    0    0  501  502  0.00000000000E+00  0.00000000000E+00  0.65768516587E+03  0.65768516587E+03  0.00000000000E+00 0. -1.
          1   -1    0    0  503    0 -0.00000000000E+00 -0.00000000000E+00 -0.11346185555E+04  0.11346185555E+04  0.00000000000E+00 0. -1.
         21    1    1    2  503  505  0.19768331086E+02 -0.43891404065E+02 -0.74775158924E+02  0.88930122325E+02  0.00000000000E+00 0. -1.
         21    1    1    2  504  502  0.23951539958E+03 -0.16277394240E+03  0.43551685921E+03  0.52300852537E+03  0.00000000000E+00 0. -1.
         21    1    1    2  505  504 -0.32310058469E+03  0.98550103856E+02 -0.45425993546E+01  0.33782650282E+03  0.00000000000E+00 0. -1.
          1    1    1    2  501    0  0.63816854025E+02  0.10811524260E+03 -0.83313249059E+03  0.84253857088E+03  0.00000000000E+00 0. -1.
<scales pt_clust_3="48.13774" pt_clust_4="14000.00000" pt_clust_5="297.01397" pt_clust_6="108.09294"></scales>
<clustering>
<clus scale="   48.138">  2  3  1 -1</clus>
<clus scale="  108.093">  2  6  1 -1</clus>
<clus scale="  297.014">  2  5  1 -1</clus>
<clus scale="  297.014">  1  3  2 -1</clus>
</clustering>
</event>
<event>
 6    0  0.2117869E+002  0.1020584E+03  0.7546771E-02  0.1276026E+00
         -1   -1    0    0    0  501 -0.00000000000E+00  0.00000000000E+00  0.61454183621E+02  0.61454183621E+02  0.00000000000E+00 0. -1.
         21   -1    0    0  503  502  0.00000000000E+00 -0.00000000000E+00 -0.68928708575E+03  0.68928708575E+03  0.00000000000E+00 0. -1.
         21    1    1    2  503  501 -0.10544350588E+02  0.33659193964E+02 -0.16881220679E+02  0.39103711835E+02  0.00000000000E+00 0. -1.
         21    1    1    2  504  502  0.18042568506E+02  0.46247480375E+02 -0.10694126706E+03  0.11790164681E+03  0.00000000000E+00 0. -1.
         21    1    1    2  505  504  0.71521398601E+02  0.13527823758E+02 -0.45682063312E+03  0.46258340147E+03  0.00000000000E+00 0. -1.
         -1    1    1    2    0  505 -0.79019616519E+02 -0.93434498096E+02 -0.47189781277E+02  0.13115250926E+03  0.00000000000E+00 0. -1.
<scales pt_clust_3="35.27215" pt_clust_4="52.69338" pt_clust_5="14000.00000" pt_clust_6="102.05839"></scales>
<clustering>
<clus scale="   35.272">  1  3  2 -1</clus>
<clus scale="   52.693">  2  4  1 -1</clus>
<clus scale="  102.058">  1  6  2 -1</clus>
<clus scale="   52.693">  2  3  1 -1</clus>
</clustering>
</event>
<event>
 6    0  0.2117869E+002  0.7422782E+02  0.7546771E-02  0.1346279E+00
         21   -1    0    0  505  502  0.00000000000E+00  0.00000000000E+00  0.19514615952E+02  0.19514615952E+02  0.00000000000E+00 0. -1.
          2   -1    0    0  504    0 -0.00000000000E+00 -0.00000000000E+00 -0.21919360095E+04  0.21919360095E+04  0.00000000000E+00 0.  1.
         21    1    1    2  503  502  0.39332337074E+02 -0.36008066160E+02 -0.21488229811E+03  0.22140012558E+03  0.00000000000E+00 0.  1.
         21    1    1    2  504  503  0.20551119454E+02 -0.30799247564E+02 -0.55079868175E+03  0.55204178282E+03  0.00000000000E+00 0.  1.
         21    1    1    2  505  501  0.29128043025E+02  0.67954329602E+02 -0.82506354717E+02  0.11078597551E+03  0.00000000000E+00 0. -1.
          2    1    1    2  501    0 -0.89011499553E+02 -0.11470158782E+01 -0.13242340589E+04  0.13272227415E+04  0.00000000000E+00 0.  1.
<scales pt_clust_3="58.11847" pt_clust_4="37.02624" pt_clust_5="74.22782" pt_clust_6="14000.00000"></scales>
<clustering>
<clus scale="   37.026">  2  4  1 -1</clus>
<clus scale="   58.118">  1  3  2 -1</clus>
<clus scale="   74.228">  1  5  2 -1</clus>
<clus scale="   58.118">  1  3  2 -1</clus>
</clustering>
</event>
<event>
 6    0  0.2117869E+002  0.7957404E+02  0.7546771E-02  0.1330265E+00
         21   -1    0    0  505  502  0.00000000000E+00  0.00000000000E+00  0.27079895751E+03  0.27079895751E+03  0.00000000000E+00 0. -1.
          4   -1    0    0  503    0 -0.00000000000E+00 -0.00000000000E+00 -0.89168814321E+03  0.89168814321E+03  0.00000000000E+00 0. -1.
         21    1    1    2  503  502  0.73312073089E+01  0.44110939328E+02 -0.12979648525E+03  0.13728309857E+03  0.00000000000E+00 0.  1.
         21    1    1    2  504  501 -0.86596944836E+01 -0.65673786745E+02 -0.48698989215E+02  0.82216957645E+02  0.00000000000E+00 0.  1.
         21    1    1    2  505  504  0.41007714278E+02  0.70333316981E+02  0.24219725969E+03  0.25551501073E+03  0.00000000000E+00 0. -1.
          4    1    1    2  501    0 -0.39679227104E+02 -0.48770469564E+02 -0.68459097092E+03  0.68747203378E+03  0.00000000000E+00 0. -1.
<scales pt_clust_3="44.71601" pt_clust_4="79.57404" pt_clust_5="14000.00000" pt_clust_6="34.21135"></scales>
<clustering>
<clus scale="   44.716">  2  3  1 -1</clus>
<clus scale="   34.211">  2  6  1 -1</clus>
<clus scale="   79.574">  2  4  1 -1</clus>
<clus scale="   79.574">  1  3  2 -1</clus>
</clustering>
</event>
<event>
 6    0  0.2117869E+002  0.9599608E+02  0.7546771E-02  0.1288948E+00
         21   -1    0    0  503  502  0.00000000000E+00  0.00000000000E+00  0.23427863983E+03  0.23427863983E+03  0.00000000000E+00 0.  1.
          2   -1    0    0  505    0 -0.00000000000E+00 -0.00000000000E+00 -0.85389505120E+03  0.85389505120E+03  0.00000000000E+00 0. -1.
         21    1    1    2  503  501  0.27022074888E+02 -0.22359513637E+02  0.14345163726E+03  0.14767705513E+03  0.00000000000E+00 0.  1.
         21    1    1    2  504  502 -0.11022679532E+03 -0.41561092481E+02  0.38078755206E+02  0.12380332149E+03  0.00000000000E+00 0.  1.
         21    1    1    2  505  504  0.51224399837E+02  0.33350094737E+02 -0.12544095389E+03  0.13954067819E+03  0.00000000000E+00 0. -1.
          2    1    1    2  501    0  0.31980320594E+02  0.30570511382E+02 -0.67570584994E+03  0.67715263621E+03  0.00000000000E+00 0. -1.
<scales pt_clust_3="35.07336" pt_clust_4="14000.00000" pt_clust_5="95.99608" pt_clust_6="44.27555"></scales>
<clustering>
<clus scale="   35.073">  1  3  2 -1</clus>
<clus scale="   44.276">  2  6  1 -1</clus>
<clus scale="   95.996">  2  5  1 -1</clus>
<clus scale="   35.073">  1  3  2 -1</clus>
</clustering>
</event>
<event>
 6    0  0.2117869E+002  0.9202787E+02  0.7546771E-02  0.1298014E+00
          2   -1    0    0  502    0 -0.00000000000E+00  0.00000000000E+00  0.94412498332E+03  0.94412498332E+03  0.00000000000E+00 0.  1.
         21   -1    0    0  503  502  0.00000000000E+00 -0.00000000000E+00 -0.62496546462E+02  0.62496546462E+02  0.00000000000E+00 0.  1.
         21    1    1    2  503  505  0.79916012747E+02 -0.37884217847E+02 -0.16066883282E+01  0.88455437949E+02  0.00000000000E+00 0.  1.
         21    1    1    2  504  501 -0.33673385767E+02 -0.29624188381E+02  0.79128656022E+02  0.90955118878E+02  0.00000000000E+00 0.  1.
         21    1    1    2  505  504 -0.49052645646E+02 -0.63372078960E+00  0.50071053175E+02  0.70097603475E+02  0.00000000000E+00 0. -1.
          2    1    1    2  501    0  0.28100186651E+01  0.68142127018E+02  0.75403541599E+03  0.75711336948E+03  0.00000000000E+00 0.  1.
<scales pt_clust_3="83.56346" pt_clust_4="36.86209" pt_clust_5="36.86209" pt_clust_6="68.20004"></scales>
<clustering>
<clus scale="   36.862">  4  5 -1 -1</clus>
<clus scale="   68.200">  1  6  2 -1</clus>
<clus scale="   83.563">  2  3  1 -1</clus>
<clus scale="   83.563">  2  3  1 -1</clus>
</clustering>
</event>
<event>
 6    0  0.2117869E+002  0.6986556E+02  0.7546771E-02  0.1360551E+00
         21   -1    0    0  503  502  0.00000000000E+00  0.00000000000E+00  0.25780011397E+02  0.25780011397E+02  0.00000000000E+00 0. -1.
          2   -1    0    0  505    0 -0.00000000000E+00 -0.00000000000E+00 -0.16458470681E+04  0.16458470681E+04  0.00000000000E+00 0. -1.
         21    1    1    2  503  501  0.35668790921E+02  0.93170015317E+01 -0.45904710741E+01  0.37150256903E+02  0.00000000000E+00 0. -1.
         21    1    1    2  504  502 -0.59907183591E+02 -0.30301904812E+02 -0.20280191433E+03  0.21362512151E+03  0.00000000000E+00 0. -1.
         21    1    1    2  505  504 -0.58626139405E+02 -0.14291959120E+02 -0.67727486254E+03  0.67995773673E+03  0.00000000000E+00 0.  1.
          2    1    1    2  501    0  0.82864532075E+02  0.35276862400E+02 -0.73539980880E+03  0.74089396440E+03  0.00000000000E+00 0. -1.
<scales pt_clust_3="36.86556" pt_clust_4="46.81899" pt_clust_5="14000.00000" pt_clust_6="69.86556"></scales>
<clustering>
<clus scale="   36.866">  1  3  2 -1</clus>
<clus scale="   46.819">  1  4  2 -1</clus>
<clus scale="   69.866">  1  6  2 -1</clus>
<clus scale="   36.866">  1  3  2 -1</clus>
</clustering>
</event>
<event>
 6    0  0.2117869E+002  0.1346869E+03  0.7546771E-02  0.1220662E+00
          1   -1    0    0  504    0 -0.00000000000E+00  0.00000000000E+00  0.69020781922E+03  0.69020781922E+03  0.00000000000E+00 0. -1.
         21   -1    0    0  505  502  0.00000000000E+00 -0.00000000000E+00 -0.22884544518E+03  0.22884544518E+03  0.00000000000E+00 0. -1.
         21    1    1    2  503  501 -0.55296263947E+02  0.19978198660E+02  0.16636183796E+02  0.61102928240E+02  0.00000000000E+00 0. -1.
         21    1    1    2  504  502 -0.30118426888E+02  0.82314923823E+02 -0.17356549058E+03  0.19444239724E+03  0.00000000000E+00 0. -1.
         21    1    1    2  505  503 -0.28897656550E+02 -0.26177827240E+02  0.10482122913E+02  0.40376083191E+02  0.00000000000E+00 0. -1.
          1    1    1    2  501    0  0.11431234739E+03 -0.76115295243E+02  0.60780955792E+03  0.62313185573E+03  0.00000000000E+00 0. -1.
<scales pt_clust_3="60.80049" pt_clust_4="134.68689" pt_clust_5="38.99171" pt_clust_6="14000.00000"></scales>
<clustering>
<clus scale="   38.992">  2  5  1 -1</clus>
<clus scale="   60.800">  2  3  1 -1</clus>
<clus scale="  134.687">  2  4  1 -1</clus>
<clus scale="   38.992">  2  3  1 -1</clus>
</clustering>
</event>
<event>
 6    0  0.2117869E+002  0.1533815E+03  0.7546771E-02  0.1196378E+00
          2   -1    0    0  503    0 -0.00000000000E+00  0.00000000000E+00  0.41194979212E+04  0.41194979212E+04  0.00000000000E+00 0. -1.
         21   -1    0    0  504  502  0.00000000000E+00 -0.00000000000E+00 -0.10999419826E+03  0.10999419826E+03  0.00000000000E+00 0.  1.
         21    1    1    2  503  505 -0.27533052945E+02  0.49508600694E+02  0.45614681619E+03  0.45965105076E+03  0.00000000000E+00 0.  1.
         21    1    1    2  504  501  0.61718472050E+02  0.18531543395E+03 -0.54061194033E+01  0.19539755879E+03  0.00000000000E+00 0.  1.
         21    1    1    2  505  502 -0.49060727981E+01 -0.46556337501E+02  0.99771820219E+02  0.11020879376E+03  0.00000000000E+00 0.  1.
          2    1    1    2  501    0 -0.29279346307E+02 -0.18826769715E+03  0.34589912060E+04  0.34642347162E+04  0.00000000000E+00 0. -1.
<scales pt_clust_3="56.01082" pt_clust_4="153.38146" pt_clust_5="46.81412" pt_clust_6="14000.00000"></scales>
<clustering>
<clus scale="   46.814">  2  5  1 -1</clus>
<clus scale="   56.011">  1  3  2 -1</clus>
<clus scale="  153.381">  2  4  1 -1</clus>
<clus scale="   46.814">  2  3  1 -1</clus>
</clustering>
</event>
<event>
 6    0  0.2117869E+002  0.6024652E+03  0.7546771E-02  0.9900305E-01
          2   -1    0    0  505    0 -0.00000000000E+00  0.00000000000E+00  0.54273424903E+04  0.54273424903E+04  0.00000000000E+00 0. -1.
         21   -1    0    0  503  502  0.00000000000E+00 -0.00000000000E+00 -0.32570555121E+03  0.32570555121E+03  0.00000000000E+00 0.  1.
         21    1    1    2  503  501  0.28081204674E+03  0.66450475105E+03  0.18699186652E+03  0.74524353598E+03  0.00000000000E+00 0.  1.
         21    1    1    2  504  502 -0.38706915840E+02 -0.11673009201E+03  0.12742491730E+03  0.17709107618E+03  0.00000000000E+00 0. -1.
         21    1    1    2  505  504 -0.15143670433E+02 -0.43347618777E+02  0.12199597979E+04  0.12208235971E+04  0.00000000000E+00 0. -1.
          2    1    1    2  501    0 -0.22696146047E+03 -0.50442704026E+03  0.35672603574E+04  0.36098898322E+04  0.00000000000E+00 0. -1.
<scales pt_clust_3="14000.00000" pt_clust_4="124.64185" pt_clust_5="45.91674" pt_clust_6="602.46516"></scales>
<clustering>
<clus scale="   45.917">  1  5  2 -1</clus>
<clus scale="  124.642">  2  4  1 -1</clus>
<clus scale="  602.465">  1  6  2 -1</clus>
<clus scale="  124.642">  2  3  1 -1</clus>
</clustering>
</event>
<event>
 6    0  0.2117869E+002  0.2678587E+03  0.7546771E-02  0.1102511E+00
         21   -1    0    0  505  502  0.00000000000E+00  0.00000000000E+00  0.23998647466E+03  0.23998647466E+03  0.00000000000E+00 0.  1.
         -1   -1    0    0    0  501 -0.00000000000E+00 -0.00000000000E+00 -0.14252650649E+04  0.14252650649E+04  0.00000000000E+00 0.  1.
         21    1    1    2  503  501  0.20543985933E+03  0.16845274020E+03 -0.32529282836E+03  0.41999676863E+03  0.00000000000E+00 0.  1.
         21    1    1    2  504  502  0.10428915106E+03 -0.23083934222E+02  0.13264690345E+03  0.17030647681E+03  0.00000000000E+00 0.  1.
         21    1    1    2  505  503 -0.74140472722E+02 -0.13650423372E+02 -0.41074092848E+02  0.85850013727E+02  0.00000000000E+00 0.  1.
         -1    1    1    2    0  504 -0.23558853767E+03 -0.13171838261E+03 -0.95155857245E+03  0.98909828035E+03  0.00000000000E+00 0.  1.
<scales pt_clust_3="14000.00000" pt_clust_4="61.94210" pt_clust_5="75.38663" pt_clust_6="267.85867"></scales>
<clustering>
<clus scale="   75.387">  1  5  2 -1</clus>
<clus scale="   61.942">  1  4  2 -1</clus>
<clus scale="  267.859">  2  6  1 -1</clus>
<clus scale="   75.387">  1  3  2 -1</clus>
</clustering>
</event>
<event>
 6    0  0.2117869E+002  0.8834122E+02  0.7546771E-02  0.1306919E+00
          1   -1    0    0  505    0 -0.00000000000E+00  0.00000000000E+00  0.68264216103E+03  0.68264216103E+03  0.00000000000E+00 0. -1.
         21   -1    0    0  503  502  0.00000000000E+00 -0.00000000000E+00 -0.77123950638E+03  0.77123950638E+03  0.00000000000E+00 0. -1.
         21    1    1    2  503  504  0.10220713240E+02 -0.44578030966E+02 -0.19868928047E+03  0.20388500189E+03  0.00000000000E+00 0. -1.
         21    1    1    2  504  501 -0.27277269155E+02 -0.79288395095E+02  0.58113810173E+02  0.10201918419E+03  0.00000000000E+00 0.  1.
         21    1    1    2  505  502  0.33136051861E+02  0.34803081352E+02 -0.54352055944E+03  0.54564077096E+03  0.00000000000E+00 0. -1.
          1    1    1    2  501    0 -0.16079495946E+02  0.89063344708E+02  0.59549868438E+03  0.60233671037E+03  0.00000000000E+00 0. -1.
<scales pt_clust_3="45.73471" pt_clust_4="88.34122" pt_clust_5="43.60339" pt_clust_6="14000.00000"></scales>
<clustering>
<clus scale="   45.735">  2  3  1 -1</clus>
<clus scale="   43.603">  2  5  1 -1</clus>
<clus scale="   88.341">  2  4  1 -1</clus>
<clus scale="   45.735">  2  3  1 -1</clus>
</clustering>
</event>
<event>
 6    0  0.2117869E+002  0.6986613E+02  0.7546771E-02  0.1360549E+00
         21   -1    0    0  503  502  0.00000000000E+00  0.00000000000E+00  0.47445323717E+02  0.47445323717E+02  0.00000000000E+00 0. -1.
          1   -1    0    0  505    0 -0.00000000000E+00 -0.00000000000E+00 -0.10496525752E+04  0.10496525752E+04  0.00000000000E+00 0.  1.
         21    1    1    2  503  501 -0.48779108041E+02 -0.39003637707E+02 -0.11781047789E+03  0.13334164330E+03  0.00000000000E+00 0. -1.
         21    1    1    2  504  502  0.20635155820E+02  0.10760527025E+03 -0.45974711776E+02  0.11882078086E+03  0.00000000000E+00 0. -1.
         21    1    1    2  505  504  0.46202417906E+01 -0.44373346109E+02 -0.73032599386E+03  0.73168736342E+03  0.00000000000E+00 0.  1.
          1    1    1    2  501    0  0.23523710431E+02 -0.24228286433E+02 -0.10809606800E+03  0.11324811139E+03  0.00000000000E+00 0.  1.
<scales pt_clust_3="62.18460" pt_clust_4="14000.00000" pt_clust_5="69.86613" pt_clust_6="33.76944"></scales>
<clustering>
<clus scale="   33.769">  2  6  1 -1</clus>
<clus scale="   62.185">  1  3  2 -1</clus>
<clus scale="   69.866">  2  5  1 -1</clus>
<clus scale="   62.185">  1  3  2 -1</clus>
</clustering>
</event>
<event>
 6    0  0.2117869E+002  0.6631589E+02  0.7546771E-02  0.1373089E+00
          1   -1    0    0  505    0 -0.00000000000E+00  0.00000000000E+00  0.62024902067E+03  0.62024902067E+03  0.00000000000E+00 0.  1.
         21   -1    0    0  501  502  0.00000000000E+00 -0.00000000000E+00 -0.49775306196E+03  0.49775306196E+03  0.00000000000E+00 0. -1.
         21    1    1    2  503  504 -0.89950710385E+02 -0.80903057901E-01 -0.59186514417E+02  0.10767627563E+03  0.00000000000E+00 0.  1.
         21    1    1    2  504  502  0.62725064414E+02  0.12780573403E+02 -0.40252914913E+03  0.40758740493E+03  0.00000000000E+00 0. -1.
         21    1    1    2  505  503 -0.36564825691E+02 -0.52318293920E+02  0.16619999257E+03  0.17803546806E+03  0.00000000000E+00 0.  1.
          1    1    1    2  501    0  0.63790471661E+02  0.39618623575E+02  0.41801162969E+03  0.42470293401E+03  0.00000000000E+00 0.  1.
<scales pt_clust_3="66.31589" pt_clust_4="14000.00000" pt_clust_5="63.82938" pt_clust_6="30.92930"></scales>
<clustering>
<clus scale="   63.829">  1  5  2 -1</clus>
<clus scale="   30.929">  1  6  2 -1</clus>
<clus scale="   66.316">  1  3  2 -1</clus>
<clus scale="   66.316">  2  3  1 -1</clus>
</clustering>
</event>
<event>
 6    0  0.2117869E+002  0.1145311E+03  0.7546771E-02  0.1252402E+00
          1   -1    0    0  503    0 -0.00000000000E+00  0.00000000000E+00  0.19799219603E+04  0.19799219603E+04  0.00000000000E+00 0.  1.
         21   -1    0    0  505  502  0.00000000000E+00 -0.00000000000E+00 -0.10079780157E+03  0.10079780157E+03  0.00000000000E+00 0.  1.
         21    1    1    2  503  504  0.34146051185E+02 -0.82256202556E+01  0.23487113738E+03  0.23748276740E+03  0.00000000000E+00 0. -1.
         21    1    1    2  504  502  0.69176443619E+02 -0.29665573649E+02  0.16902649759E+02  0.77143542702E+02  0.00000000000E+00 0.  1.
         21    1    1    2  505  501  0.47848688566E+02  0.14575579551E+02 -0.56414119471E+02  0.75395605922E+02  0.00000000000E+00 0. -1.
          1    1    1    2  501    0 -0.15117118337E+03  0.23315614354E+02  0.16837644910E+04  0.16906978458E+04  0.00000000000E+00 0.  1.
<scales pt_clust_3="35.12284" pt_clust_4="114.53110" pt_clust_5="50.18427" pt_clust_6="14000.00000"></scales>
<clustering>
<clus scale="   35.123">  1  3  2 -1</clus>
<clus scale="   50.184">  2  5  1 -1</clus>
<clus scale="  114.531">  2  4  1 -1</clus>
<clus scale="   50.184">  2  3  1 -1</clus>
</clustering>
</event>
<event>
 6    0  0.2117869E+002  0.1192046E+03  0.7546771E-02  0.1244415E+00
         21   -1    0    0  505  502  0.00000000000E+00  0.00000000000E+00  0.11657514158E+03  0.11657514158E+03  0.00000000000E+00 0. -1.
          2   -1    0    0  503    0 -0.00000000000E+00 -0.00000000000E+00 -0.96705895497E+03  0.96705895497E+03  0.00000000000E+00 0. -1.
         21    1    1    2  503  502  0.17372035172E+02  0.31285774168E+02  0.82707445935E+02  0.90117195276E+02  0.00000000000E+00 0. -1.
         21    1    1    2  504  501  0.11612979996E+02 -0.94765451695E+02 -0.11486258467E+03  0.14936119140E+03  0.00000000000E+00 0. -1.
         21    1    1    2  505  504  0.32210927305E+02 -0.20630318643E+02 -0.28996480499E+02  0.47999476731E+02  0.00000000000E+00 0. -1.
          2    1    1    2  501    0 -0.61195942473E+02  0.84109996170E+02 -0.78933219416E+03  0.79615623314E+03  0.00000000000E+00 0. -1.
<scales pt_clust_3="35.78529" pt_clust_4="34.77897" pt_clust_5="34.77897" pt_clust_6="105.78584"></scales>
<clustering>
<clus scale="   34.779">  4  5 -1 -1</clus>
<clus scale="   35.785">  1  3  2 -1</clus>
<clus scale="  105.786">  2  6  1 -1</clus>
<clus scale="   35.785">  1  3  2 -1</clus>
</clustering>
</event>
<event>
 6    0  0.2117869E+002  0.1177311E+03  0.7546771E-02  0.1246888E+00
         21   -1    0    0  504  502  0.00000000000E+00  0.00000000000E+00  0.19293010623E+03  0.19293010623E+03  0.00000000000E+00 0. -1.
          2   -1    0    0  503    0 -0.00000000000E+00 -0.00000000000E+00 -0.17356592463E+04  0.17356592463E+04  0.00000000000E+00 0.  1.
         21    1    1    2  503  505  0.35506098552E+02  0.27923845624E+02 -0.74888194397E+02  0.87456651256E+02  0.00000000000E+00 0.  1.
         21    1    1    2  504  501 -0.62163599696E+02  0.10076513040E+03  0.15907473557E+03  0.19829951117E+03  0.00000000000E+00 0. -1.
         21    1    1    2  505  502  0.52078355141E+02 -0.34156843762E+02 -0.14655501674E+03  0.15923949881E+03  0.00000000000E+00 0. -1.
          2    1    1    2  501    0 -0.25420853997E+02 -0.94532132259E+02 -0.14803606645E+04  0.14835936913E+04  0.00000000000E+00 0.  1.
<scales pt_clust_3="45.17105" pt_clust_4="117.73109" pt_clust_5="63.73185" pt_clust_6="14000.00000"></scales>
<clustering>
<clus scale="   45.171">  2  3  1 -1</clus>
<clus scale="   63.732">  2  5  1 -1</clus>
<clus scale="  117.731">  1  4  2 -1</clus>
<clus scale="  117.731">  1  3  2 -1</clus>
</clustering>
</event>
<event>
 6    0  0.2117869E+002  0.1864056E+03  0.7546771E-02  0.1161744E+00
          1   -1    0    0  504    0 -0.00000000000E+00  0.00000000000E+00  0.13238689520E+04  0.13238689520E+04  0.00000000000E+00 0.  1.
         21   -1    0    0  505  502  0.00000000000E+00 -0.00000000000E+00 -0.38779806098E+02  0.38779806098E+02  0.00000000000E+00 0.  1.
         21    1    1    2  503  502  0.36734332219E+02  0.15974073401E+03  0.25817251989E+03  0.30580968476E+03  0.00000000000E+00 0.  1.
         21    1    1    2  504  503  0.41426661782E+02  0.13765609204E+02  0.21766635800E+03  0.22200068403E+03  0.00000000000E+00 0.  1.
         21    1    1    2  505  501 -0.31731529098E+02 -0.25267806989E+02  0.85887126553E+02  0.94983948730E+02  0.00000000000E+00 0. -1.
          1    1    1    2  501    0 -0.46429464903E+02 -0.14823853622E+03  0.72336314148E+03  0.73985444060E+03  0.00000000000E+00 0.  1.
<scales pt_clust_3="169.97503" pt_clust_4="43.65387" pt_clust_5="39.10277" pt_clust_6="39.10277"></scales>
<clustering>
<clus scale="   39.103">  5  6 -1 -1</clus>
<clus scale="   43.654">  1  4  2 -1</clus>
<clus scale="  169.975">  2  3  1 -1</clus>
<clus scale="  169.975">  2  3  1 -1</clus>
</clustering>
</event>
<event>
 6    0  0.2117869E+002  0.7984399E+02  0.7546771E-02  0.1329495E+00
          2   -1    0    0  504    0 -0.00000000000E+00  0.00000000000E+00  0.12026653404E+04  0.12026653404E+04  0.00000000000E+00 0. -1.
         21   -1    0    0  505  502  0.00000000000E+00 -0.00000000000E+00 -0.94870102899E+03  0.94870102899E+03  0.00000000000E+00 0. -1.
         21    1    1    2  503  502 -0.72455958918E+02  0.27557718088E+02 -0.59350171712E+03  0.59854288237E+03  0.00000000000E+00 0. -1.
         21    1    1    2  504  503  0.16020263011E+02 -0.48299026914E+02  0.12067116886E+03  0.13096173419E+03  0.00000000000E+00 0. -1.
         21    1    1    2  505  501 -0.13153030362E+01 -0.58797108098E+02 -0.34277555280E+03  0.34778428593E+03  0.00000000000E+00 0. -1.
          2    1    1    2  501    0  0.57750998944E+02  0.79538416924E+02  0.10695704125E+04  0.10740774669E+04  0.00000000000E+00 0. -1.
<scales pt_clust_3="79.84399" pt_clust_4="50.88659" pt_clust_5="58.92330" pt_clust_6="14000.00000"></scales>
<clustering>
<clus scale="   50.887">  1  4  2 -1</clus>
<clus scale="   58.923">  2  5  1 -1</clus>
<clus scale="   79.844">  2  3  1 -1</clus>
<clus scale="   58.923">  2  3  1 -1</clus>
</clustering>
</event>
<event>
 6    0  0.2117869E+002  0.8271216E+02  0.7546771E-02  0.1321526E+00
         21   -1    0    0  501  502  0.00000000000E+00  0.00000000000E+00  0.10153118096E+03  0.10153118096E+03  0.00000000000E+00 0.  1.
          1   -1    0    0  505    0 -0.00000000000E+00 -0.00000000000E+00 -0.27380183935E+04  0.27380183935E+04  0.00000000000E+00 0.  1.
         21    1    1    2  503  502  0.59916646468E+02  0.54841571306E+02  0.28548345393E+02  0.86096518466E+02  0.00000000000E+00 0.  1.
         21    1    1    2  504  503 -0.10093492508E+03 -0.48865532972E+01 -0.20224547817E+02  0.10305711930E+03  0.00000000000E+00 0. -1.
         21    1    1    2  505  504 -0.78656941715E+01  0.34804022807E+02 -0.17261327807E+03  0.17626268157E+03  0.00000000000E+00 0.  1.
          1    1    1    2  501    0  0.48883972783E+02 -0.84759040816E+02 -0.24721977321E+04  0.24741332552E+04  0.00000000000E+00 0.  1.
<scales pt_clust_3="14000.00000" pt_clust_4="82.71216" pt_clust_5="35.68178" pt_clust_6="65.76462"></scales>
<clustering>
<clus scale="   35.682">  2  5  1 -1</clus>
<clus scale="   65.765">  2  6  1 -1</clus>
<clus scale="   82.712">  2  4  1 -1</clus>
<clus scale="   82.712">  1  3  2 -1</clus>
</clustering>
</event>
<event>
 6    0  0.2117869E+002  0.1128490E+03  0.7546771E-02  0.1255383E+00
          2   -1    0    0  505    0 -0.00000000000E+00  0.00000000000E+00  0.16137407011E+04  0.16137407011E+04  0.00000000000E+00 0.  1.
         21   -1    0    0  503  502  0.00000000000E+00 -0.00000000000E+00 -0.11754516720E+03  0.11754516720E+03  0.00000000000E+00 0.  1.
         21    1    1    2  503  504  0.56806320779E+02  0.88677947419E+01 -0.32129573461E+02  0.65862776701E+02  0.00000000000E+00 0.  1.
         21    1    1    2  504  501 -0.10553487921E+03  0.57480889127E+02  0.14511511394E+02  0.12104646756E+03  0.00000000000E+00 0.  1.
         21    1    1    2  505  502 -0.81010662619E+01  0.99718304465E+02  0.91253794442E+03  0.91800591911E+03  0.00000000000E+00 0.  1.
          2    1    1    2  501    0  0.56829624694E+02 -0.16606698833E+03  0.60127565159E+03  0.62637070498E+03  0.00000000000E+00 0.  1.
<scales pt_clust_3="57.49431" pt_clust_4="88.95360" pt_clust_5="112.84901" pt_clust_6="14000.00000"></scales>
<clustering>
<clus scale="   57.494">  2  3  1 -1</clus>
<clus scale="   88.954">  2  4  1 -1</clus>
<clus scale="  112.849">  1  5  2 -1</clus>
<clus scale="   57.494">  2  3  1 -1</clus>
</clustering>
</event>
<event>
 6    0  0.2117869E+002  0.1122946E+03  0.7546771E-02  0.1256379E+00
         21   -1    0    0  501  502  0.00000000000E+00  0.00000000000E+00  0.42462322404E+03  0.42462322404E+03  0.00000000000E+00 0.  1.
          4   -1    0    0  503    0 -0.00000000000E+00 -0.00000000000E+00 -0.26145402238E+03  0.26145402238E+03  0.00000000000E+00 0.  1.
         21    1    1    2  503  504 -0.22526355158E+02  0.58757581560E+02  0.74307518853E+00  0.62932044526E+02  0.00000000000E+00 0.  1.
         21    1    1    2  504  505 -0.80362500516E+02  0.35757488709E+02 -0.32456683397E+02  0.93755884002E+02  0.00000000000E+00 0.  1.
         21    1    1    2  505  502  0.30325111665E+02 -0.50622683807E+02  0.34874546318E+03  0.35370279417E+03  0.00000000000E+00 0.  1.
          4    1    1    2  501    0  0.72563744008E+02 -0.43892386461E+02 -0.15386265331E+03  0.17568652372E+03  0.00000000000E+00 0.  1.
<scales pt_clust_3="53.66928" pt_clust_4="53.66928" pt_clust_5="59.01075" pt_clust_6="92.64954"></scales>
<clustering>
<clus scale="   53.669">  3  4 -1 -1</clus>
<clus scale="   59.011">  1  5  2 -1</clus>
<clus scale="   92.650">  2  6  1 -1</clus>
<clus scale="   59.011">  1  3  2 -1</clus>
</clustering>
</event>
<event>
 6    0  0.2117869E+002  0.9004170E+02  0.7546771E-02  0.1302751E+00
         21   -1    0    0  503  502  0.00000000000E+00  0.00000000000E+00  0.23251013500E+03  0.23251013500E+03  0.00000000000E+00 0.  1.
         -1   -1    0    0    0  501 -0.00000000000E+00 -0.00000000000E+00 -0.17982677488E+04  0.17982677488E+04  0.00000000000E+00 0. -1.
         21    1    1    2  503  504  0.53806807152E+02  0.73937171468E+02  0.14493204433E+03  0.17136853648E+03  0.00000000000E+00 0.  1.
         21    1    1    2  504  501 -0.28044301749E+02  0.19044259473E+02 -0.22653964577E+03  0.22906195185E+03  0.00000000000E+00 0. -1.
         21    1    1    2  505  502 -0.81707904481E+02 -0.44619920672E+02  0.42194146565E+02  0.10221284156E+03  0.00000000000E+00 0.  1.
         -1    1    1    2    0  505  0.55945399079E+02 -0.48361510269E+02 -0.15263441589E+04  0.15281345539E+04  0.00000000000E+00 0. -1.
<scales pt_clust_3="14000.00000" pt_clust_4="33.89936" pt_clust_5="90.04170" pt_clust_6="41.38423"></scales>
<clustering>
<clus scale="   33.899">  2  4  1 -1</clus>
<clus scale="   41.384">  2  6  1 -1</clus>
<clus scale="   90.042">  2  5  1 -1</clus>
<clus scale="   90.042">  1  3  2 -1</clus>
</clustering>
</event>
<event>
 6    0  0.2117869E+002  0.1099974E+03  0.7546771E-02  0.1260575E+00
         21   -1    0    0  503  502  0.00000000000E+00  0.00000000000E+00  0.24885964297E+03  0.24885964297E+03  0.00000000000E+00 0.  1.
          4   -1    0    0  504    0 -0.00000000000E+00 -0.00000000000E+00 -0.22221152304E+03  0.22221152304E+03  0.00000000000E+00 0.  1.
         21    1    1    2  503  505 -0.30216673494E+02 -0.44870803167E+02  0.13694077152E+03  0.14723862006E+03  0.00000000000E+00 0.  1.
         21    1    1    2  504  502  0.33051175707E+02  0.17660737949E+02 -0.96310200771E+01  0.38691580844E+02  0.00000000000E+00 0. -1.
         21    1    1    2  505  501  0.25153555152E+02 -0.81358732965E+02  0.48916256202E+02  0.98207662060E+02  0.00000000000E+00 0.  1.
          4    1    1    2  501    0 -0.27988057365E+02  0.10856879818E+03 -0.14957788771E+03  0.18693330304E+03  0.00000000000E+00 0.  1.
<scales pt_clust_3="53.23770" pt_clust_4="37.47375" pt_clust_5="109.99743" pt_clust_6="14000.00000"></scales>
<clustering>
<clus scale="   37.474">  2  4  1 -1</clus>
<clus scale="   53.238">  1  3  2 -1</clus>
<clus scale="  109.997">  1  5  2 -1</clus>
<clus scale="   53.238">  1  3  2 -1</clus>
</clustering>
</event>
<event>
 6    0  0.2117869E+002  0.1815756E+03  0.7546771E-02  0.1166287E+00
         21   -1    0    0  505  502  0.00000000000E+00  0.00000000000E+00  0.46211267534E+02  0.46211267534E+02  0.00000000000E+00 0.  1.
          1   -1    0    0  503    0 -0.00000000000E+00 -0.00000000000E+00 -0.18408297084E+04  0.18408297084E+04  0.00000000000E+00 0. -1.
         21    1    1    2  503  504  0.30405951850E+02  0.34304014498E+02 -0.47092275670E+03  0.47314852858E+03  0.00000000000E+00 0. -1.
         21    1    1    2  504  502 -0.11328799090E+02  0.15964080195E+03 -0.32306173997E+03  0.36053074095E+03  0.00000000000E+00 0.  1.
         21    1    1    2  505  501  0.52895066447E+02 -0.20657701408E+03 -0.45077119831E+03  0.49866484138E+03  0.00000000000E+00 0.  1.
          1    1    1    2  501    0 -0.71972219207E+02  0.12632197632E+02 -0.54986274585E+03  0.55469686499E+03  0.00000000000E+00 0. -1.
<scales pt_clust_3="45.83980" pt_clust_4="181.57560" pt_clust_5="14000.00000" pt_clust_6="65.31004"></scales>
<clustering>
<clus scale="   45.840">  2  3  1 -1</clus>
<clus scale="   65.310">  2  6  1 -1</clus>
<clus scale="  181.576">  1  4  2 -1</clus>
<clus scale="  181.576">  1  3  2 -1</clus>
</clustering>
</event>
<event>
 6    0  0.2117869E+002  0.8350647E+02  0.7546771E-02  0.1319385E+00
         21   -1    0    0  504  502  0.00000000000E+00  0.00000000000E+00  0.64882661981E+02  0.64882661981E+02  0.00000000000E+00 0.  1.
          1   -1    0    0  503    0 -0.00000000000E+00 -0.00000000000E+00 -0.19239404514E+04  0.19239404514E+04  0.00000000000E+00 0. -1.
         21    1    1    2  503  505 -0.79203811611E+02 -0.11845879735E+02 -0.11573838939E+04  0.11601513032E+04  0.00000000000E+00 0. -1.
         21    1    1    2  504  501 -0.57614266459E+02  0.45415433580E+02 -0.76647133752E+02  0.10609782476E+03  0.00000000000E+00 0.  1.
         21    1    1    2  505  502  0.95043078028E+02  0.16272991018E+01  0.10803220234E+00  0.95057069460E+02  0.00000000000E+00 0.  1.
          1    1    1    2  501    0  0.41775000042E+02 -0.35196852947E+02 -0.62513479402E+03  0.62751691593E+03  0.00000000000E+00 0. -1.
<scales pt_clust_3="60.23599" pt_clust_4="14000.00000" pt_clust_5="83.50647" pt_clust_6="54.62572"></scales>
<clustering>
<clus scale="   54.626">  2  6  1 -1</clus>
<clus scale="   60.236">  2  3  1 -1</clus>
<clus scale="   83.506">  1  5  2 -1</clus>
<clus scale="   83.506">  1  3  2 -1</clus>
</clustering>
</event>
<event>
 6    0  0.2117869E+002  0.1019453E+03  0.7546771E-02  0.1276258E+00
         21   -1    0    0  505  502  0.00000000000E+00  0.00000000000E+00  0.53272515841E+02  0.53272515841E+02  0.00000000000E+00 0.  1.
          2   -1    0    0  503    0 -0.00000000000E+00 -0.00000000000E+00 -0.31228136872E+04  0.31228136872E+04  0.00000000000E+00 0. -1.
         21    1    1    2  503  504 -0.10495691209E+02 -0.42066011012E+02 -0.10166685960E+04  0.10175926213E+04  0.00000000000E+00 0. -1.
         21    1    1    2  504  502  0.31839859994E+02  0.10335922777E+03 -0.21561204422E+02  0.11028051589E+03  0.00000000000E+00 0.  1.
         21    1    1    2  505  501 -0.99834598127E+02 -0.33419778788E+02 -0.36655622630E+03  0.38137553099E+03  0.00000000000E+00 0.  1.
          2    1    1    2  501    0  0.78490429342E+02 -0.27873437970E+02 -0.16647551446E+04  0.16668375349E+04  0.00000000000E+00 0. -1.
<scales pt_clust_3="43.35561" pt_clust_4="101.94525" pt_clust_5="14000.00000" pt_clust_6="93.09022"></scales>
<clustering>
<clus scale="   43.356">  2  3  1 -1</clus>
<clus scale="   93.090">  2  6  1 -1</clus>
<clus scale="  101.945">  1  4  2 -1</clus>
<clus scale="  101.945">  1  3  2 -1</clus>
</clustering>
</event>
<event>
 6    0  0.2117869E+002  0.1112394E+03  0.7546771E-02  0.1258292E+00
          4   -1    0    0  504    0 -0.00000000000E+00  0.00000000000E+00  0.37442704941E+03  0.37442704941E+03  0.00000000000E+00 0.  1.
         21   -1    0    0  501  502  0.00000000000E+00 -0.00000000000E+00 -0.45388402434E+03  0.45388402434E+03  0.00000000000E+00 0. -1.
         21    1    1    2  503  502  0.25743952009E+02  0.56351027734E+02 -0.35410360995E+03  0.35948234445E+03  0.00000000000E+00 0. -1.
         21    1    1    2  504  505 -0.36292122109E+02 -0.30105568055E+02  0.40441214417E+02  0.62120489201E+02  0.00000000000E+00 0. -1.
         21    1    1    2  505  503  0.88067251468E+02 -0.43643461581E+01 -0.56716757830E+02  0.10484120811E+03  0.00000000000E+00 0. -1.
          4    1    1    2  501    0 -0.77519081367E+02 -0.21881113521E+02  0.29092217843E+03  0.30186703200E+03  0.00000000000E+00 0.  1.
<scales pt_clust_3="61.59995" pt_clust_4="47.15361" pt_clust_5="111.23938" pt_clust_6="14000.00000"></scales>
<clustering>
<clus scale="   47.154">  1  4  2 -1</clus>
<clus scale="   61.600">  2  3  1 -1</clus>
<clus scale="  111.239">  2  5  1 -1</clus>
<clus scale="   61.600">  2  3  1 -1</clus>
</clustering>
</event>
<event>
 6    0  0.2117869E+002  0.1607103E+03  0.7546771E-02  0.1187897E+00
         21   -1    0    0  504  502  0.00000000000E+00  0.00000000000E+00  0.33121109939E+03  0.33121109939E+03  0.00000000000E+00 0. -1.
          1   -1    0    0  503    0 -0.00000000000E+00 -0.00000000000E+00 -0.15101443418E+04  0.15101443418E+04  0.00000000000E+00 0. -1.
         21    1    1    2  503  505 -0.14676780072E+02 -0.32820892084E+02 -0.63553226099E+02  0.73018020913E+02  0.00000000000E+00 0. -1.
         21    1    1    2  504  501  0.36179934567E+02  0.33228099202E+02  0.13151869834E+03  0.14039324149E+03  0.00000000000E+00 0. -1.
         21    1    1    2  505  502  0.12353863482E+03 -0.62078834040E+02  0.16044794775E+03  0.21179971640E+03  0.00000000000E+00 0. -1.
          1    1    1    2  501    0 -0.14504178931E+03  0.61671626922E+02 -0.14073466624E+04  0.14161444624E+04  0.00000000000E+00 0. -1.
<scales pt_clust_3="35.95301" pt_clust_4="49.02169" pt_clust_5="160.71034" pt_clust_6="14000.00000"></scales>
<clustering>
<clus scale="   35.953">  2  3  1 -1</clus>
<clus scale="   49.022">  1  4  2 -1</clus>
<clus scale="  160.710">  1  5  2 -1</clus>
<clus scale="   49.022">  1  3  2 -1</clus>
</clustering>
</event>
<event>
 6    0  0.2117869E+002  0.9480064E+02  0.7546771E-02  0.1291626E+00
         -2   -1    0    0    0  501 -0.00000000000E+00  0.00000000000E+00  0.27171001172E+02  0.27171001172E+02  0.00000000000E+00 0. -1.
         21   -1    0    0  505  502  0.00000000000E+00 -0.00000000000E+00 -0.13777841644E+04  0.13777841644E+04  0.00000000000E+00 0. -1.
         21    1    1    2  503  501  0.45949656634E+00  0.30007099078E+02 -0.63830132866E+02  0.70533134014E+02  0.00000000000E+00 0. -1.
         21    1    1    2  504  502 -0.77952738029E+02  0.99852869379E+00 -0.46706823097E+03  0.47352968102E+03  0.00000000000E+00 0. -1.
         21    1    1    2  505  503  0.13840302291E+03 -0.69923491555E+02 -0.72688446392E+03  0.74324001192E+03  0.00000000000E+00 0. -1.
         -2    1    1    2    0  504 -0.60909781450E+02  0.38917863783E+02 -0.92830335435E+02  0.11765233859E+03  0.00000000000E+00 0. -1.
<scales pt_clust_3="30.01062" pt_clust_4="78.05515" pt_clust_5="14000.00000" pt_clust_6="94.80064"></scales>
<clustering>
<clus scale="   30.011">  1  3  2 -1</clus>
<clus scale="   78.055">  2  4  1 -1</clus>
<clus scale="   94.801">  1  6  2 -1</clus>
<clus scale="   78.055">  2  3  1 -1</clus>
</clustering>
</event>
<event>
 6    0  0.2117869E+002  0.1064770E+03  0.7546771E-02  0.1267237E+00
         21   -1    0    0  505  502  0.00000000000E+00  0.00000000000E+00  0.32507659643E+02  0.32507659643E+02  0.00000000000E+00 0.  1.
          2   -1    0    0  504    0 -0.00000000000E+00 -0.00000000000E+00 -0.18337084282E+04  0.18337084282E+04  0.00000000000E+00 0.  1.
         21    1    1    2  503  502  0.58657863331E+02 -0.13060164433E+02 -0.91256087277E+02  0.10926566840E+03  0.00000000000E+00 0.  1.
         21    1    1    2  504  503 -0.13692494541E+02  0.54904033956E+02 -0.93876539346E+03  0.94046924528E+03  0.00000000000E+00 0.  1.
         21    1    1    2  505  501 -0.97247125143E+02 -0.99140401722E+02 -0.22204904755E+03  0.26189998496E+03  0.00000000000E+00 0.  1.
          2    1    1    2  501    0  0.52281756353E+02  0.57296532199E+02 -0.54913024030E+03  0.55458118925E+03  0.00000000000E+00 0.  1.
<scales pt_clust_3="57.53806" pt_clust_4="56.58566" pt_clust_5="106.47700" pt_clust_6="14000.00000"></scales>
<clustering>
<clus scale="   56.586">  2  4  1 -1</clus>
<clus scale="   57.538">  1  3  2 -1</clus>
<clus scale="  106.477">  1  5  2 -1</clus>
<clus scale="   57.538">  1  3  2 -1</clus>
</clustering>
</event>
<event>
 6    0  0.2117869E+002  0.1021348E+03  0.7546771E-02  0.1275870E+00
         21   -1    0    0  503  502  0.00000000000E+00  0.00000000000E+00  0.70191796311E+02  0.70191796311E+02  0.00000000000E+00 0.  1.
          2   -1    0    0  504    0 -0.00000000000E+00 -0.00000000000E+00 -0.35589828713E+04  0.35589828713E+04  0.00000000000E+00 0.  1.
         21    1    1    2  503  505  0.34130561623E+01  0.45964137814E+02  0.41353351952E+02  0.61922941104E+02  0.00000000000E+00 0.  1.
         21    1    1    2  504  502  0.19314146738E+02 -0.54539025362E+02 -0.56479976366E+03  0.56775550599E+03  0.00000000000E+00 0. -1.
         21    1    1    2  505  501 -0.10103669332E+03 -0.68766069391E+02 -0.21779997731E+03  0.24974790452E+03  0.00000000000E+00 0. -1.
          2    1    1    2  501    0  0.78309490423E+02  0.77340956938E+02 -0.27475446860E+04  0.27497483160E+04  0.00000000000E+00 0.  1.
<scales pt_clust_3="46.09068" pt_clust_4="54.51754" pt_clust_5="14000.00000" pt_clust_6="102.13477"></scales>
<clustering>
<clus scale="   46.091">  1  3  2 -1</clus>
<clus scale="   54.518">  2  4  1 -1</clus>
<clus scale="  102.135">  2  6  1 -1</clus>
<clus scale="   46.091">  1  3  2 -1</clus>
</clustering>
</event>
<event>
 6    0  0.2117869E+002  0.1496378E+03  0.7546771E-02  0.1200919E+00
          2   -1    0    0  503    0 -0.00000000000E+00  0.00000000000E+00  0.97850043311E+03  0.97850043311E+03  0.00000000000E+00 0.  1.
         21   -1    0    0  505  502  0.00000000000E+00 -0.00000000000E+00 -0.14736971979E+03  0.14736971979E+03  0.00000000000E+00 0. -1.
         21    1    1    2  503  504  0.50187516815E+02 -0.29557194555E+02  0.65960757478E+02  0.87995659671E+02  0.00000000000E+00 0.  1.
         21    1    1    2  504  502 -0.30097106818E+02  0.27110531602E+02 -0.19763194756E+02  0.45071061997E+02  0.00000000000E+00 0.  1.
         21    1    1    2  505  501  0.58348685153E+02 -0.12593652280E+03 -0.47640716880E+02  0.14674540790E+03  0.00000000000E+00 0. -1.
          2    1    1    2  501    0 -0.78439095150E+02  0.12838318575E+03  0.83257386749E+03  0.84605802334E+03  0.00000000000E+00 0.  1.
<scales pt_clust_3="54.44578" pt_clust_4="40.50700" pt_clust_5="149.63776" pt_clust_6="14000.00000"></scales>
<clustering>
<clus scale="   40.507">  2  4  1 -1</clus>
<clus scale="   54.446">  2  3  1 -1</clus>
<clus scale="  149.638">  2  5  1 -1</clus>
<clus scale="   40.507">  2  3  1 -1</clus>
</clustering>
</event>
<event>
 6    0  0.2117869E+002  0.9626022E+02  0.7546771E-02  0.1288363E+00
          1   -1    0    0  505    0 -0.00000000000E+00  0.00000000000E+00  0.16315233617E+04  0.16315233617E+04  0.00000000000E+00 0. -1.
         21   -1    0    0  503  502  0.00000000000E+00 -0.00000000000E+00 -0.40817593113E+03  0.40817593113E+03  0.00000000000E+00 0.  1.
         21    1    1    2  503  501 -0.26918806167E+02  0.16309915033E+02 -0.35267605015E+03  0.35407772000E+03  0.00000000000E+00 0.  1.
         21    1    1    2  504  502  0.13048069022E+02 -0.54381440708E+02  0.29394479506E+02  0.63179337003E+02  0.00000000000E+00 0.  1.
         21    1    1    2  505  504 -0.82042978896E+02  0.23341478033E+02  0.13636889723E+02  0.86381941077E+02  0.00000000000E+00 0.  1.
          1    1    1    2  501    0  0.95913716041E+02  0.14730047641E+02  0.15329921114E+04  0.15360602947E+04  0.00000000000E+00 0. -1.
<scales pt_clust_3="31.47436" pt_clust_4="49.58178" pt_clust_5="96.26022" pt_clust_6="14000.00000"></scales>
<clustering>
<clus scale="   31.474">  2  3  1 -1</clus>
<clus scale="   49.582">  2  4  1 -1</clus>
<clus scale="   96.260">  2  5  1 -1</clus>
<clus scale="   31.474">  2  3  1 -1</clus>
</clustering>
</event>
<event>
 6    0  0.2117869E+002  0.1469787E+03  0.7546771E-02  0.1204235E+00
         -2   -1    0    0    0  501 -0.00000000000E+00  0.00000000000E+00  0.38088269965E+02  0.38088269965E+02  0.00000000000E+00 0.  1.
         21   -1    0    0  505  502  0.00000000000E+00 -0.00000000000E+00 -0.95114014606E+03  0.95114014606E+03  0.00000000000E+00 0.  1.
         21    1    1    2  503  501  0.15943111729E+02  0.26730300973E+02 -0.68668056468E+00  0.31131388211E+02  0.00000000000E+00 0.  1.
         21    1    1    2  504  502 -0.65480018487E+02 -0.68505033445E+02 -0.46146263908E+03  0.47109270817E+03  0.00000000000E+00 0.  1.
         21    1    1    2  505  503  0.79404181731E+02  0.93944305147E+02 -0.27964704736E+03  0.30550454603E+03  0.00000000000E+00 0.  1.
         -2    1    1    2    0  504 -0.29867274973E+02 -0.52169572676E+02 -0.17125550909E+03  0.18149977361E+03  0.00000000000E+00 0.  1.
<scales pt_clust_3="31.12381" pt_clust_4="33.72073" pt_clust_5="140.39771" pt_clust_6="33.72073"></scales>
<clustering>
<clus scale="   31.124">  1  3  2 -1</clus>
<clus scale="   33.721">  4  6 -1 -1</clus>
<clus scale="  140.398">  1  5  2 -1</clus>
<clus scale="  146.979">  2  3  1 -1</clus>
</clustering>
</event>
<event>
 6    0  0.2117869E+002  0.8909814E+02  0.7546771E-02  0.1305050E+00
          2   -1    0    0  504    0 -0.00000000000E+00  0.00000000000E+00  0.84729187217E+02  0.84729187217E+02  0.00000000000E+00 0. -1.
         21   -1    0    0  505  502  0.00000000000E+00 -0.00000000000E+00 -0.21241021867E+04  0.21241021867E+04  0.00000000000E+00 0. -1.
         21    1    1    2  503  502 -0.12747283549E+02 -0.40200257332E+02 -0.95772109623E+03  0.95864918093E+03  0.00000000000E+00 0.  1.
         21    1    1    2  504  503  0.23878340637E+02 -0.66415694686E+02 -0.90944286899E+02  0.11511769183E+03  0.00000000000E+00 0.  1.
         21    1    1    2  505  501  0.64637927479E+02  0.44633437099E+02 -0.10274917382E+04  0.10304899211E+04  0.00000000000E+00 0. -1.
          2    1    1    2  501    0 -0.75768984567E+02  0.61982514919E+02  0.36784121852E+02  0.10457458008E+03  0.00000000000E+00 0. -1.
<scales pt_clust_3="42.17291" pt_clust_4="89.09814" pt_clust_5="54.16685" pt_clust_6="14000.00000"></scales>
<clustering>
<clus scale="   42.173">  2  3  1 -1</clus>
<clus scale="   54.167">  2  5  1 -1</clus>
<clus scale="   89.098">  2  4  1 -1</clus>
<clus scale="   42.173">  2  3  1 -1</clus>
</clustering>
</event>
<event>
 6    0  0.2117869E+002  0.8336211E+02  0.7546771E-02  0.1319772E+00
          2   -1    0    0  504    0 -0.00000000000E+00  0.00000000000E+00  0.44355198008E+04  0.44355198008E+04  0.00000000000E+00 0.  1.
         21   -1    0    0  501  502  0.00000000000E+00 -0.00000000000E+00 -0.16973733722E+02  0.16973733722E+02  0.00000000000E+00 0. -1.
         21    1    1    2  503  505 -0.26641643385E+02 -0.52195522046E+02  0.34747891352E+03  0.35238579004E+03  0.00000000000E+00 0. -1.
         21    1    1    2  504  503 -0.52410659371E+02  0.27670332446E+02  0.61887363798E+03  0.62170499781E+03  0.00000000000E+00 0. -1.
         21    1    1    2  505  502 -0.15659899270E+02  0.39787620139E+02  0.24327688006E+02  0.49194751399E+02  0.00000000000E+00 0. -1.
          2    1    1    2  501    0  0.94712202026E+02 -0.15262430539E+02  0.34278658276E+04  0.34292079953E+04  0.00000000000E+00 0.  1.
<scales pt_clust_3="46.63125" pt_clust_4="14000.00000" pt_clust_5="42.75847" pt_clust_6="83.36211"></scales>
<clustering>
<clus scale="   42.758">  2  5  1 -1</clus>
<clus scale="   46.631">  2  3  1 -1</clus>
<clus scale="   83.362">  1  6  2 -1</clus>
<clus scale="   42.758">  2  3  1 -1</clus>
</clustering>
</event>
<event>
 6    0  0.2117869E+002  0.8703563E+02  0.7546771E-02  0.1310193E+00
          2   -1    0    0  503    0 -0.00000000000E+00  0.00000000000E+00  0.29262373051E+04  0.29262373051E+04  0.00000000000E+00 0.  1.
         21   -1    0    0  504  502  0.00000000000E+00 -0.00000000000E+00 -0.14319369422E+03  0.14319369422E+03  0.00000000000E+00 0.  1.
         21    1    1    2  503  502 -0.31189493749E+02 -0.31962092776E+02  0.14413398698E+03  0.15089389019E+03  0.00000000000E+00 0.  1.
         21    1    1    2  504  505 -0.60255575595E+02  0.14177721152E+02 -0.10134967390E+03  0.11875815158E+03  0.00000000000E+00 0.  1.
         21    1    1    2  505  501  0.43092590071E+02  0.74869717812E+02  0.34554466604E+02  0.93040083440E+02  0.00000000000E+00 0. -1.
          2    1    1    2  501    0  0.48352479273E+02 -0.57085346188E+02  0.27057048312E+04  0.27067388741E+04  0.00000000000E+00 0.  1.
<scales pt_clust_3="44.65826" pt_clust_4="61.97335" pt_clust_5="87.03563" pt_clust_6="14000.00000"></scales>
<clustering>
<clus scale="   44.658">  1  3  2 -1</clus>
<clus scale="   61.973">  2  4  1 -1</clus>
<clus scale="   87.036">  2  5  1 -1</clus>
<clus scale="   61.973">  2  3  1 -1</clus>
</clustering>
</event>
<event>
 6    0  0.2117869E+002  0.3398192E+03  0.7546771E-02  0.1066873E+00
          2   -1    0    0  503    0 -0.00000000000E+00  0.00000000000E+00  0.22248145270E+04  0.22248145270E+04  0.00000000000E+00 0.  1.
         21   -1    0    0  504  502  0.00000000000E+00 -0.00000000000E+00 -0.26186455062E+03  0.26186455062E+03  0.00000000000E+00 0.  1.
         21    1    1    2  503  505 -0.21074945423E+02  0.35715532702E+02  0.15195068408E+04  0.15200726271E+04  0.00000000000E+00 0.  1.
         21    1    1    2  504  501 -0.27335718887E+03  0.18176391673E+03  0.97636890819E+02  0.34248392164E+03  0.00000000000E+00 0.  1.
         21    1    1    2  505  502  0.36017977970E+03 -0.85395334292E+02  0.22290859076E+03  0.43209961428E+03  0.00000000000E+00 0.  1.
          2    1    1    2  501    0 -0.65747645407E+02 -0.13208411514E+03  0.12289765398E+03  0.19202291452E+03  0.00000000000E+00 0.  1.
<scales pt_clust_3="41.46990" pt_clust_4="339.81917" pt_clust_5="14000.00000" pt_clust_6="142.71121"></scales>
<clustering>
<clus scale="   41.470">  1  3  2 -1</clus>
<clus scale="  142.711">  1  6  2 -1</clus>
<clus scale="  339.819">  2  4  1 -1</clus>
<clus scale="  339.819">  2  3  1 -1</clus>
</clustering>
</event>
<event>
 6    0  0.2117869E+002  0.9694839E+02  0.7546771E-02  0.1286847E+00
         21   -1    0    0  504  502  0.00000000000E+00  0.00000000000E+00  0.50881073136E+03  0.50881073136E+03  0.00000000000E+00 0.  1.
          2   -1    0    0  503    0 -0.00000000000E+00 -0.00000000000E+00 -0.64588166098E+03  0.64588166098E+03  0.00000000000E+00 0.  1.
         21    1    1    2  503  505 -0.11888934866E+02 -0.38038738146E+02 -0.24606383174E+03  0.24927033851E+03  0.00000000000E+00 0. -1.
         21    1    1    2  504  501 -0.31981879385E+02  0.17201614862E+02  0.46904280944E+02  0.59319033486E+02  0.00000000000E+00 0. -1.
         21    1    1    2  505  502 -0.33274669537E+02 -0.87765628732E+02  0.43765702244E+03  0.44760884543E+03  0.00000000000E+00 0.  1.
          2    1    1    2  501    0  0.77145483789E+02  0.10860275201E+03 -0.37556840127E+03  0.39849417492E+03  0.00000000000E+00 0.  1.
<scales pt_clust_3="39.82939" pt_clust_4="36.31441" pt_clust_5="96.94839" pt_clust_6="14000.00000"></scales>
<clustering>
<clus scale="   36.314">  1  4  2 -1</clus>
<clus scale="   39.829">  2  3  1 -1</clus>
<clus scale="   96.948">  1  5  2 -1</clus>
<clus scale="   36.314">  1  3  2 -1</clus>
</clustering>
</event>
<event>
 6    0  0.2117869E+002  0.9535284E+02  0.7546771E-02  0.1290383E+00
         21   -1    0    0  503  502  0.00000000000E+00  0.00000000000E+00  0.14324423806E+03  0.14324423806E+03  0.00000000000E+00 0. -1.
          2   -1    0    0  505    0 -0.00000000000E+00 -0.00000000000E+00 -0.14077340731E+04  0.14077340731E+04  0.00000000000E+00 0.  1.
         21    1    1    2  503  501 -0.31275663730E+02 -0.10887262403E+03  0.92485271349E+02  0.14623590811E+03  0.00000000000E+00 0. -1.
         21    1    1    2  504  502  0.65978624707E+01  0.62730717019E+02 -0.29416545060E+02  0.69598906386E+02  0.00000000000E+00 0. -1.
         21    1    1    2  505  504 -0.19426926146E+02 -0.26877635671E+02 -0.11774646889E+03  0.12232760807E+03  0.00000000000E+00 0.  1.
          2    1    1    2  501    0  0.44104727405E+02  0.73019542684E+02 -0.12098120925E+04  0.12128158886E+04  0.00000000000E+00 0.  1.
<scales pt_clust_3="14000.00000" pt_clust_4="95.35284" pt_clust_5="33.16343" pt_clust_6="54.27655"></scales>
<clustering>
<clus scale="   33.163">  2  5  1 -1</clus>
<clus scale="   54.277">  2  6  1 -1</clus>
<clus scale="   95.353">  2  4  1 -1</clus>
<clus scale="   95.353">  1  3  2 -1</clus>
</clustering>
</event>
<event>
 6    0  0.2117869E+002  0.2915886E+03  0.7546771E-02  0.1089523E+00
         21   -1    0    0  505  502  0.00000000000E+00  0.00000000000E+00  0.94871266206E+03  0.94871266206E+03  0.00000000000E+00 0.  1.
         -1   -1    0    0    0  501 -0.00000000000E+00 -0.00000000000E+00 -0.63257337980E+03  0.63257337980E+03  0.00000000000E+00 0. -1.
         21    1    1    2  503  502  0.55626326123E+00 -0.57217439350E+02  0.77653487236E+03  0.77864019468E+03  0.00000000000E+00 0.  1.
         21    1    1    2  504  501  0.22014451212E+02  0.20677287228E+02 -0.71701210500E+02  0.77802633994E+02  0.00000000000E+00 0. -1.
         21    1    1    2  505  504  0.15993332542E+03  0.26513283918E+03 -0.13555613501E+03  0.33800821991E+03  0.00000000000E+00 0.  1.
         -1    1    1    2    0  503 -0.18250403989E+03 -0.22859268706E+03 -0.25313824458E+03  0.38683499327E+03  0.00000000000E+00 0. -1.
<scales pt_clust_3="57.18154" pt_clust_4="30.20242" pt_clust_5="14000.00000" pt_clust_6="291.58861"></scales>
<clustering>
<clus scale="   30.202">  2  4  1 -1</clus>
<clus scale="   57.182">  1  3  2 -1</clus>
<clus scale="  291.589">  2  6  1 -1</clus>
<clus scale="   57.182">  1  3  2 -1</clus>
</clustering>
</event>
<event>
 6    0  0.2117869E+002  0.8046255E+02  0.7546771E-02  0.1327744E+00
          2   -1    0    0  504    0 -0.00000000000E+00  0.00000000000E+00  0.27677217240E+03  0.27677217240E+03  0.00000000000E+00 0. -1.
         21   -1    0    0  501  502  0.00000000000E+00 -0.00000000000E+00 -0.29112254370E+03  0.29112254370E+03  0.00000000000E+00 0. -1.
         21    1    1    2  503  502 -0.35996531819E+02 -0.72070649014E+02 -0.21590680941E+03  0.23044669471E+03  0.00000000000E+00 0. -1.
         21    1    1    2  504  505 -0.36061227664E+02 -0.26260342509E+02  0.85458699132E+02  0.96401281042E+02  0.00000000000E+00 0.  1.
         21    1    1    2  505  503 -0.39841142799E+02  0.68985829271E+02  0.36956800989E+01  0.79749729474E+02  0.00000000000E+00 0. -1.
          2    1    1    2  501    0  0.11189890228E+03  0.29345162252E+02  0.11240205888E+03  0.16129701088E+03  0.00000000000E+00 0. -1.
<scales pt_clust_3="14000.00000" pt_clust_4="44.60961" pt_clust_5="79.23599" pt_clust_6="80.46255"></scales>
<clustering>
<clus scale="   44.610">  1  4  2 -1</clus>
<clus scale="   79.236">  1  5  2 -1</clus>
<clus scale="   80.463">  1  6  2 -1</clus>
<clus scale="   80.463">  2  3  1 -1</clus>
</clustering>
</event>
<event>
 6    0  0.2117869E+002  0.8465146E+02  0.7546771E-02  0.1316347E+00
          1   -1    0    0  505    0 -0.00000000000E+00  0.00000000000E+00  0.16475866312E+03  0.16475866312E+03  0.00000000000E+00 0. -1.
         21   -1    0    0  504  502  0.00000000000E+00 -0.00000000000E+00 -0.11257863747E+04  0.11257863747E+04  0.00000000000E+00 0.  1.
         21    1    1    2  503  502 -0.84130256313E+01 -0.59738052965E+02 -0.34495858327E+03  0.35019400073E+03  0.00000000000E+00 0.  1.
         21    1    1    2  504  501  0.87637434906E+02  0.25307636527E+01 -0.94218288748E+01  0.88178770806E+02  0.00000000000E+00 0. -1.
         21    1    1    2  505  503 -0.59337393851E+02  0.11053931060E+03 -0.71705952011E+03  0.72795207321E+03  0.00000000000E+00 0.  1.
          1    1    1    2  501    0 -0.19887015424E+02 -0.53332021292E+02  0.11041222072E+03  0.12422019305E+03  0.00000000000E+00 0. -1.
<scales pt_clust_3="63.39811" pt_clust_4="84.65146" pt_clust_5="14000.00000" pt_clust_6="56.91922"></scales>
<clustering>
<clus scale="   56.919">  1  6  2 -1</clus>
<clus scale="   63.398">  2  3  1 -1</clus>
<clus scale="   84.651">  1  4  2 -1</clus>
<clus scale="   63.398">  2  3  1 -1</clus>
</clustering>
</event>
<event>
 6    0  0.2117869E+002  0.1487044E+03  0.7546771E-02  0.1202074E+00
         -1   -1    0    0    0  501 -0.00000000000E+00  0.00000000000E+00  0.11724726712E+03  0.11724726712E+03  0.00000000000E+00 0.  1.
         21   -1    0    0  505  502  0.00000000000E+00 -0.00000000000E+00 -0.95600239521E+03  0.95600239521E+03  0.00000000000E+00 0.  1.
         21    1    1    2  503  502 -0.40096500157E+02 -0.12607341914E+02 -0.46768759248E+03  0.46957252747E+03  0.00000000000E+00 0.  1.
         21    1    1    2  504  501 -0.50889028402E+02  0.14804599685E+02  0.28311043038E+02  0.60086475528E+02  0.00000000000E+00 0.  1.
         21    1    1    2  505  504 -0.87663514123E+02 -0.18526249737E+02  0.16102316361E+02  0.91035148322E+02  0.00000000000E+00 0.  1.
         -1    1    1    2    0  503  0.17864904268E+03  0.16328991966E+02 -0.41548089501E+03  0.45255551101E+03  0.00000000000E+00 0.  1.
<scales pt_clust_3="42.03183" pt_clust_4="31.28371" pt_clust_5="31.28371" pt_clust_6="143.03305"></scales>
<clustering>
<clus scale="   31.284">  4  5 -1 -1</clus>
<clus scale="   42.032">  2  3  1 -1</clus>
<clus scale="  143.033">  2  6  1 -1</clus>
<clus scale="   42.032">  2  3  1 -1</clus>
</clustering>
</event>
<event>
 6    0  0.2117869E+002  0.9385348E+02  0.7546771E-02  0.1293779E+00
          2   -1    0    0  503    0 -0.00000000000E+00  0.00000000000E+00  0.33711240786E+03  0.33711240786E+03  0.00000000000E+00 0.  1.
         21   -1    0    0  504  502  0.00000000000E+00 -0.00000000000E+00 -0.19876977805E+03  0.19876977805E+03  0.00000000000E+00 0.  1.
         21    1    1    2  503  505 -0.10459018661E+02  0.32568154031E+02  0.28806657149E+02  0.44720232831E+02  0.00000000000E+00 0. -1.
         21    1    1    2  504  501 -0.32434291484E+02  0.20226852510E+02 -0.25643775369E+02  0.46029469275E+02  0.00000000000E+00 0.  1.
         21    1    1    2  505  502  0.59247443911E+01  0.70655351067E+02 -0.13124814013E+03  0.14917558620E+03  0.00000000000E+00 0.  1.
          2    1    1    2  501    0  0.36968565753E+02 -0.12345035761E+03  0.26642788817E+03  0.29595689761E+03  0.00000000000E+00 0.  1.
<scales pt_clust_3="34.20637" pt_clust_4="39.11768" pt_clust_5="93.85348" pt_clust_6="14000.00000"></scales>
<clustering>
<clus scale="   34.206">  1  3  2 -1</clus>
<clus scale="   39.118">  2  4  1 -1</clus>
<clus scale="   93.853">  2  5  1 -1</clus>
<clus scale="   39.118">  2  3  1 -1</clus>
</clustering>
</event>
<event>
 6    0  0.2117869E+002  0.1338483E+03  0.7546771E-02  0.1221855E+00
          2   -1    0    0  504    0 -0.00000000000E+00  0.00000000000E+00  0.77489029088E+03  0.77489029088E+03  0.00000000000E+00 0. -1.
         21   -1    0    0  503  502  0.00000000000E+00 -0.00000000000E+00 -0.40126727649E+03  0.40126727649E+03  0.00000000000E+00 0.  1.
         21    1    1    2  503  501 -0.39441942551E+02  0.20342326660E+02  0.15214671051E+03  0.15848690358E+03  0.00000000000E+00 0. -1.
         21    1    1    2  504  505  0.94455433523E+02 -0.54908057433E+02 -0.14407569997E+03  0.18081629079E+03  0.00000000000E+00 0.  1.
         21    1    1    2  505  502  0.27226529462E+02  0.31594033119E+02 -0.23095851069E+03  0.23469405722E+03  0.00000000000E+00 0.  1.
          2    1    1    2  501    0 -0.82240020433E+02  0.29716976536E+01  0.59651051454E+03  0.60216031578E+03  0.00000000000E+00 0. -1.
<scales pt_clust_3="38.48530" pt_clust_4="123.16190" pt_clust_5="41.70692" pt_clust_6="38.48530"></scales>
<clustering>
<clus scale="   38.485">  3  6 -1 -1</clus>
<clus scale="   41.707">  2  5  1 -1</clus>
<clus scale="  123.162">  2  4  1 -1</clus>
<clus scale="   41.707">  2  3  1 -1</clus>
</clustering>
</event>
<event>
 6    0  0.2117869E+002  0.8565808E+02  0.7546771E-02  0.1313721E+00
         -1   -1    0    0    0  501 -0.00000000000E+00  0.00000000000E+00  0.43258796617E+03  0.43258796617E+03  0.00000000000E+00 0. -1.
         21   -1    0    0  505  502  0.00000000000E+00 -0.00000000000E+00 -0.27727149700E+03  0.27727149700E+03  0.00000000000E+00 0.  1.
         21    1    1    2  503  504 -0.14380221376E+02  0.11954473917E+03 -0.15464970325E+02  0.12139563723E+03  0.00000000000E+00 0. -1.
         21    1    1    2  504  501  0.18654998066E+02 -0.47526746578E+02  0.34271351617E+03  0.34649582213E+03  0.00000000000E+00 0. -1.
         21    1    1    2  505  503 -0.29230811284E+02 -0.14372104912E+02 -0.17603013472E+03  0.17901845172E+03  0.00000000000E+00 0.  1.
         -1    1    1    2    0  502  0.24956034594E+02 -0.57645887682E+02  0.40980580486E+01  0.62949552096E+02  0.00000000000E+00 0. -1.
<scales pt_clust_3="14000.00000" pt_clust_4="51.11170" pt_clust_5="32.57296" pt_clust_6="85.65808"></scales>
<clustering>
<clus scale="   32.573">  2  5  1 -1</clus>
<clus scale="   51.112">  1  4  2 -1</clus>
<clus scale="   85.658">  2  6  1 -1</clus>
<clus scale="   32.573">  2  3  1 -1</clus>
</clustering>
</event>
<event>
 6    0  0.2117869E+002  0.1216429E+03  0.7546771E-02  0.1240411E+00
         21   -1    0    0  504  502  0.00000000000E+00  0.00000000000E+00  0.41374639216E+03  0.41374639216E+03  0.00000000000E+00 0. -1.
          2   -1    0    0  503    0 -0.00000000000E+00 -0.00000000000E+00 -0.22390353235E+04  0.22390353235E+04  0.00000000000E+00 0.  1.
         21    1    1    2  503  505 -0.45829696126E+02 -0.61790670687E+02 -0.58687944013E+02  0.96761163715E+02  0.00000000000E+00 0.  1.
         21    1    1    2  504  501 -0.56453660656E+02 -0.33387949907E+02 -0.26229608798E+03  0.27037198222E+03  0.00000000000E+00 0. -1.
         21    1    1    2  505  502  0.35672516570E+02 -0.12531938471E+02  0.38763507112E+03  0.38947467990E+03  0.00000000000E+00 0. -1.
          2    1    1    2  501    0  0.66610840212E+02  0.10771055906E+03 -0.18919399704E+04  0.18961738898E+04  0.00000000000E+00 0.  1.
<scales pt_clust_3="121.64289" pt_clust_4="61.86306" pt_clust_5="37.80976" pt_clust_6="14000.00000"></scales>
<clustering>
<clus scale="   37.810">  1  5  2 -1</clus>
<clus scale="   61.863">  1  4  2 -1</clus>
<clus scale="  121.643">  1  3  2 -1</clus>
<clus scale="   37.810">  1  3  2 -1</clus>
</clustering>
</event>
<event>
 6    0  0.2117869E+002  0.1017786E+03  0.7546771E-02  0.1276600E+00
         21   -1    0    0  505  502  0.00000000000E+00  0.00000000000E+00  0.26529550084E+03  0.26529550084E+03  0.00000000000E+00 0.  1.
         -3   -1    0    0    0  501 -0.00000000000E+00 -0.00000000000E+00 -0.67765457896E+03  0.67765457896E+03  0.00000000000E+00 0. -1.
         21    1    1    2  503  502  0.15039848959E+02 -0.82993510715E+02  0.20094328982E+03  0.21792734019E+03  0.00000000000E+00 0.  1.
         21    1    1    2  504  501  0.14477969932E+02  0.30297208752E+02 -0.90359451322E+02  0.96396903035E+02  0.00000000000E+00 0.  1.
         21    1    1    2  505  504 -0.72707738947E+02 -0.51629207748E+01  0.24151403333E+02  0.76787768144E+02  0.00000000000E+00 0.  1.
         -3    1    1    2    0  503  0.43189920056E+02  0.57859222738E+02 -0.54709431995E+03  0.55183806844E+03  0.00000000000E+00 0. -1.
<scales pt_clust_3="101.77859" pt_clust_4="33.57875" pt_clust_5="72.15563" pt_clust_6="14000.00000"></scales>
<clustering>
<clus scale="   33.579">  2  4  1 -1</clus>
<clus scale="   72.156">  1  5  2 -1</clus>
<clus scale="  101.779">  1  3  2 -1</clus>
<clus scale="   72.156">  1  3  2 -1</clus>
</clustering>
</event>
<event>
 6    0  0.2117869E+002  0.1076503E+03  0.7546771E-02  0.1264984E+00
          1   -1    0    0  505    0 -0.00000000000E+00  0.00000000000E+00  0.25811859924E+04  0.25811859924E+04  0.00000000000E+00 0. -1.
         21   -1    0    0  501  502  0.00000000000E+00 -0.00000000000E+00 -0.91516088562E+02  0.91516088562E+02  0.00000000000E+00 0. -1.
         21    1    1    2  503  504 -0.64420900878E+01 -0.41913148080E+02 -0.49459313320E+02  0.65149337531E+02  0.00000000000E+00 0. -1.
         21    1    1    2  504  502 -0.33447782636E+02 -0.10467497534E+02 -0.17572262685E+02  0.39205957249E+02  0.00000000000E+00 0. -1.
         21    1    1    2  505  503 -0.79119899903E+02  0.25922694204E+02  0.42015874986E+03  0.42832851845E+03  0.00000000000E+00 0. -1.
          1    1    1    2  501    0  0.11900977263E+03  0.26457951410E+02  0.21365427300E+04  0.21400182677E+04  0.00000000000E+00 0. -1.
<scales pt_clust_3="63.23059" pt_clust_4="35.04743" pt_clust_5="107.65030" pt_clust_6="14000.00000"></scales>
<clustering>
<clus scale="   35.047">  2  4  1 -1</clus>
<clus scale="   63.231">  2  3  1 -1</clus>
<clus scale="  107.650">  2  5  1 -1</clus>
<clus scale="   35.047">  2  3  1 -1</clus>
</clustering>
</event>
<event>
 6    0  0.2117869E+002  0.1335872E+03  0.7546771E-02  0.1222228E+00
          2   -1    0    0  503    0 -0.00000000000E+00  0.00000000000E+00  0.14128787106E+04  0.14128787106E+04  0.00000000000E+00 0. -1.
         21   -1    0    0  505  502  0.00000000000E+00 -0.00000000000E+00 -0.24040852563E+03  0.24040852563E+03  0.00000000000E+00 0. -1.
         21    1    1    2  503  504  0.54117792612E+01 -0.72653543923E+02  0.12195283655E+03  0.14205745014E+03  0.00000000000E+00 0.  1.
         21    1    1    2  504  502  0.34093899678E+02 -0.20967428381E+02  0.90600302485E+02  0.99047674675E+02  0.00000000000E+00 0.  1.
         21    1    1    2  505  501  0.79915055371E+02  0.31647378060E+02 -0.21398106277E+03  0.23059893287E+03  0.00000000000E+00 0. -1.
          2    1    1    2  501    0 -0.11942073431E+03  0.61973594244E+02  0.11738981087E+04  0.11815831785E+04  0.00000000000E+00 0. -1.
<scales pt_clust_3="37.99179" pt_clust_4="37.99179" pt_clust_5="85.95332" pt_clust_6="123.36244"></scales>
<clustering>
<clus scale="   37.992">  3  4 -1 -1</clus>
<clus scale="   85.953">  2  5  1 -1</clus>
<clus scale="  123.362">  1  6  2 -1</clus>
<clus scale="   85.953">  2  3  1 -1</clus>
</clustering>
</event>
<event>
 6    0  0.2117869E+002  0.9479441E+02  0.7546771E-02  0.1291640E+00
          1   -1    0    0  505    0 -0.00000000000E+00  0.00000000000E+00  0.27554254073E+03  0.27554254073E+03  0.00000000000E+00 0.  1.
         21   -1    0    0  503  502  0.00000000000E+00 -0.00000000000E+00 -0.14479546583E+03  0.14479546583E+03  0.00000000000E+00 0.  1.
         21    1    1    2  503  504  0.46551958101E+02 -0.32566576204E+02 -0.72396494675E+01  0.57271975810E+02  0.00000000000E+00 0.  1.
         21    1    1    2  504  501 -0.14764043049E+02  0.10568325988E+03 -0.33040721265E+02  0.11170773316E+03  0.00000000000E+00 0.  1.
         21    1    1    2  505  502  0.42351594060E+02  0.18596587433E+02  0.10833898862E+03  0.11779994499E+03  0.00000000000E+00 0.  1.
          1    1    1    2  501    0 -0.74139509112E+02 -0.91713271104E+02  0.62688457019E+02  0.13355835261E+03  0.00000000000E+00 0.  1.
<scales pt_clust_3="60.81951" pt_clust_4="94.79441" pt_clust_5="46.25463" pt_clust_6="14000.00000"></scales>
<clustering>
<clus scale="   46.255">  1  5  2 -1</clus>
<clus scale="   60.820">  2  3  1 -1</clus>
<clus scale="   94.794">  2  4  1 -1</clus>
<clus scale="   60.820">  2  3  1 -1</clus>
</clustering>
</event>
<event>
 6    0  0.2117869E+002  0.1379903E+03  0.7546771E-02  0.1216059E+00
          1   -1    0    0  504    0 -0.00000000000E+00  0.00000000000E+00  0.44756047847E+03  0.44756047847E+03  0.00000000000E+00 0. -1.
         21   -1    0    0  505  502  0.00000000000E+00 -0.00000000000E+00 -0.16958141255E+03  0.16958141255E+03  0.00000000000E+00 0. -1.
         21    1    1    2  503  502 -0.18743860219E+02 -0.88516898836E+02 -0.63252072143E+02  0.11039655024E+03  0.00000000000E+00 0. -1.
         21    1    1    2  504  503  0.11706416600E+03 -0.51555177719E+02  0.23554894129E+03  0.26803965948E+03  0.00000000000E+00 0. -1.
         21    1    1    2  505  501  0.29919716473E+02  0.16539742718E+02  0.62186965607E+01  0.34748017353E+02  0.00000000000E+00 0. -1.
          1    1    1    2  501    0 -0.12824002225E+03  0.12353233384E+03  0.99463500212E+02  0.20395766395E+03  0.00000000000E+00 0. -1.
<scales pt_clust_3="79.29663" pt_clust_4="14000.00000" pt_clust_5="34.18702" pt_clust_6="137.99033"></scales>
<clustering>
<clus scale="   34.187">  2  5  1 -1</clus>
<clus scale="   79.297">  2  3  1 -1</clus>
<clus scale="  137.990">  2  6  1 -1</clus>
<clus scale="   34.187">  2  3  1 -1</clus>
</clustering>
</event>
<event>
 6    0  0.2117869E+002  0.9079452E+02  0.7546771E-02  0.1300939E+00
          1   -1    0    0  503    0 -0.00000000000E+00  0.00000000000E+00  0.54443600143E+03  0.54443600143E+03  0.00000000000E+00 0. -1.
         21   -1    0    0  504  502  0.00000000000E+00 -0.00000000000E+00 -0.73076278240E+02  0.73076278240E+02  0.00000000000E+00 0. -1.
         21    1    1    2  503  502  0.34049847187E+02 -0.31229886329E+01  0.64137989779E+02  0.72683057753E+02  0.00000000000E+00 0. -1.
         21    1    1    2  504  505  0.74005768747E+02  0.66584637836E+02 -0.10222155587E+02  0.10007427376E+03  0.00000000000E+00 0. -1.
         21    1    1    2  505  501 -0.58883642191E+02 -0.38199976247E+02  0.97881963328E+02  0.12044666973E+03  0.00000000000E+00 0.  1.
          1    1    1    2  501    0 -0.49171973743E+02 -0.25261672955E+02  0.31956192567E+03  0.32430827843E+03  0.00000000000E+00 0. -1.
<scales pt_clust_3="34.19276" pt_clust_4="14000.00000" pt_clust_5="90.79452" pt_clust_6="37.85284"></scales>
<clustering>
<clus scale="   34.193">  1  3  2 -1</clus>
<clus scale="   37.853">  1  6  2 -1</clus>
<clus scale="   90.795">  1  5  2 -1</clus>
<clus scale="   90.795">  2  3  1 -1</clus>
</clustering>
</event>
<event>
 6    0  0.2117869E+002  0.1395077E+03  0.7546771E-02  0.1213993E+00
         21   -1    0    0  505  502  0.00000000000E+00  0.00000000000E+00  0.25570222901E+03  0.25570222901E+03  0.00000000000E+00 0.  1.
          1   -1    0    0  503    0 -0.00000000000E+00 -0.00000000000E+00 -0.21502281711E+04  0.21502281711E+04  0.00000000000E+00 0.  1.
         21    1    1    2  503  502 -0.47278256852E+02  0.74128193116E+00 -0.20978912112E+03  0.21505175751E+03  0.00000000000E+00 0.  1.
         21    1    1    2  504  501  0.16145608244E+03  0.11725846801E+03  0.44446779581E+01  0.19959301099E+03  0.00000000000E+00 0.  1.
         21    1    1    2  505  504 -0.50407179879E+02 -0.34662112570E+02  0.14329500675E+03  0.15580694719E+03  0.00000000000E+00 0.  1.
          1    1    1    2  501    0 -0.63770645706E+02 -0.83337637369E+02 -0.18324765056E+04  0.18354786844E+04  0.00000000000E+00 0.  1.
<scales pt_clust_3="47.28407" pt_clust_4="139.50766" pt_clust_5="61.29919" pt_clust_6="14000.00000"></scales>
<clustering>
<clus scale="   47.284">  2  3  1 -1</clus>
<clus scale="   61.299">  1  5  2 -1</clus>
<clus scale="  139.508">  1  4  2 -1</clus>
<clus scale="   61.299">  1  3  2 -1</clus>
</clustering>
</event>
<event>
 6    0  0.2117869E+002  0.9509172E+02  0.7546771E-02  0.1290970E+00
         21   -1    0    0  503  502  0.00000000000E+00  0.00000000000E+00  0.22730899524E+03  0.22730899524E+03  0.00000000000E+00 0. -1.
         -1   -1    0    0    0  501 -0.00000000000E+00 -0.00000000000E+00 -0.23787124370E+03  0.23787124370E+03  0.00000000000E+00 0. -1.
         21    1    1    2  503  505  0.42521300540E+02  0.35016610095E+01 -0.97699101194E+02  0.10660880359E+03  0.00000000000E+00 0.  1.
         21    1    1    2  504  502 -0.93877088168E+02  0.36677764594E+02  0.18548843513E+03  0.21110216879E+03  0.00000000000E+00 0. -1.
         21    1    1    2  505  501  0.20888591595E+02  0.27679348926E+02 -0.23148966596E+02  0.41693575887E+02  0.00000000000E+00 0.  1.
         -1    1    1    2    0  504  0.30467196033E+02 -0.67858774529E+02 -0.75202615805E+02  0.10577569068E+03  0.00000000000E+00 0. -1.
<scales pt_clust_3="55.65310" pt_clust_4="14000.00000" pt_clust_5="34.67679" pt_clust_6="95.09172"></scales>
<clustering>
<clus scale="   34.677">  2  5  1 -1</clus>
<clus scale="   55.653">  2  3  1 -1</clus>
<clus scale="   95.092">  2  6  1 -1</clus>
<clus scale="   95.092">  1  3  2 -1</clus>
</clustering>
</event>
<event>
 6    0  0.2117869E+002  0.1133797E+03  0.7546771E-02  0.1254436E+00
         -2   -1    0    0    0  501 -0.00000000000E+00  0.00000000000E+00  0.71932872415E+03  0.71932872415E+03  0.00000000000E+00 0. -1.
         21   -1    0    0  505  502  0.00000000000E+00 -0.00000000000E+00 -0.52369702305E+02  0.52369702305E+02  0.00000000000E+00 0.  1.
         21    1    1    2  503  501  0.23573907300E+02 -0.22287332680E+02  0.10144533912E+03  0.10650639010E+03  0.00000000000E+00 0. -1.
         21    1    1    2  504  502 -0.25067127874E+02  0.24128266433E+02  0.34603049458E+02  0.49070410358E+02  0.00000000000E+00 0.  1.
         21    1    1    2  505  503  0.26902316197E+02 -0.12639852355E+03  0.90593592192E+02  0.15782116562E+03  0.00000000000E+00 0.  1.
         -2    1    1    2    0  504 -0.25409095623E+02  0.12455758980E+03  0.44031704108E+03  0.45830046038E+03  0.00000000000E+00 0. -1.
<scales pt_clust_3="32.44155" pt_clust_4="32.58718" pt_clust_5="14000.00000" pt_clust_6="113.37972"></scales>
<clustering>
<clus scale="   32.442">  1  3  2 -1</clus>
<clus scale="   32.587">  2  4  1 -1</clus>
<clus scale="  113.380">  1  6  2 -1</clus>
<clus scale="   32.587">  2  3  1 -1</clus>
</clustering>
</event>
<event>
 6    0  0.2117869E+002  0.7789818E+02  0.7546771E-02  0.1335124E+00
          1   -1    0    0  505    0 -0.00000000000E+00  0.00000000000E+00  0.71665460867E+03  0.71665460867E+03  0.00000000000E+00 0.  1.
         21   -1    0    0  504  502  0.00000000000E+00 -0.00000000000E+00 -0.29655175830E+03  0.29655175830E+03  0.00000000000E+00 0. -1.
         21    1    1    2  503  502  0.15106604460E+02 -0.41685369729E+02  0.70256323205E+02  0.83077256202E+02  0.00000000000E+00 0.  1.
         21    1    1    2  504  501  0.45490496810E+02  0.63166029943E+02 -0.27438873312E+03  0.28521660102E+03  0.00000000000E+00 0. -1.
         21    1    1    2  505  503  0.42685451027E+02  0.67487893060E+01  0.87361128304E+02  0.97465689476E+02  0.00000000000E+00 0.  1.
          1    1    1    2  501    0 -0.10328255230E+03 -0.28229449520E+02  0.53687413198E+03  0.54744682026E+03  0.00000000000E+00 0.  1.
<scales pt_clust_3="45.64361" pt_clust_4="77.89818" pt_clust_5="43.21567" pt_clust_6="14000.00000"></scales>
<clustering>
<clus scale="   43.216">  1  5  2 -1</clus>
<clus scale="   45.644">  1  3  2 -1</clus>
<clus scale="   77.898">  2  4  1 -1</clus>
<clus scale="   77.898">  2  3  1 -1</clus>
</clustering>
</event>
<event>
 6    0  0.2117869E+002  0.1240341E+03  0.7546771E-02  0.1236587E+00
         21   -1    0    0  503  502  0.00000000000E+00  0.00000000000E+00  0.15100689681E+03  0.15100689681E+03  0.00000000000E+00 0.  1.
          2   -1    0    0  504    0 -0.00000000000E+00 -0.00000000000E+00 -0.11765489875E+04  0.11765489875E+04  0.00000000000E+00 0.  1.
         21    1    1    2  503  501  0.49466772636E+02 -0.73910048746E+02 -0.30783447937E+02  0.94113110498E+02  0.00000000000E+00 0.  1.
         21    1    1    2  504  505  0.59960718641E+02  0.10113296319E+03 -0.56760995284E+03  0.57965871216E+03  0.00000000000E+00 0.  1.
         21    1    1    2  505  502 -0.12562479250E+03  0.14263421361E+03  0.39885751683E+01  0.19011053657E+03  0.00000000000E+00 0.  1.
          2    1    1    2  501    0  0.16197301218E+02 -0.16985712806E+03 -0.43113726503E+03  0.46367352504E+03  0.00000000000E+00 0.  1.
<scales pt_clust_3="88.93625" pt_clust_4="115.70706" pt_clust_5="14000.00000" pt_clust_6="124.03408"></scales>
<clustering>
<clus scale="   88.936">  1  3  2 -1</clus>
<clus scale="  115.707">  2  4  1 -1</clus>
<clus scale="  124.034">  2  6  1 -1</clus>
<clus scale="   88.936">  1  3  2 -1</clus>
</clustering>
</event>
<event>
 6    0  0.2117869E+002  0.1195180E+03  0.7546771E-02  0.1243894E+00
          2   -1    0    0  505    0 -0.00000000000E+00  0.00000000000E+00  0.13186942090E+04  0.13186942090E+04  0.00000000000E+00 0. -1.
         21   -1    0    0  504  502  0.00000000000E+00 -0.00000000000E+00 -0.38584138965E+02  0.38584138965E+02  0.00000000000E+00 0. -1.
         21    1    1    2  503  502 -0.36675354382E+02 -0.21321258774E+02  0.19537991469E+02  0.46705575742E+02  0.00000000000E+00 0. -1.
         21    1    1    2  504  501  0.84346479766E+02 -0.78259606849E+02  0.21188798527E+03  0.24111286364E+03  0.00000000000E+00 0. -1.
         21    1    1    2  505  503  0.58105387431E+02  0.11262993031E+01  0.44194479076E+03  0.44574959639E+03  0.00000000000E+00 0. -1.
          2    1    1    2  501    0 -0.10577651282E+03  0.98454566320E+02  0.60673930253E+03  0.62371031219E+03  0.00000000000E+00 0. -1.
<scales pt_clust_3="42.42261" pt_clust_4="119.51804" pt_clust_5="55.31680" pt_clust_6="14000.00000"></scales>
<clustering>
<clus scale="   42.423">  2  3  1 -1</clus>
<clus scale="   55.317">  1  5  2 -1</clus>
<clus scale="  119.518">  2  4  1 -1</clus>
<clus scale="   42.423">  2  3  1 -1</clus>
</clustering>
</event>
<event>
 6    0  0.2117869E+002  0.1455164E+03  0.7546771E-02  0.1206093E+00
         21   -1    0    0  503  502  0.00000000000E+00  0.00000000000E+00  0.70706120264E+03  0.70706120264E+03  0.00000000000E+00 0.  1.
          2   -1    0    0  504    0 -0.00000000000E+00 -0.00000000000E+00 -0.63019181043E+02  0.63019181043E+02  0.00000000000E+00 0.  1.
         21    1    1    2  503  501 -0.70698265677E+02  0.32469905435E+02  0.13213505727E+03  0.15333692604E+03  0.00000000000E+00 0.  1.
         21    1    1    2  504  505  0.34222289509E+02 -0.17400427010E+02 -0.19522633415E+02  0.43070560419E+02  0.00000000000E+00 0. -1.
         21    1    1    2  505  502  0.12551741122E+03 -0.10904932371E+02  0.33708886891E+03  0.35986447951E+03  0.00000000000E+00 0.  1.
          2    1    1    2  501    0 -0.89041435055E+02 -0.41645460536E+01  0.19434072883E+03  0.21380841771E+03  0.00000000000E+00 0.  1.
<scales pt_clust_3="39.41365" pt_clust_4="38.39193" pt_clust_5="138.86582" pt_clust_6="39.41365"></scales>
<clustering>
<clus scale="   38.392">  2  4  1 -1</clus>
<clus scale="   39.414">  3  6 -1 -1</clus>
<clus scale="  138.866">  1  5  2 -1</clus>
<clus scale="  138.866">  1  3  2 -1</clus>
</clustering>
</event>
<event>
 6    0  0.2117869E+002  0.1262721E+03  0.7546771E-02  0.1233095E+00
          1   -1    0    0  504    0 -0.00000000000E+00  0.00000000000E+00  0.70117085037E+03  0.70117085037E+03  0.00000000000E+00 0. -1.
         21   -1    0    0  505  502  0.00000000000E+00 -0.00000000000E+00 -0.30891041103E+03  0.30891041103E+03  0.00000000000E+00 0.  1.
         21    1    1    2  503  502  0.42521292974E+02  0.34009131218E+02 -0.13296493963E+03  0.14368144116E+03  0.00000000000E+00 0.  1.
         21    1    1    2  504  503  0.57069418160E+02 -0.56547727501E+02  0.43648850812E+02  0.91431866173E+02  0.00000000000E+00 0. -1.
         21    1    1    2  505  501 -0.10200343026E+03 -0.10458811956E+03 -0.10169167624E+03  0.17800160548E+03  0.00000000000E+00 0.  1.
          1    1    1    2  501    0  0.24127191240E+01  0.12712671584E+03  0.58326820439E+03  0.59696634859E+03  0.00000000000E+00 0. -1.
<scales pt_clust_3="54.44889" pt_clust_4="81.57058" pt_clust_5="126.27207" pt_clust_6="14000.00000"></scales>
<clustering>
<clus scale="   54.449">  2  3  1 -1</clus>
<clus scale="   81.571">  2  4  1 -1</clus>
<clus scale="  126.272">  2  5  1 -1</clus>
<clus scale="   54.449">  2  3  1 -1</clus>
</clustering>
</event>
<event>
 6    0  0.2117869E+002  0.2013108E+03  0.7546771E-02  0.1148638E+00
          4   -1    0    0  503    0 -0.00000000000E+00  0.00000000000E+00  0.74805768271E+03  0.74805768271E+03  0.00000000000E+00 0. -1.
         21   -1    0    0  505  502  0.00000000000E+00 -0.00000000000E+00 -0.24341863444E+03  0.24341863444E+03  0.00000000000E+00 0. -1.
         21    1    1    2  503  504  0.41942284386E+02  0.13399661074E+02  0.65146679847E+02  0.78630757542E+02  0.00000000000E+00 0. -1.
         21    1    1    2  504  502  0.41269876864E+02  0.10100893509E+02  0.21421823329E+02  0.47582825691E+02  0.00000000000E+00 0.  1.
         21    1    1    2  505  501 -0.18810545255E+03  0.84946325828E+02 -0.16421140710E+03  0.26375163653E+03  0.00000000000E+00 0. -1.
          4    1    1    2  501    0  0.10489329130E+03 -0.10844688041E+03  0.58228195219E+03  0.60151109738E+03  0.00000000000E+00 0. -1.
<scales pt_clust_3="91.84641" pt_clust_4="30.42391" pt_clust_5="201.31080" pt_clust_6="14000.00000"></scales>
<clustering>
<clus scale="   30.424">  3  4 -1 -1</clus>
<clus scale="   91.846">  1  3  2 -1</clus>
<clus scale="  201.311">  2  5  1 -1</clus>
<clus scale="  201.311">  2  3  1 -1</clus>
</clustering>
</event>
<event>
 6    0  0.2117869E+002  0.8151067E+02  0.7546771E-02  0.1324818E+00
          2   -1    0    0  504    0 -0.00000000000E+00  0.00000000000E+00  0.27536835593E+04  0.27536835593E+04  0.00000000000E+00 0.  1.
         21   -1    0    0  505  502  0.00000000000E+00 -0.00000000000E+00 -0.10896058642E+02  0.10896058642E+02  0.00000000000E+00 0. -1.
         21    1    1    2  503  502  0.27904614438E+02 -0.24566731540E+02  0.16586686366E+03  0.16998237634E+03  0.00000000000E+00 0. -1.
         21    1    1    2  504  503 -0.35890394434E+02  0.10766379946E+02  0.10523641900E+04  0.10530310649E+04  0.00000000000E+00 0. -1.
         21    1    1    2  505  501  0.49202366810E+01  0.96615451256E+02  0.32352710226E+03  0.33768112184E+03  0.00000000000E+00 0. -1.
          2    1    1    2  501    0  0.30655433144E+01 -0.82815099662E+02  0.12010293447E+04  0.12038850548E+04  0.00000000000E+00 0.  1.
<scales pt_clust_3="37.17784" pt_clust_4="36.20054" pt_clust_5="81.51067" pt_clust_6="14000.00000"></scales>
<clustering>
<clus scale="   37.178">  2  3  1 -1</clus>
<clus scale="   36.201">  1  4  2 -1</clus>
<clus scale="   81.511">  2  5  1 -1</clus>
<clus scale="   37.178">  2  3  1 -1</clus>
</clustering>
</event>
<event>
 6    0  0.2117869E+002  0.1323610E+03  0.7546771E-02  0.1223994E+00
         21   -1    0    0  503  502  0.00000000000E+00  0.00000000000E+00  0.48119336130E+03  0.48119336130E+03  0.00000000000E+00 0. -1.
          2   -1    0    0  505    0 -0.00000000000E+00 -0.00000000000E+00 -0.67359017297E+03  0.67359017297E+03  0.00000000000E+00 0.  1.
         21    1    1    2  503  504  0.23763861144E+02 -0.24309989309E+02  0.22357175898E+03  0.22614161070E+03  0.00000000000E+00 0. -1.
         21    1    1    2  504  501  0.73942163269E+02 -0.51143416327E+02  0.24026281612E+03  0.25653325974E+03  0.00000000000E+00 0. -1.
         21    1    1    2  505  502 -0.65997636001E+02  0.37197899944E+01 -0.26770516436E+03  0.27574549828E+03  0.00000000000E+00 0.  1.
          2    1    1    2  501    0 -0.31708388411E+02  0.71733615641E+02 -0.38852622242E+03  0.39636316556E+03  0.00000000000E+00 0.  1.
<scales pt_clust_3="31.31150" pt_clust_4="31.31150" pt_clust_5="66.10238" pt_clust_6="122.17452"></scales>
<clustering>
<clus scale="   31.312">  3  4 -1 -1</clus>
<clus scale="   66.102">  2  5  1 -1</clus>
<clus scale="  122.175">  2  6  1 -1</clus>
<clus scale="  132.361">  1  3  2 -1</clus>
</clustering>
</event>
<event>
 6    0  0.2117869E+002  0.9727011E+02  0.7546771E-02  0.1286144E+00
         -2   -1    0    0    0  501 -0.00000000000E+00  0.00000000000E+00  0.11221511183E+03  0.11221511183E+03  0.00000000000E+00 0.  1.
         21   -1    0    0  504  502  0.00000000000E+00 -0.00000000000E+00 -0.34518493860E+03  0.34518493860E+03  0.00000000000E+00 0.  1.
         21    1    1    2  503  501 -0.31724684631E+00  0.32935477170E+02 -0.11793899439E+02  0.34984887680E+02  0.00000000000E+00 0.  1.
         21    1    1    2  504  503  0.41930988152E+01  0.33587862104E+02 -0.87257580094E+02  0.93592798025E+02  0.00000000000E+00 0.  1.
         21    1    1    2  505  502 -0.99698951876E+02 -0.18932522952E+02 -0.18443129569E+03  0.21050706463E+03  0.00000000000E+00 0.  1.
         -2    1    1    2    0  505  0.95823099907E+02 -0.47590816323E+02  0.50512948455E+02  0.11831530009E+03  0.00000000000E+00 0.  1.
<scales pt_clust_3="32.93701" pt_clust_4="34.87648" pt_clust_5="14000.00000" pt_clust_6="97.27011"></scales>
<clustering>
<clus scale="   32.937">  1  3  2 -1</clus>
<clus scale="   34.876">  2  4  1 -1</clus>
<clus scale="   97.270">  1  6  2 -1</clus>
<clus scale="   34.876">  2  3  1 -1</clus>
</clustering>
</event>
<event>
 6    0  0.2117869E+002  0.8639636E+02  0.7546771E-02  0.1311821E+00
         21   -1    0    0  504  502  0.00000000000E+00  0.00000000000E+00  0.14512080657E+03  0.14512080657E+03  0.00000000000E+00 0.  1.
          1   -1    0    0  502    0 -0.00000000000E+00 -0.00000000000E+00 -0.78257718647E+03  0.78257718647E+03  0.00000000000E+00 0. -1.
         21    1    1    2  503  505  0.48044491249E+02 -0.51237723277E+02 -0.26536802456E+02  0.75085147070E+02  0.00000000000E+00 0.  1.
         21    1    1    2  504  503 -0.91771256194E+01  0.96974627392E+02  0.97779268903E+02  0.13801841696E+03  0.00000000000E+00 0.  1.
         21    1    1    2  505  501 -0.11912676276E+01 -0.47335726847E+02 -0.25710942685E+03  0.26143325635E+03  0.00000000000E+00 0. -1.
          1    1    1    2  501    0 -0.37676098002E+02  0.15988227322E+01 -0.45158941950E+03  0.45316117266E+03  0.00000000000E+00 0. -1.
<scales pt_clust_3="86.39636" pt_clust_4="14000.00000" pt_clust_5="55.41163" pt_clust_6="37.71001"></scales>
<clustering>
<clus scale="   37.710">  2  6  1 -1</clus>
<clus scale="   55.412">  2  5  1 -1</clus>
<clus scale="   86.396">  2  3  1 -1</clus>
<clus scale="   86.396">  1  3  2 -1</clus>
</clustering>
</event>
<event>
 6    0  0.2117869E+002  0.1334979E+03  0.7546771E-02  0.1222356E+00
         21   -1    0    0  505  502  0.00000000000E+00  0.00000000000E+00  0.11562255967E+03  0.11562255967E+03  0.00000000000E+00 0.  1.
          4   -1    0    0  503    0 -0.00000000000E+00 -0.00000000000E+00 -0.20759890420E+04  0.20759890420E+04  0.00000000000E+00 0. -1.
         21    1    1    2  503  502  0.32204473084E+02  0.59830214745E+01 -0.65333497414E+02  0.73084817281E+02  0.00000000000E+00 0.  1.
         21    1    1    2  504  501  0.71244006917E+02 -0.26808080025E+02 -0.40439562521E+02  0.86195938960E+02  0.00000000000E+00 0.  1.
         21    1    1    2  505  504  0.36862672031E+02  0.18425947425E+02  0.81410740719E+02  0.91247360686E+02  0.00000000000E+00 0.  1.
          4    1    1    2  501    0 -0.14031115203E+03  0.23991111261E+01 -0.19360041632E+04  0.19410834848E+04  0.00000000000E+00 0. -1.
<scales pt_clust_3="32.75553" pt_clust_4="133.49790" pt_clust_5="65.90358" pt_clust_6="14000.00000"></scales>
<clustering>
<clus scale="   32.756">  1  3  2 -1</clus>
<clus scale="   65.904">  1  5  2 -1</clus>
<clus scale="  133.498">  1  4  2 -1</clus>
<clus scale="   32.756">  1  3  2 -1</clus>
</clustering>
</event>
<event>
 6    0  0.2117869E+002  0.1007035E+03  0.7546771E-02  0.1278823E+00
          1   -1    0    0  504    0 -0.00000000000E+00  0.00000000000E+00  0.10400047417E+04  0.10400047417E+04  0.00000000000E+00 0. -1.
         21   -1    0    0  501  502  0.00000000000E+00 -0.00000000000E+00 -0.97806961296E+02  0.97806961296E+02  0.00000000000E+00 0.  1.
         21    1    1    2  503  505 -0.16620741360E+01  0.72008251690E+02 -0.12882259953E+02  0.73170372580E+02  0.00000000000E+00 0.  1.
         21    1    1    2  504  503 -0.29958633186E+02  0.89488504398E+01  0.34883146638E+03  0.35022991529E+03  0.00000000000E+00 0.  1.
         21    1    1    2  505  502  0.33723930852E+02  0.27437094584E+02 -0.40033111186E+02  0.59099472608E+02  0.00000000000E+00 0.  1.
          1    1    1    2  501    0 -0.21032235304E+01 -0.10839419671E+03  0.64628168512E+03  0.65531194247E+03  0.00000000000E+00 0. -1.
<scales pt_clust_3="14000.00000" pt_clust_4="31.26662" pt_clust_5="43.23385" pt_clust_6="100.70352"></scales>
<clustering>
<clus scale="   31.267">  1  4  2 -1</clus>
<clus scale="   43.234">  2  5  1 -1</clus>
<clus scale="  100.704">  1  6  2 -1</clus>
<clus scale="   43.234">  2  3  1 -1</clus>
</clustering>
</event>
<event>
 6    0  0.2117869E+002  0.2095791E+03  0.7546771E-02  0.1141900E+00
          2   -1    0    0  505    0 -0.00000000000E+00  0.00000000000E+00  0.10933819937E+04  0.10933819937E+04  0.00000000000E+00 0.  1.
         21   -1    0    0  504  502  0.00000000000E+00 -0.00000000000E+00 -0.22225262971E+03  0.22225262971E+03  0.00000000000E+00 0.  1.
         21    1    1    2  503  501 -0.18363027834E+03  0.13956876918E+02 -0.75383150547E+02  0.19899118805E+03  0.00000000000E+00 0.  1.
         21    1    1    2  504  503 -0.28431223348E+02 -0.63754155608E+02 -0.38742794955E+02  0.79836902365E+02  0.00000000000E+00 0. -1.
         21    1    1    2  505  502  0.77708369488E+00  0.52601221181E+02  0.55476538235E+03  0.55725409087E+03  0.00000000000E+00 0. -1.
          2    1    1    2  501    0  0.21128441799E+03 -0.28039424917E+01  0.43048992714E+03  0.47955244213E+03  0.00000000000E+00 0.  1.
<scales pt_clust_3="209.57905" pt_clust_4="67.96197" pt_clust_5="52.60696" pt_clust_6="14000.00000"></scales>
<clustering>
<clus scale="   52.607">  1  5  2 -1</clus>
<clus scale="   67.962">  2  4  1 -1</clus>
<clus scale="  209.579">  2  3  1 -1</clus>
<clus scale="   67.962">  2  3  1 -1</clus>
</clustering>
</event>
<event>
 6    0  0.2117869E+002  0.8506079E+02  0.7546771E-02  0.1315274E+00
         21   -1    0    0  503  502  0.00000000000E+00  0.00000000000E+00  0.56598696059E+03  0.56598696059E+03  0.00000000000E+00 0.  1.
          2   -1    0    0  504    0 -0.00000000000E+00 -0.00000000000E+00 -0.18543354913E+04  0.18543354913E+04  0.00000000000E+00 0.  1.
         21    1    1    2  503  501  0.75235050477E+02  0.10164934768E+03  0.11545758939E+03  0.17124064252E+03  0.00000000000E+00 0.  1.
         21    1    1    2  504  505  0.21761325493E+02 -0.22383197157E+02 -0.37059373993E+02  0.48455753042E+02  0.00000000000E+00 0. -1.
         21    1    1    2  505  502 -0.19487666353E+02 -0.39925046394E+02  0.41469349531E+03  0.41706650971E+03  0.00000000000E+00 0.  1.
          2    1    1    2  501    0 -0.77508709617E+02 -0.39341104129E+02 -0.17814402414E+04  0.17835595466E+04  0.00000000000E+00 0.  1.
<scales pt_clust_3="85.06079" pt_clust_4="31.21799" pt_clust_5="44.43415" pt_clust_6="14000.00000"></scales>
<clustering>
<clus scale="   31.218">  2  4  1 -1</clus>
<clus scale="   44.434">  1  5  2 -1</clus>
<clus scale="   85.061">  1  3  2 -1</clus>
<clus scale="   44.434">  1  3  2 -1</clus>
</clustering>
</event>
<event>
 6    0  0.2117869E+002  0.1052103E+03  0.7546771E-02  0.1269706E+00
         21   -1    0    0  503  502  0.00000000000E+00  0.00000000000E+00  0.65460035596E+02  0.65460035596E+02  0.00000000000E+00 0.  1.
          2   -1    0    0  504    0 -0.00000000000E+00 -0.00000000000E+00 -0.13440429440E+04  0.13440429440E+04  0.00000000000E+00 0.  1.
         21    1    1    2  503  501  0.56829940601E+02  0.95970791391E+02 -0.12428560353E+02  0.11222523808E+03  0.00000000000E+00 0.  1.
         21    1    1    2  504  505 -0.85598342343E+02  0.46435294284E+02 -0.55251424820E+03  0.56103057602E+03  0.00000000000E+00 0.  1.
         21    1    1    2  505  502  0.27915129817E+02 -0.26690202417E+02 -0.53171672735E+02  0.65717943966E+02  0.00000000000E+00 0.  1.
          2    1    1    2  501    0  0.85327192595E+00 -0.11571588326E+03 -0.66046842712E+03  0.67052922153E+03  0.00000000000E+00 0.  1.
<scales pt_clust_3="14000.00000" pt_clust_4="94.70418" pt_clust_5="38.62151" pt_clust_6="105.21033"></scales>
<clustering>
<clus scale="   38.622">  1  5  2 -1</clus>
<clus scale="   94.704">  2  4  1 -1</clus>
<clus scale="  105.210">  2  6  1 -1</clus>
<clus scale="   38.622">  1  3  2 -1</clus>
</clustering>
</event>
<event>
 6    0  0.2117869E+002  0.9163569E+02  0.7546771E-02  0.1298938E+00
         21   -1    0    0  504  502  0.00000000000E+00  0.00000000000E+00  0.30468942999E+03  0.30468942999E+03  0.00000000000E+00 0.  1.
          1   -1    0    0  505    0 -0.00000000000E+00 -0.00000000000E+00 -0.32098780264E+03  0.32098780264E+03  0.00000000000E+00 0.  1.
         21    1    1    2  503  502 -0.76576061461E+01 -0.52701584387E+02  0.21808590319E+03  0.22449400237E+03  0.00000000000E+00 0.  1.
         21    1    1    2  504  501  0.41658202989E+02  0.13006530993E+02  0.40377212153E+02  0.59454982852E+02  0.00000000000E+00 0. -1.
         21    1    1    2  505  503 -0.55828033870E+02 -0.58622599002E+02 -0.49268364602E+02  0.94766820302E+02  0.00000000000E+00 0.  1.
          1    1    1    2  501    0  0.21827437027E+02  0.98317652395E+02 -0.22549312340E+03  0.24696142711E+03  0.00000000000E+00 0.  1.
<scales pt_clust_3="50.27964" pt_clust_4="43.64145" pt_clust_5="91.63569" pt_clust_6="14000.00000"></scales>
<clustering>
<clus scale="   43.641">  1  4  2 -1</clus>
<clus scale="   50.280">  1  3  2 -1</clus>
<clus scale="   91.636">  1  5  2 -1</clus>
<clus scale="   43.641">  1  3  2 -1</clus>
</clustering>
</event>
<event>
 6    0  0.2117869E+002  0.1626815E+03  0.7546771E-02  0.1185702E+00
         -3   -1    0    0    0  501 -0.00000000000E+00  0.00000000000E+00  0.40089672633E+03  0.40089672633E+03  0.00000000000E+00 0. -1.
         21   -1    0    0  504  502  0.00000000000E+00 -0.00000000000E+00 -0.11059751405E+04  0.11059751405E+04  0.00000000000E+00 0. -1.
         21    1    1    2  503  501 -0.58928103647E+02  0.11361687138E+02  0.90842851260E+02  0.10887622770E+03  0.00000000000E+00 0. -1.
         21    1    1    2  504  503 -0.24858179365E+02  0.36728585437E+02 -0.33233454879E+03  0.33528073370E+03  0.00000000000E+00 0. -1.
         21    1    1    2  505  502 -0.13592193155E+03 -0.13518105142E+02 -0.71448742041E+03  0.72742682420E+03  0.00000000000E+00 0. -1.
         -3    1    1    2    0  505  0.21970821457E+03 -0.34572167432E+02  0.25090070373E+03  0.33528808127E+03  0.00000000000E+00 0. -1.
<scales pt_clust_3="60.38074" pt_clust_4="44.34995" pt_clust_5="162.68152" pt_clust_6="14000.00000"></scales>
<clustering>
<clus scale="   44.350">  2  4  1 -1</clus>
<clus scale="   60.381">  1  3  2 -1</clus>
<clus scale="  162.682">  2  5  1 -1</clus>
<clus scale="   44.350">  2  3  1 -1</clus>
</clustering>
</event>
<event>
 6    0  0.2117869E+002  0.6865149E+02  0.7546771E-02  0.1364740E+00
          2   -1    0    0  504    0 -0.00000000000E+00  0.00000000000E+00  0.14393451091E+04  0.14393451091E+04  0.00000000000E+00 0. -1.
         21   -1    0    0  503  502  0.00000000000E+00 -0.00000000000E+00 -0.29729585392E+03  0.29729585392E+03  0.00000000000E+00 0. -1.
         21    1    1    2  503  501 -0.11003103366E+02  0.54158555033E+02 -0.42204074374E+02  0.69537049554E+02  0.00000000000E+00 0.  1.
         21    1    1    2  504  505 -0.29961764750E+02  0.16913700762E+01  0.59430531399E+03  0.59506249614E+03  0.00000000000E+00 0. -1.
         21    1    1    2  505  502  0.26828116158E+01 -0.12177978810E+03 -0.22376164186E+03  0.25476810365E+03  0.00000000000E+00 0. -1.
          2    1    1    2  501    0  0.38282056500E+02  0.65929862995E+02  0.81370965746E+03  0.81727331373E+03  0.00000000000E+00 0. -1.
<scales pt_clust_3="55.39030" pt_clust_4="30.00947" pt_clust_5="68.65149" pt_clust_6="14000.00000"></scales>
<clustering>
<clus scale="   30.009">  1  4  2 -1</clus>
<clus scale="   55.390">  2  3  1 -1</clus>
<clus scale="   68.651">  2  5  1 -1</clus>
<clus scale="   55.390">  2  3  1 -1</clus>
</clustering>
</event>
<event>
 6    0  0.2117869E+002  0.9490930E+02  0.7546771E-02  0.1291380E+00
         21   -1    0    0  505  502  0.00000000000E+00  0.00000000000E+00  0.31538712748E+03  0.31538712748E+03  0.00000000000E+00 0. -1.
          1   -1    0    0  504    0 -0.00000000000E+00 -0.00000000000E+00 -0.68451392288E+03  0.68451392288E+03  0.00000000000E+00 0.  1.
         21    1    1    2  503  502 -0.50823897871E+02  0.43383093366E+02 -0.58165983320E+02  0.88591438641E+02  0.00000000000E+00 0. -1.
         21    1    1    2  504  503 -0.38792427429E+02 -0.19987944160E+02 -0.25879312242E+03  0.26244666229E+03  0.00000000000E+00 0.  1.
         21    1    1    2  505  501 -0.11987546495E+02 -0.94396772897E+02  0.27925353604E+03  0.29502032031E+03  0.00000000000E+00 0. -1.
          1    1    1    2  501    0  0.10160387180E+03  0.71001623691E+02 -0.33142122571E+03  0.35384262912E+03  0.00000000000E+00 0.  1.
<scales pt_clust_3="70.03285" pt_clust_4="43.63909" pt_clust_5="94.90930" pt_clust_6="14000.00000"></scales>
<clustering>
<clus scale="   43.639">  2  4  1 -1</clus>
<clus scale="   70.033">  2  3  1 -1</clus>
<clus scale="   94.909">  1  5  2 -1</clus>
<clus scale="   94.909">  1  3  2 -1</clus>
</clustering>
</event>
<event>
 6    0  0.2117869E+002  0.9814388E+02  0.7546771E-02  0.1284248E+00
         21   -1    0    0  504  502  0.00000000000E+00  0.00000000000E+00  0.22509670789E+03  0.22509670789E+03  0.00000000000E+00 0. -1.
          2   -1    0    0  505    0 -0.00000000000E+00 -0.00000000000E+00 -0.39530473826E+04  0.39530473826E+04  0.00000000000E+00 0. -1.
         21    1    1    2  503  502  0.21154082378E+02  0.27099714282E+02  0.21654073190E+02  0.40629897873E+02  0.00000000000E+00 0. -1.
         21    1    1    2  504  501 -0.78946490203E+02  0.52275759482E+02  0.17747946404E+03  0.20115731033E+03  0.00000000000E+00 0. -1.
         21    1    1    2  505  503 -0.32729920105E+02  0.12706393873E+02 -0.83203099739E+02  0.90307562925E+02  0.00000000000E+00 0. -1.
          2    1    1    2  501    0  0.90522327930E+02 -0.92081867638E+02 -0.38438811122E+04  0.38460493194E+04  0.00000000000E+00 0. -1.
<scales pt_clust_3="34.37862" pt_clust_4="98.14388" pt_clust_5="34.93348" pt_clust_6="14000.00000"></scales>
<clustering>
<clus scale="   34.379">  1  3  2 -1</clus>
<clus scale="   34.933">  2  5  1 -1</clus>
<clus scale="   98.144">  1  4  2 -1</clus>
<clus scale="   34.379">  1  3  2 -1</clus>
</clustering>
</event>
<event>
 6    0  0.2117869E+002  0.2348611E+03  0.7546771E-02  0.1123264E+00
         21   -1    0    0  505  502  0.00000000000E+00  0.00000000000E+00  0.76397924345E+03  0.76397924345E+03  0.00000000000E+00 0. -1.
          2   -1    0    0  503    0 -0.00000000000E+00 -0.00000000000E+00 -0.61862357127E+03  0.61862357127E+03  0.00000000000E+00 0. -1.
         21    1    1    2  503  502 -0.27857809126E+02 -0.11936868724E+02  0.61030557011E+03  0.61105763662E+03  0.00000000000E+00 0. -1.
         21    1    1    2  504  501 -0.46628944079E+02  0.21164648045E+03 -0.12447051290E+03  0.24992278746E+03  0.00000000000E+00 0. -1.
         21    1    1    2  505  504 -0.96918719615E+02 -0.44020934892E+01 -0.48284894157E+01  0.97138720132E+02  0.00000000000E+00 0.  1.
          2    1    1    2  501    0  0.17140547282E+03 -0.19530751824E+03 -0.33565089563E+03  0.42448367051E+03  0.00000000000E+00 0. -1.
<scales pt_clust_3="30.30753" pt_clust_4="234.86106" pt_clust_5="105.60934" pt_clust_6="14000.00000"></scales>
<clustering>
<clus scale="   30.308">  1  3  2 -1</clus>
<clus scale="  105.609">  1  5  2 -1</clus>
<clus scale="  234.861">  1  4  2 -1</clus>
<clus scale="   30.308">  1  3  2 -1</clus>
</clustering>
</event>
<event>
 6    0  0.2117869E+002  0.2462651E+03  0.7546771E-02  0.1115688E+00
         21   -1    0    0  504  502  0.00000000000E+00  0.00000000000E+00  0.84088434379E+03  0.84088434379E+03  0.00000000000E+00 0.  1.
          1   -1    0    0  503    0 -0.00000000000E+00 -0.00000000000E+00 -0.92711392896E+03  0.92711392896E+03  0.00000000000E+00 0.  1.
         21    1    1    2  503  502 -0.62187861924E+02 -0.24461161975E+02  0.37105700892E+03  0.37702650104E+03  0.00000000000E+00 0.  1.
         21    1    1    2  504  505  0.24035449406E+03  0.16657929538E+03  0.40232428018E+03  0.49737689018E+03  0.00000000000E+00 0.  1.
         21    1    1    2  505  501 -0.45303615950E+02  0.33955157997E+01 -0.12437690746E+03  0.13241435819E+03  0.00000000000E+00 0.  1.
          1    1    1    2  501    0 -0.13286301618E+03 -0.14551364920E+03 -0.73523396681E+03  0.76118052334E+03  0.00000000000E+00 0.  1.
<scales pt_clust_3="66.82573" pt_clust_4="230.23130" pt_clust_5="41.97007" pt_clust_6="41.97007"></scales>
<clustering>
<clus scale="   41.970">  5  6 -1 -1</clus>
<clus scale="   66.826">  1  3  2 -1</clus>
<clus scale="  230.231">  1  4  2 -1</clus>
<clus scale="   66.826">  1  3  2 -1</clus>
</clustering>
</event>
<event>
 6    0  0.2117869E+002  0.1010209E+03  0.7546771E-02  0.1278164E+00
         21   -1    0    0  501  502  0.00000000000E+00  0.00000000000E+00  0.40967115076E+02  0.40967115076E+02  0.00000000000E+00 0.  1.
          2   -1    0    0  503    0 -0.00000000000E+00 -0.00000000000E+00 -0.10942683641E+04  0.10942683641E+04  0.00000000000E+00 0.  1.
         21    1    1    2  503  504 -0.32998595055E+02  0.13360650181E+01 -0.46662407970E+03  0.46779132539E+03  0.00000000000E+00 0. -1.
         21    1    1    2  504  505 -0.16149327575E+02 -0.93374188245E+02 -0.35164198320E+03  0.36418624927E+03  0.00000000000E+00 0.  1.
         21    1    1    2  505  502  0.66963241177E+02 -0.25249104363E+02 -0.70905699180E+02  0.10074329316E+03  0.00000000000E+00 0.  1.
          2    1    1    2  501    0 -0.17815318547E+02  0.11728722759E+03 -0.16412948693E+03  0.20251461135E+03  0.00000000000E+00 0.  1.
<scales pt_clust_3="33.02563" pt_clust_4="14000.00000" pt_clust_5="67.28981" pt_clust_6="101.02090"></scales>
<clustering>
<clus scale="   33.026">  2  3  1 -1</clus>
<clus scale="   67.290">  1  5  2 -1</clus>
<clus scale="  101.021">  1  6  2 -1</clus>
<clus scale="   67.290">  1  3  2 -1</clus>
</clustering>
</event>
<event>
 6    0  0.2117869E+002  0.9368517E+02  0.7546771E-02  0.1294165E+00
          2   -1    0    0  504    0 -0.00000000000E+00  0.00000000000E+00  0.59710002555E+03  0.59710002555E+03  0.00000000000E+00 0. -1.
         21   -1    0    0  505  502  0.00000000000E+00 -0.00000000000E+00 -0.95289705135E+02  0.95289705135E+02  0.00000000000E+00 0.  1.
         21    1    1    2  503  502 -0.96415438267E+02 -0.76335015001E+02  0.23628204370E+03  0.26636849556E+03  0.00000000000E+00 0. -1.
         21    1    1    2  504  503  0.43197890289E+02 -0.13203651212E+02  0.12109249531E+03  0.12924312961E+03  0.00000000000E+00 0. -1.
         21    1    1    2  505  501  0.15765960097E+02  0.26208081908E+02 -0.66598520501E+02  0.73285687471E+02  0.00000000000E+00 0.  1.
          2    1    1    2  501    0  0.37451587881E+02  0.63330584304E+02  0.21103430191E+03  0.22349241805E+03  0.00000000000E+00 0. -1.
<scales pt_clust_3="14000.00000" pt_clust_4="46.60793" pt_clust_5="30.58478" pt_clust_6="93.68517"></scales>
<clustering>
<clus scale="   30.585">  2  5  1 -1</clus>
<clus scale="   46.608">  1  4  2 -1</clus>
<clus scale="   93.685">  1  6  2 -1</clus>
<clus scale="   30.585">  2  3  1 -1</clus>
</clustering>
</event>
<event>
 6    0  0.2117869E+002  0.1308151E+03  0.7546771E-02  0.1226251E+00
         21   -1    0    0  504  502  0.00000000000E+00  0.00000000000E+00  0.68415051686E+03  0.68415051686E+03  0.00000000000E+00 0. -1.
         -1   -1    0    0    0  501 -0.00000000000E+00 -0.00000000000E+00 -0.29511805508E+03  0.29511805508E+03  0.00000000000E+00 0.  1.
         21    1    1    2  503  502 -0.28944250148E+02  0.21145228119E+02  0.32210370214E+03  0.32409209373E+03  0.00000000000E+00 0. -1.
         21    1    1    2  504  505 -0.74734300260E+02  0.60867519847E+02  0.31684034458E+03  0.33117650062E+03  0.00000000000E+00 0. -1.
         21    1    1    2  505  501 -0.26387153148E+02  0.25842491306E+02 -0.51810760365E+02  0.63627596983E+02  0.00000000000E+00 0.  1.
         -1    1    1    2    0  503  0.13006570356E+03 -0.10785523927E+03 -0.19810082458E+03  0.26037238060E+03  0.00000000000E+00 0.  1.
<scales pt_clust_3="35.84537" pt_clust_4="130.81514" pt_clust_5="37.51455" pt_clust_6="14000.00000"></scales>
<clustering>
<clus scale="   35.845">  1  3  2 -1</clus>
<clus scale="   37.515">  2  5  1 -1</clus>
<clus scale="  130.815">  1  4  2 -1</clus>
<clus scale="   35.845">  1  3  2 -1</clus>
</clustering>
</event>
<event>
 6    0  0.2117869E+002  0.7519450E+02  0.7546771E-02  0.1343270E+00
         21   -1    0    0  503  502  0.00000000000E+00  0.00000000000E+00  0.13453852586E+03  0.13453852586E+03  0.00000000000E+00 0.  1.
          2   -1    0    0  504    0 -0.00000000000E+00 -0.00000000000E+00 -0.52396758409E+03  0.52396758409E+03  0.00000000000E+00 0.  1.
         21    1    1    2  503  501 -0.94551899588E+01 -0.59412749997E+02  0.10257863335E+03  0.11891867599E+03  0.00000000000E+00 0.  1.
         21    1    1    2  504  505 -0.42611603677E+02  0.16646083497E+02 -0.53248458957E+02  0.70201419109E+02  0.00000000000E+00 0.  1.
         21    1    1    2  505  502  0.65832062533E+02 -0.34161959531E+02 -0.11904689698E+03  0.14026069876E+03  0.00000000000E+00 0. -1.
          2    1    1    2  501    0 -0.13765268898E+02  0.76928626031E+02 -0.31971233564E+03  0.32912531609E+03  0.00000000000E+00 0.  1.
<scales pt_clust_3="59.99343" pt_clust_4="45.74758" pt_clust_5="14000.00000" pt_clust_6="75.19450"></scales>
<clustering>
<clus scale="   45.748">  2  4  1 -1</clus>
<clus scale="   59.993">  1  3  2 -1</clus>
<clus scale="   75.195">  2  6  1 -1</clus>
<clus scale="   59.993">  1  3  2 -1</clus>
</clustering>
</event>
<event>
 6    0  0.2117869E+002  0.8286551E+02  0.7546771E-02  0.1321111E+00
         21   -1    0    0  504  502  0.00000000000E+00  0.00000000000E+00  0.33428573693E+03  0.33428573693E+03  0.00000000000E+00 0. -1.
          1   -1    0    0  505    0 -0.00000000000E+00 -0.00000000000E+00 -0.86922307358E+02  0.86922307358E+02  0.00000000000E+00 0. -1.
         21    1    1    2  503  502 -0.34806012541E+01  0.46284404640E+02  0.15849557065E+03  0.16515207117E+03  0.00000000000E+00 0. -1.
         21    1    1    2  504  501  0.23867905881E+02  0.29762719513E+02  0.46785148720E+02  0.60368423408E+02  0.00000000000E+00 0. -1.
         21    1    1    2  505  503  0.66218864599E+02 -0.72929539225E+02  0.46462389230E+02  0.10891468833E+03  0.00000000000E+00 0. -1.
          1    1    1    2  501    0 -0.86606169226E+02 -0.31175849277E+01 -0.43796790254E+01  0.86772861380E+02  0.00000000000E+00 0. -1.
<scales pt_clust_3="64.26938" pt_clust_4="38.15097" pt_clust_5="82.86551" pt_clust_6="14000.00000"></scales>
<clustering>
<clus scale="   38.151">  1  4  2 -1</clus>
<clus scale="   64.269">  1  3  2 -1</clus>
<clus scale="   82.866">  1  5  2 -1</clus>
<clus scale="   38.151">  1  3  2 -1</clus>
</clustering>
</event>
<event>
 6    0  0.2117869E+002  0.8268223E+02  0.7546771E-02  0.1321607E+00
          2   -1    0    0  503    0 -0.00000000000E+00  0.00000000000E+00  0.65502718607E+03  0.65502718607E+03  0.00000000000E+00 0.  1.
         21   -1    0    0  504  502  0.00000000000E+00 -0.00000000000E+00 -0.75123133744E+03  0.75123133744E+03  0.00000000000E+00 0.  1.
         21    1    1    2  503  502 -0.77354437048E+02  0.24507712867E+02 -0.37993678676E+03  0.38850521085E+03  0.00000000000E+00 0.  1.
         21    1    1    2  504  505  0.37392261295E+02  0.48621213560E+02 -0.35734285793E+03  0.36256878206E+03  0.00000000000E+00 0.  1.
         21    1    1    2  505  501 -0.47482871437E+01 -0.87481934570E+02  0.38539485332E+03  0.39522756492E+03  0.00000000000E+00 0.  1.
          2    1    1    2  501    0  0.44710462897E+02  0.14353008143E+02  0.25568064001E+03  0.25995696569E+03  0.00000000000E+00 0.  1.
<scales pt_clust_3="14000.00000" pt_clust_4="61.59120" pt_clust_5="82.68223" pt_clust_6="46.95779"></scales>
<clustering>
<clus scale="   46.958">  1  6  2 -1</clus>
<clus scale="   61.591">  2  4  1 -1</clus>
<clus scale="   82.682">  1  5  2 -1</clus>
<clus scale="   61.591">  2  3  1 -1</clus>
</clustering>
</event>
<event>
 6    0  0.2117869E+002  0.7835870E+02  0.7546771E-02  0.1333775E+00
         21   -1    0    0  503  502  0.00000000000E+00  0.00000000000E+00  0.13044808945E+04  0.13044808945E+04  0.00000000000E+00 0.  1.
          2   -1    0    0  505    0 -0.00000000000E+00 -0.00000000000E+00 -0.30399573984E+03  0.30399573984E+03  0.00000000000E+00 0.  1.
         21    1    1    2  503  501 -0.31191640670E+02  0.16196847778E+02  0.12297811087E+04  0.12302832322E+04  0.00000000000E+00 0.  1.
         21    1    1    2  504  502  0.57185489788E+02  0.37892616750E+02  0.24764567181E+02  0.72933630337E+02  0.00000000000E+00 0.  1.
         21    1    1    2  505  504 -0.20921827428E+02  0.54434921287E+02 -0.66000157529E+02  0.88073289437E+02  0.00000000000E+00 0.  1.
          2    1    1    2  501    0 -0.50720216905E+01 -0.10852438582E+03 -0.18806036366E+03  0.21718648231E+03  0.00000000000E+00 0.  1.
<scales pt_clust_3="35.14621" pt_clust_4="60.84820" pt_clust_5="14000.00000" pt_clust_6="78.35870"></scales>
<clustering>
<clus scale="   35.146">  1  3  2 -1</clus>
<clus scale="   60.848">  1  4  2 -1</clus>
<clus scale="   78.359">  1  6  2 -1</clus>
<clus scale="   35.146">  1  3  2 -1</clus>
</clustering>
</event>
<event>
 6    0  0.2117869E+002  0.8066789E+02  0.7546771E-02  0.1327167E+00
          2   -1    0    0  503    0 -0.00000000000E+00  0.00000000000E+00  0.20920365340E+03  0.20920365340E+03  0.00000000000E+00 0.  1.
         21   -1    0    0  504  502  0.00000000000E+00 -0.00000000000E+00 -0.13210483377E+03  0.13210483377E+03  0.00000000000E+00 0.  1.
         21    1    1    2  503  505  0.54289315972E+02  0.27517432026E+01  0.69819647075E+02  0.88485507497E+02  0.00000000000E+00 0. -1.
         21    1    1    2  504  501  0.23479563456E+02 -0.19485813659E+02 -0.52498825630E+02  0.60721606752E+02  0.00000000000E+00 0.  1.
         21    1    1    2  505  502 -0.11589749182E+03  0.54770629467E+02  0.48635661725E+02  0.13710389511E+03  0.00000000000E+00 0.  1.
          2    1    1    2  501    0  0.38128612395E+02 -0.38036559010E+02  0.11142336461E+02  0.54997477817E+02  0.00000000000E+00 0.  1.
<scales pt_clust_3="57.19298" pt_clust_4="30.51208" pt_clust_5="80.66789" pt_clust_6="14000.00000"></scales>
<clustering>
<clus scale="   30.512">  2  4  1 -1</clus>
<clus scale="   57.193">  1  3  2 -1</clus>
<clus scale="   80.668">  1  5  2 -1</clus>
<clus scale="   30.512">  2  3  1 -1</clus>
</clustering>
</event>
<event>
 6    0  0.2117869E+002  0.8280546E+02  0.7546771E-02  0.1321273E+00
         21   -1    0    0  505  502  0.00000000000E+00  0.00000000000E+00  0.10871510106E+03  0.10871510106E+03  0.00000000000E+00 0.  1.
          2   -1    0    0  504    0 -0.00000000000E+00 -0.00000000000E+00 -0.36166193007E+03  0.36166193007E+03  0.00000000000E+00 0.  1.
         21    1    1    2  503  501 -0.68545101046E+02  0.72486366749E+02 -0.47836484699E+02  0.11063920422E+03  0.00000000000E+00 0.  1.
         21    1    1    2  504  502 -0.31709953831E+02 -0.14022874965E+02 -0.24341310366E+02  0.42363446326E+02  0.00000000000E+00 0.  1.
         21    1    1    2  505  503  0.85537709441E+02  0.29532242781E+01  0.35062745071E+02  0.92492255686E+02  0.00000000000E+00 0.  1.
          2    1    1    2  501    0  0.14717345436E+02 -0.61416716061E+02 -0.21583177901E+03  0.22488212490E+03  0.00000000000E+00 0.  1.
<scales pt_clust_3="14000.00000" pt_clust_4="34.67221" pt_clust_5="82.80546" pt_clust_6="71.13237"></scales>
<clustering>
<clus scale="   34.672">  2  4  1 -1</clus>
<clus scale="   71.132">  2  6  1 -1</clus>
<clus scale="   82.805">  1  5  2 -1</clus>
<clus scale="   82.805">  1  3  2 -1</clus>
</clustering>
</event>
<event>
 6    0  0.2117869E+002  0.1724177E+03  0.7546771E-02  0.1175350E+00
         21   -1    0    0  503  502  0.00000000000E+00  0.00000000000E+00  0.17584607201E+03  0.17584607201E+03  0.00000000000E+00 0.  1.
          1   -1    0    0  504    0 -0.00000000000E+00 -0.00000000000E+00 -0.26036408106E+03  0.26036408106E+03  0.00000000000E+00 0.  1.
         21    1    1    2  503  505  0.25638663367E+02  0.43939056890E+02 -0.66241130227E+01  0.51301663257E+02  0.00000000000E+00 0.  1.
         21    1    1    2  504  502  0.98995206262E+02 -0.13944238743E+03  0.42841644369E+02  0.17629417678E+03  0.00000000000E+00 0.  1.
         21    1    1    2  505  501 -0.35144148284E+02  0.28130919663E+02 -0.15369522227E+01  0.45042446890E+02  0.00000000000E+00 0.  1.
          1    1    1    2  501    0 -0.89489721346E+02  0.67372410874E+02 -0.11919858817E+03  0.16357186615E+03  0.00000000000E+00 0.  1.
<scales pt_clust_3="50.87221" pt_clust_4="159.49765" pt_clust_5="41.51374" pt_clust_6="41.51374"></scales>
<clustering>
<clus scale="   41.514">  5  6 -1 -1</clus>
<clus scale="   50.872">  1  3  2 -1</clus>
<clus scale="  159.498">  1  4  2 -1</clus>
<clus scale="   50.872">  1  3  2 -1</clus>
</clustering>
</event>
<event>
 6    0  0.2117869E+002  0.8995619E+02  0.7546771E-02  0.1302958E+00
         -1   -1    0    0    0  501 -0.00000000000E+00  0.00000000000E+00  0.19113640529E+04  0.19113640529E+04  0.00000000000E+00 0.  1.
         21   -1    0    0  504  502  0.00000000000E+00 -0.00000000000E+00 -0.66187315659E+02  0.66187315659E+02  0.00000000000E+00 0. -1.
         21    1    1    2  503  501 -0.38082221842E+02 -0.82890136521E+02  0.14897215118E+04  0.14925117128E+04  0.00000000000E+00 0.  1.
         21    1    1    2  504  503  0.10618002989E+03  0.25119802767E+02  0.10958354970E+03  0.15464073720E+03  0.00000000000E+00 0. -1.
         21    1    1    2  505  502  0.84666700413E+01  0.29183025442E+02 -0.29985187149E+02  0.42690103348E+02  0.00000000000E+00 0. -1.
         -1    1    1    2    0  505 -0.76564478085E+02  0.28587308313E+02  0.27585686290E+03  0.28770881514E+03  0.00000000000E+00 0.  1.
<scales pt_clust_3="14000.00000" pt_clust_4="89.95619" pt_clust_5="30.38640" pt_clust_6="82.39905"></scales>
<clustering>
<clus scale="   30.386">  2  5  1 -1</clus>
<clus scale="   82.399">  2  6  1 -1</clus>
<clus scale="   89.956">  2  4  1 -1</clus>
<clus scale="   30.386">  2  3  1 -1</clus>
</clustering>
</event>
<event>
 6    0  0.2117869E+002  0.1534842E+03  0.7546771E-02  0.1196256E+00
         -2   -1    0    0    0  501 -0.00000000000E+00  0.00000000000E+00  0.88513737388E+03  0.88513737388E+03  0.00000000000E+00 0. -1.
         21   -1    0    0  503  502  0.00000000000E+00 -0.00000000000E+00 -0.61674925744E+03  0.61674925744E+03  0.00000000000E+00 0.  1.
         21    1    1    2  503  505 -0.10183657816E+03 -0.85321757806E+02 -0.52728379243E+03  0.54376344927E+03  0.00000000000E+00 0.  1.
         21    1    1    2  504  502  0.99813498822E+02  0.35803182619E+02  0.24129860685E+01  0.10606802032E+03  0.00000000000E+00 0. -1.
         21    1    1    2  505  501  0.80043300805E+02 -0.10624335138E+03  0.27896199643E+03  0.30905400040E+03  0.00000000000E+00 0. -1.
         -2    1    1    2    0  504 -0.78020221464E+02  0.15576192657E+03  0.51429692637E+03  0.54300116133E+03  0.00000000000E+00 0. -1.
<scales pt_clust_3="51.88616" pt_clust_4="106.04057" pt_clust_5="14000.00000" pt_clust_6="153.48418"></scales>
<clustering>
<clus scale="  106.041">  2  4  1 -1</clus>
<clus scale="   51.886">  2  3  1 -1</clus>
<clus scale="  153.484">  1  6  2 -1</clus>
<clus scale="  106.041">  2  3  1 -1</clus>
</clustering>
</event>
<event>
 6    0  0.2117869E+002  0.1120899E+03  0.7546771E-02  0.1256748E+00
          1   -1    0    0  503    0 -0.00000000000E+00  0.00000000000E+00  0.25315980167E+03  0.25315980167E+03  0.00000000000E+00 0.  1.
         21   -1    0    0  505  502  0.00000000000E+00 -0.00000000000E+00 -0.11839910412E+04  0.11839910412E+04  0.00000000000E+00 0.  1.
         21    1    1    2  503  504 -0.38106731214E+02  0.16612280130E+01  0.30166089886E+02  0.48629986853E+02  0.00000000000E+00 0.  1.
         21    1    1    2  504  502 -0.29354112664E+02 -0.11128850386E+02 -0.26675769840E+03  0.26859855714E+03  0.00000000000E+00 0.  1.
         21    1    1    2  505  501 -0.31408803336E+01 -0.96549367795E+02 -0.88515826976E+03  0.89041384090E+03  0.00000000000E+00 0.  1.
          1    1    1    2  501    0  0.70601724212E+02  0.10601699017E+03  0.19091863874E+03  0.22950845798E+03  0.00000000000E+00 0.  1.
<scales pt_clust_3="38.43371" pt_clust_4="31.39292" pt_clust_5="112.08990" pt_clust_6="14000.00000"></scales>
<clustering>
<clus scale="   31.393">  2  4  1 -1</clus>
<clus scale="   38.434">  1  3  2 -1</clus>
<clus scale="  112.090">  2  5  1 -1</clus>
<clus scale="   31.393">  2  3  1 -1</clus>
</clustering>
</event>
<event>
 6    0  0.2117869E+002  0.1192793E+03  0.7546771E-02  0.1244291E+00
          1   -1    0    0  503    0 -0.00000000000E+00  0.00000000000E+00  0.91445697216E+03  0.91445697216E+03  0.00000000000E+00 0. -1.
         21   -1    0    0  501  502  0.00000000000E+00 -0.00000000000E+00 -0.14414643473E+04  0.14414643473E+04  0.00000000000E+00 0.  1.
         21    1    1    2  503  505  0.30175367369E+02 -0.10566117090E+03 -0.47823946854E+02  0.11984141907E+03  0.00000000000E+00 0. -1.
         21    1    1    2  504  502  0.23281459873E+02  0.38772399962E+02 -0.13014593687E+04  0.13022449131E+04  0.00000000000E+00 0.  1.
         21    1    1    2  505  504 -0.61132617492E+02 -0.52931646349E+02 -0.19791693629E+02  0.83250629087E+02  0.00000000000E+00 0. -1.
          1    1    1    2  501    0  0.76757902513E+01  0.11982041729E+03  0.84206763403E+03  0.85058435821E+03  0.00000000000E+00 0. -1.
<scales pt_clust_3="14000.00000" pt_clust_4="45.22527" pt_clust_5="65.20991" pt_clust_6="119.27930"></scales>
<clustering>
<clus scale="   45.225">  2  4  1 -1</clus>
<clus scale="   65.210">  2  5  1 -1</clus>
<clus scale="  119.279">  1  6  2 -1</clus>
<clus scale="   45.225">  2  3  1 -1</clus>
</clustering>
</event>
<event>
 6    0  0.2117869E+002  0.4703571E+03  0.7546771E-02  0.1021819E+00
          1   -1    0    0  503    0 -0.00000000000E+00  0.00000000000E+00  0.25560632347E+04  0.25560632347E+04  0.00000000000E+00 0.  1.
         21   -1    0    0  505  502  0.00000000000E+00 -0.00000000000E+00 -0.55231213720E+03  0.55231213720E+03  0.00000000000E+00 0. -1.
         21    1    1    2  503  502 -0.26977429899E+03 -0.29892660010E+03 -0.31377727643E+03  0.51048159991E+03  0.00000000000E+00 0. -1.
         21    1    1    2  504  501  0.79487749382E+02  0.68955788548E+02  0.29000854372E+03  0.30850957604E+03  0.00000000000E+00 0. -1.
         21    1    1    2  505  504 -0.36459819918E+02 -0.24745529108E+02 -0.11330327624E+03  0.12157011181E+03  0.00000000000E+00 0.  1.
          1    1    1    2  501    0  0.22674636953E+03  0.25471634066E+03  0.21408231065E+04  0.21678140842E+04  0.00000000000E+00 0.  1.
<scales pt_clust_3="443.33108" pt_clust_4="87.07342" pt_clust_5="44.06427" pt_clust_6="87.07342"></scales>
<clustering>
<clus scale="   44.064">  2  5  1 -1</clus>
<clus scale="   87.073">  4  6 -1 -1</clus>
<clus scale="  443.331">  2  3  1 -1</clus>
<clus scale="   44.064">  2  3  1 -1</clus>
</clustering>
</event>
<event>
 6    0  0.2117869E+002  0.1234208E+03  0.7546771E-02  0.1237558E+00
          1   -1    0    0  503    0 -0.00000000000E+00  0.00000000000E+00  0.15079364199E+04  0.15079364199E+04  0.00000000000E+00 0.  1.
         21   -1    0    0  504  502  0.00000000000E+00 -0.00000000000E+00 -0.21339806810E+03  0.21339806810E+03  0.00000000000E+00 0. -1.
         21    1    1    2  503  505 -0.75715544660E+02 -0.10893515431E+03  0.12507344246E+03  0.18232684267E+03  0.00000000000E+00 0.  1.
         21    1    1    2  504  501  0.21791235191E+02  0.39242772314E+02  0.30666559338E+01  0.44991749118E+02  0.00000000000E+00 0.  1.
         21    1    1    2  505  502 -0.18521326793E+02 -0.29105138666E+02 -0.15913579475E+03  0.16283227510E+03  0.00000000000E+00 0. -1.
          1    1    1    2  501    0  0.72445636262E+02  0.98797520662E+02  0.13255340482E+04  0.13311836211E+04  0.00000000000E+00 0.  1.
<scales pt_clust_3="14000.00000" pt_clust_4="31.12534" pt_clust_5="34.49853" pt_clust_6="123.42082"></scales>
<clustering>
<clus scale="   34.499">  2  5  1 -1</clus>
<clus scale="   31.125">  2  4  1 -1</clus>
<clus scale="  123.421">  1  6  2 -1</clus>
<clus scale="   34.499">  2  3  1 -1</clus>
</clustering>
</event>
<event>
 6    0  0.2117869E+002  0.8016404E+02  0.7546771E-02  0.1328587E+00
          1   -1    0    0  503    0 -0.00000000000E+00  0.00000000000E+00  0.86194490541E+03  0.86194490541E+03  0.00000000000E+00 0.  1.
         21   -1    0    0  505  502  0.00000000000E+00 -0.00000000000E+00 -0.28750948622E+03  0.28750948622E+03  0.00000000000E+00 0.  1.
         21    1    1    2  503  504  0.12243068895E+02 -0.29742893235E+02  0.54753835251E+03  0.54848225122E+03  0.00000000000E+00 0.  1.
         21    1    1    2  504  502  0.13244403596E+02  0.61114168075E+02  0.10390786852E+03  0.12127324893E+03  0.00000000000E+00 0.  1.
         21    1    1    2  505  501  0.66031034627E+02  0.43399433517E+02 -0.25448920221E+03  0.26647394320E+03  0.00000000000E+00 0.  1.
          1    1    1    2  501    0 -0.91518507118E+02 -0.74770708357E+02  0.17747840037E+03  0.21322494828E+03  0.00000000000E+00 0.  1.
<scales pt_clust_3="32.16415" pt_clust_4="53.44073" pt_clust_5="80.16404" pt_clust_6="14000.00000"></scales>
<clustering>
<clus scale="   32.164">  1  3  2 -1</clus>
<clus scale="   53.441">  1  4  2 -1</clus>
<clus scale="   80.164">  2  5  1 -1</clus>
<clus scale="   80.164">  2  3  1 -1</clus>
</clustering>
</event>
<event>
 6    0  0.2117869E+002  0.1000161E+03  0.7546771E-02  0.1280262E+00
         21   -1    0    0  504  502  0.00000000000E+00  0.00000000000E+00  0.19355123321E+04  0.19355123321E+04  0.00000000000E+00 0. -1.
         -2   -1    0    0    0  501 -0.00000000000E+00 -0.00000000000E+00 -0.76232977484E+02  0.76232977484E+02  0.00000000000E+00 0.  1.
         21    1    1    2  503  502 -0.67755784063E+02  0.36428652372E+02  0.14829838258E+04  0.14849777509E+04  0.00000000000E+00 0. -1.
         21    1    1    2  504  505 -0.32829478267E+02 -0.26519990028E+02  0.34951146152E+03  0.35205020416E+03  0.00000000000E+00 0. -1.
         21    1    1    2  505  501 -0.20742374484E+02 -0.22246025144E+02  0.41958917600E+02  0.51823570893E+02  0.00000000000E+00 0. -1.
         -2    1    1    2    0  503  0.12132763681E+03  0.12337362800E+02 -0.15174850325E+02  0.12289378364E+03  0.00000000000E+00 0.  1.
<scales pt_clust_3="100.01614" pt_clust_4="42.73910" pt_clust_5="30.41598" pt_clust_6="14000.00000"></scales>
<clustering>
<clus scale="   30.416">  2  5  1 -1</clus>
<clus scale="   42.739">  1  4  2 -1</clus>
<clus scale="  100.016">  1  3  2 -1</clus>
<clus scale="   42.739">  1  3  2 -1</clus>
</clustering>
</event>
<event>
 6    0  0.2117869E+002  0.1270924E+03  0.7546771E-02  0.1231835E+00
          2   -1    0    0  504    0 -0.00000000000E+00  0.00000000000E+00  0.83788566660E+03  0.83788566660E+03  0.00000000000E+00 0.  1.
         21   -1    0    0  505  502  0.00000000000E+00 -0.00000000000E+00 -0.32503222911E+02  0.32503222911E+02  0.00000000000E+00 0.  1.
         21    1    1    2  503  501 -0.32322420365E+02  0.78636804125E+01  0.53114208955E+02  0.62671329336E+02  0.00000000000E+00 0. -1.
         21    1    1    2  504  502  0.87482724284E+02 -0.40309495731E+02  0.29151493875E+03  0.30701635462E+03  0.00000000000E+00 0. -1.
         21    1    1    2  505  503  0.37664058757E+02 -0.20586007477E+02  0.20339307999E+02  0.47497920752E+02  0.00000000000E+00 0.  1.
          2    1    1    2  501    0 -0.92824362677E+02  0.53031822796E+02  0.44041398799E+03  0.45320328480E+03  0.00000000000E+00 0.  1.
<scales pt_clust_3="31.48884" pt_clust_4="113.86798" pt_clust_5="42.92278" pt_clust_6="31.48884"></scales>
<clustering>
<clus scale="   31.489">  3  6 -1 -1</clus>
<clus scale="   42.923">  2  5  1 -1</clus>
<clus scale="  113.868">  1  4  2 -1</clus>
<clus scale="   42.923">  2  3  1 -1</clus>
</clustering>
</event>
<event>
 6    0  0.2117869E+002  0.1046548E+03  0.7546771E-02  0.1270801E+00
          2   -1    0    0  505    0 -0.00000000000E+00  0.00000000000E+00  0.22528015600E+04  0.22528015600E+04  0.00000000000E+00 0. -1.
         21   -1    0    0  503  502  0.00000000000E+00 -0.00000000000E+00 -0.11994019845E+03  0.11994019845E+03  0.00000000000E+00 0. -1.
         21    1    1    2  503  501 -0.12519490340E+02 -0.69986549508E+02  0.22091347409E+02  0.74450536470E+02  0.00000000000E+00 0. -1.
         21    1    1    2  504  502  0.17205114176E+02  0.14191335036E+03 -0.37964206046E+02  0.14790772767E+03  0.00000000000E+00 0. -1.
         21    1    1    2  505  504  0.12378768601E+02 -0.30789049682E+02  0.13506322762E+04  0.13510398754E+04  0.00000000000E+00 0. -1.
          2    1    1    2  501    0 -0.17064392437E+02 -0.41137751168E+02  0.79810194403E+03  0.79934361893E+03  0.00000000000E+00 0. -1.
<scales pt_clust_3="14000.00000" pt_clust_4="104.65479" pt_clust_5="33.18433" pt_clust_6="68.67424"></scales>
<clustering>
<clus scale="   33.184">  1  5  2 -1</clus>
<clus scale="   68.674">  1  6  2 -1</clus>
<clus scale="  104.655">  1  4  2 -1</clus>
<clus scale="  104.655">  2  3  1 -1</clus>
</clustering>
</event>
<event>
 6    0  0.2117869E+002  0.2878069E+03  0.7546771E-02  0.1091500E+00
         21   -1    0    0  503  502  0.00000000000E+00  0.00000000000E+00  0.21783713322E+03  0.21783713322E+03  0.00000000000E+00 0.  1.
          3   -1    0    0  504    0 -0.00000000000E+00 -0.00000000000E+00 -0.19857817618E+04  0.19857817618E+04  0.00000000000E+00 0. -1.
         21    1    1    2  503  505 -0.16496738747E+02 -0.10782672318E+03  0.72037431181E+02  0.13072159772E+03  0.00000000000E+00 0.  1.
         21    1    1    2  504  502 -0.12669149525E+03  0.78678659088E+02 -0.22072710895E+03  0.26638604128E+03  0.00000000000E+00 0. -1.
         21    1    1    2  505  501 -0.15693556636E+02 -0.22904883882E+03 -0.88545769762E+02  0.24606911961E+03  0.00000000000E+00 0. -1.
          3    1    1    2  501    0  0.15888179064E+03  0.25819690291E+03 -0.15307091810E+04  0.15604421364E+04  0.00000000000E+00 0. -1.
<scales pt_clust_3="109.08137" pt_clust_4="142.09711" pt_clust_5="287.80695" pt_clust_6="14000.00000"></scales>
<clustering>
<clus scale="  109.081">  1  3  2 -1</clus>
<clus scale="  142.097">  1  4  2 -1</clus>
<clus scale="  287.807">  1  5  2 -1</clus>
<clus scale="  109.081">  1  3  2 -1</clus>
</clustering>
</event>
<event>
 6    0  0.2117869E+002  0.1294545E+03  0.7546771E-02  0.1228267E+00
         21   -1    0    0  505  502  0.00000000000E+00  0.00000000000E+00  0.28918448992E+03  0.28918448992E+03  0.00000000000E+00 0.  1.
          2   -1    0    0  504    0 -0.00000000000E+00 -0.00000000000E+00 -0.33264597304E+03  0.33264597304E+03  0.00000000000E+00 0. -1.
         21    1    1    2  503  501 -0.15852884725E+02 -0.48407517845E+02 -0.16569372114E+02  0.53564408242E+02  0.00000000000E+00 0. -1.
         21    1    1    2  504  502  0.10460254304E+03  0.83924667314E+01 -0.99552887846E+02  0.14464751289E+03  0.00000000000E+00 0. -1.
         21    1    1    2  505  503 -0.13256658842E+03  0.14556690442E+02  0.22583828129E+03  0.26227605094E+03  0.00000000000E+00 0.  1.
          2    1    1    2  501    0  0.43816930101E+02  0.25458360672E+02 -0.15317750446E+03  0.16134249088E+03  0.00000000000E+00 0. -1.
<scales pt_clust_3="43.89407" pt_clust_4="129.45446" pt_clust_5="14000.00000" pt_clust_6="50.67595"></scales>
<clustering>
<clus scale="   50.676">  2  6  1 -1</clus>
<clus scale="   43.894">  2  3  1 -1</clus>
<clus scale="  129.454">  2  4  1 -1</clus>
<clus scale="  129.454">  1  3  2 -1</clus>
</clustering>
</event>
<event>
 6    0  0.2117869E+002  0.5929213E+02  0.7546771E-02  0.1400827E+00
          2   -1    0    0  503    0 -0.00000000000E+00  0.00000000000E+00  0.17520300494E+03  0.17520300494E+03  0.00000000000E+00 0.  1.
         21   -1    0    0  505  502  0.00000000000E+00 -0.00000000000E+00 -0.94972001044E+03  0.94972001044E+03  0.00000000000E+00 0.  1.
         21    1    1    2  503  504  0.28380675656E+02 -0.77155308706E+02 -0.58842961886E+03  0.59414461267E+03  0.00000000000E+00 0.  1.
         21    1    1    2  504  502 -0.13512528330E+02  0.27995465934E+02 -0.32315726398E+03  0.32464896704E+03  0.00000000000E+00 0.  1.
         21    1    1    2  505  501 -0.70949430946E+02  0.36024132855E+02  0.30936053713E+02  0.85373293944E+02  0.00000000000E+00 0. -1.
          2    1    1    2  501    0  0.56081283620E+02  0.13135709917E+02  0.10613382362E+03  0.12075614173E+03  0.00000000000E+00 0.  1.
<scales pt_clust_3="53.05408" pt_clust_4="31.08592" pt_clust_5="59.29213" pt_clust_6="14000.00000"></scales>
<clustering>
<clus scale="   31.086">  2  4  1 -1</clus>
<clus scale="   53.054">  2  3  1 -1</clus>
<clus scale="   59.292">  2  5  1 -1</clus>
<clus scale="   31.086">  2  3  1 -1</clus>
</clustering>
</event>
<event>
 6    0  0.2117869E+002  0.2075252E+03  0.7546771E-02  0.1143541E+00
         21   -1    0    0  503  502  0.00000000000E+00  0.00000000000E+00  0.28624587843E+03  0.28624587843E+03  0.00000000000E+00 0.  1.
          2   -1    0    0  504    0 -0.00000000000E+00 -0.00000000000E+00 -0.31614761096E+04  0.31614761096E+04  0.00000000000E+00 0.  1.
         21    1    1    2  503  501  0.68265689394E+01  0.19633478013E+03  0.21142665029E+03  0.28860903726E+03  0.00000000000E+00 0.  1.
         21    1    1    2  504  505  0.15380629526E+02 -0.64757931271E+02 -0.23235055560E+03  0.24169595386E+03  0.00000000000E+00 0.  1.
         21    1    1    2  505  502 -0.40945786714E+02  0.10156881898E+02  0.14832610841E+02  0.44718296523E+02  0.00000000000E+00 0. -1.
          2    1    1    2  501    0  0.18738588249E+02 -0.14173373076E+03 -0.28691389367E+04  0.28726987004E+04  0.00000000000E+00 0.  1.
<scales pt_clust_3="207.52515" pt_clust_4="66.21049" pt_clust_5="42.18672" pt_clust_6="14000.00000"></scales>
<clustering>
<clus scale="   42.187">  1  5  2 -1</clus>
<clus scale="   66.210">  2  4  1 -1</clus>
<clus scale="  207.525">  1  3  2 -1</clus>
<clus scale="   42.187">  1  3  2 -1</clus>
</clustering>
</event>
<event>
 6    0  0.2117869E+002  0.1125597E+03  0.7546771E-02  0.1255902E+00
          2   -1    0    0  505    0 -0.00000000000E+00  0.00000000000E+00  0.74452429757E+03  0.74452429757E+03  0.00000000000E+00 0. -1.
         21   -1    0    0  504  502  0.00000000000E+00 -0.00000000000E+00 -0.60079370163E+03  0.60079370163E+03  0.00000000000E+00 0.  1.
         21    1    1    2  503  501  0.17467823539E+01  0.43562020165E+02 -0.11393113644E+01  0.43611912132E+02  0.00000000000E+00 0. -1.
         21    1    1    2  504  503  0.32225613963E+02  0.92797228489E+01 -0.64154681631E+02  0.72390791034E+02  0.00000000000E+00 0.  1.
         21    1    1    2  505  502  0.72218416361E+02 -0.14221163094E+02 -0.50301190937E+03  0.50836868719E+03  0.00000000000E+00 0.  1.
          2    1    1    2  501    0 -0.10619081268E+03 -0.38620579920E+02  0.71203649831E+03  0.72094660885E+03  0.00000000000E+00 0. -1.
<scales pt_clust_3="44.06119" pt_clust_4="33.53511" pt_clust_5="112.55970" pt_clust_6="14000.00000"></scales>
<clustering>
<clus scale="   33.535">  2  4  1 -1</clus>
<clus scale="   44.061">  2  3  1 -1</clus>
<clus scale="  112.560">  2  5  1 -1</clus>
<clus scale="   33.535">  2  3  1 -1</clus>
</clustering>
</event>
<event>
 6    0  0.2117869E+002  0.7429103E+02  0.7546771E-02  0.1346081E+00
          2   -1    0    0  505    0 -0.00000000000E+00  0.00000000000E+00  0.29957147680E+04  0.29957147680E+04  0.00000000000E+00 0. -1.
         21   -1    0    0  504  502  0.00000000000E+00 -0.00000000000E+00 -0.19431848337E+03  0.19431848337E+03  0.00000000000E+00 0.  1.
         21    1    1    2  503  502  0.88799322427E+01 -0.49679403429E+02  0.27042184173E+03  0.27509065561E+03  0.00000000000E+00 0.  1.
         21    1    1    2  504  501 -0.57923907791E+02  0.46554596997E+02 -0.18320313144E+03  0.19770153506E+03  0.00000000000E+00 0.  1.
         21    1    1    2  505  503 -0.39145240986E+02  0.16068136257E+01  0.64971321936E+03  0.65089338540E+03  0.00000000000E+00 0.  1.
          2    1    1    2  501    0  0.88189216534E+02  0.15179928063E+01  0.20644643550E+04  0.20663476753E+04  0.00000000000E+00 0. -1.
<scales pt_clust_3="49.68138" pt_clust_4="74.29103" pt_clust_5="39.17820" pt_clust_6="14000.00000"></scales>
<clustering>
<clus scale="   39.178">  1  5  2 -1</clus>
<clus scale="   49.681">  1  3  2 -1</clus>
<clus scale="   74.291">  2  4  1 -1</clus>
<clus scale="   74.291">  2  3  1 -1</clus>
</clustering>
</event>
<event>
 6    0  0.2117869E+002  0.9765969E+02  0.7546771E-02  0.1285296E+00
         21   -1    0    0  503  502  0.00000000000E+00  0.00000000000E+00  0.91108065985E+03  0.91108065985E+03  0.00000000000E+00 0. -1.
         -2   -1    0    0    0  501 -0.00000000000E+00 -0.00000000000E+00 -0.19645973938E+03  0.19645973938E+03  0.00000000000E+00 0. -1.
         21    1    1    2  503  505  0.20828581525E+02 -0.53607139679E+02  0.55759420269E+03  0.56055227242E+03  0.00000000000E+00 0. -1.
         21    1    1    2  504  502  0.78725716231E+01  0.45975076938E+02  0.29415774697E+03  0.29783294846E+03  0.00000000000E+00 0.  1.
         21    1    1    2  505  501  0.45592488721E+02 -0.68321408069E+02 -0.88862720125E+01  0.82616315935E+02  0.00000000000E+00 0. -1.
         -2    1    1    2    0  504 -0.74293641869E+02  0.75953470810E+02 -0.12824475719E+03  0.16653886242E+03  0.00000000000E+00 0. -1.
<scales pt_clust_3="30.37763" pt_clust_4="46.64424" pt_clust_5="14000.00000" pt_clust_6="97.65969"></scales>
<clustering>
<clus scale="   46.644">  1  4  2 -1</clus>
<clus scale="   30.378">  1  3  2 -1</clus>
<clus scale="   97.660">  2  6  1 -1</clus>
<clus scale="   46.644">  1  3  2 -1</clus>
</clustering>
</event>
<event>
 6    0  0.2117869E+002  0.7768285E+02  0.7546771E-02  0.1335759E+00
         -4   -1    0    0    0  501 -0.00000000000E+00  0.00000000000E+00  0.57538672880E+03  0.57538672880E+03  0.00000000000E+00 0.  1.
         21   -1    0    0  505  502  0.00000000000E+00 -0.00000000000E+00 -0.93258735736E+02  0.93258735736E+02  0.00000000000E+00 0.  1.
         21    1    1    2  503  501  0.59035277698E+02 -0.47889983990E+02  0.42645663108E+03  0.43317880000E+03  0.00000000000E+00 0.  1.
         21    1    1    2  504  502  0.62903622302E+02  0.67787462376E+01 -0.27196308069E+02  0.68865494058E+02  0.00000000000E+00 0.  1.
         21    1    1    2  505  503 -0.28751680939E+02  0.18826464754E+02 -0.71847828203E+01  0.35110056054E+02  0.00000000000E+00 0.  1.
         -4    1    1    2    0  504 -0.93187219061E+02  0.22284772998E+02  0.90052452881E+02  0.13149111443E+03  0.00000000000E+00 0.  1.
<scales pt_clust_3="77.68285" pt_clust_4="47.82818" pt_clust_5="34.36706" pt_clust_6="14000.00000"></scales>
<clustering>
<clus scale="   34.367">  2  5  1 -1</clus>
<clus scale="   47.828">  2  4  1 -1</clus>
<clus scale="   77.683">  1  3  2 -1</clus>
<clus scale="   34.367">  2  3  1 -1</clus>
</clustering>
</event>
<event>
 6    0  0.2117869E+002  0.9658677E+02  0.7546771E-02  0.1287642E+00
         21   -1    0    0  504  502  0.00000000000E+00  0.00000000000E+00  0.10106517300E+03  0.10106517300E+03  0.00000000000E+00 0. -1.
          1   -1    0    0  503    0 -0.00000000000E+00 -0.00000000000E+00 -0.21941042351E+04  0.21941042351E+04  0.00000000000E+00 0. -1.
         21    1    1    2  503  505  0.52847793031E+02 -0.22818251783E+01 -0.23397853143E+03  0.23988340735E+03  0.00000000000E+00 0. -1.
         21    1    1    2  504  501  0.50587812638E+02 -0.78056178106E+02  0.32871198509E+02  0.98652974711E+02  0.00000000000E+00 0. -1.
         21    1    1    2  505  502 -0.70858933287E+02  0.80272869788E+02 -0.56788905149E+02  0.12120108002E+03  0.00000000000E+00 0. -1.
          1    1    1    2  501    0 -0.32576672382E+02  0.65133495615E-01 -0.18351428240E+04  0.18354319460E+04  0.00000000000E+00 0. -1.
<scales pt_clust_3="31.41691" pt_clust_4="14000.00000" pt_clust_5="96.58677" pt_clust_6="32.57674"></scales>
<clustering>
<clus scale="   32.577">  2  6  1 -1</clus>
<clus scale="   31.417">  2  3  1 -1</clus>
<clus scale="   96.587">  2  5  1 -1</clus>
<clus scale="   96.587">  1  3  2 -1</clus>
</clustering>
</event>
<event>
 6    0  0.2117869E+002  0.1562907E+03  0.7546771E-02  0.1192949E+00
         21   -1    0    0  503  502  0.00000000000E+00  0.00000000000E+00  0.61893283871E+03  0.61893283871E+03  0.00000000000E+00 0. -1.
          2   -1    0    0  504    0 -0.00000000000E+00 -0.00000000000E+00 -0.21610184340E+03  0.21610184340E+03  0.00000000000E+00 0. -1.
         21    1    1    2  503  501  0.28656409605E+01 -0.48975202130E+02  0.96114562705E+02  0.10791103505E+03  0.00000000000E+00 0. -1.
         21    1    1    2  504  505 -0.11181531556E+03  0.60617583496E+02  0.48800059965E+02  0.13622996027E+03  0.00000000000E+00 0. -1.
         21    1    1    2  505  502 -0.56460463767E+02  0.34089253887E+02  0.37653900566E+03  0.38227147943E+03  0.00000000000E+00 0. -1.
          2    1    1    2  501    0  0.16541013837E+03 -0.45731635254E+02 -0.11862263302E+03  0.20862220736E+03  0.00000000000E+00 0. -1.
<scales pt_clust_3="49.05897" pt_clust_4="156.29067" pt_clust_5="54.38888" pt_clust_6="14000.00000"></scales>
<clustering>
<clus scale="   49.059">  1  3  2 -1</clus>
<clus scale="   54.389">  1  5  2 -1</clus>
<clus scale="  156.291">  1  4  2 -1</clus>
<clus scale="   49.059">  1  3  2 -1</clus>
</clustering>
</event>
<event>
 6    0  0.2117869E+002  0.1101885E+03  0.7546771E-02  0.1260221E+00
         21   -1    0    0  501  502  0.00000000000E+00  0.00000000000E+00  0.61969109887E+03  0.61969109887E+03  0.00000000000E+00 0. -1.
          2   -1    0    0  505    0 -0.00000000000E+00 -0.00000000000E+00 -0.18125381257E+03  0.18125381257E+03  0.00000000000E+00 0. -1.
         21    1    1    2  503  504 -0.10086437752E+03  0.44130492266E+02  0.35302539707E+03  0.36979461053E+03  0.00000000000E+00 0. -1.
         21    1    1    2  504  502  0.19054873534E+02  0.28434472461E+02  0.20694698568E+03  0.20975858102E+03  0.00000000000E+00 0. -1.
         21    1    1    2  505  503 -0.31377875206E+02 -0.35817938211E+01  0.11483459250E+02  0.33604614799E+02  0.00000000000E+00 0.  1.
          2    1    1    2  501    0  0.11318737919E+03 -0.68983170907E+02 -0.13301855570E+03  0.18778710509E+03  0.00000000000E+00 0. -1.
<scales pt_clust_3="14000.00000" pt_clust_4="34.06047" pt_clust_5="31.58164" pt_clust_6="110.18853"></scales>
<clustering>
<clus scale="   31.582">  2  5  1 -1</clus>
<clus scale="   34.060">  1  4  2 -1</clus>
<clus scale="  110.189">  2  6  1 -1</clus>
<clus scale="   34.060">  1  3  2 -1</clus>
</clustering>
</event>
<event>
 6    0  0.2117869E+002  0.1404657E+03  0.7546771E-02  0.1212704E+00
          2   -1    0    0  505    0 -0.00000000000E+00  0.00000000000E+00  0.44158614371E+03  0.44158614371E+03  0.00000000000E+00 0.  1.
         21   -1    0    0  504  502  0.00000000000E+00 -0.00000000000E+00 -0.98493474644E+03  0.98493474644E+03  0.00000000000E+00 0. -1.
         21    1    1    2  503  502 -0.50249476095E+02  0.10794267957E+03 -0.91645183825E+03  0.92415399353E+03  0.00000000000E+00 0. -1.
         21    1    1    2  504  501  0.38213482276E+02  0.32525040011E+02 -0.30000218065E+02  0.58465045449E+02  0.00000000000E+00 0. -1.
         21    1    1    2  505  503  0.32783401695E+02  0.44558708293E+01  0.12872277317E+03  0.13290657825E+03  0.00000000000E+00 0.  1.
          2    1    1    2  501    0 -0.20747407876E+02 -0.14492359041E+03  0.27438068042E+03  0.31099527291E+03  0.00000000000E+00 0.  1.
<scales pt_clust_3="14000.00000" pt_clust_4="51.46324" pt_clust_5="33.08483" pt_clust_6="140.46566"></scales>
<clustering>
<clus scale="   33.085">  1  5  2 -1</clus>
<clus scale="   51.463">  2  4  1 -1</clus>
<clus scale="  140.466">  1  6  2 -1</clus>
<clus scale="   51.463">  2  3  1 -1</clus>
</clustering>
</event>
<event>
 6    0  0.2117869E+002  0.9321647E+02  0.7546771E-02  0.1295244E+00
         21   -1    0    0  501  502  0.00000000000E+00  0.00000000000E+00  0.11013481849E+03  0.11013481849E+03  0.00000000000E+00 0. -1.
          2   -1    0    0  505    0 -0.00000000000E+00 -0.00000000000E+00 -0.58115354255E+03  0.58115354255E+03  0.00000000000E+00 0. -1.
         21    1    1    2  503  504  0.18257293812E+02 -0.61351245584E+02  0.60757626792E+01  0.64297892688E+02  0.00000000000E+00 0. -1.
         21    1    1    2  504  502 -0.16818255977E+02 -0.37094623083E+02  0.51195107903E+02  0.65420209943E+02  0.00000000000E+00 0. -1.
         21    1    1    2  505  503 -0.24611891272E+02 -0.29525931683E+02 -0.26648192000E+03  0.26923992929E+03  0.00000000000E+00 0. -1.
          2    1    1    2  501    0  0.23172853437E+02  0.12797180035E+03 -0.26180767464E+03  0.29233032912E+03  0.00000000000E+00 0. -1.
<scales pt_clust_3="93.21647" pt_clust_4="41.57104" pt_clust_5="38.43860" pt_clust_6="14000.00000"></scales>
<clustering>
<clus scale="   38.439">  2  5  1 -1</clus>
<clus scale="   41.571">  1  4  2 -1</clus>
<clus scale="   93.216">  1  3  2 -1</clus>
<clus scale="   41.571">  1  3  2 -1</clus>
</clustering>
</event>
<event>
 6    0  0.2117869E+002  0.2206263E+03  0.7546771E-02  0.1133417E+00
         21   -1    0    0  505  502  0.00000000000E+00  0.00000000000E+00  0.21659656223E+03  0.21659656223E+03  0.00000000000E+00 0.  1.
         -1   -1    0    0    0  501 -0.00000000000E+00 -0.00000000000E+00 -0.73384302848E+03  0.73384302848E+03  0.00000000000E+00 0.  1.
         21    1    1    2  503  502  0.22413413396E+03 -0.19102614088E+02  0.98225077136E+02  0.24545709533E+03  0.00000000000E+00 0.  1.
         21    1    1    2  504  501  0.29759797942E+01  0.53702535767E+02 -0.60163155665E+02  0.80699591716E+02  0.00000000000E+00 0. -1.
         21    1    1    2  505  504 -0.38378942947E+02 -0.53362087393E+02 -0.44437277385E+02  0.79341837980E+02  0.00000000000E+00 0.  1.
         -1    1    1    2    0  503 -0.18873117081E+03  0.18762165714E+02 -0.51087111033E+03  0.54494106568E+03  0.00000000000E+00 0.  1.
<scales pt_clust_3="220.62634" pt_clust_4="53.78493" pt_clust_5="61.56009" pt_clust_6="14000.00000"></scales>
<clustering>
<clus scale="   53.785">  2  4  1 -1</clus>
<clus scale="   61.560">  2  5  1 -1</clus>
<clus scale="  220.626">  1  3  2 -1</clus>
<clus scale="  220.626">  1  3  2 -1</clus>
</clustering>
</event>
<event>
 6    0  0.2117869E+002  0.3852468E+03  0.7546771E-02  0.1049011E+00
         21   -1    0    0  504  502  0.00000000000E+00  0.00000000000E+00  0.55846157143E+03  0.55846157143E+03  0.00000000000E+00 0. -1.
          2   -1    0    0  503    0 -0.00000000000E+00 -0.00000000000E+00 -0.12433152267E+04  0.12433152267E+04  0.00000000000E+00 0.  1.
         21    1    1    2  503  505  0.80256338777E+02  0.31017213162E+02 -0.32733445166E+03  0.33845382354E+03  0.00000000000E+00 0.  1.
         21    1    1    2  504  501  0.18363934808E+03 -0.21125568015E+03  0.13151670516E+03  0.30927175153E+03  0.00000000000E+00 0. -1.
         21    1    1    2  505  502  0.84279969436E+02 -0.96786963750E+02  0.25594268779E+03  0.28631711272E+03  0.00000000000E+00 0. -1.
          2    1    1    2  501    0 -0.34817565629E+03  0.27702543074E+03 -0.74497859654E+03  0.86773411032E+03  0.00000000000E+00 0.  1.
<scales pt_clust_3="86.04154" pt_clust_4="385.24685" pt_clust_5="128.83478" pt_clust_6="14000.00000"></scales>
<clustering>
<clus scale="   86.042">  2  3  1 -1</clus>
<clus scale="  128.835">  1  5  2 -1</clus>
<clus scale="  385.247">  1  4  2 -1</clus>
<clus scale="  128.835">  1  3  2 -1</clus>
</clustering>
</event>
<event>
 6    0  0.2117869E+002  0.1647782E+03  0.7546771E-02  0.1183405E+00
          2   -1    0    0  504    0 -0.00000000000E+00  0.00000000000E+00  0.20847429265E+04  0.20847429265E+04  0.00000000000E+00 0.  1.
         21   -1    0    0  505  502  0.00000000000E+00 -0.00000000000E+00 -0.14607821383E+03  0.14607821383E+03  0.00000000000E+00 0.  1.
         21    1    1    2  503  502 -0.22741618889E+03  0.17573120780E+03  0.16801620953E+03  0.33290993831E+03  0.00000000000E+00 0.  1.
         21    1    1    2  504  503  0.48675659730E+02  0.36637056596E+02  0.39591245604E+03  0.40057242368E+03  0.00000000000E+00 0. -1.
         21    1    1    2  505  501  0.73353065060E+02 -0.12513200363E+03  0.33139570882E+02  0.14878481658E+03  0.00000000000E+00 0.  1.
          2    1    1    2  501    0  0.10538746410E+03 -0.87236260770E+02  0.13415964762E+04  0.13485539617E+04  0.00000000000E+00 0.  1.
<scales pt_clust_3="164.77820" pt_clust_4="60.92285" pt_clust_5="144.70698" pt_clust_6="14000.00000"></scales>
<clustering>
<clus scale="   60.923">  1  4  2 -1</clus>
<clus scale="  144.707">  2  5  1 -1</clus>
<clus scale="  164.778">  2  3  1 -1</clus>
<clus scale="  144.707">  2  3  1 -1</clus>
</clustering>
</event>
<event>
 6    0  0.2117869E+002  0.1178103E+03  0.7546771E-02  0.1246754E+00
         21   -1    0    0  505  502  0.00000000000E+00  0.00000000000E+00  0.21375235438E+03  0.21375235438E+03  0.00000000000E+00 0. -1.
          2   -1    0    0  504    0 -0.00000000000E+00 -0.00000000000E+00 -0.37780237836E+04  0.37780237836E+04  0.00000000000E+00 0. -1.
         21    1    1    2  503  502 -0.58812561830E+02  0.69221317186E+02  0.15940950968E+03  0.18347179609E+03  0.00000000000E+00 0. -1.
         21    1    1    2  504  503  0.18646272755E+03  0.21643497036E+02 -0.31705002051E+03  0.36845285348E+03  0.00000000000E+00 0. -1.
         21    1    1    2  505  501 -0.51026703348E+02 -0.82017052366E+02 -0.12821906823E+03  0.16053239795E+03  0.00000000000E+00 0. -1.
          2    1    1    2  501    0 -0.76623462369E+02 -0.88477618557E+01 -0.32784118502E+04  0.32793190905E+04  0.00000000000E+00 0. -1.
<scales pt_clust_3="91.87859" pt_clust_4="14000.00000" pt_clust_5="117.81027" pt_clust_6="77.13260"></scales>
<clustering>
<clus scale="   77.133">  2  6  1 -1</clus>
<clus scale="   91.879">  1  3  2 -1</clus>
<clus scale="  117.810">  1  5  2 -1</clus>
<clus scale="   91.879">  1  3  2 -1</clus>
</clustering>
</event>
<event>
 6    0  0.2117869E+002  0.9199725E+02  0.7546771E-02  0.1298086E+00
         21   -1    0    0  504  502  0.00000000000E+00  0.00000000000E+00  0.62355463126E+03  0.62355463126E+03  0.00000000000E+00 0. -1.
          2   -1    0    0  505    0 -0.00000000000E+00 -0.00000000000E+00 -0.15498648150E+03  0.15498648150E+03  0.00000000000E+00 0.  1.
         21    1    1    2  503  502  0.76872494288E+02  0.28350161748E+02  0.10782625409E+03  0.13542382774E+03  0.00000000000E+00 0.  1.
         21    1    1    2  504  501 -0.15194520740E+03  0.35381121860E+02  0.46047929651E+03  0.48618962592E+03  0.00000000000E+00 0. -1.
         21    1    1    2  505  503  0.20196175871E+02 -0.51712136868E+02 -0.19218832300E+02  0.58748567082E+02  0.00000000000E+00 0.  1.
          2    1    1    2  501    0  0.54876537245E+02 -0.12019146740E+02 -0.80518568541E+02  0.98179092012E+02  0.00000000000E+00 0.  1.
<scales pt_clust_3="82.32434" pt_clust_4="91.99725" pt_clust_5="55.51604" pt_clust_6="14000.00000"></scales>
<clustering>
<clus scale="   55.516">  2  5  1 -1</clus>
<clus scale="   82.324">  1  3  2 -1</clus>
<clus scale="   91.997">  1  4  2 -1</clus>
<clus scale="   82.324">  1  3  2 -1</clus>
</clustering>
</event>
<event>
 6    0  0.2117869E+002  0.1467923E+03  0.7546771E-02  0.1204471E+00
         21   -1    0    0  505  502  0.00000000000E+00  0.00000000000E+00  0.38665224087E+03  0.38665224087E+03  0.00000000000E+00 0.  1.
          1   -1    0    0  504    0 -0.00000000000E+00 -0.00000000000E+00 -0.32086096156E+03  0.32086096156E+03  0.00000000000E+00 0.  1.
         21    1    1    2  503  502  0.31431118100E+02 -0.13341968044E+03  0.27980367473E+03  0.31157474658E+03  0.00000000000E+00 0.  1.
         21    1    1    2  504  503  0.99013683135E+01  0.68671428215E+02 -0.34494068524E+02  0.77483178245E+02  0.00000000000E+00 0.  1.
         21    1    1    2  505  501 -0.37990075347E+02 -0.22432343803E+02  0.53672608880E+02  0.69478088757E+02  0.00000000000E+00 0.  1.
          1    1    1    2  501    0 -0.33424110661E+01  0.87180596030E+02 -0.23319093577E+03  0.24897718884E+03  0.00000000000E+00 0.  1.
<scales pt_clust_3="14000.00000" pt_clust_4="67.59329" pt_clust_5="44.11866" pt_clust_6="146.79231"></scales>
<clustering>
<clus scale="   44.119">  1  5  2 -1</clus>
<clus scale="   67.593">  2  4  1 -1</clus>
<clus scale="  146.792">  2  6  1 -1</clus>
<clus scale="   44.119">  1  3  2 -1</clus>
</clustering>
</event>
<event>
 6    0  0.2117869E+002  0.9842569E+02  0.7546771E-02  0.1283642E+00
         21   -1    0    0  504  502  0.00000000000E+00  0.00000000000E+00  0.56832611009E+03  0.56832611009E+03  0.00000000000E+00 0. -1.
          2   -1    0    0  505    0 -0.00000000000E+00 -0.00000000000E+00 -0.23503870511E+03  0.23503870511E+03  0.00000000000E+00 0. -1.
         21    1    1    2  503  501  0.68968896935E+02  0.42765747280E+02  0.20111536457E+03  0.21687094723E+03  0.00000000000E+00 0. -1.
         21    1    1    2  504  503  0.28919385864E+02 -0.15357987669E+02  0.33033506801E+03  0.33195399655E+03  0.00000000000E+00 0. -1.
         21    1    1    2  505  502  0.46620740673E+01 -0.44334056229E+02 -0.21320480155E+02  0.49414637005E+02  0.00000000000E+00 0. -1.
          2    1    1    2  501    0 -0.10255035687E+03  0.16926296617E+02 -0.17684254745E+03  0.20512523443E+03  0.00000000000E+00 0. -1.
<scales pt_clust_3="98.42569" pt_clust_4="32.74444" pt_clust_5="45.69053" pt_clust_6="14000.00000"></scales>
<clustering>
<clus scale="   32.744">  1  4  2 -1</clus>
<clus scale="   45.691">  2  5  1 -1</clus>
<clus scale="   98.426">  1  3  2 -1</clus>
<clus scale="   32.744">  1  3  2 -1</clus>
</clustering>
</event>
<event>
 6    0  0.2117869E+002  0.9733692E+02  0.7546771E-02  0.1285998E+00
          1   -1    0    0  503    0 -0.00000000000E+00  0.00000000000E+00  0.75355075657E+03  0.75355075657E+03  0.00000000000E+00 0.  1.
         21   -1    0    0  504  502  0.00000000000E+00 -0.00000000000E+00 -0.66437421934E+02  0.66437421934E+02  0.00000000000E+00 0.  1.
         21    1    1    2  503  505  0.25740404595E+02 -0.31334310014E+02  0.23060540124E+03  0.23414367062E+03  0.00000000000E+00 0.  1.
         21    1    1    2  504  501 -0.62598441774E+02  0.59724030554E+01 -0.91736929222E+01  0.63548337135E+02  0.00000000000E+00 0.  1.
         21    1    1    2  505  502  0.90328741107E+02  0.88521697033E+02  0.15126367506E+03  0.19717015927E+03  0.00000000000E+00 0.  1.
          1    1    1    2  501    0 -0.53470703928E+02 -0.63159790075E+02  0.31441795127E+03  0.32512601148E+03  0.00000000000E+00 0.  1.
<scales pt_clust_3="40.55129" pt_clust_4="61.40909" pt_clust_5="14000.00000" pt_clust_6="97.33692"></scales>
<clustering>
<clus scale="   40.551">  1  3  2 -1</clus>
<clus scale="   61.409">  2  4  1 -1</clus>
<clus scale="   97.337">  1  6  2 -1</clus>
<clus scale="   61.409">  2  3  1 -1</clus>
</clustering>
</event>
<event>
 6    0  0.2117869E+002  0.2410027E+03  0.7546771E-02  0.1119127E+00
         21   -1    0    0  505  502  0.00000000000E+00  0.00000000000E+00  0.29741705719E+03  0.29741705719E+03  0.00000000000E+00 0. -1.
          2   -1    0    0  503    0 -0.00000000000E+00 -0.00000000000E+00 -0.89356213588E+03  0.89356213588E+03  0.00000000000E+00 0. -1.
         21    1    1    2  503  504 -0.74777422699E+02 -0.25514042929E+02 -0.13504663388E+03  0.15646156926E+03  0.00000000000E+00 0. -1.
         21    1    1    2  504  502 -0.22469167988E+03  0.13438766670E+03  0.52282958820E+02  0.26698296528E+03  0.00000000000E+00 0. -1.
         21    1    1    2  505  501  0.20651948217E+03 -0.83605900983E+02  0.21697616083E+02  0.22385493012E+03  0.00000000000E+00 0. -1.
          2    1    1    2  501    0  0.92949620409E+02 -0.25267722785E+02 -0.53507901971E+03  0.54367972841E+03  0.00000000000E+00 0. -1.
<scales pt_clust_3="79.01031" pt_clust_4="14000.00000" pt_clust_5="241.00268" pt_clust_6="58.55950"></scales>
<clustering>
<clus scale="   79.010">  2  3  1 -1</clus>
<clus scale="   58.559">  2  6  1 -1</clus>
<clus scale="  241.003">  1  5  2 -1</clus>
<clus scale="  241.003">  1  3  2 -1</clus>
</clustering>
</event>
<event>
 6    0  0.2117869E+002  0.7294953E+02  0.7546771E-02  0.1350341E+00
         21   -1    0    0  503  502  0.00000000000E+00  0.00000000000E+00  0.48572857017E+03  0.48572857017E+03  0.00000000000E+00 0. -1.
         -1   -1    0    0    0  501 -0.00000000000E+00 -0.00000000000E+00 -0.40517235250E+03  0.40517235250E+03  0.00000000000E+00 0. -1.
         21    1    1    2  503  505 -0.56629747937E+02 -0.48933643421E+01  0.23660209334E+03  0.24333397613E+03  0.00000000000E+00 0. -1.
         21    1    1    2  504  502  0.34127166959E+02 -0.64735009351E+02  0.22977128041E+03  0.24114337284E+03  0.00000000000E+00 0. -1.
         21    1    1    2  505  501 -0.28267734970E+02 -0.10790342477E+02 -0.63007903528E+02  0.69896296312E+02  0.00000000000E+00 0. -1.
         -1    1    1    2    0  504  0.50770315948E+02  0.80418716170E+02 -0.32280925256E+03  0.33652727739E+03  0.00000000000E+00 0. -1.
<scales pt_clust_3="57.12992" pt_clust_4="72.94953" pt_clust_5="30.25717" pt_clust_6="14000.00000"></scales>
<clustering>
<clus scale="   30.257">  2  5  1 -1</clus>
<clus scale="   57.130">  1  3  2 -1</clus>
<clus scale="   72.950">  1  4  2 -1</clus>
<clus scale="   57.130">  1  3  2 -1</clus>
</clustering>
</event>
<event>
 6    0  0.2117869E+002  0.1357723E+03  0.7546771E-02  0.1219134E+00
          1   -1    0    0  503    0 -0.00000000000E+00  0.00000000000E+00  0.75792234674E+03  0.75792234674E+03  0.00000000000E+00 0.  1.
         21   -1    0    0  505  502  0.00000000000E+00 -0.00000000000E+00 -0.84377606525E+02  0.84377606525E+02  0.00000000000E+00 0.  1.
         21    1    1    2  503  504 -0.86153965318E+02 -0.69837843402E+02  0.16736399770E+03  0.20077484364E+03  0.00000000000E+00 0.  1.
         21    1    1    2  504  502 -0.76835939300E+02 -0.16374907887E+02  0.69582697539E+01  0.78868984363E+02  0.00000000000E+00 0.  1.
         21    1    1    2  505  501  0.23080576985E+02  0.20930684756E+02 -0.82388147547E+01  0.32228631166E+02  0.00000000000E+00 0.  1.
          1    1    1    2  501    0  0.13990932763E+03  0.65282066533E+02  0.50746128751E+03  0.53042749410E+03  0.00000000000E+00 0.  1.
<scales pt_clust_3="14000.00000" pt_clust_4="64.06672" pt_clust_5="31.15777" pt_clust_6="135.77233"></scales>
<clustering>
<clus scale="   31.158">  2  5  1 -1</clus>
<clus scale="   64.067">  2  4  1 -1</clus>
<clus scale="  135.772">  1  6  2 -1</clus>
<clus scale="   31.158">  2  3  1 -1</clus>
</clustering>
</event>
<event>
 6    0  0.2117869E+002  0.2809996E+03  0.7546771E-02  0.1095144E+00
          2   -1    0    0  503    0 -0.00000000000E+00  0.00000000000E+00  0.30490944040E+04  0.30490944040E+04  0.00000000000E+00 0.  1.
         21   -1    0    0  505  502  0.00000000000E+00 -0.00000000000E+00 -0.43052521594E+03  0.43052521594E+03  0.00000000000E+00 0. -1.
         21    1    1    2  503  504 -0.29376991838E+02 -0.45963258589E+02  0.39910438766E+03  0.40281502087E+03  0.00000000000E+00 0. -1.
         21    1    1    2  504  502  0.62636010811E+02  0.40208924650E+02  0.11580818452E+02  0.75326906400E+02  0.00000000000E+00 0.  1.
         21    1    1    2  505  501 -0.21476376106E+03  0.19701475939E+03 -0.33553111639E+03  0.44443156790E+03  0.00000000000E+00 0. -1.
          2    1    1    2  501    0  0.18150474209E+03 -0.19126042545E+03  0.25434150984E+04  0.25570461248E+04  0.00000000000E+00 0.  1.
<scales pt_clust_3="54.54932" pt_clust_4="73.61921" pt_clust_5="14000.00000" pt_clust_6="280.99961"></scales>
<clustering>
<clus scale="   54.549">  1  3  2 -1</clus>
<clus scale="   73.619">  2  4  1 -1</clus>
<clus scale="  281.000">  1  6  2 -1</clus>
<clus scale="   73.619">  2  3  1 -1</clus>
</clustering>
</event>
<event>
 6    0  0.2117869E+002  0.1597259E+03  0.7546771E-02  0.1189007E+00
         21   -1    0    0  504  502  0.00000000000E+00  0.00000000000E+00  0.18843010989E+03  0.18843010989E+03  0.00000000000E+00 0. -1.
          1   -1    0    0  503    0 -0.00000000000E+00 -0.00000000000E+00 -0.15948138304E+04  0.15948138304E+04  0.00000000000E+00 0.  1.
         21    1    1    2  503  502  0.40192223208E+02  0.83061500524E+02 -0.33007281461E+03  0.34272830437E+03  0.00000000000E+00 0.  1.
         21    1    1    2  504  505  0.30152035651E+02  0.84941710627E+01  0.61710272395E+02  0.69205880639E+02  0.00000000000E+00 0. -1.
         21    1    1    2  505  501 -0.17823256293E+03 -0.71854492908E+02  0.33154209092E+02  0.19501055412E+03  0.00000000000E+00 0. -1.
          1    1    1    2  501    0  0.10788830407E+03 -0.19701178678E+02 -0.11711753874E+04  0.11762992011E+04  0.00000000000E+00 0.  1.
<scales pt_clust_3="93.35178" pt_clust_4="31.32565" pt_clust_5="14000.00000" pt_clust_6="159.72592"></scales>
<clustering>
<clus scale="   31.326">  1  4  2 -1</clus>
<clus scale="   93.352">  2  3  1 -1</clus>
<clus scale="  159.726">  2  6  1 -1</clus>
<clus scale="   31.326">  1  3  2 -1</clus>
</clustering>
</event>
<event>
 6    0  0.2117869E+002  0.1489820E+03  0.7546771E-02  0.1201730E+00
         -3   -1    0    0    0  501 -0.00000000000E+00  0.00000000000E+00  0.31092471621E+03  0.31092471621E+03  0.00000000000E+00 0. -1.
         21   -1    0    0  504  502  0.00000000000E+00 -0.00000000000E+00 -0.10957981661E+04  0.10957981661E+04  0.00000000000E+00 0. -1.
         21    1    1    2  503  501 -0.37754355958E+02 -0.75070445051E+01  0.13583691576E+01  0.38517428234E+02  0.00000000000E+00 0. -1.
         21    1    1    2  504  503 -0.10573894607E+02 -0.33505795045E+02 -0.31726984575E+03  0.31920933659E+03  0.00000000000E+00 0. -1.
         21    1    1    2  505  502  0.13776372958E+03 -0.46375315233E+02 -0.73807446658E+03  0.75225224045E+03  0.00000000000E+00 0. -1.
         -3    1    1    2    0  505 -0.89435479015E+02  0.87388154783E+02  0.26911249329E+03  0.29674387701E+03  0.00000000000E+00 0. -1.
<scales pt_clust_3="38.90438" pt_clust_4="35.13468" pt_clust_5="148.98199" pt_clust_6="14000.00000"></scales>
<clustering>
<clus scale="   35.135">  2  4  1 -1</clus>
<clus scale="   38.904">  1  3  2 -1</clus>
<clus scale="  148.982">  2  5  1 -1</clus>
<clus scale="   35.135">  2  3  1 -1</clus>
</clustering>
</event>
<event>
 6    0  0.2117869E+002  0.8968462E+02  0.7546771E-02  0.1303617E+00
         21   -1    0    0  505  502  0.00000000000E+00  0.00000000000E+00  0.79981978692E+02  0.79981978692E+02  0.00000000000E+00 0.  1.
          1   -1    0    0  503    0 -0.00000000000E+00 -0.00000000000E+00 -0.73419915376E+03  0.73419915376E+03  0.00000000000E+00 0. -1.
         21    1    1    2  503  502  0.36370210740E+01  0.40070058539E+02 -0.93757479456E+02  0.10202598918E+03  0.00000000000E+00 0. -1.
         21    1    1    2  504  501 -0.77887668487E+01 -0.91320793862E+02 -0.45332046138E+02  0.10225041167E+03  0.00000000000E+00 0.  1.
         21    1    1    2  505  504  0.59452698891E+02  0.60185561061E+01  0.25215612946E+02  0.64858874175E+02  0.00000000000E+00 0.  1.
          1    1    1    2  501    0 -0.55300953116E+02  0.45232179217E+02 -0.54034326242E+03  0.54504585743E+03  0.00000000000E+00 0. -1.
<scales pt_clust_3="40.23478" pt_clust_4="14000.00000" pt_clust_5="60.00762" pt_clust_6="89.68462"></scales>
<clustering>
<clus scale="   40.235">  2  3  1 -1</clus>
<clus scale="   60.008">  1  5  2 -1</clus>
<clus scale="   89.685">  2  6  1 -1</clus>
<clus scale="   60.008">  1  3  2 -1</clus>
</clustering>
</event>
<event>
 6    0  0.2117869E+002  0.1186937E+03  0.7546771E-02  0.1245268E+00
          1   -1    0    0  505    0 -0.00000000000E+00  0.00000000000E+00  0.11907841452E+03  0.11907841452E+03  0.00000000000E+00 0. -1.
         21   -1    0    0  501  502  0.00000000000E+00 -0.00000000000E+00 -0.18630855756E+03  0.18630855756E+03  0.00000000000E+00 0. -1.
         21    1    1    2  503  502 -0.44167262636E+02 -0.26146835061E+02 -0.14061226230E+02  0.53217686492E+02  0.00000000000E+00 0. -1.
         21    1    1    2  504  503 -0.30097227153E+02 -0.48023119335E+02 -0.72628667510E+02  0.92124841478E+02  0.00000000000E+00 0. -1.
         21    1    1    2  505  504 -0.26833076025E+02  0.20674790241E+02  0.29910322142E+02  0.45189471020E+02  0.00000000000E+00 0. -1.
          1    1    1    2  501    0  0.10109756581E+03  0.53495164156E+02 -0.10450571443E+02  0.11485497310E+03  0.00000000000E+00 0. -1.
<scales pt_clust_3="50.21023" pt_clust_4="50.21023" pt_clust_5="33.87419" pt_clust_6="107.21608"></scales>
<clustering>
<clus scale="   33.874">  1  5  2 -1</clus>
<clus scale="   50.210">  3  4 -1 -1</clus>
<clus scale="  107.216">  1  6  2 -1</clus>
<clus scale="  118.694">  2  3  1 -1</clus>
</clustering>
</event>
<event>
 6    0  0.2117869E+002  0.1394409E+03  0.7546771E-02  0.1214083E+00
         21   -1    0    0  505  502  0.00000000000E+00  0.00000000000E+00  0.31394006830E+03  0.31394006830E+03  0.00000000000E+00 0. -1.
          4   -1    0    0  504    0 -0.00000000000E+00 -0.00000000000E+00 -0.25610163451E+04  0.25610163451E+04  0.00000000000E+00 0.  1.
         21    1    1    2  503  501 -0.87523589040E+02  0.12569150124E+02  0.84941425178E+02  0.12261079840E+03  0.00000000000E+00 0. -1.
         21    1    1    2  504  502  0.49175598383E+02 -0.14073074563E+02 -0.11361385819E+03  0.12459694890E+03  0.00000000000E+00 0. -1.
         21    1    1    2  505  503 -0.49415606355E+02  0.31585125179E+02  0.19956321074E+03  0.20800239750E+03  0.00000000000E+00 0. -1.
          4    1    1    2  501    0  0.87763597012E+02 -0.30081200741E+02 -0.24179670546E+04  0.24197462686E+04  0.00000000000E+00 0.  1.
<scales pt_clust_3="14000.00000" pt_clust_4="51.14969" pt_clust_5="58.56275" pt_clust_6="139.44094"></scales>
<clustering>
<clus scale="   51.150">  2  4  1 -1</clus>
<clus scale="   58.563">  1  5  2 -1</clus>
<clus scale="  139.441">  2  6  1 -1</clus>
<clus scale="   58.563">  1  3  2 -1</clus>
</clustering>
</event>
<event>
 6    0  0.2117869E+002  0.1773502E+03  0.7546771E-02  0.1170392E+00
         21   -1    0    0  501  502  0.00000000000E+00  0.00000000000E+00  0.38151765171E+03  0.38151765171E+03  0.00000000000E+00 0.  1.
          1   -1    0    0  504    0 -0.00000000000E+00 -0.00000000000E+00 -0.44626562407E+03  0.44626562407E+03  0.00000000000E+00 0.  1.
         21    1    1    2  503  502 -0.18709534216E+02  0.55740947595E+02  0.15987624286E+03  0.17034527567E+03  0.00000000000E+00 0.  1.
         21    1    1    2  504  505 -0.50781726977E+02  0.39713183636E+02 -0.70257328330E+02  0.95352047347E+02  0.00000000000E+00 0.  1.
         21    1    1    2  505  503 -0.15434203460E+03 -0.24466821532E+02  0.12285379097E+03  0.19877913109E+03  0.00000000000E+00 0.  1.
          1    1    1    2  501    0  0.22383329579E+03 -0.70987309698E+02 -0.27722067786E+03  0.36330682168E+03  0.00000000000E+00 0.  1.
<scales pt_clust_3="58.79711" pt_clust_4="67.33806" pt_clust_5="14000.00000" pt_clust_6="177.35022"></scales>
<clustering>
<clus scale="   58.797">  1  3  2 -1</clus>
<clus scale="   67.338">  2  4  1 -1</clus>
<clus scale="  177.350">  2  6  1 -1</clus>
<clus scale="   58.797">  1  3  2 -1</clus>
</clustering>
</event>
<event>
 6    0  0.2117869E+002  0.1322258E+03  0.7546771E-02  0.1224190E+00
          1   -1    0    0  504    0 -0.00000000000E+00  0.00000000000E+00  0.23091354001E+04  0.23091354001E+04  0.00000000000E+00 0.  1.
         21   -1    0    0  503  502  0.00000000000E+00 -0.00000000000E+00 -0.82427196448E+03  0.82427196448E+03  0.00000000000E+00 0. -1.
         21    1    1    2  503  505 -0.48016877622E+02  0.10323551554E+03 -0.31227745414E+03  0.33238592114E+03  0.00000000000E+00 0. -1.
         21    1    1    2  504  502  0.87001653408E+02 -0.12845025731E+03 -0.48797385321E+03  0.51204222259E+03  0.00000000000E+00 0. -1.
         21    1    1    2  505  501 -0.76304531774E+02  0.27729681131E+02  0.98963150373E+03  0.99295610677E+03  0.00000000000E+00 0. -1.
          1    1    1    2  501    0  0.37319755988E+02 -0.25149393632E+01  0.12954832393E+04  0.12960231141E+04  0.00000000000E+00 0.  1.
<scales pt_clust_3="132.22582" pt_clust_4="14000.00000" pt_clust_5="47.14286" pt_clust_6="37.40440"></scales>
<clustering>
<clus scale="   37.404">  1  6  2 -1</clus>
<clus scale="   47.143">  1  5  2 -1</clus>
<clus scale="  132.226">  2  3  1 -1</clus>
<clus scale="  132.226">  2  3  1 -1</clus>
</clustering>
</event>
<event>
 6    0  0.2117869E+002  0.1056558E+03  0.7546771E-02  0.1268833E+00
         21   -1    0    0  501  502  0.00000000000E+00  0.00000000000E+00  0.94543821311E+02  0.94543821311E+02  0.00000000000E+00 0.  1.
          1   -1    0    0  505    0 -0.00000000000E+00 -0.00000000000E+00 -0.66706346855E+03  0.66706346855E+03  0.00000000000E+00 0.  1.
         21    1    1    2  503  502 -0.44848392488E+02 -0.37010642949E+02  0.28117003496E+02  0.64588945539E+02  0.00000000000E+00 0.  1.
         21    1    1    2  504  503  0.12562417155E+03 -0.13690866474E+02 -0.84806461200E+02  0.15218741132E+03  0.00000000000E+00 0.  1.
         21    1    1    2  505  504 -0.84170547373E+00 -0.30828867542E+02 -0.29138892490E+03  0.29301643827E+03  0.00000000000E+00 0.  1.
          1    1    1    2  501    0 -0.79934073586E+02  0.81530376965E+02 -0.22444126463E+03  0.25181449473E+03  0.00000000000E+00 0.  1.
<scales pt_clust_3="59.14476" pt_clust_4="14000.00000" pt_clust_5="30.84036" pt_clust_6="105.65579"></scales>
<clustering>
<clus scale="   30.840">  2  5  1 -1</clus>
<clus scale="   59.145">  1  3  2 -1</clus>
<clus scale="  105.656">  2  6  1 -1</clus>
<clus scale="   59.145">  1  3  2 -1</clus>
</clustering>
</event>
<event>
 6    0  0.2117869E+002  0.1344075E+03  0.7546771E-02  0.1221059E+00
          1   -1    0    0  503    0 -0.00000000000E+00  0.00000000000E+00  0.18895559331E+04  0.18895559331E+04  0.00000000000E+00 0.  1.
         21   -1    0    0  505  502  0.00000000000E+00 -0.00000000000E+00 -0.16372714832E+04  0.16372714832E+04  0.00000000000E+00 0. -1.
         21    1    1    2  503  504  0.87794532155E+02  0.19732520039E+02  0.14462612320E+04  0.14490579020E+04  0.00000000000E+00 0.  1.
         21    1    1    2  504  502  0.52231974356E+02  0.30469215236E+02 -0.69354577249E+03  0.69617691054E+03  0.00000000000E+00 0. -1.
         21    1    1    2  505  501 -0.15286863552E+03  0.59649391968E+02 -0.92674767020E+03  0.94116317072E+03  0.00000000000E+00 0. -1.
          1    1    1    2  501    0  0.12842129010E+02 -0.10985112724E+03  0.42631666059E+03  0.44042943309E+03  0.00000000000E+00 0.  1.
<scales pt_clust_3="90.07027" pt_clust_4="60.46943" pt_clust_5="134.40751" pt_clust_6="14000.00000"></scales>
<clustering>
<clus scale="   60.469">  2  4  1 -1</clus>
<clus scale="   90.070">  1  3  2 -1</clus>
<clus scale="  134.408">  2  5  1 -1</clus>
<clus scale="   60.469">  2  3  1 -1</clus>
</clustering>
</event>
<event>
 6    0  0.2117869E+002  0.1298245E+03  0.7546771E-02  0.1227716E+00
          1   -1    0    0  505    0 -0.00000000000E+00  0.00000000000E+00  0.15465054143E+04  0.15465054143E+04  0.00000000000E+00 0. -1.
         21   -1    0    0  503  502  0.00000000000E+00 -0.00000000000E+00 -0.28876759110E+03  0.28876759110E+03  0.00000000000E+00 0. -1.
         21    1    1    2  503  501  0.11397428047E+03 -0.77110320966E+02  0.13390250715E+03  0.19200525938E+03  0.00000000000E+00 0.  1.
         21    1    1    2  504  502 -0.13083418735E+03  0.52940704878E+01 -0.24141560713E+03  0.27463995909E+03  0.00000000000E+00 0. -1.
         21    1    1    2  505  504  0.30216074711E+02  0.24184071760E+02  0.88263661303E+03  0.88348473171E+03  0.00000000000E+00 0. -1.
          1    1    1    2  501    0 -0.13356167830E+02  0.47632178718E+02  0.48261431014E+03  0.48514305521E+03  0.00000000000E+00 0. -1.
<scales pt_clust_3="129.82447" pt_clust_4="14000.00000" pt_clust_5="38.70246" pt_clust_6="65.84551"></scales>
<clustering>
<clus scale="   38.702">  1  5  2 -1</clus>
<clus scale="   65.846">  1  6  2 -1</clus>
<clus scale="  129.824">  1  3  2 -1</clus>
<clus scale="  129.824">  2  3  1 -1</clus>
</clustering>
</event>
<event>
 6    0  0.2117869E+002  0.1455034E+03  0.7546771E-02  0.1206110E+00
          1   -1    0    0  503    0 -0.00000000000E+00  0.00000000000E+00  0.57559422443E+03  0.57559422443E+03  0.00000000000E+00 0. -1.
         21   -1    0    0  505  502  0.00000000000E+00 -0.00000000000E+00 -0.93674607855E+03  0.93674607855E+03  0.00000000000E+00 0. -1.
         21    1    1    2  503  504  0.50328632461E+02 -0.11575724354E+03  0.99543325505E+01  0.12661674223E+03  0.00000000000E+00 0.  1.
         21    1    1    2  504  502 -0.10954163484E+03  0.11715413509E+03 -0.82121155193E+03  0.83672747903E+03  0.00000000000E+00 0. -1.
         21    1    1    2  505  501 -0.14603602016E+02 -0.30635013111E+02 -0.40025164712E+02  0.52476499791E+02  0.00000000000E+00 0.  1.
          1    1    1    2  501    0  0.73816604392E+02  0.29238121556E+02  0.49013052997E+03  0.49651958194E+03  0.00000000000E+00 0. -1.
<scales pt_clust_3="145.50341" pt_clust_4="14000.00000" pt_clust_5="33.93773" pt_clust_6="79.30708"></scales>
<clustering>
<clus scale="   33.938">  2  5  1 -1</clus>
<clus scale="   79.307">  1  6  2 -1</clus>
<clus scale="  145.503">  1  3  2 -1</clus>
<clus scale="   33.938">  2  3  1 -1</clus>
</clustering>
</event>
<event>
 6    0  0.2117869E+002  0.9976049E+02  0.7546771E-02  0.1280800E+00
          2   -1    0    0  503    0 -0.00000000000E+00  0.00000000000E+00  0.14842437957E+04  0.14842437957E+04  0.00000000000E+00 0.  1.
         21   -1    0    0  505  502  0.00000000000E+00 -0.00000000000E+00 -0.48699042432E+03  0.48699042432E+03  0.00000000000E+00 0. -1.
         21    1    1    2  503  504  0.77255281898E+02 -0.11056899991E+03  0.11271055636E+03  0.17577699462E+03  0.00000000000E+00 0. -1.
         21    1    1    2  504  502  0.63612602805E+02  0.30760047082E+02 -0.21432772080E+03  0.22567480062E+03  0.00000000000E+00 0. -1.
         21    1    1    2  505  501 -0.50258194336E+02  0.40427175528E+02 -0.22916907496E+03  0.23807290383E+03  0.00000000000E+00 0. -1.
          2    1    1    2  501    0 -0.90609690368E+02  0.39381777302E+02  0.13280396108E+04  0.13317095210E+04  0.00000000000E+00 0.  1.
<scales pt_clust_3="14000.00000" pt_clust_4="68.82496" pt_clust_5="64.49994" pt_clust_6="99.76049"></scales>
<clustering>
<clus scale="   64.500">  2  5  1 -1</clus>
<clus scale="   68.825">  2  4  1 -1</clus>
<clus scale="   99.760">  1  6  2 -1</clus>
<clus scale="   64.500">  2  3  1 -1</clus>
</clustering>
</event>
<event>
 6    0  0.2117869E+002  0.8148950E+02  0.7546771E-02  0.1324877E+00
          2   -1    0    0  504    0 -0.00000000000E+00  0.00000000000E+00  0.97844400326E+03  0.97844400326E+03  0.00000000000E+00 0. -1.
         21   -1    0    0  501  502  0.00000000000E+00 -0.00000000000E+00 -0.90436564648E+03  0.90436564648E+03  0.00000000000E+00 0. -1.
         21    1    1    2  503  505 -0.44149405415E+02 -0.23108708299E+02  0.59435569867E+02  0.77561390931E+02  0.00000000000E+00 0. -1.
         21    1    1    2  504  503 -0.32487298689E+02 -0.70020515851E+01  0.18637517296E+03  0.18931497140E+03  0.00000000000E+00 0. -1.
         21    1    1    2  505  502 -0.54361880106E+02  0.60606709636E+02 -0.88568636396E+03  0.88942044196E+03  0.00000000000E+00 0. -1.
          2    1    1    2  501    0  0.13099858421E+03 -0.30495949752E+02  0.71395397792E+03  0.72651284545E+03  0.00000000000E+00 0. -1.
<scales pt_clust_3="52.61226" pt_clust_4="33.23332" pt_clust_5="14000.00000" pt_clust_6="81.48950"></scales>
<clustering>
<clus scale="   33.233">  1  4  2 -1</clus>
<clus scale="   52.612">  1  3  2 -1</clus>
<clus scale="   81.490">  1  6  2 -1</clus>
<clus scale="   81.490">  2  3  1 -1</clus>
</clustering>
</event>
<event>
 6    0  0.2117869E+002  0.1711853E+03  0.7546771E-02  0.1176617E+00
          2   -1    0    0  503    0 -0.00000000000E+00  0.00000000000E+00  0.23588381818E+04  0.23588381818E+04  0.00000000000E+00 0. -1.
         21   -1    0    0  505  502  0.00000000000E+00 -0.00000000000E+00 -0.17084079502E+03  0.17084079502E+03  0.00000000000E+00 0.  1.
         21    1    1    2  503  504  0.57191430050E+02 -0.27266692716E+02  0.54852848487E+03  0.55217554357E+03  0.00000000000E+00 0.  1.
         21    1    1    2  504  502  0.11083696730E+03 -0.10178538250E+03 -0.11699660985E+03  0.19061296946E+03  0.00000000000E+00 0.  1.
         21    1    1    2  505  501 -0.75862339533E+01 -0.32985959301E+02  0.29390223145E+02  0.44826439442E+02  0.00000000000E+00 0.  1.
          2    1    1    2  501    0 -0.16044216339E+03  0.16203803451E+03  0.17270752886E+04  0.17420640243E+04  0.00000000000E+00 0. -1.
<scales pt_clust_3="63.44197" pt_clust_4="171.18532" pt_clust_5="33.84707" pt_clust_6="14000.00000"></scales>
<clustering>
<clus scale="   33.847">  2  5  1 -1</clus>
<clus scale="   63.442">  1  3  2 -1</clus>
<clus scale="  171.185">  2  4  1 -1</clus>
<clus scale="   33.847">  2  3  1 -1</clus>
</clustering>
</event>
<event>
 6    0  0.2117869E+002  0.1310805E+03  0.7546771E-02  0.1225861E+00
          2   -1    0    0  504    0 -0.00000000000E+00  0.00000000000E+00  0.28355792301E+04  0.28355792301E+04  0.00000000000E+00 0.  1.
         21   -1    0    0  505  502  0.00000000000E+00 -0.00000000000E+00 -0.23060256751E+02  0.23060256751E+02  0.00000000000E+00 0.  1.
         21    1    1    2  503  501  0.25229298302E+01 -0.88713594913E+02  0.35608543048E+03  0.36697861095E+03  0.00000000000E+00 0. -1.
         21    1    1    2  504  502  0.33154670691E+02 -0.47782546598E+02  0.11434309390E+04  0.11449090428E+04  0.00000000000E+00 0. -1.
         21    1    1    2  505  503 -0.42687248636E+01 -0.53770380422E+02  0.67478983967E+02  0.86388014793E+02  0.00000000000E+00 0.  1.
          2    1    1    2  501    0 -0.31408875658E+02  0.19026652193E+03  0.12455236199E+04  0.12603638183E+04  0.00000000000E+00 0.  1.
<scales pt_clust_3="14000.00000" pt_clust_4="60.45441" pt_clust_5="53.93956" pt_clust_6="131.08045"></scales>
<clustering>
<clus scale="   53.940">  2  5  1 -1</clus>
<clus scale="   60.454">  1  4  2 -1</clus>
<clus scale="  131.080">  1  6  2 -1</clus>
<clus scale="   53.940">  2  3  1 -1</clus>
</clustering>
</event>
<event>
 6    0  0.2117869E+002  0.1120767E+03  0.7546771E-02  0.1256772E+00
         21   -1    0    0  504  502  0.00000000000E+00  0.00000000000E+00  0.96082454793E+02  0.96082454793E+02  0.00000000000E+00 0.  1.
          3   -1    0    0  503    0 -0.00000000000E+00 -0.00000000000E+00 -0.26033687287E+04  0.26033687287E+04  0.00000000000E+00 0.  1.
         21    1    1    2  503  505  0.35918703228E+02 -0.31495849309E+01 -0.34737763699E+03  0.34924389158E+03  0.00000000000E+00 0. -1.
         21    1    1    2  504  501 -0.73646851207E+01 -0.10389216127E+03  0.25748408050E+02  0.10728839768E+03  0.00000000000E+00 0.  1.
         21    1    1    2  505  502 -0.33315641183E+02 -0.12751725920E+01  0.17117592693E+02  0.37477593202E+02  0.00000000000E+00 0.  1.
          3    1    1    2  501    0  0.47616230762E+01  0.10831691879E+03 -0.22027746377E+04  0.22054413011E+04  0.00000000000E+00 0.  1.
<scales pt_clust_3="35.60785" pt_clust_4="14000.00000" pt_clust_5="33.34004" pt_clust_6="112.07673"></scales>
<clustering>
<clus scale="   33.340">  1  5  2 -1</clus>
<clus scale="   35.608">  2  3  1 -1</clus>
<clus scale="  112.077">  2  6  1 -1</clus>
<clus scale="   33.340">  1  3  2 -1</clus>
</clustering>
</event>
<event>
 6    0  0.2117869E+002  0.1794058E+03  0.7546771E-02  0.1168379E+00
         21   -1    0    0  504  502  0.00000000000E+00  0.00000000000E+00  0.51287573925E+03  0.51287573925E+03  0.00000000000E+00 0.  1.
          2   -1    0    0  505    0 -0.00000000000E+00 -0.00000000000E+00 -0.12056905247E+04  0.12056905247E+04  0.00000000000E+00 0.  1.
         21    1    1    2  503  501  0.22794698675E+03  0.78830665325E+01 -0.67201618679E+03  0.70966733532E+03  0.00000000000E+00 0.  1.
         21    1    1    2  504  503 -0.51587528379E+02 -0.23427364672E+02  0.16545368575E+03  0.17488578166E+03  0.00000000000E+00 0. -1.
         21    1    1    2  505  502 -0.26907282144E+02  0.36015800455E+02  0.31107755658E+03  0.31430937931E+03  0.00000000000E+00 0.  1.
          2    1    1    2  501    0 -0.14945217623E+03 -0.20471502315E+02 -0.49732984096E+03  0.51970376764E+03  0.00000000000E+00 0.  1.
<scales pt_clust_3="179.40583" pt_clust_4="74.80692" pt_clust_5="44.95709" pt_clust_6="14000.00000"></scales>
<clustering>
<clus scale="   44.957">  1  5  2 -1</clus>
<clus scale="   74.807">  1  4  2 -1</clus>
<clus scale="  179.406">  1  3  2 -1</clus>
<clus scale="   44.957">  1  3  2 -1</clus>
</clustering>
</event>
<event>
 6    0  0.2117869E+002  0.9372554E+02  0.7546771E-02  0.1294073E+00
          1   -1    0    0  503    0 -0.00000000000E+00  0.00000000000E+00  0.47122779236E+03  0.47122779236E+03  0.00000000000E+00 0.  1.
         21   -1    0    0  505  502  0.00000000000E+00 -0.00000000000E+00 -0.14106796145E+03  0.14106796145E+03  0.00000000000E+00 0. -1.
         21    1    1    2  503  504 -0.30737302634E+02 -0.13555332077E+02  0.46296772488E+02  0.57200698805E+02  0.00000000000E+00 0.  1.
         21    1    1    2  504  502 -0.22067384608E+02  0.27955667577E+02  0.95168122813E+01  0.36865411012E+02  0.00000000000E+00 0.  1.
         21    1    1    2  505  501 -0.69172134258E+02 -0.42787240614E+02 -0.96851747281E+02  0.12647447596E+03  0.00000000000E+00 0. -1.
          1    1    1    2  501    0  0.12197682150E+03  0.28386905115E+02  0.37119799342E+03  0.39175516804E+03  0.00000000000E+00 0.  1.
<scales pt_clust_3="33.59358" pt_clust_4="36.12529" pt_clust_5="14000.00000" pt_clust_6="93.72554"></scales>
<clustering>
<clus scale="   33.594">  1  3  2 -1</clus>
<clus scale="   36.125">  2  4  1 -1</clus>
<clus scale="   93.726">  1  6  2 -1</clus>
<clus scale="   36.125">  2  3  1 -1</clus>
</clustering>
</event>
<event>
 6    0  0.2117869E+002  0.9863969E+02  0.7546771E-02  0.1283183E+00
         -4   -1    0    0    0  501 -0.00000000000E+00  0.00000000000E+00  0.19348691119E+03  0.19348691119E+03  0.00000000000E+00 0. -1.
         21   -1    0    0  503  502  0.00000000000E+00 -0.00000000000E+00 -0.14013625025E+03  0.14013625025E+03  0.00000000000E+00 0.  1.
         21    1    1    2  503  501 -0.21251367139E+02  0.26938751346E+02  0.45714310394E+02  0.57158683542E+02  0.00000000000E+00 0. -1.
         21    1    1    2  504  505  0.83678843457E+02 -0.32921458799E+02 -0.34574030465E+02  0.96339684837E+02  0.00000000000E+00 0.  1.
         21    1    1    2  505  502  0.33529386943E+02  0.35408224584E+02 -0.29298304030E+02  0.56888951265E+02  0.00000000000E+00 0.  1.
         -4    1    1    2    0  504 -0.95956863261E+02 -0.29425517131E+02  0.71508685039E+02  0.12323584179E+03  0.00000000000E+00 0. -1.
<scales pt_clust_3="34.31205" pt_clust_4="14000.00000" pt_clust_5="49.35520" pt_clust_6="98.63969"></scales>
<clustering>
<clus scale="   34.312">  1  3  2 -1</clus>
<clus scale="   49.355">  2  5  1 -1</clus>
<clus scale="   98.640">  1  6  2 -1</clus>
<clus scale="   49.355">  2  3  1 -1</clus>
</clustering>
</event>
<event>
 6    0  0.2117869E+002  0.1652850E+03  0.7546771E-02  0.1182856E+00
         21   -1    0    0  501  502  0.00000000000E+00  0.00000000000E+00  0.21607117353E+03  0.21607117353E+03  0.00000000000E+00 0. -1.
          2   -1    0    0  505    0 -0.00000000000E+00 -0.00000000000E+00 -0.15069920448E+04  0.15069920448E+04  0.00000000000E+00 0.  1.
         21    1    1    2  503  502  0.63590611262E+01  0.57480514958E+02  0.18200562927E+03  0.19097250154E+03  0.00000000000E+00 0. -1.
         21    1    1    2  504  503  0.81852864752E+02  0.92646453247E+01 -0.15402126062E+03  0.17466617831E+03  0.00000000000E+00 0. -1.
         21    1    1    2  505  504  0.62001653174E+02 -0.51691197024E+02 -0.96849640396E+02  0.12607948957E+03  0.00000000000E+00 0.  1.
          2    1    1    2  501    0 -0.15021357905E+03 -0.15053963259E+02 -0.12220555995E+04  0.12313450489E+04  0.00000000000E+00 0.  1.
<scales pt_clust_3="57.83120" pt_clust_4="62.43929" pt_clust_5="62.43929" pt_clust_6="149.33688"></scales>
<clustering>
<clus scale="   57.831">  1  3  2 -1</clus>
<clus scale="   62.439">  4  5 -1 -1</clus>
<clus scale="  149.337">  2  6  1 -1</clus>
<clus scale="   57.831">  1  3  2 -1</clus>
</clustering>
</event>
<event>
 6    0  0.2117869E+002  0.1270317E+03  0.7546771E-02  0.1231928E+00
         21   -1    0    0  505  502  0.00000000000E+00  0.00000000000E+00  0.30229741216E+03  0.30229741216E+03  0.00000000000E+00 0. -1.
          2   -1    0    0  503    0 -0.00000000000E+00 -0.00000000000E+00 -0.28496026735E+04  0.28496026735E+04  0.00000000000E+00 0.  1.
         21    1    1    2  503  504  0.27631399066E+02 -0.14241190691E+02 -0.87415245581E+02  0.92777857739E+02  0.00000000000E+00 0.  1.
         21    1    1    2  504  502  0.11335474268E+03  0.55631604770E+02  0.18124960257E+03  0.22089724210E+03  0.00000000000E+00 0. -1.
         21    1    1    2  505  501 -0.14824744945E+03  0.27184580121E+02  0.40208341976E+02  0.15599044339E+03  0.00000000000E+00 0. -1.
          2    1    1    2  501    0  0.72613077065E+01 -0.68574994200E+02 -0.26813479603E+04  0.26822345424E+04  0.00000000000E+00 0.  1.
<scales pt_clust_3="31.08546" pt_clust_4="14000.00000" pt_clust_5="127.03174" pt_clust_6="89.19671"></scales>
<clustering>
<clus scale="   31.085">  2  3  1 -1</clus>
<clus scale="   89.197">  2  6  1 -1</clus>
<clus scale="  127.032">  2  5  1 -1</clus>
<clus scale="  127.032">  1  3  2 -1</clus>
</clustering>
</event>
<event>
 6    0  0.2117869E+002  0.1217566E+03  0.7546771E-02  0.1240227E+00
          2   -1    0    0  503    0 -0.00000000000E+00  0.00000000000E+00  0.30280294671E+04  0.30280294671E+04  0.00000000000E+00 0. -1.
         21   -1    0    0  505  502  0.00000000000E+00 -0.00000000000E+00 -0.25404292756E+02  0.25404292756E+02  0.00000000000E+00 0. -1.
         21    1    1    2  503  504 -0.81575889159E+01  0.30220488493E+02  0.46304838843E+03  0.46410519735E+03  0.00000000000E+00 0. -1.
         21    1    1    2  504  502  0.20709526624E+02  0.11324939179E+03  0.29380997132E+03  0.31556078413E+03  0.00000000000E+00 0. -1.
         21    1    1    2  505  501 -0.85634782536E+02 -0.10797028054E+03  0.34843325635E+03  0.37469538507E+03  0.00000000000E+00 0. -1.
          2    1    1    2  501    0  0.73082844828E+02 -0.35499599740E+02  0.18973335582E+04  0.18990723933E+04  0.00000000000E+00 0. -1.
<scales pt_clust_3="31.30214" pt_clust_4="14000.00000" pt_clust_5="121.75662" pt_clust_6="68.31829"></scales>
<clustering>
<clus scale="   31.302">  1  3  2 -1</clus>
<clus scale="   68.318">  1  6  2 -1</clus>
<clus scale="  121.757">  1  5  2 -1</clus>
<clus scale="  121.757">  2  3  1 -1</clus>
</clustering>
</event>
<event>
 6    0  0.2117869E+002  0.6955964E+02  0.7546771E-02  0.1361597E+00
          2   -1    0    0  505    0 -0.00000000000E+00  0.00000000000E+00  0.86838991026E+03  0.86838991026E+03  0.00000000000E+00 0. -1.
         21   -1    0    0  504  502  0.00000000000E+00 -0.00000000000E+00 -0.89888678565E+03  0.89888678565E+03  0.00000000000E+00 0. -1.
         21    1    1    2  503  502  0.91633702095E+02  0.45466530650E+02 -0.56562492011E+03  0.57480039232E+03  0.00000000000E+00 0. -1.
         21    1    1    2  504  501 -0.39978597338E+02 -0.36157138785E+02 -0.30889953779E+03  0.31356745906E+03  0.00000000000E+00 0. -1.
         21    1    1    2  505  503  0.11581143664E+02 -0.41043639602E+02  0.12589344037E+02  0.44465658925E+02  0.00000000000E+00 0.  1.
          2    1    1    2  501    0 -0.63236248421E+02  0.31734247737E+02  0.83143823847E+03  0.83444318560E+03  0.00000000000E+00 0. -1.
<scales pt_clust_3="69.55964" pt_clust_4="14000.00000" pt_clust_5="42.64626" pt_clust_6="52.52238"></scales>
<clustering>
<clus scale="   42.646">  1  5  2 -1</clus>
<clus scale="   52.522">  1  6  2 -1</clus>
<clus scale="   69.560">  1  3  2 -1</clus>
<clus scale="   69.560">  2  3  1 -1</clus>
</clustering>
</event>
<event>
 6    0  0.2117869E+002  0.6831053E+02  0.7546771E-02  0.1365934E+00
         21   -1    0    0  501  502  0.00000000000E+00  0.00000000000E+00  0.89600604711E+02  0.89600604711E+02  0.00000000000E+00 0. -1.
          2   -1    0    0  503    0 -0.00000000000E+00 -0.00000000000E+00 -0.33053346971E+03  0.33053346971E+03  0.00000000000E+00 0. -1.
         21    1    1    2  503  505  0.41318911556E+02  0.27028288632E+02 -0.11122974719E+03  0.12169567576E+03  0.00000000000E+00 0. -1.
         21    1    1    2  504  502 -0.33255133776E+02  0.65973766720E+02  0.19298582666E+01  0.73906469071E+02  0.00000000000E+00 0. -1.
         21    1    1    2  505  504  0.68892383455E+02 -0.23824975573E+02 -0.28017514408E+02  0.78094628963E+02  0.00000000000E+00 0. -1.
          2    1    1    2  501    0 -0.76956161236E+02 -0.69177079780E+02 -0.10361546168E+03  0.14643730064E+03  0.00000000000E+00 0. -1.
<scales pt_clust_3="49.37389" pt_clust_4="14000.00000" pt_clust_5="68.31053" pt_clust_6="75.10683"></scales>
<clustering>
<clus scale="   49.374">  2  3  1 -1</clus>
<clus scale="   75.107">  2  6  1 -1</clus>
<clus scale="   68.311">  2  5  1 -1</clus>
<clus scale="   68.311">  1  3  2 -1</clus>
</clustering>
</event>
<event>
 6    0  0.2117869E+002  0.9576730E+02  0.7546771E-02  0.1289457E+00
         21   -1    0    0  501  502  0.00000000000E+00  0.00000000000E+00  0.23223429940E+03  0.23223429940E+03  0.00000000000E+00 0.  1.
          3   -1    0    0  504    0 -0.00000000000E+00 -0.00000000000E+00 -0.17753336427E+03  0.17753336427E+03  0.00000000000E+00 0.  1.
         21    1    1    2  503  505  0.55520338886E+02  0.19334144913E+02 -0.30599079008E+02  0.66276849847E+02  0.00000000000E+00 0.  1.
         21    1    1    2  504  503 -0.37898287706E+02 -0.22765744706E+01 -0.67365674178E+01  0.38559620627E+02  0.00000000000E+00 0. -1.
         21    1    1    2  505  502 -0.49068851168E+02  0.81384660778E+02  0.15652657138E+03  0.18311685535E+03  0.00000000000E+00 0.  1.
          3    1    1    2  501    0  0.31446799988E+02 -0.98442231220E+02 -0.64489989820E+02  0.12181433784E+03  0.00000000000E+00 0.  1.
<scales pt_clust_3="47.47316" pt_clust_4="37.96660" pt_clust_5="14000.00000" pt_clust_6="95.76730"></scales>
<clustering>
<clus scale="   37.967">  2  4  1 -1</clus>
<clus scale="   47.473">  2  3  1 -1</clus>
<clus scale="   95.767">  2  6  1 -1</clus>
<clus scale="   95.767">  1  3  2 -1</clus>
</clustering>
</event>
<event>
 6    0  0.2117869E+002  0.1287821E+03  0.7546771E-02  0.1229274E+00
         21   -1    0    0  504  502  0.00000000000E+00  0.00000000000E+00  0.37351343721E+03  0.37351343721E+03  0.00000000000E+00 0. -1.
          3   -1    0    0  505    0 -0.00000000000E+00 -0.00000000000E+00 -0.30010536407E+03  0.30010536407E+03  0.00000000000E+00 0.  1.
         21    1    1    2  503  501 -0.28404118538E+02  0.26189072172E+02 -0.13732354648E+03  0.14265489080E+03  0.00000000000E+00 0.  1.
         21    1    1    2  504  503  0.15147814755E+03 -0.77989271634E+02  0.16917162374E+03  0.24009788411E+03  0.00000000000E+00 0. -1.
         21    1    1    2  505  502 -0.59607172475E+02  0.78990857181E+01  0.14779622409E+03  0.15955918783E+03  0.00000000000E+00 0.  1.
          3    1    1    2  501    0 -0.63466856537E+02  0.43901113744E+02 -0.10623622820E+03  0.13130683854E+03  0.00000000000E+00 0.  1.
<scales pt_clust_3="34.52398" pt_clust_4="119.18089" pt_clust_5="60.12828" pt_clust_6="34.52398"></scales>
<clustering>
<clus scale="   34.524">  3  6 -1 -1</clus>
<clus scale="   60.128">  1  5  2 -1</clus>
<clus scale="  119.181">  1  4  2 -1</clus>
<clus scale="   60.128">  1  3  2 -1</clus>
</clustering>
</event>
<event>
 6    0  0.2117869E+002  0.5785222E+02  0.7546771E-02  0.1407073E+00
         21   -1    0    0  504  502  0.00000000000E+00  0.00000000000E+00  0.16038335990E+03  0.16038335990E+03  0.00000000000E+00 0.  1.
          2   -1    0    0  503    0 -0.00000000000E+00 -0.00000000000E+00 -0.12949320638E+04  0.12949320638E+04  0.00000000000E+00 0. -1.
         21    1    1    2  503  505  0.11175568889E+02  0.32189603441E+02 -0.39957405661E+03  0.40102430179E+03  0.00000000000E+00 0.  1.
         21    1    1    2  504  501  0.53462635410E+02 -0.19076571501E+02  0.14123666025E+03  0.15221682944E+03  0.00000000000E+00 0.  1.
         21    1    1    2  505  502 -0.10691622003E+03  0.24439593063E+02 -0.24611503433E+03  0.26944569385E+03  0.00000000000E+00 0.  1.
          2    1    1    2  501    0  0.42278015727E+02 -0.37552625002E+02 -0.63009627320E+03  0.63262859860E+03  0.00000000000E+00 0. -1.
<scales pt_clust_3="34.07439" pt_clust_4="14000.00000" pt_clust_5="57.85222" pt_clust_6="52.31263"></scales>
<clustering>
<clus scale="   34.074">  2  3  1 -1</clus>
<clus scale="   52.313">  2  6  1 -1</clus>
<clus scale="   57.852">  2  5  1 -1</clus>
<clus scale="   57.852">  1  3  2 -1</clus>
</clustering>
</event>
<event>
 6    0  0.3946171E+002  0.7409345E+02  0.7546771E-02  0.1346702E+00
         21   -1    0    0  505  502  0.00000000000E+00  0.00000000000E+00  0.11021608790E+04  0.11021608790E+04  0.00000000000E+00 0.  1.
         -2   -1    0    0    0  501 -0.00000000000E+00 -0.00000000000E+00 -0.59264666297E+03  0.59264666297E+03  0.00000000000E+00 0. -1.
         21    1    1    2  503  501  0.26544289914E+01 -0.52140719436E+02 -0.30996254223E+02  0.60716294291E+02  0.00000000000E+00 0. -1.
         21    1    1    2  504  502 -0.20120818307E+02 -0.29359717863E+02  0.24158225247E+02  0.43016975829E+02  0.00000000000E+00 0.  1.
         21    1    1    2  505  503  0.93475080212E+02  0.37027898580E+02  0.10476824393E+04  0.10524956767E+04  0.00000000000E+00 0.  1.
         -2    1    1    2    0  504 -0.76008690896E+02  0.44472538719E+02 -0.53133019428E+03  0.53857859514E+03  0.00000000000E+00 0. -1.
<scales pt_clust_3="52.60263" pt_clust_4="35.59270" pt_clust_5="14000.00000" pt_clust_6="74.09345"></scales>
<clustering>
<clus scale="   35.593">  1  4  2 -1</clus>
<clus scale="   52.603">  2  3  1 -1</clus>
<clus scale="   74.093">  2  6  1 -1</clus>
<clus scale="   35.593">  1  3  2 -1</clus>
</clustering>
</event>
<event>
 6    0  0.2117869E+002  0.1633866E+03  0.7546771E-02  0.1184925E+00
         21   -1    0    0  504  502  0.00000000000E+00  0.00000000000E+00  0.12331506825E+03  0.12331506825E+03  0.00000000000E+00 0. -1.
          2   -1    0    0  505    0 -0.00000000000E+00 -0.00000000000E+00 -0.17475483947E+04  0.17475483947E+04  0.00000000000E+00 0. -1.
         21    1    1    2  503  502  0.26897199362E+02  0.16536113849E+03  0.10404316160E+02  0.16785712749E+03  0.00000000000E+00 0. -1.
         21    1    1    2  504  501  0.56113857992E+02 -0.93633480851E+00 -0.17952602439E+03  0.18809368733E+03  0.00000000000E+00 0. -1.
         21    1    1    2  505  503 -0.47313405480E+02 -0.14666006673E+03 -0.17104172825E+03  0.23022381787E+03  0.00000000000E+00 0. -1.
          2    1    1    2  501    0 -0.35697651874E+02 -0.17764736946E+02 -0.12840698900E+04  0.12846888303E+04  0.00000000000E+00 0. -1.
<scales pt_clust_3="163.38663" pt_clust_4="42.70064" pt_clust_5="14000.00000" pt_clust_6="39.87365"></scales>
<clustering>
<clus scale="   39.874">  2  6  1 -1</clus>
<clus scale="   42.701">  2  4  1 -1</clus>
<clus scale="  163.387">  1  3  2 -1</clus>
<clus scale="  163.387">  1  3  2 -1</clus>
</clustering>
</event>
<event>
 6    0  0.2117869E+002  0.3315493E+03  0.7546771E-02  0.1070453E+00
          1   -1    0    0  504    0 -0.00000000000E+00  0.00000000000E+00  0.17080502880E+04  0.17080502880E+04  0.00000000000E+00 0. -1.
         21   -1    0    0  505  502  0.00000000000E+00 -0.00000000000E+00 -0.73169276770E+03  0.73169276770E+03  0.00000000000E+00 0.  1.
         21    1    1    2  503  501 -0.10760091379E+03 -0.54730153874E+02  0.50895977725E+02  0.13101048408E+03  0.00000000000E+00 0. -1.
         21    1    1    2  504  502  0.18125117631E+00 -0.21632147378E+03 -0.61316979431E+03  0.65020935823E+03  0.00000000000E+00 0.  1.
         21    1    1    2  505  503 -0.32372681046E+02 -0.33748970936E+02 -0.29266275219E+02  0.55167910804E+02  0.00000000000E+00 0. -1.
          1    1    1    2  501    0  0.13979234366E+03  0.30480059859E+03  0.15678976121E+04  0.16033553026E+04  0.00000000000E+00 0. -1.
<scales pt_clust_3="123.28870" pt_clust_4="331.54929" pt_clust_5="46.76520" pt_clust_6="14000.00000"></scales>
<clustering>
<clus scale="   46.765">  2  5  1 -1</clus>
<clus scale="  123.289">  2  3  1 -1</clus>
<clus scale="  331.549">  2  4  1 -1</clus>
<clus scale="   46.765">  2  3  1 -1</clus>
</clustering>
</event>
<event>
 6    0  0.2117869E+002  0.1086249E+03  0.7546771E-02  0.1263138E+00
         21   -1    0    0  503  502  0.00000000000E+00  0.00000000000E+00  0.12438700120E+03  0.12438700120E+03  0.00000000000E+00 0.  1.
          2   -1    0    0  504    0 -0.00000000000E+00 -0.00000000000E+00 -0.36003091833E+03  0.36003091833E+03  0.00000000000E+00 0. -1.
         21    1    1    2  503  501 -0.14486345597E+01 -0.45606312440E+02  0.30103474767E+01  0.45728508268E+02  0.00000000000E+00 0.  1.
         21    1    1    2  504  505  0.41277586021E+02 -0.71427535674E+02 -0.10610860748E+03  0.13440524001E+03  0.00000000000E+00 0.  1.
         21    1    1    2  505  502  0.83906335047E+02 -0.11003000961E+02 -0.40807200739E+01  0.84723027374E+02  0.00000000000E+00 0.  1.
          2    1    1    2  501    0 -0.12373528651E+03  0.12803684907E+03 -0.12846493706E+03  0.21956114388E+03  0.00000000000E+00 0. -1.
<scales pt_clust_3="45.62931" pt_clust_4="88.04596" pt_clust_5="108.62490" pt_clust_6="14000.00000"></scales>
<clustering>
<clus scale="   45.629">  1  3  2 -1</clus>
<clus scale="   88.046">  2  4  1 -1</clus>
<clus scale="  108.625">  1  5  2 -1</clus>
<clus scale="   45.629">  1  3  2 -1</clus>
</clustering>
</event>
<event>
 6    0  0.2117869E+002  0.1236226E+03  0.7546771E-02  0.1237238E+00
          2   -1    0    0  503    0 -0.00000000000E+00  0.00000000000E+00  0.14643807921E+03  0.14643807921E+03  0.00000000000E+00 0.  1.
         21   -1    0    0  505  502  0.00000000000E+00 -0.00000000000E+00 -0.45817513841E+03  0.45817513841E+03  0.00000000000E+00 0. -1.
         21    1    1    2  503  504  0.43122187331E+02 -0.50174044318E+02 -0.70883551638E+01  0.66537226741E+02  0.00000000000E+00 0. -1.
         21    1    1    2  504  502 -0.20863133796E+02  0.32475405312E+02 -0.58985416955E+02  0.70492564965E+02  0.00000000000E+00 0.  1.
         21    1    1    2  505  501  0.12016583500E+03 -0.70613468504E+02 -0.26447005670E+03  0.29894899352E+03  0.00000000000E+00 0. -1.
          2    1    1    2  501    0 -0.14242488853E+03  0.88312107510E+02  0.18806769613E+02  0.16863443239E+03  0.00000000000E+00 0.  1.
<scales pt_clust_3="62.58372" pt_clust_4="38.59951" pt_clust_5="14000.00000" pt_clust_6="123.62257"></scales>
<clustering>
<clus scale="   38.600">  2  4  1 -1</clus>
<clus scale="   62.584">  1  3  2 -1</clus>
<clus scale="  123.623">  1  6  2 -1</clus>
<clus scale="   38.600">  2  3  1 -1</clus>
</clustering>
</event>
<event>
 6    0  0.2117869E+002  0.1375362E+03  0.7546771E-02  0.1216683E+00
         21   -1    0    0  503  502  0.00000000000E+00  0.00000000000E+00  0.12676594333E+03  0.12676594333E+03  0.00000000000E+00 0.  1.
          2   -1    0    0  504    0 -0.00000000000E+00 -0.00000000000E+00 -0.17855837268E+04  0.17855837268E+04  0.00000000000E+00 0.  1.
         21    1    1    2  503  501  0.62892352929E+02 -0.22541711445E+02 -0.19578229138E+02  0.69619565267E+02  0.00000000000E+00 0.  1.
         21    1    1    2  504  505  0.77503813007E+01 -0.44234087505E+02 -0.13296519502E+04  0.13304100991E+04  0.00000000000E+00 0.  1.
         21    1    1    2  505  502  0.79324084377E+02  0.57089694331E+02  0.59078824790E+02  0.11420092425E+03  0.00000000000E+00 0.  1.
          2    1    1    2  501    0 -0.14996681861E+03  0.96861046188E+01 -0.36866642893E+03  0.39811908159E+03  0.00000000000E+00 0.  1.
<scales pt_clust_3="69.09112" pt_clust_4="44.90794" pt_clust_5="14000.00000" pt_clust_6="137.53617"></scales>
<clustering>
<clus scale="   44.908">  2  4  1 -1</clus>
<clus scale="   69.091">  1  3  2 -1</clus>
<clus scale="  137.536">  2  6  1 -1</clus>
<clus scale="   69.091">  1  3  2 -1</clus>
</clustering>
</event>
<event>
 6    0  0.2117869E+002  0.1500260E+03  0.7546771E-02  0.1200441E+00
         21   -1    0    0  503  502  0.00000000000E+00  0.00000000000E+00  0.45800044661E+03  0.45800044661E+03  0.00000000000E+00 0. -1.
          2   -1    0    0  504    0 -0.00000000000E+00 -0.00000000000E+00 -0.25669653145E+03  0.25669653145E+03  0.00000000000E+00 0. -1.
         21    1    1    2  503  501 -0.22625643793E+02 -0.12145070418E+03  0.31821869595E+03  0.34135806971E+03  0.00000000000E+00 0. -1.
         21    1    1    2  504  505  0.14409801019E+02  0.31816629331E+02 -0.21073211646E+02  0.40792407584E+02  0.00000000000E+00 0. -1.
         21    1    1    2  505  502  0.38676352611E+02  0.14942709707E+03  0.57856190615E+02  0.16483827341E+03  0.00000000000E+00 0. -1.
          2    1    1    2  501    0 -0.30460509837E+02 -0.59793022222E+02 -0.15369775976E+03  0.16770822735E+03  0.00000000000E+00 0. -1.
<scales pt_clust_3="131.31728" pt_clust_4="34.51194" pt_clust_5="34.51194" pt_clust_6="67.10476"></scales>
<clustering>
<clus scale="   34.512">  4  5 -1 -1</clus>
<clus scale="   67.105">  2  6  1 -1</clus>
<clus scale="  131.317">  1  3  2 -1</clus>
<clus scale="  131.317">  1  3  2 -1</clus>
</clustering>
</event>
<event>
 6    0  0.2117869E+002  0.1059247E+03  0.7546771E-02  0.1268308E+00
         21   -1    0    0  505  502  0.00000000000E+00  0.00000000000E+00  0.42304542537E+02  0.42304542537E+02  0.00000000000E+00 0.  1.
         -2   -1    0    0    0  501 -0.00000000000E+00 -0.00000000000E+00 -0.38042722052E+04  0.38042722052E+04  0.00000000000E+00 0. -1.
         21    1    1    2  503  501  0.14816111180E+02 -0.28082127217E+02 -0.43320682942E+03  0.43436882954E+03  0.00000000000E+00 0. -1.
         21    1    1    2  504  502  0.22311540167E+01 -0.52204672522E+02  0.47550928911E+01  0.52468245537E+02  0.00000000000E+00 0.  1.
         21    1    1    2  505  503 -0.10095041076E+03  0.91679139289E+02 -0.35913244904E+03  0.38415122799E+03  0.00000000000E+00 0. -1.
         -2    1    1    2    0  504  0.83903145561E+02 -0.11392339550E+02 -0.29743834771E+04  0.29755884447E+04  0.00000000000E+00 0. -1.
<scales pt_clust_3="31.75095" pt_clust_4="52.45548" pt_clust_5="14000.00000" pt_clust_6="105.92469"></scales>
<clustering>
<clus scale="   31.751">  2  3  1 -1</clus>
<clus scale="   52.455">  1  4  2 -1</clus>
<clus scale="  105.925">  2  6  1 -1</clus>
<clus scale="   52.455">  1  3  2 -1</clus>
</clustering>
</event>
<event>
 6    0  0.2117869E+002  0.7308093E+02  0.7546771E-02  0.1349919E+00
         21   -1    0    0  505  502  0.00000000000E+00  0.00000000000E+00  0.88653134546E+02  0.88653134546E+02  0.00000000000E+00 0.  1.
          2   -1    0    0  504    0 -0.00000000000E+00 -0.00000000000E+00 -0.36269415587E+04  0.36269415587E+04  0.00000000000E+00 0. -1.
         21    1    1    2  503  502 -0.65955067853E+02 -0.36120808745E+00 -0.40389761252E+02  0.77340379238E+02  0.00000000000E+00 0.  1.
         21    1    1    2  504  503  0.29438988665E+02  0.32870190839E+02 -0.22539133054E+03  0.22967010119E+03  0.00000000000E+00 0. -1.
         21    1    1    2  505  501  0.64110508395E+02  0.47639972075E+02  0.43867172598E+02  0.91126577120E+02  0.00000000000E+00 0.  1.
          2    1    1    2  501    0 -0.27594429207E+02 -0.80148954826E+02 -0.33163745050E+04  0.33174576357E+04  0.00000000000E+00 0. -1.
<scales pt_clust_3="14000.00000" pt_clust_4="44.12600" pt_clust_5="73.08093" pt_clust_6="48.08972"></scales>
<clustering>
<clus scale="   44.126">  2  4  1 -1</clus>
<clus scale="   48.090">  2  6  1 -1</clus>
<clus scale="   73.081">  1  5  2 -1</clus>
<clus scale="   73.081">  1  3  2 -1</clus>
</clustering>
</event>
<event>
 6    0  0.2117869E+002  0.1324078E+03  0.7546771E-02  0.1223926E+00
         -2   -1    0    0    0  501 -0.00000000000E+00  0.00000000000E+00  0.13307054741E+03  0.13307054741E+03  0.00000000000E+00 0. -1.
         21   -1    0    0  505  502  0.00000000000E+00 -0.00000000000E+00 -0.12513362909E+04  0.12513362909E+04  0.00000000000E+00 0. -1.
         21    1    1    2  503  504  0.69425839161E+02 -0.43033388060E+02 -0.10719450523E+02  0.82381589269E+02  0.00000000000E+00 0.  1.
         21    1    1    2  504  502 -0.89442790877E+02  0.92257581345E+02 -0.89069795328E+03  0.89991906199E+03  0.00000000000E+00 0. -1.
         21    1    1    2  505  501 -0.48067082557E+02 -0.36896454192E+02 -0.29300889230E+03  0.29920896331E+03  0.00000000000E+00 0. -1.
         -2    1    1    2    0  503  0.68084034273E+02 -0.12327739094E+02  0.76160552623E+02  0.10289722372E+03  0.00000000000E+00 0. -1.
<scales pt_clust_3="132.40776" pt_clust_4="14000.00000" pt_clust_5="60.59532" pt_clust_6="68.62405"></scales>
<clustering>
<clus scale="   60.595">  2  5  1 -1</clus>
<clus scale="   68.624">  1  6  2 -1</clus>
<clus scale="  132.408">  1  3  2 -1</clus>
<clus scale="   60.595">  2  3  1 -1</clus>
</clustering>
</event>
<event>
 6    0  0.2117869E+002  0.9667465E+02  0.7546771E-02  0.1287448E+00
         -1   -1    0    0    0  501 -0.00000000000E+00  0.00000000000E+00  0.78720312532E+03  0.78720312532E+03  0.00000000000E+00 0.  1.
         21   -1    0    0  503  502  0.00000000000E+00 -0.00000000000E+00 -0.16412197745E+03  0.16412197745E+03  0.00000000000E+00 0. -1.
         21    1    1    2  503  505 -0.45184093002E+02  0.27741070202E+02 -0.11526390256E+03  0.12687370283E+03  0.00000000000E+00 0. -1.
         21    1    1    2  504  502 -0.34557873332E+02  0.29935292670E+02 -0.12573737543E+02  0.47418005360E+02  0.00000000000E+00 0.  1.
         21    1    1    2  505  501 -0.22705271050E+02  0.44309325962E+02  0.12309774817E+03  0.13278516975E+03  0.00000000000E+00 0. -1.
         -1    1    1    2    0  504  0.10244723738E+03 -0.10198568883E+03  0.62782103980E+03  0.64424822482E+03  0.00000000000E+00 0.  1.
<scales pt_clust_3="96.67465" pt_clust_4="45.72055" pt_clust_5="51.32295" pt_clust_6="14000.00000"></scales>
<clustering>
<clus scale="   45.721">  2  4  1 -1</clus>
<clus scale="   51.323">  1  5  2 -1</clus>
<clus scale="   96.675">  2  3  1 -1</clus>
<clus scale="   45.721">  2  3  1 -1</clus>
</clustering>
</event>
<event>
 6    0  0.2117869E+002  0.1392659E+03  0.7546771E-02  0.1214320E+00
          2   -1    0    0  503    0 -0.00000000000E+00  0.00000000000E+00  0.17426884030E+04  0.17426884030E+04  0.00000000000E+00 0. -1.
         21   -1    0    0  501  502  0.00000000000E+00 -0.00000000000E+00 -0.56566557164E+02  0.56566557164E+02  0.00000000000E+00 0. -1.
         21    1    1    2  503  504 -0.90636986813E+02  0.54848329683E+02  0.50118666282E+03  0.51226113812E+03  0.00000000000E+00 0. -1.
         21    1    1    2  504  505 -0.12396226429E+03 -0.88190405303E+02  0.52242535302E+03  0.54412538999E+03  0.00000000000E+00 0. -1.
         21    1    1    2  505  502  0.53127203066E+02  0.11576238968E+03  0.13745253808E+03  0.18739431900E+03  0.00000000000E+00 0. -1.
          2    1    1    2  501    0  0.16147204803E+03 -0.82420314056E+02  0.52505729189E+03  0.55547411302E+03  0.00000000000E+00 0. -1.
<scales pt_clust_3="105.94056" pt_clust_4="139.26586" pt_clust_5="129.69370" pt_clust_6="14000.00000"></scales>
<clustering>
<clus scale="  105.941">  1  3  2 -1</clus>
<clus scale="  129.694">  2  5  1 -1</clus>
<clus scale="  139.266">  2  4  1 -1</clus>
<clus scale="  129.694">  2  3  1 -1</clus>
</clustering>
</event>
<event>
 6    0  0.2117869E+002  0.1619996E+03  0.7546771E-02  0.1186458E+00
         21   -1    0    0  501  502  0.00000000000E+00  0.00000000000E+00  0.15437413885E+03  0.15437413885E+03  0.00000000000E+00 0.  1.
          2   -1    0    0  503    0 -0.00000000000E+00 -0.00000000000E+00 -0.36908972146E+04  0.36908972146E+04  0.00000000000E+00 0. -1.
         21    1    1    2  503  505 -0.22327577608E+01  0.63651669666E+02 -0.43415040474E+03  0.43879732702E+03  0.00000000000E+00 0. -1.
         21    1    1    2  504  502  0.56155459013E+02 -0.14026966397E+03  0.11251890679E+03  0.18838662000E+03  0.00000000000E+00 0.  1.
         21    1    1    2  505  504 -0.49229628436E+02  0.31796135076E+02 -0.61061619791E+03  0.61342211541E+03  0.00000000000E+00 0. -1.
          2    1    1    2  501    0 -0.46930728159E+01  0.44821859232E+02 -0.26042753799E+04  0.26046652910E+04  0.00000000000E+00 0. -1.
<scales pt_clust_3="60.40989" pt_clust_4="149.57955" pt_clust_5="60.40989" pt_clust_6="45.06688"></scales>
<clustering>
<clus scale="   45.067">  2  6  1 -1</clus>
<clus scale="   60.410">  3  5 -1 -1</clus>
<clus scale="  149.580">  1  4  2 -1</clus>
<clus scale="  149.580">  1  3  2 -1</clus>
</clustering>
</event>
<event>
 6    0  0.2117869E+002  0.1490070E+03  0.7546771E-02  0.1201698E+00
         21   -1    0    0  503  502  0.00000000000E+00  0.00000000000E+00  0.21097220602E+04  0.21097220602E+04  0.00000000000E+00 0.  1.
          1   -1    0    0  504    0 -0.00000000000E+00 -0.00000000000E+00 -0.35729704903E+02  0.35729704903E+02  0.00000000000E+00 0.  1.
         21    1    1    2  503  505 -0.15326805130E+03  0.44918486864E+02  0.16137066122E+04  0.16215911310E+04  0.00000000000E+00 0.  1.
         21    1    1    2  504  502  0.21563922305E+02  0.37917135778E+02  0.57941899413E+02  0.72525689506E+02  0.00000000000E+00 0.  1.
         21    1    1    2  505  501  0.11654465054E+03 -0.38750582592E+02  0.38054127087E+03  0.39986988140E+03  0.00000000000E+00 0.  1.
          1    1    1    2  501    0  0.15159478454E+02 -0.44085040050E+02  0.21802572810E+02  0.51465063143E+02  0.00000000000E+00 0.  1.
<scales pt_clust_3="14000.00000" pt_clust_4="43.62009" pt_clust_5="149.00704" pt_clust_6="35.89208"></scales>
<clustering>
<clus scale="   43.620">  2  4  1 -1</clus>
<clus scale="   35.892">  2  6  1 -1</clus>
<clus scale="  149.007">  2  5  1 -1</clus>
<clus scale="  149.007">  1  3  2 -1</clus>
</clustering>
</event>
<event>
 6    0  0.2117869E+002  0.2685463E+03  0.7546771E-02  0.1102114E+00
         21   -1    0    0  504  502  0.00000000000E+00  0.00000000000E+00  0.22676443884E+04  0.22676443884E+04  0.00000000000E+00 0. -1.
          2   -1    0    0  505    0 -0.00000000000E+00 -0.00000000000E+00 -0.73665209153E+03  0.73665209153E+03  0.00000000000E+00 0.  1.
         21    1    1    2  503  501 -0.20318994994E+03 -0.15118032619E+03  0.17591497850E+04  0.17772871498E+04  0.00000000000E+00 0. -1.
         21    1    1    2  504  503 -0.29870363309E+02  0.16418320126E+02  0.46524212160E+03  0.46648904763E+03  0.00000000000E+00 0. -1.
         21    1    1    2  505  502 -0.67927713465E+01  0.45410936318E+02 -0.19387247991E+03  0.19923562268E+03  0.00000000000E+00 0. -1.
          2    1    1    2  501    0  0.23985308459E+03  0.89351069741E+02 -0.49952712985E+03  0.56128465979E+03  0.00000000000E+00 0.  1.
<scales pt_clust_3="14000.00000" pt_clust_4="34.08519" pt_clust_5="45.94693" pt_clust_6="268.54631"></scales>
<clustering>
<clus scale="   34.085">  1  4  2 -1</clus>
<clus scale="   45.947">  2  5  1 -1</clus>
<clus scale="  268.546">  2  6  1 -1</clus>
<clus scale="   34.085">  1  3  2 -1</clus>
</clustering>
</event>
<event>
 6    0  0.2117869E+002  0.1704154E+03  0.7546771E-02  0.1177415E+00
          1   -1    0    0  503    0 -0.00000000000E+00  0.00000000000E+00  0.24755885784E+04  0.24755885784E+04  0.00000000000E+00 0.  1.
         21   -1    0    0  501  502  0.00000000000E+00 -0.00000000000E+00 -0.40239219828E+02  0.40239219828E+02  0.00000000000E+00 0. -1.
         21    1    1    2  503  505 -0.32299910336E+02  0.34562836157E+01  0.36671029834E+03  0.36814626579E+03  0.00000000000E+00 0. -1.
         21    1    1    2  504  502  0.14690982922E+02 -0.76916818275E+02  0.57046294995E+02  0.96882927730E+02  0.00000000000E+00 0. -1.
         21    1    1    2  505  504 -0.13293203372E+03 -0.56336621693E+02  0.36927064751E+03  0.39649155306E+03  0.00000000000E+00 0. -1.
          1    1    1    2  501    0  0.15054096114E+03  0.12979715635E+03  0.16423221178E+04  0.16543070517E+04  0.00000000000E+00 0.  1.
<scales pt_clust_3="32.48431" pt_clust_4="77.97032" pt_clust_5="170.41541" pt_clust_6="14000.00000"></scales>
<clustering>
<clus scale="   32.484">  1  3  2 -1</clus>
<clus scale="   77.970">  2  4  1 -1</clus>
<clus scale="  170.415">  2  5  1 -1</clus>
<clus scale="   77.970">  2  3  1 -1</clus>
</clustering>
</event>
<event>
 6    0  0.2117869E+002  0.9475498E+02  0.7546771E-02  0.1291729E+00
         21   -1    0    0  504  502  0.00000000000E+00  0.00000000000E+00  0.38246577384E+03  0.38246577384E+03  0.00000000000E+00 0.  1.
          1   -1    0    0  505    0 -0.00000000000E+00 -0.00000000000E+00 -0.64970610202E+03  0.64970610202E+03  0.00000000000E+00 0. -1.
         21    1    1    2  503  502 -0.76676182685E+02 -0.59531381083E+02  0.32946592767E+03  0.34346909587E+03  0.00000000000E+00 0.  1.
         21    1    1    2  504  501  0.47053086433E+02  0.37216884323E+02 -0.81981924627E+00  0.59998012677E+02  0.00000000000E+00 0. -1.
         21    1    1    2  505  503 -0.42830923276E+02 -0.57715086892E+02 -0.11316459248E+03  0.13405873427E+03  0.00000000000E+00 0.  1.
          1    1    1    2  501    0  0.72454019529E+02  0.80029583652E+02 -0.48272184413E+03  0.49464603304E+03  0.00000000000E+00 0. -1.
<scales pt_clust_3="39.87625" pt_clust_4="59.99241" pt_clust_5="14000.00000" pt_clust_6="94.75498"></scales>
<clustering>
<clus scale="   59.992">  1  4  2 -1</clus>
<clus scale="   39.876">  1  3  2 -1</clus>
<clus scale="   94.755">  2  6  1 -1</clus>
<clus scale="   59.992">  1  3  2 -1</clus>
</clustering>
</event>
<event>
 6    0  0.2117869E+002  0.9013593E+02  0.7546771E-02  0.1302523E+00
          1   -1    0    0  505    0 -0.00000000000E+00  0.00000000000E+00  0.29477686483E+03  0.29477686483E+03  0.00000000000E+00 0.  1.
         21   -1    0    0  504  502  0.00000000000E+00 -0.00000000000E+00 -0.54501001178E+03  0.54501001178E+03  0.00000000000E+00 0.  1.
         21    1    1    2  503  502 -0.80217293609E+02 -0.49671886820E+02 -0.39914681847E+03  0.41014667283E+03  0.00000000000E+00 0.  1.
         21    1    1    2  504  501  0.97795131400E+02 -0.28633564525E+02 -0.11294337214E+03  0.15211828967E+03  0.00000000000E+00 0.  1.
         21    1    1    2  505  503 -0.75908909860E+01  0.43741685404E+02  0.74362854702E+02  0.86607106102E+02  0.00000000000E+00 0. -1.
          1    1    1    2  501    0 -0.99869468043E+01  0.34563765941E+02  0.18749418896E+03  0.19091480801E+03  0.00000000000E+00 0.  1.
<scales pt_clust_3="14000.00000" pt_clust_4="90.13593" pt_clust_5="71.72215" pt_clust_6="35.97767"></scales>
<clustering>
<clus scale="   35.978">  1  6  2 -1</clus>
<clus scale="   71.722">  1  5  2 -1</clus>
<clus scale="   90.136">  1  4  2 -1</clus>
<clus scale="   90.136">  2  3  1 -1</clus>
</clustering>
</event>
<event>
 6    0  0.2117869E+002  0.8626438E+02  0.7546771E-02  0.1312159E+00
         -1   -1    0    0    0  501 -0.00000000000E+00  0.00000000000E+00  0.34290417792E+03  0.34290417792E+03  0.00000000000E+00 0.  1.
         21   -1    0    0  505  502  0.00000000000E+00 -0.00000000000E+00 -0.15618825322E+03  0.15618825322E+03  0.00000000000E+00 0. -1.
         21    1    1    2  503  501 -0.71169503446E+02 -0.75153588084E+01  0.96593364632E+02  0.12021587636E+03  0.00000000000E+00 0. -1.
         21    1    1    2  504  502 -0.41136750654E+02  0.11958248878E+02 -0.92061227554E+02  0.10154064009E+03  0.00000000000E+00 0. -1.
         21    1    1    2  505  503  0.14903519126E+02 -0.32629802302E+02 -0.26982506544E+02  0.44887353899E+02  0.00000000000E+00 0. -1.
         -1    1    1    2    0  504  0.97402734975E+02  0.28186912233E+02  0.20916629417E+03  0.23244856080E+03  0.00000000000E+00 0.  1.
<scales pt_clust_3="86.26438" pt_clust_4="32.46297" pt_clust_5="35.87226" pt_clust_6="14000.00000"></scales>
<clustering>
<clus scale="   35.872">  2  5  1 -1</clus>
<clus scale="   32.463">  2  4  1 -1</clus>
<clus scale="   86.264">  2  3  1 -1</clus>
<clus scale="   35.872">  2  3  1 -1</clus>
</clustering>
</event>
<event>
 6    0  0.2117869E+002  0.1537900E+03  0.7546771E-02  0.1195892E+00
          2   -1    0    0  502    0 -0.00000000000E+00  0.00000000000E+00  0.13719506887E+04  0.13719506887E+04  0.00000000000E+00 0. -1.
         21   -1    0    0  504  502  0.00000000000E+00 -0.00000000000E+00 -0.56440233160E+02  0.56440233160E+02  0.00000000000E+00 0. -1.
         21    1    1    2  503  501 -0.17214092691E+03  0.12894190095E+02  0.34123870647E+03  0.38241680618E+03  0.00000000000E+00 0. -1.
         21    1    1    2  504  505  0.32179679180E+02 -0.74112648539E+01 -0.38919074234E+01  0.33250647246E+02  0.00000000000E+00 0. -1.
         21    1    1    2  505  503 -0.70593399490E+01 -0.34232303996E+02  0.15094168643E+02  0.38072547122E+02  0.00000000000E+00 0. -1.
          2    1    1    2  501    0  0.14702058768E+03  0.28749378755E+02  0.96306948782E+03  0.97465092128E+03  0.00000000000E+00 0. -1.
<scales pt_clust_3="153.78997" pt_clust_4="33.02209" pt_clust_5="36.58089" pt_clust_6="14000.00000"></scales>
<clustering>
<clus scale="   33.022">  2  4  1 -1</clus>
<clus scale="   36.581">  2  5  1 -1</clus>
<clus scale="  153.790">  2  3  1 -1</clus>
<clus scale="   33.022">  2  3  1 -1</clus>
</clustering>
</event>
<event>
 6    0  0.2117869E+002  0.1211864E+03  0.7546771E-02  0.1241153E+00
         21   -1    0    0  501  502  0.00000000000E+00  0.00000000000E+00  0.12027878681E+03  0.12027878681E+03  0.00000000000E+00 0. -1.
          1   -1    0    0  505    0 -0.00000000000E+00 -0.00000000000E+00 -0.17415169754E+04  0.17415169754E+04  0.00000000000E+00 0.  1.
         21    1    1    2  503  502 -0.50527489411E+02  0.11138449545E+03  0.22459373827E+02  0.12435415749E+03  0.00000000000E+00 0. -1.
         21    1    1    2  504  503 -0.83674627364E+02  0.21879740981E+02 -0.75024731011E+02  0.11449400243E+03  0.00000000000E+00 0. -1.
         21    1    1    2  505  504  0.12247335320E+01 -0.73967896537E+02 -0.13922017483E+04  0.13941658645E+04  0.00000000000E+00 0.  1.
          1    1    1    2  501    0  0.13297738324E+03 -0.59296339890E+02 -0.17647108308E+03  0.22878173778E+03  0.00000000000E+00 0.  1.
<scales pt_clust_3="14000.00000" pt_clust_4="83.35999" pt_clust_5="73.97804" pt_clust_6="121.18641"></scales>
<clustering>
<clus scale="   73.978">  2  5  1 -1</clus>
<clus scale="   83.360">  2  4  1 -1</clus>
<clus scale="  121.186">  2  6  1 -1</clus>
<clus scale="  121.186">  1  3  2 -1</clus>
</clustering>
</event>
<event>
 6    0  0.2117869E+002  0.2250844E+03  0.7546771E-02  0.1130148E+00
          2   -1    0    0  505    0 -0.00000000000E+00  0.00000000000E+00  0.25703683146E+04  0.25703683146E+04  0.00000000000E+00 0. -1.
         21   -1    0    0  503  502  0.00000000000E+00 -0.00000000000E+00 -0.38291516783E+03  0.38291516783E+03  0.00000000000E+00 0.  1.
         21    1    1    2  503  504 -0.24417069310E+02 -0.46936823344E+02 -0.27365053883E+03  0.27871827364E+03  0.00000000000E+00 0.  1.
         21    1    1    2  504  501 -0.20048742668E+03  0.66162900691E+02  0.15112694428E+02  0.21166277712E+03  0.00000000000E+00 0.  1.
         21    1    1    2  505  502 -0.13381700862E+02  0.29780530765E+02  0.12486985319E+03  0.12906754111E+03  0.00000000000E+00 0. -1.
          2    1    1    2  501    0  0.23828619685E+03 -0.49006608113E+02  0.23211211380E+04  0.23338348905E+04  0.00000000000E+00 0. -1.
<scales pt_clust_3="52.88703" pt_clust_4="14000.00000" pt_clust_5="32.64889" pt_clust_6="225.08444"></scales>
<clustering>
<clus scale="   32.649">  1  5  2 -1</clus>
<clus scale="   52.887">  2  3  1 -1</clus>
<clus scale="  225.084">  1  6  2 -1</clus>
<clus scale="   52.887">  2  3  1 -1</clus>
</clustering>
</event>
<event>
 6    0  0.2117869E+002  0.1147404E+03  0.7546771E-02  0.1252035E+00
         21   -1    0    0  505  502  0.00000000000E+00  0.00000000000E+00  0.60386057725E+02  0.60386057725E+02  0.00000000000E+00 0.  1.
          2   -1    0    0  504    0 -0.00000000000E+00 -0.00000000000E+00 -0.39305493513E+04  0.39305493513E+04  0.00000000000E+00 0. -1.
         21    1    1    2  503  502  0.24649310627E+02 -0.35512957686E+02 -0.13351311767E+03  0.14033713431E+03  0.00000000000E+00 0.  1.
         21    1    1    2  504  503  0.79936086240E+01 -0.46499224457E+02 -0.54056444577E+03  0.54261956810E+03  0.00000000000E+00 0.  1.
         21    1    1    2  505  501 -0.12090156149E+03  0.99399819115E+02 -0.55440762851E+02  0.16604574609E+03  0.00000000000E+00 0.  1.
          2    1    1    2  501    0  0.88258642236E+02 -0.17387636972E+02 -0.31406449673E+04  0.31419329606E+04  0.00000000000E+00 0. -1.
<scales pt_clust_3="43.22914" pt_clust_4="47.88900" pt_clust_5="114.74042" pt_clust_6="14000.00000"></scales>
<clustering>
<clus scale="   43.229">  1  3  2 -1</clus>
<clus scale="   47.889">  2  4  1 -1</clus>
<clus scale="  114.740">  1  5  2 -1</clus>
<clus scale="   43.229">  1  3  2 -1</clus>
</clustering>
</event>
<event>
 6    0  0.2117869E+002  0.1348584E+03  0.7546771E-02  0.1220420E+00
          2   -1    0    0  504    0 -0.00000000000E+00  0.00000000000E+00  0.16016680195E+04  0.16016680195E+04  0.00000000000E+00 0. -1.
         21   -1    0    0  503  502  0.00000000000E+00 -0.00000000000E+00 -0.99212933372E+03  0.99212933372E+03  0.00000000000E+00 0. -1.
         21    1    1    2  503  501  0.76511456336E+02  0.72137122628E+01 -0.89968550125E+03  0.90296181633E+03  0.00000000000E+00 0. -1.
         21    1    1    2  504  505 -0.33178019639E+02  0.21946320008E+02  0.12605450528E+03  0.13218229931E+03  0.00000000000E+00 0.  1.
         21    1    1    2  505  502 -0.79257554777E+02  0.12678013226E+03 -0.15993428107E+02  0.15036871905E+03  0.00000000000E+00 0. -1.
          2    1    1    2  501    0  0.35924118080E+02 -0.15594016453E+03  0.13991631098E+04  0.14082845185E+04  0.00000000000E+00 0. -1.
<scales pt_clust_3="76.81632" pt_clust_4="39.77967" pt_clust_5="134.85842" pt_clust_6="14000.00000"></scales>
<clustering>
<clus scale="   39.780">  1  4  2 -1</clus>
<clus scale="   76.816">  2  3  1 -1</clus>
<clus scale="  134.858">  2  5  1 -1</clus>
<clus scale="   76.816">  2  3  1 -1</clus>
</clustering>
</event>
<event>
 6    0  0.2117869E+002  0.1743287E+03  0.7546771E-02  0.1173407E+00
         21   -1    0    0  503  502  0.00000000000E+00  0.00000000000E+00  0.10808098329E+03  0.10808098329E+03  0.00000000000E+00 0.  1.
          2   -1    0    0  504    0 -0.00000000000E+00 -0.00000000000E+00 -0.32854396214E+04  0.32854396214E+04  0.00000000000E+00 0.  1.
         21    1    1    2  503  501 -0.46659609158E+02 -0.20247971794E+02 -0.10800796223E+03  0.11938517242E+03  0.00000000000E+00 0.  1.
         21    1    1    2  504  505  0.27333286782E+03  0.33303326887E+02 -0.10799068366E+04  0.11144589467E+04  0.00000000000E+00 0.  1.
         21    1    1    2  505  502 -0.73383387987E+02 -0.55838250110E+02  0.56109654207E+02  0.10794130397E+03  0.00000000000E+00 0.  1.
          2    1    1    2  501    0 -0.15328987067E+03  0.42782895017E+02 -0.20455534935E+04  0.20517351816E+04  0.00000000000E+00 0.  1.
<scales pt_clust_3="50.86354" pt_clust_4="174.32866" pt_clust_5="132.13878" pt_clust_6="14000.00000"></scales>
<clustering>
<clus scale="   50.864">  1  3  2 -1</clus>
<clus scale="  132.139">  1  5  2 -1</clus>
<clus scale="  174.329">  1  4  2 -1</clus>
<clus scale="   50.864">  1  3  2 -1</clus>
</clustering>
</event>
<event>
 6    0  0.2117869E+002  0.1579026E+03  0.7546771E-02  0.1191085E+00
          2   -1    0    0  503    0 -0.00000000000E+00  0.00000000000E+00  0.25063517999E+04  0.25063517999E+04  0.00000000000E+00 0. -1.
         21   -1    0    0  505  502  0.00000000000E+00 -0.00000000000E+00 -0.73654202612E+02  0.73654202612E+02  0.00000000000E+00 0. -1.
         21    1    1    2  503  504 -0.83845527307E+01  0.52595859223E+02  0.34254836836E+03  0.34666411669E+03  0.00000000000E+00 0.  1.
         21    1    1    2  504  502  0.56810488486E+02 -0.13802313126E+03  0.18076375206E+02  0.15034816828E+03  0.00000000000E+00 0. -1.
         21    1    1    2  505  501 -0.29409956455E+02 -0.22991381997E+02  0.84540123220E+02  0.92415267239E+02  0.00000000000E+00 0. -1.
          2    1    1    2  501    0 -0.19015979300E+02  0.10841865403E+03  0.19875327305E+04  0.19905784503E+04  0.00000000000E+00 0. -1.
<scales pt_clust_3="52.73527" pt_clust_4="14000.00000" pt_clust_5="37.33027" pt_clust_6="157.90258"></scales>
<clustering>
<clus scale="   37.330">  2  5  1 -1</clus>
<clus scale="   52.735">  1  3  2 -1</clus>
<clus scale="  157.903">  1  6  2 -1</clus>
<clus scale="   37.330">  2  3  1 -1</clus>
</clustering>
</event>
<event>
 6    0  0.2117869E+002  0.1311203E+03  0.7546771E-02  0.1225803E+00
          2   -1    0    0  503    0 -0.00000000000E+00  0.00000000000E+00  0.73278830410E+03  0.73278830410E+03  0.00000000000E+00 0. -1.
         21   -1    0    0  504  502  0.00000000000E+00 -0.00000000000E+00 -0.40022934876E+03  0.40022934876E+03  0.00000000000E+00 0. -1.
         21    1    1    2  503  505 -0.20244677311E+02 -0.41532585650E+02  0.78173196149E+02  0.90806669503E+02  0.00000000000E+00 0. -1.
         21    1    1    2  504  501 -0.99931602537E+02 -0.10319523033E+03 -0.10156506710E+03  0.17592908686E+03  0.00000000000E+00 0.  1.
         21    1    1    2  505  502  0.51733519402E+02  0.11738015062E+03 -0.23661557486E+03  0.26914937685E+03  0.00000000000E+00 0. -1.
          2    1    1    2  501    0  0.68442760447E+02  0.27347665363E+02  0.59256640114E+03  0.59713251965E+03  0.00000000000E+00 0. -1.
<scales pt_clust_3="46.20392" pt_clust_4="131.12027" pt_clust_5="14000.00000" pt_clust_6="51.01497"></scales>
<clustering>
<clus scale="   46.204">  1  3  2 -1</clus>
<clus scale="   51.015">  1  6  2 -1</clus>
<clus scale="  131.120">  1  4  2 -1</clus>
<clus scale="  131.120">  2  3  1 -1</clus>
</clustering>
</event>
<event>
 6    0  0.2117869E+002  0.2107415E+03  0.7546771E-02  0.1140980E+00
          1   -1    0    0  505    0 -0.00000000000E+00  0.00000000000E+00  0.26719416643E+03  0.26719416643E+03  0.00000000000E+00 0.  1.
         21   -1    0    0  501  502  0.00000000000E+00 -0.00000000000E+00 -0.85612550226E+03  0.85612550226E+03  0.00000000000E+00 0.  1.
         21    1    1    2  503  502 -0.16507198196E+02  0.46100051837E+02 -0.25754613718E+03  0.26215971305E+03  0.00000000000E+00 0. -1.
         21    1    1    2  504  503  0.48815357258E+02  0.14936420804E+03 -0.51656294219E+03  0.53993506923E+03  0.00000000000E+00 0.  1.
         21    1    1    2  505  504 -0.32725632756E+02  0.18865978000E+02 -0.31060568315E+00  0.37775503187E+02  0.00000000000E+00 0.  1.
          1    1    1    2  501    0  0.41747369350E+00 -0.21433023788E+03  0.18548834921E+03  0.28344938322E+03  0.00000000000E+00 0.  1.
<scales pt_clust_3="38.97989" pt_clust_4="38.97989" pt_clust_5="37.77423" pt_clust_6="198.87405"></scales>
<clustering>
<clus scale="   37.774">  1  5  2 -1</clus>
<clus scale="   38.980">  3  4 -1 -1</clus>
<clus scale="  198.874">  1  6  2 -1</clus>
<clus scale="  210.741">  2  3  1 -1</clus>
</clustering>
</event>
<event>
 6    0  0.2117869E+002  0.7758267E+02  0.7546771E-02  0.1336055E+00
         21   -1    0    0  505  502  0.00000000000E+00  0.00000000000E+00  0.71165326908E+03  0.71165326908E+03  0.00000000000E+00 0. -1.
          1   -1    0    0  504    0 -0.00000000000E+00 -0.00000000000E+00 -0.28582484513E+03  0.28582484513E+03  0.00000000000E+00 0.  1.
         21    1    1    2  503  502 -0.78453302935E+00  0.37194183005E+02  0.29600757763E+03  0.29833623440E+03  0.00000000000E+00 0. -1.
         21    1    1    2  504  503  0.13073292367E+02 -0.66967229306E+02 -0.97706314407E+01  0.68927396679E+02  0.00000000000E+00 0. -1.
         21    1    1    2  505  501 -0.37231748265E+02 -0.99265349770E+02  0.35907010083E+03  0.37439437770E+03  0.00000000000E+00 0. -1.
          1    1    1    2  501    0  0.24942988927E+02  0.12903839607E+03 -0.21947862307E+03  0.25582010543E+03  0.00000000000E+00 0.  1.
<scales pt_clust_3="37.20246" pt_clust_4="65.61713" pt_clust_5="77.58267" pt_clust_6="14000.00000"></scales>
<clustering>
<clus scale="   37.202">  1  3  2 -1</clus>
<clus scale="   65.617">  2  4  1 -1</clus>
<clus scale="   77.583">  1  5  2 -1</clus>
<clus scale="   37.202">  1  3  2 -1</clus>
</clustering>
</event>
<event>
 6    0  0.2117869E+002  0.6844864E+02  0.7546771E-02  0.1365449E+00
         21   -1    0    0  504  502  0.00000000000E+00  0.00000000000E+00  0.37793867840E+03  0.37793867840E+03  0.00000000000E+00 0.  1.
         -2   -1    0    0    0  501 -0.00000000000E+00 -0.00000000000E+00 -0.11777226976E+04  0.11777226976E+04  0.00000000000E+00 0.  1.
         21    1    1    2  503  505  0.42324498277E+02  0.27707529439E+02 -0.22918080752E+02  0.55536553434E+02  0.00000000000E+00 0.  1.
         21    1    1    2  504  503 -0.35551580229E+02  0.58317815661E+02  0.35364701876E+03  0.36018203225E+03  0.00000000000E+00 0.  1.
         21    1    1    2  505  501 -0.29586719650E+02  0.18634839101E+02 -0.41307098030E+03  0.41454826736E+03  0.00000000000E+00 0.  1.
         -2    1    1    2    0  502  0.22813801603E+02 -0.10466018420E+03 -0.71744197689E+03  0.72539452294E+03  0.00000000000E+00 0.  1.
<scales pt_clust_3="49.86697" pt_clust_4="68.44864" pt_clust_5="34.96614" pt_clust_6="14000.00000"></scales>
<clustering>
<clus scale="   34.966">  2  5  1 -1</clus>
<clus scale="   49.867">  2  3  1 -1</clus>
<clus scale="   68.449">  1  4  2 -1</clus>
<clus scale="   68.449">  1  3  2 -1</clus>
</clustering>
</event>
<event>
 6    0  0.2117869E+002  0.1457625E+03  0.7546771E-02  0.1205779E+00
          1   -1    0    0  503    0 -0.00000000000E+00  0.00000000000E+00  0.22463679912E+03  0.22463679912E+03  0.00000000000E+00 0.  1.
         21   -1    0    0  505  502  0.00000000000E+00 -0.00000000000E+00 -0.57754284083E+03  0.57754284083E+03  0.00000000000E+00 0. -1.
         21    1    1    2  503  502 -0.28963187508E+02 -0.20618308866E+02  0.40105122080E+01  0.35777997419E+02  0.00000000000E+00 0. -1.
         21    1    1    2  504  501  0.15924561032E+03 -0.84469476881E+02 -0.41071787814E+03  0.44853476159E+03  0.00000000000E+00 0. -1.
         21    1    1    2  505  504 -0.34786371274E+02  0.12223421540E+02 -0.10459655687E+03  0.11090510975E+03  0.00000000000E+00 0.  1.
          1    1    1    2  501    0 -0.95496051536E+02  0.92864364207E+02  0.15839788109E+03  0.20696177119E+03  0.00000000000E+00 0.  1.
<scales pt_clust_3="35.55251" pt_clust_4="145.76251" pt_clust_5="37.18981" pt_clust_6="14000.00000"></scales>
<clustering>
<clus scale="   35.553">  1  3  2 -1</clus>
<clus scale="   37.190">  2  5  1 -1</clus>
<clus scale="  145.763">  2  4  1 -1</clus>
<clus scale="   37.190">  2  3  1 -1</clus>
</clustering>
</event>
<event>
 6    0  0.2117869E+002  0.1368725E+03  0.7546771E-02  0.1217600E+00
         21   -1    0    0  503  502  0.00000000000E+00  0.00000000000E+00  0.32545387340E+03  0.32545387340E+03  0.00000000000E+00 0.  1.
          2   -1    0    0  504    0 -0.00000000000E+00 -0.00000000000E+00 -0.18888806591E+04  0.18888806591E+04  0.00000000000E+00 0. -1.
         21    1    1    2  503  505  0.60649499226E+02 -0.10366001106E+02  0.24037416177E+03  0.24812406852E+03  0.00000000000E+00 0.  1.
         21    1    1    2  504  502  0.31522110465E+02  0.73473244471E+02 -0.76244019074E+03  0.76662050948E+03  0.00000000000E+00 0. -1.
         21    1    1    2  505  501 -0.17115870419E+03  0.78835672584E+02 -0.49936314572E+02  0.19494614847E+03  0.00000000000E+00 0. -1.
          2    1    1    2  501    0  0.78987094495E+02 -0.14194291595E+03 -0.99142444219E+03  0.10046438061E+04  0.00000000000E+00 0. -1.
<scales pt_clust_3="61.52898" pt_clust_4="80.33479" pt_clust_5="14000.00000" pt_clust_6="136.87247"></scales>
<clustering>
<clus scale="   61.529">  1  3  2 -1</clus>
<clus scale="   80.335">  2  4  1 -1</clus>
<clus scale="  136.872">  2  6  1 -1</clus>
<clus scale="   61.529">  1  3  2 -1</clus>
</clustering>
</event>
<event>
 6    0  0.2117869E+002  0.1437040E+03  0.7546771E-02  0.1208430E+00
          1   -1    0    0  504    0 -0.00000000000E+00  0.00000000000E+00  0.21472417299E+04  0.21472417299E+04  0.00000000000E+00 0. -1.
         21   -1    0    0  503  502  0.00000000000E+00 -0.00000000000E+00 -0.48598523600E+02  0.48598523600E+02  0.00000000000E+00 0.  1.
         21    1    1    2  503  501 -0.16781873297E+02  0.25685518423E+02  0.10172046695E+02  0.32324103421E+02  0.00000000000E+00 0. -1.
         21    1    1    2  504  505  0.45125163653E+02 -0.78912024207E+01  0.26309209769E+03  0.26705056326E+03  0.00000000000E+00 0. -1.
         21    1    1    2  505  502 -0.13004735453E+03 -0.50912889135E+02  0.11005619410E+03  0.17781114296E+03  0.00000000000E+00 0.  1.
          1    1    1    2  501    0  0.10170406417E+03  0.33118573132E+02  0.17153228678E+04  0.17186544439E+04  0.00000000000E+00 0. -1.
<scales pt_clust_3="30.68187" pt_clust_4="44.72021" pt_clust_5="143.70401" pt_clust_6="14000.00000"></scales>
<clustering>
<clus scale="   30.682">  2  3  1 -1</clus>
<clus scale="   44.720">  1  4  2 -1</clus>
<clus scale="  143.704">  2  5  1 -1</clus>
<clus scale="   30.682">  2  3  1 -1</clus>
</clustering>
</event>
<event>
 6    0  0.2117869E+002  0.2211491E+03  0.7546771E-02  0.1133029E+00
          2   -1    0    0  505    0 -0.00000000000E+00  0.00000000000E+00  0.23357234141E+04  0.23357234141E+04  0.00000000000E+00 0.  1.
         21   -1    0    0  503  502  0.00000000000E+00 -0.00000000000E+00 -0.22581363199E+03  0.22581363199E+03  0.00000000000E+00 0. -1.
         21    1    1    2  503  501  0.15232362818E+03 -0.24898345077E+02 -0.69482958988E+02  0.16926398577E+03  0.00000000000E+00 0. -1.
         21    1    1    2  504  502  0.41173912095E+02  0.15162011882E+03 -0.28076841884E+02  0.15960031491E+03  0.00000000000E+00 0. -1.
         21    1    1    2  505  504  0.32189144743E+02 -0.13593491322E+01  0.47902419246E+02  0.57728941086E+02  0.00000000000E+00 0.  1.
          2    1    1    2  501    0 -0.22568668501E+03 -0.12536242461E+03  0.21595671637E+04  0.21749438043E+04  0.00000000000E+00 0.  1.
<scales pt_clust_3="155.04418" pt_clust_4="14000.00000" pt_clust_5="32.21783" pt_clust_6="221.14910"></scales>
<clustering>
<clus scale="   32.218">  1  5  2 -1</clus>
<clus scale="  155.044">  2  3  1 -1</clus>
<clus scale="  221.149">  1  6  2 -1</clus>
<clus scale="  155.044">  2  3  1 -1</clus>
</clustering>
</event>
<event>
 6    0  0.2117869E+002  0.1042468E+03  0.7546771E-02  0.1271611E+00
         21   -1    0    0  504  502  0.00000000000E+00  0.00000000000E+00  0.15789116893E+03  0.15789116893E+03  0.00000000000E+00 0. -1.
          1   -1    0    0  503    0 -0.00000000000E+00 -0.00000000000E+00 -0.24108092007E+04  0.24108092007E+04  0.00000000000E+00 0. -1.
         21    1    1    2  503  502 -0.24718530386E+02 -0.19788488217E+02 -0.35006271161E+02  0.47202002404E+02  0.00000000000E+00 0.  1.
         21    1    1    2  504  505  0.26470006835E+02 -0.10552335997E+03  0.65068538872E+02  0.12676653940E+03  0.00000000000E+00 0. -1.
         21    1    1    2  505  501 -0.82153779556E+02  0.70078234007E+02  0.16746415990E+01  0.10799540176E+03  0.00000000000E+00 0. -1.
          1    1    1    2  501    0  0.80402303107E+02  0.55233614182E+02 -0.22846549411E+04  0.22867364261E+04  0.00000000000E+00 0. -1.
<scales pt_clust_3="31.66370" pt_clust_4="104.24679" pt_clust_5="14000.00000" pt_clust_6="97.32980"></scales>
<clustering>
<clus scale="   31.664">  1  3  2 -1</clus>
<clus scale="   97.330">  2  6  1 -1</clus>
<clus scale="  104.247">  1  4  2 -1</clus>
<clus scale="   31.664">  1  3  2 -1</clus>
</clustering>
</event>
<event>
 6    0  0.2117869E+002  0.9671749E+02  0.7546771E-02  0.1287354E+00
         21   -1    0    0  505  502  0.00000000000E+00  0.00000000000E+00  0.87045788594E+01  0.87045788594E+01  0.00000000000E+00 0.  1.
          1   -1    0    0  504    0 -0.00000000000E+00 -0.00000000000E+00 -0.42720885705E+04  0.42720885705E+04  0.00000000000E+00 0.  1.
         21    1    1    2  503  502 -0.61144222418E+02  0.10212859432E+03 -0.11053650478E+04  0.11117557081E+04  0.00000000000E+00 0.  1.
         21    1    1    2  504  503 -0.31003479807E+02  0.21503922897E+01 -0.71556422727E+03  0.71623878930E+03  0.00000000000E+00 0.  1.
         21    1    1    2  505  501  0.35166934190E+02 -0.81304492636E+02 -0.41204513123E+03  0.42145975366E+03  0.00000000000E+00 0.  1.
          1    1    1    2  501    0  0.56980768034E+02 -0.22974493976E+02 -0.20304095853E+04  0.20313388982E+04  0.00000000000E+00 0.  1.
<scales pt_clust_3="96.71749" pt_clust_4="31.07797" pt_clust_5="14000.00000" pt_clust_6="44.89379"></scales>
<clustering>
<clus scale="   31.078">  2  4  1 -1</clus>
<clus scale="   44.894">  2  6  1 -1</clus>
<clus scale="   96.717">  2  3  1 -1</clus>
<clus scale="   96.717">  1  3  2 -1</clus>
</clustering>
</event>
<event>
 6    0  0.2117869E+002  0.2049199E+03  0.7546771E-02  0.1145653E+00
          1   -1    0    0  505    0 -0.00000000000E+00  0.00000000000E+00  0.13667310808E+04  0.13667310808E+04  0.00000000000E+00 0. -1.
         21   -1    0    0  503  502  0.00000000000E+00 -0.00000000000E+00 -0.17572707651E+03  0.17572707651E+03  0.00000000000E+00 0. -1.
         21    1    1    2  503  504 -0.91675054793E+01  0.29958381889E+02 -0.48560481203E+02  0.57789861886E+02  0.00000000000E+00 0. -1.
         21    1    1    2  504  501  0.16664969189E+03  0.36552464039E+02  0.44845777424E+02  0.17640676344E+03  0.00000000000E+00 0. -1.
         21    1    1    2  505  502 -0.32711101388E+02  0.19109045991E+03  0.78420644079E+03  0.80781515324E+03  0.00000000000E+00 0. -1.
          1    1    1    2  501    0 -0.12477108502E+03 -0.25760130584E+03  0.41051226732E+03  0.50044637879E+03  0.00000000000E+00 0. -1.
<scales pt_clust_3="31.32966" pt_clust_4="170.07785" pt_clust_5="14000.00000" pt_clust_6="204.91992"></scales>
<clustering>
<clus scale="   31.330">  2  3  1 -1</clus>
<clus scale="  170.078">  2  4  1 -1</clus>
<clus scale="  204.920">  2  6  1 -1</clus>
<clus scale="   31.330">  2  3  1 -1</clus>
</clustering>
</event>
<event>
 6    0  0.2117869E+002  0.1128271E+03  0.7546771E-02  0.1255422E+00
         21   -1    0    0  505  502  0.00000000000E+00  0.00000000000E+00  0.41737914612E+03  0.41737914612E+03  0.00000000000E+00 0. -1.
         -4   -1    0    0    0  501 -0.00000000000E+00 -0.00000000000E+00 -0.20338858841E+04  0.20338858841E+04  0.00000000000E+00 0. -1.
         21    1    1    2  503  501  0.31106057475E+02  0.62608030300E+01 -0.13237920356E+04  0.13241722464E+04  0.00000000000E+00 0. -1.
         21    1    1    2  504  502 -0.35595876926E+02 -0.10927077294E+03  0.36999345009E+03  0.38743040844E+03  0.00000000000E+00 0. -1.
         21    1    1    2  505  503  0.62970258286E+02 -0.32180174965E+00  0.33925238315E+01  0.63062399280E+02  0.00000000000E+00 0. -1.
         -4    1    1    2    0  504 -0.58480438836E+02  0.10333177166E+03 -0.66610067633E+03  0.67659997618E+03  0.00000000000E+00 0. -1.
<scales pt_clust_3="31.72987" pt_clust_4="112.82711" pt_clust_5="64.27757" pt_clust_6="14000.00000"></scales>
<clustering>
<clus scale="   31.730">  2  3  1 -1</clus>
<clus scale="   64.278">  1  5  2 -1</clus>
<clus scale="  112.827">  1  4  2 -1</clus>
<clus scale="   64.278">  1  3  2 -1</clus>
</clustering>
</event>
<event>
 6    0  0.2117869E+002  0.1412834E+03  0.7546771E-02  0.1211612E+00
          2   -1    0    0  505    0 -0.00000000000E+00  0.00000000000E+00  0.32859880882E+04  0.32859880882E+04  0.00000000000E+00 0.  1.
         21   -1    0    0  503  502  0.00000000000E+00 -0.00000000000E+00 -0.37800856109E+03  0.37800856109E+03  0.00000000000E+00 0.  1.
         21    1    1    2  503  501 -0.69333088784E+02  0.14253711691E+03  0.12234166900E+03  0.20022834682E+03  0.00000000000E+00 0. -1.
         21    1    1    2  504  502  0.65621472118E+02 -0.55928104809E+00 -0.33126870704E+03  0.33770615432E+03  0.00000000000E+00 0.  1.
         21    1    1    2  505  504 -0.41629187202E+02 -0.26231552433E+02  0.18229358091E+03  0.18881746002E+03  0.00000000000E+00 0. -1.
          2    1    1    2  501    0  0.45340803868E+02 -0.11574628342E+03  0.29346129842E+04  0.29372446881E+04  0.00000000000E+00 0.  1.
<scales pt_clust_3="141.28338" pt_clust_4="65.58088" pt_clust_5="49.20451" pt_clust_6="14000.00000"></scales>
<clustering>
<clus scale="   49.205">  1  5  2 -1</clus>
<clus scale="   65.581">  2  4  1 -1</clus>
<clus scale="  141.283">  2  3  1 -1</clus>
<clus scale="   65.581">  2  3  1 -1</clus>
</clustering>
</event>
<event>
 6    0  0.2117869E+002  0.9386766E+02  0.7546771E-02  0.1293747E+00
         21   -1    0    0  501  502  0.00000000000E+00  0.00000000000E+00  0.66061323568E+02  0.66061323568E+02  0.00000000000E+00 0.  1.
          2   -1    0    0  503    0 -0.00000000000E+00 -0.00000000000E+00 -0.14342287888E+04  0.14342287888E+04  0.00000000000E+00 0. -1.
         21    1    1    2  503  505  0.43084160213E+02 -0.59914904126E+01 -0.28199186170E+03  0.28532709806E+03  0.00000000000E+00 0.  1.
         21    1    1    2  504  502 -0.10623408954E+03  0.37467007697E+02 -0.27979611953E+02  0.11607031116E+03  0.00000000000E+00 0.  1.
         21    1    1    2  505  504  0.37525592862E+02 -0.76975691064E+02 -0.73613540609E+02  0.11292643843E+03  0.00000000000E+00 0.  1.
          2    1    1    2  501    0  0.25624336468E+02  0.45500173779E+02 -0.98458245097E+03  0.98596626473E+03  0.00000000000E+00 0. -1.
<scales pt_clust_3="43.49877" pt_clust_4="14000.00000" pt_clust_5="93.86766" pt_clust_6="74.41976"></scales>
<clustering>
<clus scale="   43.499">  2  3  1 -1</clus>
<clus scale="   74.420">  2  6  1 -1</clus>
<clus scale="   93.868">  2  5  1 -1</clus>
<clus scale="   93.868">  1  3  2 -1</clus>
</clustering>
</event>
<event>
 6    0  0.2117869E+002  0.6497953E+02  0.7546771E-02  0.1378049E+00
          2   -1    0    0  503    0 -0.00000000000E+00  0.00000000000E+00  0.14324288690E+03  0.14324288690E+03  0.00000000000E+00 0. -1.
         21   -1    0    0  505  502  0.00000000000E+00 -0.00000000000E+00 -0.31053892489E+03  0.31053892489E+03  0.00000000000E+00 0. -1.
         21    1    1    2  503  502  0.58632866645E+02 -0.75016797357E+01 -0.33597895460E+02  0.67991961504E+02  0.00000000000E+00 0. -1.
         21    1    1    2  504  501  0.25635107380E+01 -0.82205504803E+02 -0.12848055356E+03  0.15255021878E+03  0.00000000000E+00 0. -1.
         21    1    1    2  505  504 -0.13768524109E+02  0.40145835309E+02 -0.10437068894E+03  0.11266987645E+03  0.00000000000E+00 0.  1.
          2    1    1    2  501    0 -0.47427853273E+02  0.49561349230E+02  0.99153099967E+02  0.12056975507E+03  0.00000000000E+00 0. -1.
<scales pt_clust_3="14000.00000" pt_clust_4="54.73299" pt_clust_5="42.44126" pt_clust_6="64.97953"></scales>
<clustering>
<clus scale="   42.441">  2  5  1 -1</clus>
<clus scale="   54.733">  2  4  1 -1</clus>
<clus scale="   64.980">  1  6  2 -1</clus>
<clus scale="   42.441">  2  3  1 -1</clus>
</clustering>
</event>
<event>
 6    0  0.2117869E+002  0.8584578E+02  0.7546771E-02  0.1313235E+00
          2   -1    0    0  504    0 -0.00000000000E+00  0.00000000000E+00  0.10432834260E+04  0.10432834260E+04  0.00000000000E+00 0.  1.
         21   -1    0    0  503  502  0.00000000000E+00 -0.00000000000E+00 -0.21426132217E+03  0.21426132217E+03  0.00000000000E+00 0.  1.
         21    1    1    2  503  501 -0.54932803264E+02 -0.69114477892E+02 -0.14930677412E+03  0.17345586392E+03  0.00000000000E+00 0.  1.
         21    1    1    2  504  505 -0.39365273267E+02 -0.34559440686E+02  0.17603432462E+03  0.18366290623E+03  0.00000000000E+00 0.  1.
         21    1    1    2  505  502  0.10703877931E+03 -0.12492883424E+00  0.17218047429E+02  0.10841483773E+03  0.00000000000E+00 0. -1.
          2    1    1    2  501    0 -0.12740702780E+02  0.10379884741E+03  0.78507650586E+03  0.79201114025E+03  0.00000000000E+00 0.  1.
<scales pt_clust_3="14000.00000" pt_clust_4="52.38301" pt_clust_5="85.84578" pt_clust_6="87.11515"></scales>
<clustering>
<clus scale="   52.383">  1  4  2 -1</clus>
<clus scale="   87.115">  1  6  2 -1</clus>
<clus scale="   85.846">  1  5  2 -1</clus>
<clus scale="   85.846">  2  3  1 -1</clus>
</clustering>
</event>
<event>
 6    0  0.2117869E+002  0.1136910E+03  0.7546771E-02  0.1253883E+00
          1   -1    0    0  505    0 -0.00000000000E+00  0.00000000000E+00  0.30814162486E+04  0.30814162486E+04  0.00000000000E+00 0.  1.
         21   -1    0    0  504  502  0.00000000000E+00 -0.00000000000E+00 -0.65002504617E+03  0.65002504617E+03  0.00000000000E+00 0.  1.
         21    1    1    2  503  501  0.10611341396E+03  0.30710343761E+02 -0.52024237319E+03  0.53184143191E+03  0.00000000000E+00 0.  1.
         21    1    1    2  504  503  0.76440809884E+01 -0.43358189132E+02 -0.11494744791E+03  0.12309053708E+03  0.00000000000E+00 0.  1.
         21    1    1    2  505  502 -0.23372393494E+02  0.29128529956E+02  0.26346678794E+04  0.26349325560E+04  0.00000000000E+00 0.  1.
          1    1    1    2  501    0 -0.90385101457E+02 -0.16480684585E+02  0.43191314408E+03  0.44157676973E+03  0.00000000000E+00 0.  1.
<scales pt_clust_3="113.69104" pt_clust_4="43.72866" pt_clust_5="37.34622" pt_clust_6="14000.00000"></scales>
<clustering>
<clus scale="   37.346">  1  5  2 -1</clus>
<clus scale="   43.729">  2  4  1 -1</clus>
<clus scale="  113.691">  2  3  1 -1</clus>
<clus scale="   43.729">  2  3  1 -1</clus>
</clustering>
</event>
<event>
 6    0  0.2117869E+002  0.7525763E+02  0.7546771E-02  0.1343075E+00
         -1   -1    0    0    0  501 -0.00000000000E+00  0.00000000000E+00  0.77810402689E+03  0.77810402689E+03  0.00000000000E+00 0.  1.
         21   -1    0    0  504  502  0.00000000000E+00 -0.00000000000E+00 -0.14934478805E+03  0.14934478805E+03  0.00000000000E+00 0.  1.
         21    1    1    2  503  501 -0.65038585919E+02  0.23212920758E+00  0.49648622258E+03  0.50072811061E+03  0.00000000000E+00 0.  1.
         21    1    1    2  504  503  0.24507672125E+02 -0.68133992440E+02 -0.68581671864E+02  0.99731201910E+02  0.00000000000E+00 0.  1.
         21    1    1    2  505  502 -0.60346695021E+02  0.62685784005E+02 -0.15345712144E+02  0.88355656285E+02  0.00000000000E+00 0.  1.
         -1    1    1    2    0  505  0.10087760882E+03  0.52160792274E+01  0.21620040027E+03  0.23863384613E+03  0.00000000000E+00 0.  1.
<scales pt_clust_3="65.03900" pt_clust_4="14000.00000" pt_clust_5="75.25763" pt_clust_6="48.26153"></scales>
<clustering>
<clus scale="   65.039">  1  3  2 -1</clus>
<clus scale="   48.262">  1  6  2 -1</clus>
<clus scale="   75.258">  1  5  2 -1</clus>
<clus scale="   75.258">  2  3  1 -1</clus>
</clustering>
</event>
<event>
 6    0  0.2117869E+002  0.8873080E+02  0.7546771E-02  0.1305955E+00
          2   -1    0    0  504    0 -0.00000000000E+00  0.00000000000E+00  0.16170799164E+04  0.16170799164E+04  0.00000000000E+00 0. -1.
         21   -1    0    0  501  502  0.00000000000E+00 -0.00000000000E+00 -0.31241275167E+03  0.31241275167E+03  0.00000000000E+00 0.  1.
         21    1    1    2  503  505 -0.57147202183E+01 -0.11672247519E+03 -0.22079954559E+02  0.11892988958E+03  0.00000000000E+00 0.  1.
         21    1    1    2  504  503 -0.27021705049E+02 -0.35101388058E+02  0.87897104799E+03  0.88008657710E+03  0.00000000000E+00 0. -1.
         21    1    1    2  505  502 -0.35345653635E+02  0.78314870011E+02 -0.22990108344E+03  0.24543235782E+03  0.00000000000E+00 0.  1.
          2    1    1    2  501    0  0.68082078902E+02  0.73508993237E+02  0.67767715479E+03  0.68504384362E+03  0.00000000000E+00 0. -1.
<scales pt_clust_3="14000.00000" pt_clust_4="44.29763" pt_clust_5="88.73080" pt_clust_6="59.55642"></scales>
<clustering>
<clus scale="   44.298">  1  4  2 -1</clus>
<clus scale="   59.556">  1  6  2 -1</clus>
<clus scale="   88.731">  2  5  1 -1</clus>
<clus scale="   88.731">  2  3  1 -1</clus>
</clustering>
</event>
<event>
 6    0  0.2117869E+002  0.1010210E+03  0.7546771E-02  0.1278163E+00
         -1   -1    0    0    0  501 -0.00000000000E+00  0.00000000000E+00  0.21523567715E+03  0.21523567715E+03  0.00000000000E+00 0. -1.
         21   -1    0    0  501  502  0.00000000000E+00 -0.00000000000E+00 -0.13701799802E+04  0.13701799802E+04  0.00000000000E+00 0.  1.
         21    1    1    2  503  505 -0.75963035281E+02 -0.75806919081E+02 -0.30340289004E+02  0.11152401018E+03  0.00000000000E+00 0.  1.
         21    1    1    2  504  502  0.35677277218E+02 -0.23130449726E+02 -0.11990166676E+04  0.11997703343E+04  0.00000000000E+00 0.  1.
         21    1    1    2  505  504 -0.39147454764E+01  0.11450498980E+03 -0.61727003915E+02  0.13014200295E+03  0.00000000000E+00 0.  1.
         -1    1    1    2    0  503  0.44200503540E+02 -0.15567620989E+02  0.13613965750E+03  0.14397930991E+03  0.00000000000E+00 0. -1.
<scales pt_clust_3="101.02100" pt_clust_4="42.51924" pt_clust_5="14000.00000" pt_clust_6="47.81113"></scales>
<clustering>
<clus scale="   42.519">  2  4  1 -1</clus>
<clus scale="   47.811">  1  6  2 -1</clus>
<clus scale="  101.021">  1  3  2 -1</clus>
<clus scale="   42.519">  2  3  1 -1</clus>
</clustering>
</event>
<event>
 6    0  0.2117869E+002  0.8680598E+02  0.7546771E-02  0.1310776E+00
         21   -1    0    0  504  502  0.00000000000E+00  0.00000000000E+00  0.61952207613E+02  0.61952207613E+02  0.00000000000E+00 0. -1.
          2   -1    0    0  505    0 -0.00000000000E+00 -0.00000000000E+00 -0.30090635407E+04  0.30090635407E+04  0.00000000000E+00 0.  1.
         21    1    1    2  503  502  0.11705820101E+02  0.86819659500E+02 -0.44758070147E+02  0.98376645314E+02  0.00000000000E+00 0. -1.
         21    1    1    2  504  501  0.21474931593E+01 -0.37981628658E+02 -0.37319720918E+01  0.38224906253E+02  0.00000000000E+00 0. -1.
         21    1    1    2  505  503 -0.28750107676E+02 -0.13240775905E+03 -0.24936237046E+03  0.28379565738E+03  0.00000000000E+00 0.  1.
          2    1    1    2  501    0  0.14896794416E+02  0.83569728207E+02 -0.26492589204E+04  0.26506185394E+04  0.00000000000E+00 0.  1.
<scales pt_clust_3="65.34756" pt_clust_4="38.04229" pt_clust_5="86.80598" pt_clust_6="14000.00000"></scales>
<clustering>
<clus scale="   38.042">  1  4  2 -1</clus>
<clus scale="   65.348">  1  3  2 -1</clus>
<clus scale="   86.806">  1  5  2 -1</clus>
<clus scale="   38.042">  1  3  2 -1</clus>
</clustering>
</event>
<event>
 6    0  0.2117869E+002  0.2439129E+03  0.7546771E-02  0.1117213E+00
          2   -1    0    0  503    0 -0.00000000000E+00  0.00000000000E+00  0.90514560493E+03  0.90514560493E+03  0.00000000000E+00 0.  1.
         21   -1    0    0  504  502  0.00000000000E+00 -0.00000000000E+00 -0.14572062893E+04  0.14572062893E+04  0.00000000000E+00 0.  1.
         21    1    1    2  503  505 -0.28101039081E+02 -0.11009021932E+02  0.30931487941E+02  0.43216014481E+02  0.00000000000E+00 0. -1.
         21    1    1    2  504  501  0.20616115039E+03  0.40684760359E+02 -0.13513002713E+04  0.13675416239E+04  0.00000000000E+00 0.  1.
         21    1    1    2  505  502  0.34181972757E+02  0.64411197002E+01 -0.74234645210E+02  0.81979740387E+02  0.00000000000E+00 0.  1.
          2    1    1    2  501    0 -0.21224208407E+03 -0.36116858127E+02  0.84254274424E+03  0.86961451550E+03  0.00000000000E+00 0.  1.
<scales pt_clust_3="30.18057" pt_clust_4="14000.00000" pt_clust_5="34.65127" pt_clust_6="243.91293"></scales>
<clustering>
<clus scale="   30.181">  1  3  2 -1</clus>
<clus scale="   34.651">  2  5  1 -1</clus>
<clus scale="  243.913">  1  6  2 -1</clus>
<clus scale="   34.651">  2  3  1 -1</clus>
</clustering>
</event>
<event>
 6    0  0.2117869E+002  0.7902521E+02  0.7546771E-02  0.1331841E+00
          2   -1    0    0  503    0 -0.00000000000E+00  0.00000000000E+00  0.16231627980E+04  0.16231627980E+04  0.00000000000E+00 0.  1.
         21   -1    0    0  505  502  0.00000000000E+00 -0.00000000000E+00 -0.17224713874E+03  0.17224713874E+03  0.00000000000E+00 0. -1.
         21    1    1    2  503  502 -0.27249600081E+02  0.33993537124E+02 -0.15417631675E+03  0.16021372575E+03  0.00000000000E+00 0. -1.
         21    1    1    2  504  501 -0.24016992090E+02  0.47970625608E+02  0.20924741789E+03  0.21601499653E+03  0.00000000000E+00 0.  1.
         21    1    1    2  505  504 -0.38007833751E+02 -0.42371749949E+02  0.72201429459E+02  0.91940236219E+02  0.00000000000E+00 0. -1.
          2    1    1    2  501    0  0.89274425922E+02 -0.39592412783E+02  0.13236431286E+04  0.13272409782E+04  0.00000000000E+00 0.  1.
<scales pt_clust_3="43.56720" pt_clust_4="79.02521" pt_clust_5="59.37444" pt_clust_6="14000.00000"></scales>
<clustering>
<clus scale="   43.567">  2  3  1 -1</clus>
<clus scale="   59.374">  2  5  1 -1</clus>
<clus scale="   79.025">  2  4  1 -1</clus>
<clus scale="   43.567">  2  3  1 -1</clus>
</clustering>
</event>
<event>
 6    0  0.2117869E+002  0.7066859E+02  0.7546771E-02  0.1357834E+00
         21   -1    0    0  503  502  0.00000000000E+00  0.00000000000E+00  0.15026343337E+03  0.15026343337E+03  0.00000000000E+00 0.  1.
         -4   -1    0    0    0  501 -0.00000000000E+00 -0.00000000000E+00 -0.85998671549E+03  0.85998671549E+03  0.00000000000E+00 0. -1.
         21    1    1    2  503  505 -0.71567336084E+02  0.11136387313E+02  0.12055352599E+03  0.14063802951E+03  0.00000000000E+00 0.  1.
         21    1    1    2  504  502  0.57252890273E+02  0.23222393562E+02 -0.87145316217E+02  0.10682452502E+03  0.00000000000E+00 0.  1.
         21    1    1    2  505  501  0.81112041481E+01 -0.78091828649E+02 -0.16244042369E+03  0.18041900284E+03  0.00000000000E+00 0.  1.
         -4    1    1    2    0  504  0.62032416628E+01  0.43733047774E+02 -0.58069106820E+03  0.58236859150E+03  0.00000000000E+00 0. -1.
<scales pt_clust_3="70.66859" pt_clust_4="14000.00000" pt_clust_5="52.54033" pt_clust_6="44.17080"></scales>
<clustering>
<clus scale="   44.171">  2  6  1 -1</clus>
<clus scale="   52.540">  2  5  1 -1</clus>
<clus scale="   70.669">  1  3  2 -1</clus>
<clus scale="   70.669">  1  3  2 -1</clus>
</clustering>
</event>
<event>
 6    0  0.2117869E+002  0.2643785E+03  0.7546771E-02  0.1104541E+00
         21   -1    0    0  503  502  0.00000000000E+00  0.00000000000E+00  0.16046148474E+04  0.16046148474E+04  0.00000000000E+00 0. -1.
          2   -1    0    0  504    0 -0.00000000000E+00 -0.00000000000E+00 -0.15891591315E+04  0.15891591315E+04  0.00000000000E+00 0. -1.
         21    1    1    2  503  505 -0.63513925446E+02  0.97435924949E+02  0.59457959943E+03  0.60584872555E+03  0.00000000000E+00 0. -1.
         21    1    1    2  504  502 -0.15651438941E+02  0.49577912969E+02 -0.14836179424E+03  0.15720737573E+03  0.00000000000E+00 0. -1.
         21    1    1    2  505  501  0.28201508401E+03  0.50980480436E+02  0.96490045930E+03  0.10065606854E+04  0.00000000000E+00 0. -1.
          2    1    1    2  501    0 -0.20284971962E+03 -0.19799431835E+03 -0.13956625486E+04  0.14241571923E+04  0.00000000000E+00 0. -1.
<scales pt_clust_3="116.50544" pt_clust_4="51.98978" pt_clust_5="14000.00000" pt_clust_6="264.37850"></scales>
<clustering>
<clus scale="   51.990">  2  4  1 -1</clus>
<clus scale="  116.505">  1  3  2 -1</clus>
<clus scale="  264.378">  2  6  1 -1</clus>
<clus scale="  116.505">  1  3  2 -1</clus>
</clustering>
</event>
<event>
 6    0  0.2117869E+002  0.7323203E+02  0.7546771E-02  0.1349435E+00
          2   -1    0    0  502    0 -0.00000000000E+00  0.00000000000E+00  0.35180829441E+04  0.35180829441E+04  0.00000000000E+00 0. -1.
         21   -1    0    0  504  502  0.00000000000E+00 -0.00000000000E+00 -0.39639506511E+03  0.39639506511E+03  0.00000000000E+00 0. -1.
         21    1    1    2  503  501 -0.44636420070E+02 -0.44952546745E+02  0.16638617743E+03  0.17803792151E+03  0.00000000000E+00 0.  1.
         21    1    1    2  504  505 -0.19857635893E+02 -0.31795560885E+02 -0.34984280564E+03  0.35184552299E+03  0.00000000000E+00 0. -1.
         21    1    1    2  505  503 -0.10744311071E+02  0.76203777477E+02 -0.16196433335E+01  0.76974535833E+02  0.00000000000E+00 0.  1.
          2    1    1    2  501    0  0.75238367034E+02  0.54433015208E+00  0.33067641505E+04  0.33076200288E+04  0.00000000000E+00 0. -1.
<scales pt_clust_3="14000.00000" pt_clust_4="37.48711" pt_clust_5="56.17746" pt_clust_6="73.23203"></scales>
<clustering>
<clus scale="   37.487">  2  4  1 -1</clus>
<clus scale="   56.177">  2  5  1 -1</clus>
<clus scale="   73.232">  1  6  2 -1</clus>
<clus scale="   37.487">  2  3  1 -1</clus>
</clustering>
</event>
<event>
 6    0  0.2117869E+002  0.9752363E+02  0.7546771E-02  0.1285591E+00
          2   -1    0    0  502    0 -0.00000000000E+00  0.00000000000E+00  0.38989100180E+04  0.38989100180E+04  0.00000000000E+00 0. -1.
         21   -1    0    0  504  502  0.00000000000E+00 -0.00000000000E+00 -0.63040477141E+03  0.63040477141E+03  0.00000000000E+00 0. -1.
         21    1    1    2  503  505 -0.27531864448E+02 -0.88372172572E+02  0.14201773220E+03  0.16951896857E+03  0.00000000000E+00 0.  1.
         21    1    1    2  504  503  0.42446017014E+02  0.23454334235E+02 -0.61225307947E+03  0.61417066315E+03  0.00000000000E+00 0. -1.
         21    1    1    2  505  501 -0.17176567615E+02  0.14399579243E+03  0.21213010917E+04  0.21262521357E+04  0.00000000000E+00 0.  1.
          2    1    1    2  501    0  0.22624150500E+01 -0.79077954094E+02  0.16174395022E+04  0.16193730220E+04  0.00000000000E+00 0. -1.
<scales pt_clust_3="69.90878" pt_clust_4="48.49505" pt_clust_5="97.52363" pt_clust_6="14000.00000"></scales>
<clustering>
<clus scale="   48.495">  2  4  1 -1</clus>
<clus scale="   69.909">  2  3  1 -1</clus>
<clus scale="   97.524">  2  5  1 -1</clus>
<clus scale="   48.495">  2  3  1 -1</clus>
</clustering>
</event>
<event>
 6    0  0.2117869E+002  0.2360698E+03  0.7546771E-02  0.1122439E+00
          2   -1    0    0  503    0 -0.00000000000E+00  0.00000000000E+00  0.10402116222E+04  0.10402116222E+04  0.00000000000E+00 0. -1.
         21   -1    0    0  505  502  0.00000000000E+00 -0.00000000000E+00 -0.63402518803E+03  0.63402518803E+03  0.00000000000E+00 0.  1.
         21    1    1    2  503  502  0.17305187704E+03  0.78276346122E+02  0.46529446411E+02  0.19554827509E+03  0.00000000000E+00 0. -1.
         21    1    1    2  504  501 -0.82042622569E+02 -0.10592853255E+02  0.24142204411E+03  0.25520149655E+03  0.00000000000E+00 0.  1.
         21    1    1    2  505  504  0.40358196234E+02  0.19703868117E+02 -0.54240825252E+03  0.54426440158E+03  0.00000000000E+00 0.  1.
          2    1    1    2  501    0 -0.13136745070E+03 -0.87387360984E+02  0.66064319617E+03  0.67922263699E+03  0.00000000000E+00 0. -1.
<scales pt_clust_3="226.81745" pt_clust_4="47.13960" pt_clust_5="44.91132" pt_clust_6="47.13960"></scales>
<clustering>
<clus scale="   44.911">  2  5  1 -1</clus>
<clus scale="   47.140">  4  6 -1 -1</clus>
<clus scale="  226.817">  2  3  1 -1</clus>
<clus scale="   44.911">  2  3  1 -1</clus>
</clustering>
</event>
<event>
 6    0  0.2117869E+002  0.1016586E+03  0.7546771E-02  0.1276846E+00
         21   -1    0    0  503  502  0.00000000000E+00  0.00000000000E+00  0.18317060265E+04  0.18317060265E+04  0.00000000000E+00 0.  1.
          1   -1    0    0  504    0 -0.00000000000E+00 -0.00000000000E+00 -0.48490292042E+03  0.48490292042E+03  0.00000000000E+00 0. -1.
         21    1    1    2  503  501 -0.13670077614E+03 -0.11016176423E+03  0.75432851438E+03  0.77448965396E+03  0.00000000000E+00 0.  1.
         21    1    1    2  504  505  0.23398314709E+02  0.32862763701E+02 -0.28362856106E+03  0.28648316359E+03  0.00000000000E+00 0. -1.
         21    1    1    2  505  502  0.39842281109E+02  0.77470340353E+02  0.10569004804E+04  0.10604846470E+04  0.00000000000E+00 0.  1.
          1    1    1    2  501    0  0.73460180320E+02 -0.17133982325E+00 -0.18079732757E+03  0.19515148246E+03  0.00000000000E+00 0. -1.
<scales pt_clust_3="101.65861" pt_clust_4="40.34157" pt_clust_5="87.47326" pt_clust_6="14000.00000"></scales>
<clustering>
<clus scale="   40.342">  2  4  1 -1</clus>
<clus scale="   87.473">  1  5  2 -1</clus>
<clus scale="  101.659">  1  3  2 -1</clus>
<clus scale="   87.473">  1  3  2 -1</clus>
</clustering>
</event>
<event>
 6    0  0.2117869E+002  0.1364210E+03  0.7546771E-02  0.1218228E+00
          1   -1    0    0  505    0 -0.00000000000E+00  0.00000000000E+00  0.65702870928E+03  0.65702870928E+03  0.00000000000E+00 0. -1.
         21   -1    0    0  501  502  0.00000000000E+00 -0.00000000000E+00 -0.29355538890E+03  0.29355538890E+03  0.00000000000E+00 0. -1.
         21    1    1    2  503  504 -0.14146629622E+03 -0.46779642637E+02  0.66693688423E+02  0.16324550838E+03  0.00000000000E+00 0. -1.
         21    1    1    2  504  502  0.45460731273E+02 -0.64498141389E+02 -0.18866246709E+03  0.20449991398E+03  0.00000000000E+00 0. -1.
         21    1    1    2  505  503 -0.14778359993E+02  0.52935736276E+02  0.44911864456E+03  0.45246894810E+03  0.00000000000E+00 0. -1.
          1    1    1    2  501    0  0.11078392494E+03  0.58342047750E+02  0.36323454471E+02  0.13036972772E+03  0.00000000000E+00 0. -1.
<scales pt_clust_3="14000.00000" pt_clust_4="76.92436" pt_clust_5="54.95991" pt_clust_6="136.42096"></scales>
<clustering>
<clus scale="   54.960">  1  5  2 -1</clus>
<clus scale="   76.924">  2  4  1 -1</clus>
<clus scale="  136.421">  2  6  1 -1</clus>
<clus scale="   76.924">  2  3  1 -1</clus>
</clustering>
</event>
<event>
 6    0  0.2117869E+002  0.7035797E+02  0.7546771E-02  0.1358880E+00
         21   -1    0    0  503  502  0.00000000000E+00  0.00000000000E+00  0.41107343054E+02  0.41107343054E+02  0.00000000000E+00 0. -1.
          3   -1    0    0  504    0 -0.00000000000E+00 -0.00000000000E+00 -0.18030150501E+04  0.18030150501E+04  0.00000000000E+00 0. -1.
         21    1    1    2  503  501  0.72201676470E+01 -0.10464137262E+03 -0.75525986722E+02  0.12925216577E+03  0.00000000000E+00 0. -1.
         21    1    1    2  504  505 -0.36178315702E+02 -0.81461452333E+01 -0.13745728805E+03  0.14237182392E+03  0.00000000000E+00 0. -1.
         21    1    1    2  505  502 -0.10650063410E+02  0.39338208215E+02 -0.28371657580E+02  0.49657521384E+02  0.00000000000E+00 0. -1.
          3    1    1    2  501    0  0.39608211465E+02  0.73449309641E+02 -0.15205527747E+04  0.15228408821E+04  0.00000000000E+00 0. -1.
<scales pt_clust_3="70.35797" pt_clust_4="37.08410" pt_clust_5="40.80095" pt_clust_6="14000.00000"></scales>
<clustering>
<clus scale="   37.084">  2  4  1 -1</clus>
<clus scale="   40.801">  1  5  2 -1</clus>
<clus scale="   70.358">  1  3  2 -1</clus>
<clus scale="   40.801">  1  3  2 -1</clus>
</clustering>
</event>
<event>
 6    0  0.2117869E+002  0.9555839E+02  0.7546771E-02  0.1289923E+00
         21   -1    0    0  503  502  0.00000000000E+00  0.00000000000E+00  0.47324643146E+03  0.47324643146E+03  0.00000000000E+00 0.  1.
          2   -1    0    0  505    0 -0.00000000000E+00 -0.00000000000E+00 -0.10496794679E+04  0.10496794679E+04  0.00000000000E+00 0. -1.
         21    1    1    2  503  501 -0.26774794022E+02  0.44468495215E+02  0.42885030754E+02  0.67330992302E+02  0.00000000000E+00 0.  1.
         21    1    1    2  504  502 -0.43230770815E+02 -0.11012273184E+03  0.40470755105E+03  0.42164453926E+03  0.00000000000E+00 0.  1.
         21    1    1    2  505  504  0.34023240758E+02 -0.15708439541E+02 -0.57361537916E+03  0.57483818522E+03  0.00000000000E+00 0.  1.
          2    1    1    2  501    0  0.35982324079E+02  0.81362676162E+02 -0.45041023911E+03  0.45911218261E+03  0.00000000000E+00 0. -1.
<scales pt_clust_3="51.11273" pt_clust_4="95.55839" pt_clust_5="37.47447" pt_clust_6="14000.00000"></scales>
<clustering>
<clus scale="   37.474">  2  5  1 -1</clus>
<clus scale="   51.113">  1  3  2 -1</clus>
<clus scale="   95.558">  1  4  2 -1</clus>
<clus scale="   51.113">  1  3  2 -1</clus>
</clustering>
</event>
<event>
 6    0  0.2117869E+002  0.5687218E+03  0.7546771E-02  0.9972511E-01
         21   -1    0    0  505  502  0.00000000000E+00  0.00000000000E+00  0.71097939790E+03  0.71097939790E+03  0.00000000000E+00 0.  1.
          1   -1    0    0  504    0 -0.00000000000E+00 -0.00000000000E+00 -0.99148511444E+03  0.99148511444E+03  0.00000000000E+00 0.  1.
         21    1    1    2  503  502 -0.80320133429E+02  0.18436426333E+03  0.16939497136E+03  0.26293756246E+03  0.00000000000E+00 0.  1.
         21    1    1    2  504  503 -0.47515642734E+03  0.21627881604E+03 -0.39016660362E+03  0.65175159017E+03  0.00000000000E+00 0.  1.
         21    1    1    2  505  501  0.23866660764E+02  0.21405059962E+02  0.87524832077E+02  0.93211535327E+02  0.00000000000E+00 0. -1.
          1    1    1    2  501    0  0.53160990000E+03 -0.42204813934E+03 -0.14725891635E+03  0.69456382438E+03  0.00000000000E+00 0.  1.
<scales pt_clust_3="204.88996" pt_clust_4="568.72181" pt_clust_5="32.05923" pt_clust_6="14000.00000"></scales>
<clustering>
<clus scale="   32.059">  1  5  2 -1</clus>
<clus scale="  204.890">  1  3  2 -1</clus>
<clus scale="  568.722">  2  4  1 -1</clus>
<clus scale="   32.059">  1  3  2 -1</clus>
</clustering>
</event>
<event>
 6    0  0.2117869E+002  0.9295788E+02  0.7546771E-02  0.1295843E+00
          2   -1    0    0  502    0 -0.00000000000E+00  0.00000000000E+00  0.35042048768E+04  0.35042048768E+04  0.00000000000E+00 0.  1.
         21   -1    0    0  503  502  0.00000000000E+00 -0.00000000000E+00 -0.37207558660E+03  0.37207558660E+03  0.00000000000E+00 0. -1.
         21    1    1    2  503  505  0.37598561652E+02  0.70718150736E+02 -0.35678691695E+03  0.36566598528E+03  0.00000000000E+00 0. -1.
         21    1    1    2  504  501 -0.65512914435E+02 -0.16036787551E+02  0.27434808078E+03  0.28251723830E+03  0.00000000000E+00 0.  1.
         21    1    1    2  505  504 -0.43707323066E+02 -0.33898782835E+02  0.11478195599E+03  0.12741410828E+03  0.00000000000E+00 0.  1.
          2    1    1    2  501    0  0.71621675850E+02 -0.20782580350E+02  0.30997861704E+04  0.31006831315E+04  0.00000000000E+00 0.  1.
<scales pt_clust_3="80.26372" pt_clust_4="42.46510" pt_clust_5="42.46510" pt_clust_6="74.57600"></scales>
<clustering>
<clus scale="   42.465">  4  5 -1 -1</clus>
<clus scale="   74.576">  1  6  2 -1</clus>
<clus scale="   80.264">  2  3  1 -1</clus>
<clus scale="   80.264">  2  3  1 -1</clus>
</clustering>
</event>
<event>
 6    0  0.2117869E+002  0.1613523E+03  0.7546771E-02  0.1187178E+00
          1   -1    0    0  504    0 -0.00000000000E+00  0.00000000000E+00  0.19731897931E+03  0.19731897931E+03  0.00000000000E+00 0. -1.
         21   -1    0    0  505  502  0.00000000000E+00 -0.00000000000E+00 -0.13833391384E+04  0.13833391384E+04  0.00000000000E+00 0. -1.
         21    1    1    2  503  501 -0.12125041672E+03 -0.12265102242E+03 -0.70499343503E+03  0.72578280518E+03  0.00000000000E+00 0. -1.
         21    1    1    2  504  502  0.17265016099E+02 -0.58282469349E+02  0.87690883045E+02  0.10669872531E+03  0.00000000000E+00 0. -1.
         21    1    1    2  505  503  0.54756831053E+02  0.14844970161E+03 -0.63792008258E+03  0.65725007129E+03  0.00000000000E+00 0. -1.
          1    1    1    2  501    0  0.49228569567E+02  0.32483790161E+02  0.69202475482E+02  0.90926515922E+02  0.00000000000E+00 0. -1.
<scales pt_clust_3="14000.00000" pt_clust_4="65.99630" pt_clust_5="161.35231" pt_clust_6="58.98007"></scales>
<clustering>
<clus scale="   58.980">  1  6  2 -1</clus>
<clus scale="   65.996">  1  4  2 -1</clus>
<clus scale="  161.352">  2  5  1 -1</clus>
<clus scale="  161.352">  2  3  1 -1</clus>
</clustering>
</event>
<event>
 6    0  0.2117869E+002  0.1015737E+03  0.7546771E-02  0.1277021E+00
          3   -1    0    0  504    0 -0.00000000000E+00  0.00000000000E+00  0.15467942566E+03  0.15467942566E+03  0.00000000000E+00 0.  1.
         21   -1    0    0  503  502  0.00000000000E+00 -0.00000000000E+00 -0.43712606834E+03  0.43712606834E+03  0.00000000000E+00 0. -1.
         21    1    1    2  503  501 -0.48624949702E+02 -0.28797586867E+02 -0.48967423383E+02  0.74776301698E+02  0.00000000000E+00 0.  1.
         21    1    1    2  504  505 -0.42945773831E+02  0.61301559382E+02 -0.34397467257E+02  0.82373578448E+02  0.00000000000E+00 0. -1.
         21    1    1    2  505  502  0.65478319052E+02  0.83522585971E+02 -0.27418065921E+03  0.29400419473E+03  0.00000000000E+00 0. -1.
          3    1    1    2  501    0  0.26092404481E+02 -0.11602655849E+03  0.75098907159E+02  0.14065141913E+03  0.00000000000E+00 0.  1.
<scales pt_clust_3="56.51271" pt_clust_4="14000.00000" pt_clust_5="68.05298" pt_clust_6="101.57367"></scales>
<clustering>
<clus scale="   56.513">  2  3  1 -1</clus>
<clus scale="   68.053">  2  5  1 -1</clus>
<clus scale="  101.574">  1  6  2 -1</clus>
<clus scale="   56.513">  2  3  1 -1</clus>
</clustering>
</event>
<event>
 6    0  0.2117869E+002  0.4023277E+03  0.7546771E-02  0.1042977E+00
         21   -1    0    0  505  502  0.00000000000E+00  0.00000000000E+00  0.87097369573E+03  0.87097369573E+03  0.00000000000E+00 0.  1.
          3   -1    0    0  503    0 -0.00000000000E+00 -0.00000000000E+00 -0.48825254809E+03  0.48825254809E+03  0.00000000000E+00 0. -1.
         21    1    1    2  503  502  0.40943060990E+02 -0.23209217496E+02  0.66502518708E+02  0.81471387705E+02  0.00000000000E+00 0. -1.
         21    1    1    2  504  501 -0.27139678596E+03 -0.29114168244E+03  0.45395297169E+03  0.60373255270E+03  0.00000000000E+00 0.  1.
         21    1    1    2  505  504 -0.74901205263E+02  0.50511547371E+02  0.15228613160E+03  0.17706685982E+03  0.00000000000E+00 0.  1.
          3    1    1    2  501    0  0.30535493023E+03  0.26383935257E+03 -0.29002047436E+03  0.49695544360E+03  0.00000000000E+00 0. -1.
<scales pt_clust_3="47.06381" pt_clust_4="14000.00000" pt_clust_5="80.64991" pt_clust_6="402.32771"></scales>
<clustering>
<clus scale="   47.064">  1  3  2 -1</clus>
<clus scale="   80.650">  1  5  2 -1</clus>
<clus scale="  402.328">  2  6  1 -1</clus>
<clus scale="   47.064">  1  3  2 -1</clus>
</clustering>
</event>
<event>
 6    0  0.2117869E+002  0.9649108E+02  0.7546771E-02  0.1287853E+00
         21   -1    0    0  503  502  0.00000000000E+00  0.00000000000E+00  0.12507786962E+03  0.12507786962E+03  0.00000000000E+00 0. -1.
          2   -1    0    0  505    0 -0.00000000000E+00 -0.00000000000E+00 -0.35256803595E+04  0.35256803595E+04  0.00000000000E+00 0. -1.
         21    1    1    2  503  501 -0.21075801502E+02 -0.92986970367E+02 -0.55849578460E+03  0.56657595032E+03  0.00000000000E+00 0.  1.
         21    1    1    2  504  502 -0.45648778551E+01  0.96538293680E+02  0.10079801877E+03  0.13964498145E+03  0.00000000000E+00 0. -1.
         21    1    1    2  505  504 -0.12096567788E+02  0.37744406288E+02 -0.15561946199E+04  0.15566992844E+04  0.00000000000E+00 0.  1.
          2    1    1    2  501    0  0.37737247145E+02 -0.41295729601E+02 -0.13867101042E+04  0.13878380129E+04  0.00000000000E+00 0. -1.
<scales pt_clust_3="96.49108" pt_clust_4="14000.00000" pt_clust_5="39.63543" pt_clust_6="32.70790"></scales>
<clustering>
<clus scale="   39.635">  2  5  1 -1</clus>
<clus scale="   32.708">  2  6  1 -1</clus>
<clus scale="   96.491">  2  3  1 -1</clus>
<clus scale="   96.491">  1  3  2 -1</clus>
</clustering>
</event>
<event>
 6    0  0.2117869E+002  0.1308905E+03  0.7546771E-02  0.1226140E+00
          2   -1    0    0  505    0 -0.00000000000E+00  0.00000000000E+00  0.11914037040E+04  0.11914037040E+04  0.00000000000E+00 0. -1.
         21   -1    0    0  504  502  0.00000000000E+00 -0.00000000000E+00 -0.93413690888E+03  0.93413690888E+03  0.00000000000E+00 0.  1.
         21    1    1    2  503  502  0.13281229850E+03 -0.41208892363E+02 -0.15256204174E+03  0.20642784702E+03  0.00000000000E+00 0.  1.
         21    1    1    2  504  501 -0.40036110690E+02 -0.50489469180E+02 -0.73876848028E+03  0.74157328978E+03  0.00000000000E+00 0.  1.
         21    1    1    2  505  503  0.11399328377E+02 -0.37031702015E+02  0.36668893352E+02  0.53346971622E+02  0.00000000000E+00 0.  1.
          2    1    1    2  501    0 -0.10417551619E+03  0.12873006356E+03  0.11119284238E+04  0.11241925045E+04  0.00000000000E+00 0. -1.
<scales pt_clust_3="14000.00000" pt_clust_4="64.46345" pt_clust_5="38.74650" pt_clust_6="130.89050"></scales>
<clustering>
<clus scale="   38.747">  1  5  2 -1</clus>
<clus scale="   64.463">  2  4  1 -1</clus>
<clus scale="  130.891">  1  6  2 -1</clus>
<clus scale="   64.463">  2  3  1 -1</clus>
</clustering>
</event>
<event>
 6    0  0.2117869E+002  0.8733507E+02  0.7546771E-02  0.1309437E+00
          2   -1    0    0  504    0 -0.00000000000E+00  0.00000000000E+00  0.96605227975E+03  0.96605227975E+03  0.00000000000E+00 0. -1.
         21   -1    0    0  503  502  0.00000000000E+00 -0.00000000000E+00 -0.16618860078E+03  0.16618860078E+03  0.00000000000E+00 0. -1.
         21    1    1    2  503  501 -0.32794620542E+02  0.75535781810E+01 -0.18919555553E+02  0.38606906923E+02  0.00000000000E+00 0. -1.
         21    1    1    2  504  505 -0.53859045883E+02  0.25302529290E+02  0.18450516021E+03  0.19386378970E+03  0.00000000000E+00 0. -1.
         21    1    1    2  505  502 -0.52557215678E+02  0.14795619347E+02 -0.11970221102E+03  0.13156667737E+03  0.00000000000E+00 0. -1.
          2    1    1    2  501    0  0.13921088210E+03 -0.47651726817E+02  0.75398028534E+03  0.76820350653E+03  0.00000000000E+00 0. -1.
<scales pt_clust_3="33.65329" pt_clust_4="60.62695" pt_clust_5="87.33507" pt_clust_6="14000.00000"></scales>
<clustering>
<clus scale="   33.653">  2  3  1 -1</clus>
<clus scale="   60.627">  1  4  2 -1</clus>
<clus scale="   87.335">  2  5  1 -1</clus>
<clus scale="   33.653">  2  3  1 -1</clus>
</clustering>
</event>
<event>
 6    0  0.2117869E+002  0.6622770E+02  0.7546771E-02  0.1373412E+00
         -3   -1    0    0    0  501 -0.00000000000E+00  0.00000000000E+00  0.44512860661E+03  0.44512860661E+03  0.00000000000E+00 0.  1.
         21   -1    0    0  503  502  0.00000000000E+00 -0.00000000000E+00 -0.14176981962E+03  0.14176981962E+03  0.00000000000E+00 0. -1.
         21    1    1    2  503  505  0.38574748894E+02  0.45363254090E+02 -0.10270171509E+03  0.11871595662E+03  0.00000000000E+00 0. -1.
         21    1    1    2  504  502 -0.34912310524E+02 -0.53783341542E+02  0.70091924199E+02  0.94996816217E+02  0.00000000000E+00 0. -1.
         21    1    1    2  505  501  0.58182977767E+02  0.32260769524E+02  0.60729339717E+02  0.90078126393E+02  0.00000000000E+00 0. -1.
         -3    1    1    2    0  504 -0.61845416136E+02 -0.23840682071E+02  0.27523923817E+03  0.28310752700E+03  0.00000000000E+00 0.  1.
<scales pt_clust_3="59.54692" pt_clust_4="40.56303" pt_clust_5="66.22770" pt_clust_6="14000.00000"></scales>
<clustering>
<clus scale="   59.547">  2  3  1 -1</clus>
<clus scale="   40.563">  2  4  1 -1</clus>
<clus scale="   66.228">  2  5  1 -1</clus>
<clus scale="   59.547">  2  3  1 -1</clus>
</clustering>
</event>
<event>
 6    0  0.2117869E+002  0.1987406E+03  0.7546771E-02  0.1150806E+00
          1   -1    0    0  505    0 -0.00000000000E+00  0.00000000000E+00  0.57597793817E+03  0.57597793817E+03  0.00000000000E+00 0.  1.
         21   -1    0    0  503  502  0.00000000000E+00 -0.00000000000E+00 -0.22151984079E+04  0.22151984079E+04  0.00000000000E+00 0.  1.
         21    1    1    2  503  501 -0.82060611834E+02 -0.85100941516E+02 -0.20915076360E+04  0.20948461294E+04  0.00000000000E+00 0.  1.
         21    1    1    2  504  502 -0.12878697922E+03 -0.61290793350E+02  0.11065449272E+03  0.18051887471E+03  0.00000000000E+00 0.  1.
         21    1    1    2  505  504 -0.63052848323E+02  0.83401473948E+02  0.10820617942E+03  0.15046609187E+03  0.00000000000E+00 0. -1.
          1    1    1    2  501    0  0.27390043938E+03  0.62990260917E+02  0.23342649409E+03  0.36534525015E+03  0.00000000000E+00 0.  1.
<scales pt_clust_3="118.16044" pt_clust_4="14000.00000" pt_clust_5="104.55366" pt_clust_6="198.74060"></scales>
<clustering>
<clus scale="  104.554">  1  5  2 -1</clus>
<clus scale="  118.160">  2  3  1 -1</clus>
<clus scale="  198.741">  2  6  1 -1</clus>
<clus scale="  118.160">  2  3  1 -1</clus>
</clustering>
</event>
<event>
 6    0  0.2117869E+002  0.1296819E+03  0.7546771E-02  0.1227929E+00
          2   -1    0    0  505    0 -0.00000000000E+00  0.00000000000E+00  0.16664299464E+04  0.16664299464E+04  0.00000000000E+00 0.  1.
         21   -1    0    0  504  502  0.00000000000E+00 -0.00000000000E+00 -0.76019651177E+02  0.76019651177E+02  0.00000000000E+00 0.  1.
         21    1    1    2  503  502  0.83946056456E+02  0.68459289674E+02  0.33795315923E+02  0.11347130966E+03  0.00000000000E+00 0. -1.
         21    1    1    2  504  501 -0.87690223540E+02  0.71879439304E+02  0.69762614858E+02  0.13312795173E+03  0.00000000000E+00 0.  1.
         21    1    1    2  505  503 -0.32568373084E+02 -0.21436568583E+02  0.30703606052E+03  0.30950180590E+03  0.00000000000E+00 0. -1.
          2    1    1    2  501    0  0.36312540168E+02 -0.11890216039E+03  0.11798163039E+04  0.11863485303E+04  0.00000000000E+00 0.  1.
<scales pt_clust_3="106.21915" pt_clust_4="129.68188" pt_clust_5="38.99007" pt_clust_6="14000.00000"></scales>
<clustering>
<clus scale="   38.990">  1  5  2 -1</clus>
<clus scale="  106.219">  2  3  1 -1</clus>
<clus scale="  129.682">  2  4  1 -1</clus>
<clus scale="  106.219">  2  3  1 -1</clus>
</clustering>
</event>
<event>
 6    0  0.2117869E+002  0.8915413E+02  0.7546771E-02  0.1304913E+00
          2   -1    0    0  503    0 -0.00000000000E+00  0.00000000000E+00  0.29156344894E+04  0.29156344894E+04  0.00000000000E+00 0.  1.
         21   -1    0    0  505  502  0.00000000000E+00 -0.00000000000E+00 -0.78353760959E+02  0.78353760959E+02  0.00000000000E+00 0. -1.
         21    1    1    2  503  504 -0.23385035764E+02  0.72991710003E+02  0.29979369813E+03  0.30943644108E+03  0.00000000000E+00 0. -1.
         21    1    1    2  504  502 -0.12510959254E+01  0.77257302088E+02  0.99661389930E+02  0.12610570411E+03  0.00000000000E+00 0. -1.
         21    1    1    2  505  501 -0.84824468293E+02 -0.56038798684E+02 -0.13777236355E+02  0.10259312658E+03  0.00000000000E+00 0. -1.
          2    1    1    2  501    0  0.10946059998E+03 -0.94210213406E+02  0.24516028767E+04  0.24558529786E+04  0.00000000000E+00 0.  1.
<scales pt_clust_3="76.64626" pt_clust_4="80.44480" pt_clust_5="14000.00000" pt_clust_6="89.15413"></scales>
<clustering>
<clus scale="   76.646">  1  3  2 -1</clus>
<clus scale="   80.445">  2  4  1 -1</clus>
<clus scale="   89.154">  1  6  2 -1</clus>
<clus scale="   80.445">  2  3  1 -1</clus>
</clustering>
</event>
<event>
 6    0  0.2117869E+002  0.6771684E+02  0.7546771E-02  0.1368034E+00
         21   -1    0    0  503  502  0.00000000000E+00  0.00000000000E+00  0.50960085215E+02  0.50960085215E+02  0.00000000000E+00 0. -1.
          2   -1    0    0  505    0 -0.00000000000E+00 -0.00000000000E+00 -0.11377816576E+04  0.11377816576E+04  0.00000000000E+00 0.  1.
         21    1    1    2  503  501  0.14305286764E+02 -0.37189075908E+02  0.16712911717E+02  0.43208679849E+02  0.00000000000E+00 0.  1.
         21    1    1    2  504  502  0.31307242347E+02  0.56615659326E+02 -0.65476528516E+02  0.92047010222E+02  0.00000000000E+00 0. -1.
         21    1    1    2  505  504 -0.68063788166E+02  0.44408665583E+02 -0.25797115341E+03  0.27046982241E+03  0.00000000000E+00 0. -1.
          2    1    1    2  501    0  0.22451259054E+02 -0.63835249002E+02 -0.78008680215E+03  0.78301623031E+03  0.00000000000E+00 0.  1.
<scales pt_clust_3="39.84556" pt_clust_4="52.18754" pt_clust_5="67.71684" pt_clust_6="14000.00000"></scales>
<clustering>
<clus scale="   39.846">  1  3  2 -1</clus>
<clus scale="   52.188">  1  4  2 -1</clus>
<clus scale="   67.717">  1  5  2 -1</clus>
<clus scale="   39.846">  1  3  2 -1</clus>
</clustering>
</event>
<event>
 6    0  0.2117869E+002  0.1025874E+03  0.7546771E-02  0.1274947E+00
          2   -1    0    0  504    0 -0.00000000000E+00  0.00000000000E+00  0.19222008497E+03  0.19222008497E+03  0.00000000000E+00 0.  1.
         21   -1    0    0  505  502  0.00000000000E+00 -0.00000000000E+00 -0.11514803310E+04  0.11514803310E+04  0.00000000000E+00 0.  1.
         21    1    1    2  503  502 -0.46097576343E+02 -0.38853544540E+02 -0.21226296689E+03  0.22065845005E+03  0.00000000000E+00 0.  1.
         21    1    1    2  504  503 -0.53790964930E+02  0.13129883472E+01  0.10938005843E+02  0.54907484174E+02  0.00000000000E+00 0.  1.
         21    1    1    2  505  501  0.10885307519E+03 -0.44556717353E+02 -0.89792733315E+03  0.90559802819E+03  0.00000000000E+00 0.  1.
          2    1    1    2  501    0 -0.89645339142E+01  0.82097273545E+02  0.13999204816E+03  0.16253645357E+03  0.00000000000E+00 0.  1.
<scales pt_clust_3="61.35626" pt_clust_4="53.80699" pt_clust_5="14000.00000" pt_clust_6="102.58740"></scales>
<clustering>
<clus scale="   53.807">  1  4  2 -1</clus>
<clus scale="   61.356">  2  3  1 -1</clus>
<clus scale="  102.587">  1  6  2 -1</clus>
<clus scale="   61.356">  2  3  1 -1</clus>
</clustering>
</event>
<event>
 6    0  0.2117869E+002  0.8339014E+02  0.7546771E-02  0.1319697E+00
         21   -1    0    0  503  502  0.00000000000E+00  0.00000000000E+00  0.22938534433E+03  0.22938534433E+03  0.00000000000E+00 0. -1.
          2   -1    0    0  504    0 -0.00000000000E+00 -0.00000000000E+00 -0.14186243037E+04  0.14186243037E+04  0.00000000000E+00 0.  1.
         21    1    1    2  503  505  0.42417822057E+02 -0.15485962300E+02  0.20109598275E+03  0.20610356847E+03  0.00000000000E+00 0. -1.
         21    1    1    2  504  502  0.24698083602E+02 -0.54171068074E+02 -0.33502099978E+03  0.34026984916E+03  0.00000000000E+00 0. -1.
         21    1    1    2  505  501 -0.46996918954E+02 -0.41338324857E+02 -0.28723117833E+02  0.68866428623E+02  0.00000000000E+00 0. -1.
          2    1    1    2  501    0 -0.20118986705E+02  0.11099535523E+03 -0.10265908245E+04  0.10327698018E+04  0.00000000000E+00 0.  1.
<scales pt_clust_3="45.15625" pt_clust_4="83.39014" pt_clust_5="55.19223" pt_clust_6="14000.00000"></scales>
<clustering>
<clus scale="   45.156">  1  3  2 -1</clus>
<clus scale="   55.192">  1  5  2 -1</clus>
<clus scale="   83.390">  2  4  1 -1</clus>
<clus scale="   45.156">  1  3  2 -1</clus>
</clustering>
</event>
<event>
 6    0  0.2117869E+002  0.9485528E+02  0.7546771E-02  0.1291502E+00
         21   -1    0    0  504  502  0.00000000000E+00  0.00000000000E+00  0.24216784848E+03  0.24216784848E+03  0.00000000000E+00 0. -1.
          2   -1    0    0  503    0 -0.00000000000E+00 -0.00000000000E+00 -0.31903088131E+04  0.31903088131E+04  0.00000000000E+00 0.  1.
         21    1    1    2  503  505 -0.42792820122E+02  0.27801822495E+02 -0.14002156969E+04  0.14011453046E+04  0.00000000000E+00 0.  1.
         21    1    1    2  504  501 -0.84757476378E+02  0.91956527398E+01  0.72139943138E+02  0.11168062154E+03  0.00000000000E+00 0. -1.
         21    1    1    2  505  502 -0.12530326236E+01  0.30081510816E+02  0.14526753055E+03  0.14835471956E+03  0.00000000000E+00 0. -1.
          2    1    1    2  501    0  0.12880332912E+03 -0.67078986051E+02 -0.17653327415E+04  0.17712960159E+04  0.00000000000E+00 0.  1.
<scales pt_clust_3="51.11618" pt_clust_4="14000.00000" pt_clust_5="30.10760" pt_clust_6="94.85528"></scales>
<clustering>
<clus scale="   30.108">  1  5  2 -1</clus>
<clus scale="   51.116">  2  3  1 -1</clus>
<clus scale="   94.855">  2  6  1 -1</clus>
<clus scale="   30.108">  1  3  2 -1</clus>
</clustering>
</event>
<event>
 6    0  0.2117869E+002  0.1147501E+03  0.7546771E-02  0.1252018E+00
         21   -1    0    0  503  502  0.00000000000E+00  0.00000000000E+00  0.23129046888E+03  0.23129046888E+03  0.00000000000E+00 0.  1.
         -3   -1    0    0    0  501 -0.00000000000E+00 -0.00000000000E+00 -0.16108300984E+03  0.16108300984E+03  0.00000000000E+00 0.  1.
         21    1    1    2  503  504  0.90923603652E+01 -0.38784325993E+02  0.17061039721E+02  0.43335597793E+02  0.00000000000E+00 0.  1.
         21    1    1    2  504  505  0.93534984813E+02  0.10910477312E+03  0.12734887685E+03  0.19201661734E+03  0.00000000000E+00 0.  1.
         21    1    1    2  505  501 -0.26217704887E+02 -0.23225027832E+02 -0.55042659549E+02  0.65241584420E+02  0.00000000000E+00 0.  1.
         -3    1    1    2    0  502 -0.76409640291E+02 -0.47095419293E+02 -0.19159797982E+02  0.91779679159E+02  0.00000000000E+00 0.  1.
<scales pt_clust_3="42.19113" pt_clust_4="114.75013" pt_clust_5="35.02528" pt_clust_6="14000.00000"></scales>
<clustering>
<clus scale="   35.025">  2  5  1 -1</clus>
<clus scale="   42.191">  1  3  2 -1</clus>
<clus scale="  114.750">  1  4  2 -1</clus>
<clus scale="   42.191">  1  3  2 -1</clus>
</clustering>
</event>
<event>
 6    0  0.2117869E+002  0.9894231E+02  0.7546771E-02  0.1282536E+00
          2   -1    0    0  503    0 -0.00000000000E+00  0.00000000000E+00  0.25466490903E+04  0.25466490903E+04  0.00000000000E+00 0.  1.
         21   -1    0    0  505  502  0.00000000000E+00 -0.00000000000E+00 -0.13435142966E+02  0.13435142966E+02  0.00000000000E+00 0. -1.
         21    1    1    2  503  504  0.27784547215E+02 -0.27193874994E+02  0.54807738025E+03  0.54945455011E+03  0.00000000000E+00 0.  1.
         21    1    1    2  504  502 -0.16452713704E+02  0.40961943521E+02  0.37596185268E+03  0.37854443237E+03  0.00000000000E+00 0. -1.
         21    1    1    2  505  501  0.93099809014E+02  0.25898641403E+02  0.24537639972E+03  0.26371934249E+03  0.00000000000E+00 0. -1.
          2    1    1    2  501    0 -0.10443164252E+03 -0.39666709929E+02  0.13637983146E+04  0.13683659082E+04  0.00000000000E+00 0.  1.
<scales pt_clust_3="38.87786" pt_clust_4="37.53872" pt_clust_5="98.94231" pt_clust_6="14000.00000"></scales>
<clustering>
<clus scale="   38.878">  1  3  2 -1</clus>
<clus scale="   37.539">  1  4  2 -1</clus>
<clus scale="   98.942">  2  5  1 -1</clus>
<clus scale="   98.942">  2  3  1 -1</clus>
</clustering>
</event>
<event>
 6    0  0.2117869E+002  0.9452765E+02  0.7546771E-02  0.1292243E+00
          1   -1    0    0  503    0 -0.00000000000E+00  0.00000000000E+00  0.65845403109E+03  0.65845403109E+03  0.00000000000E+00 0. -1.
         21   -1    0    0  505  502  0.00000000000E+00 -0.00000000000E+00 -0.28760298384E+03  0.28760298384E+03  0.00000000000E+00 0. -1.
         21    1    1    2  503  504 -0.18415395885E+02  0.32098240919E+02  0.36692064659E+03  0.36878202881E+03  0.00000000000E+00 0. -1.
         21    1    1    2  504  502  0.23438688324E+02  0.21402409785E+02 -0.20477841930E+02  0.37772705292E+02  0.00000000000E+00 0.  1.
         21    1    1    2  505  501 -0.20986148067E+01  0.70447122504E+02 -0.23857035455E+03  0.24876297016E+03  0.00000000000E+00 0. -1.
          1    1    1    2  501    0 -0.29246776322E+01 -0.12394777321E+03  0.26297859714E+03  0.29073931068E+03  0.00000000000E+00 0. -1.
<scales pt_clust_3="37.03074" pt_clust_4="31.74012" pt_clust_5="94.52765" pt_clust_6="14000.00000"></scales>
<clustering>
<clus scale="   31.740">  2  4  1 -1</clus>
<clus scale="   37.031">  1  3  2 -1</clus>
<clus scale="   94.528">  2  5  1 -1</clus>
<clus scale="   31.740">  2  3  1 -1</clus>
</clustering>
</event>
<event>
 6    0  0.2117869E+002  0.1013142E+03  0.7546771E-02  0.1277556E+00
         21   -1    0    0  504  502  0.00000000000E+00  0.00000000000E+00  0.26817734629E+03  0.26817734629E+03  0.00000000000E+00 0.  1.
          2   -1    0    0  503    0 -0.00000000000E+00 -0.00000000000E+00 -0.14990349777E+04  0.14990349777E+04  0.00000000000E+00 0. -1.
         21    1    1    2  503  505  0.49218191375E+02 -0.12862792560E+02 -0.26854359883E+03  0.27331949485E+03  0.00000000000E+00 0. -1.
         21    1    1    2  504  501 -0.90881917500E+02 -0.72340819883E+02  0.20890881398E+03  0.23903056229E+03  0.00000000000E+00 0.  1.
         21    1    1    2  505  502 -0.79024688388E+01  0.46055486928E+02  0.27670257585E+02  0.54306537772E+02  0.00000000000E+00 0.  1.
          2    1    1    2  501    0  0.49566194964E+02  0.39148125516E+02 -0.11988931041E+04  0.12005557290E+04  0.00000000000E+00 0. -1.
<scales pt_clust_3="50.67044" pt_clust_4="14000.00000" pt_clust_5="46.72854" pt_clust_6="101.31420"></scales>
<clustering>
<clus scale="   46.729">  1  5  2 -1</clus>
<clus scale="   50.670">  2  3  1 -1</clus>
<clus scale="  101.314">  2  6  1 -1</clus>
<clus scale="   46.729">  1  3  2 -1</clus>
</clustering>
</event>
<event>
 6    0  0.2117869E+002  0.8677035E+02  0.7546771E-02  0.1310867E+00
         21   -1    0    0  503  502  0.00000000000E+00  0.00000000000E+00  0.26345196414E+03  0.26345196414E+03  0.00000000000E+00 0. -1.
          1   -1    0    0  505    0 -0.00000000000E+00 -0.00000000000E+00 -0.10365856356E+04  0.10365856356E+04  0.00000000000E+00 0. -1.
         21    1    1    2  503  501  0.46475330633E+02  0.32994478741E+02  0.54091839787E+02  0.78578108379E+02  0.00000000000E+00 0. -1.
         21    1    1    2  504  502 -0.11576575689E+03  0.16653482109E+02  0.16718020953E+03  0.20403007473E+03  0.00000000000E+00 0. -1.
         21    1    1    2  505  504 -0.32702686592E+02 -0.20569345720E+02 -0.34847866359E+02  0.52028237367E+02  0.00000000000E+00 0. -1.
          1    1    1    2  501    0  0.10199311285E+03 -0.29078615129E+02 -0.95955785447E+03  0.96540117930E+03  0.00000000000E+00 0. -1.
<scales pt_clust_3="56.52091" pt_clust_4="86.77035" pt_clust_5="38.63371" pt_clust_6="14000.00000"></scales>
<clustering>
<clus scale="   38.634">  2  5  1 -1</clus>
<clus scale="   56.521">  1  3  2 -1</clus>
<clus scale="   86.770">  1  4  2 -1</clus>
<clus scale="   56.521">  1  3  2 -1</clus>
</clustering>
</event>
<event>
 6    0  0.2117869E+002  0.1244720E+03  0.7546771E-02  0.1235897E+00
         21   -1    0    0  504  502  0.00000000000E+00  0.00000000000E+00  0.34078594726E+03  0.34078594726E+03  0.00000000000E+00 0. -1.
          2   -1    0    0  505    0 -0.00000000000E+00 -0.00000000000E+00 -0.66904303163E+03  0.66904303163E+03  0.00000000000E+00 0. -1.
         21    1    1    2  503  502 -0.10974830873E+03 -0.19283050229E+02  0.22073436827E+03  0.24726542142E+03  0.00000000000E+00 0. -1.
         21    1    1    2  504  501  0.94594594712E+01 -0.60891291141E+02  0.83001883583E+02  0.10337573888E+03  0.00000000000E+00 0. -1.
         21    1    1    2  505  503  0.31340374914E+02  0.37831643388E+02 -0.44928800105E+02  0.66573639078E+02  0.00000000000E+00 0.  1.
          2    1    1    2  501    0  0.68948474345E+02  0.42342697983E+02 -0.58706453611E+03  0.59261417950E+03  0.00000000000E+00 0. -1.
<scales pt_clust_3="124.47205" pt_clust_4="61.08370" pt_clust_5="49.12690" pt_clust_6="14000.00000"></scales>
<clustering>
<clus scale="   49.127">  2  5  1 -1</clus>
<clus scale="   61.084">  1  4  2 -1</clus>
<clus scale="  124.472">  1  3  2 -1</clus>
<clus scale="   61.084">  1  3  2 -1</clus>
</clustering>
</event>
<event>
 6    0  0.2117869E+002  0.5780614E+02  0.7546771E-02  0.1407276E+00
         -1   -1    0    0    0  501 -0.00000000000E+00  0.00000000000E+00  0.15366578634E+04  0.15366578634E+04  0.00000000000E+00 0. -1.
         21   -1    0    0  505  502  0.00000000000E+00 -0.00000000000E+00 -0.60968833911E+02  0.60968833911E+02  0.00000000000E+00 0.  1.
         21    1    1    2  503  502  0.38055404066E+02 -0.38626403680E+02  0.79820568270E+02  0.96496300234E+02  0.00000000000E+00 0.  1.
         21    1    1    2  504  501  0.34770244709E+02  0.28563132558E+02  0.36796106544E+03  0.37070226346E+03  0.00000000000E+00 0.  1.
         21    1    1    2  505  504 -0.85085471726E+02  0.70298633349E+02  0.10171161567E+02  0.11083721341E+03  0.00000000000E+00 0.  1.
         -1    1    1    2    0  503  0.12259822951E+02 -0.60235362227E+02  0.10177362342E+04  0.10195909202E+04  0.00000000000E+00 0. -1.
<scales pt_clust_3="54.63494" pt_clust_4="44.99803" pt_clust_5="57.80614" pt_clust_6="14000.00000"></scales>
<clustering>
<clus scale="   44.998">  1  4  2 -1</clus>
<clus scale="   54.635">  2  3  1 -1</clus>
<clus scale="   57.806">  2  5  1 -1</clus>
<clus scale="   54.635">  2  3  1 -1</clus>
</clustering>
</event>
<event>
 6    0  0.2117869E+002  0.1164764E+03  0.7546771E-02  0.1249026E+00
          2   -1    0    0  503    0 -0.00000000000E+00  0.00000000000E+00  0.39407848494E+04  0.39407848494E+04  0.00000000000E+00 0. -1.
         21   -1    0    0  504  502  0.00000000000E+00 -0.00000000000E+00 -0.17888141399E+03  0.17888141399E+03  0.00000000000E+00 0.  1.
         21    1    1    2  503  502  0.23994709682E+02 -0.35639135657E+02  0.15062140366E+03  0.15662918413E+03  0.00000000000E+00 0.  1.
         21    1    1    2  504  505 -0.60203509291E+01 -0.42100340580E+02 -0.14679902287E+03  0.15283532451E+03  0.00000000000E+00 0.  1.
         21    1    1    2  505  501  0.57832917139E+02 -0.14065963532E+02  0.10147602635E+02  0.60377739890E+02  0.00000000000E+00 0. -1.
          2    1    1    2  501    0 -0.75807275892E+02  0.91805439769E+02  0.37479334520E+04  0.37498240148E+04  0.00000000000E+00 0. -1.
<scales pt_clust_3="46.31956" pt_clust_4="42.52862" pt_clust_5="116.47643" pt_clust_6="14000.00000"></scales>
<clustering>
<clus scale="   42.529">  2  4  1 -1</clus>
<clus scale="   46.320">  2  3  1 -1</clus>
<clus scale="  116.476">  2  5  1 -1</clus>
<clus scale="   42.529">  2  3  1 -1</clus>
</clustering>
</event>
<event>
 6    0  0.2117869E+002  0.1635524E+03  0.7546771E-02  0.1184744E+00
         21   -1    0    0  501  502  0.00000000000E+00  0.00000000000E+00  0.82391724650E+02  0.82391724650E+02  0.00000000000E+00 0.  1.
          2   -1    0    0  503    0 -0.00000000000E+00 -0.00000000000E+00 -0.95946345160E+03  0.95946345160E+03  0.00000000000E+00 0.  1.
         21    1    1    2  503  504 -0.19496114764E+03 -0.85382202942E+02 -0.13723594557E+03  0.25324627228E+03  0.00000000000E+00 0.  1.
         21    1    1    2  504  505  0.44923608146E+02  0.16075494854E+02 -0.47120280678E+02  0.67058727656E+02  0.00000000000E+00 0. -1.
         21    1    1    2  505  502  0.41063531979E+02  0.53669329436E+02 -0.11455602375E+03  0.13300260584E+03  0.00000000000E+00 0.  1.
          2    1    1    2  501    0  0.10897400752E+03  0.15637378653E+02 -0.57815947696E+03  0.58854757048E+03  0.00000000000E+00 0.  1.
<scales pt_clust_3="158.49982" pt_clust_4="33.89525" pt_clust_5="33.89525" pt_clust_6="110.09024"></scales>
<clustering>
<clus scale="   33.895">  4  5 -1 -1</clus>
<clus scale="  110.090">  2  6  1 -1</clus>
<clus scale="  158.500">  2  3  1 -1</clus>
<clus scale="  163.552">  1  3  2 -1</clus>
</clustering>
</event>
<event>
 6    0  0.2117869E+002  0.7047915E+02  0.7546771E-02  0.1358471E+00
          4   -1    0    0  503    0 -0.00000000000E+00  0.00000000000E+00  0.65752358122E+03  0.65752358122E+03  0.00000000000E+00 0. -1.
         21   -1    0    0  504  502  0.00000000000E+00 -0.00000000000E+00 -0.81246847044E+02  0.81246847044E+02  0.00000000000E+00 0.  1.
         21    1    1    2  503  505 -0.33563612513E+02  0.80013553366E+01  0.88073743699E+02  0.94591342634E+02  0.00000000000E+00 0.  1.
         21    1    1    2  504  501  0.65415171702E+02 -0.10034089945E+03  0.26859553061E+01  0.11981091414E+03  0.00000000000E+00 0.  1.
         21    1    1    2  505  502 -0.30823097054E+02  0.39792865952E+02  0.17320397738E+02  0.53230927763E+02  0.00000000000E+00 0.  1.
          4    1    1    2  501    0 -0.10284621354E+01  0.52546678164E+02  0.46819663744E+03  0.47113724373E+03  0.00000000000E+00 0. -1.
<scales pt_clust_3="34.50417" pt_clust_4="14000.00000" pt_clust_5="52.02635" pt_clust_6="70.47915"></scales>
<clustering>
<clus scale="   34.504">  1  3  2 -1</clus>
<clus scale="   52.026">  2  5  1 -1</clus>
<clus scale="   70.479">  1  6  2 -1</clus>
<clus scale="   52.026">  2  3  1 -1</clus>
</clustering>
</event>
<event>
 6    0  0.2117869E+002  0.8448377E+02  0.7546771E-02  0.1316788E+00
         21   -1    0    0  505  502  0.00000000000E+00  0.00000000000E+00  0.45765181759E+02  0.45765181759E+02  0.00000000000E+00 0.  1.
          2   -1    0    0  503    0 -0.00000000000E+00 -0.00000000000E+00 -0.13560076425E+04  0.13560076425E+04  0.00000000000E+00 0. -1.
         21    1    1    2  503  504  0.16729499461E+02 -0.26139038263E+02 -0.12581607441E+03  0.12958707518E+03  0.00000000000E+00 0.  1.
         21    1    1    2  504  502 -0.22237410398E+02  0.64155491677E+02  0.57824951033E+01  0.68145922718E+02  0.00000000000E+00 0.  1.
         21    1    1    2  505  501  0.59911182445E+02  0.37118806147E+02 -0.26568800380E+03  0.27487682863E+03  0.00000000000E+00 0.  1.
          2    1    1    2  501    0 -0.54403271508E+02 -0.75135259561E+02 -0.92452087760E+03  0.92916299770E+03  0.00000000000E+00 0. -1.
<scales pt_clust_3="31.03426" pt_clust_4="67.13434" pt_clust_5="14000.00000" pt_clust_6="84.48377"></scales>
<clustering>
<clus scale="   31.034">  2  3  1 -1</clus>
<clus scale="   67.134">  1  4  2 -1</clus>
<clus scale="   84.484">  2  6  1 -1</clus>
<clus scale="   67.134">  1  3  2 -1</clus>
</clustering>
</event>
<event>
 6    0  0.2117869E+002  0.1839911E+03  0.7546771E-02  0.1163995E+00
          1   -1    0    0  505    0 -0.00000000000E+00  0.00000000000E+00  0.11211696797E+04  0.11211696797E+04  0.00000000000E+00 0.  1.
         21   -1    0    0  501  502  0.00000000000E+00 -0.00000000000E+00 -0.58995897741E+03  0.58995897741E+03  0.00000000000E+00 0.  1.
         21    1    1    2  503  502  0.16808120501E+03  0.75688772886E+02 -0.48534383730E+03  0.51917118779E+03  0.00000000000E+00 0.  1.
         21    1    1    2  504  503 -0.19219941247E+03 -0.11539083149E+02  0.38607606075E+02  0.19637798207E+03  0.00000000000E+00 0.  1.
         21    1    1    2  505  504  0.57090577253E+02  0.14214887112E+02  0.12226113905E+03  0.13568044497E+03  0.00000000000E+00 0. -1.
          1    1    1    2  501    0 -0.32972369793E+02 -0.78364576848E+02  0.85568579447E+03  0.85989904229E+03  0.00000000000E+00 0.  1.
<scales pt_clust_3="183.99107" pt_clust_4="14000.00000" pt_clust_5="58.83364" pt_clust_6="68.07640"></scales>
<clustering>
<clus scale="   58.834">  1  5  2 -1</clus>
<clus scale="   68.076">  1  6  2 -1</clus>
<clus scale="  183.991">  2  3  1 -1</clus>
<clus scale="  183.991">  2  3  1 -1</clus>
</clustering>
</event>
<event>
 6    0  0.2117869E+002  0.1449031E+03  0.7546771E-02  0.1206880E+00
         21   -1    0    0  501  502  0.00000000000E+00  0.00000000000E+00  0.12432353273E+03  0.12432353273E+03  0.00000000000E+00 0.  1.
          2   -1    0    0  503    0 -0.00000000000E+00 -0.00000000000E+00 -0.15463219904E+04  0.15463219904E+04  0.00000000000E+00 0.  1.
         21    1    1    2  503  504  0.35396522861E+02 -0.41384728705E+01 -0.59028824841E+03  0.59136305008E+03  0.00000000000E+00 0.  1.
         21    1    1    2  504  505  0.12364802599E+03  0.66475629212E+02  0.52420320788E+02  0.14985237283E+03  0.00000000000E+00 0.  1.
         21    1    1    2  505  502 -0.31880151661E+02  0.44062839254E+02 -0.35947603800E+02  0.65192853075E+02  0.00000000000E+00 0. -1.
          2    1    1    2  501    0 -0.12716439719E+03 -0.10639999560E+03 -0.84818292628E+03  0.86423724718E+03  0.00000000000E+00 0.  1.
<scales pt_clust_3="35.63763" pt_clust_4="14000.00000" pt_clust_5="53.12895" pt_clust_6="144.90306"></scales>
<clustering>
<clus scale="   35.638">  2  3  1 -1</clus>
<clus scale="   53.129">  1  5  2 -1</clus>
<clus scale="  144.903">  2  6  1 -1</clus>
<clus scale="   53.129">  1  3  2 -1</clus>
</clustering>
</event>
<event>
 6    0  0.2117869E+002  0.7101021E+02  0.7546771E-02  0.1356691E+00
          2   -1    0    0  503    0 -0.00000000000E+00  0.00000000000E+00  0.16653520967E+04  0.16653520967E+04  0.00000000000E+00 0. -1.
         21   -1    0    0  504  502  0.00000000000E+00 -0.00000000000E+00 -0.51558991601E+03  0.51558991601E+03  0.00000000000E+00 0.  1.
         21    1    1    2  503  505 -0.24128194516E+02 -0.56930890085E+02  0.14020557997E+03  0.15323478936E+03  0.00000000000E+00 0.  1.
         21    1    1    2  504  501 -0.33165032517E+02 -0.39190643012E+02  0.47071640219E+01  0.51555632812E+02  0.00000000000E+00 0.  1.
         21    1    1    2  505  502  0.94126613422E+02  0.33865585671E+01 -0.47939343367E+03  0.48855844316E+03  0.00000000000E+00 0.  1.
          2    1    1    2  501    0 -0.36833386390E+02  0.92734974530E+02  0.14842428703E+04  0.14875931473E+04  0.00000000000E+00 0. -1.
<scales pt_clust_3="62.48206" pt_clust_4="51.34029" pt_clust_5="71.01021" pt_clust_6="14000.00000"></scales>
<clustering>
<clus scale="   51.340">  2  4  1 -1</clus>
<clus scale="   62.482">  1  3  2 -1</clus>
<clus scale="   71.010">  2  5  1 -1</clus>
<clus scale="   51.340">  2  3  1 -1</clus>
</clustering>
</event>
<event>
 6    0  0.2117869E+002  0.1281085E+03  0.7546771E-02  0.1230290E+00
         21   -1    0    0  504  502  0.00000000000E+00  0.00000000000E+00  0.12401487628E+03  0.12401487628E+03  0.00000000000E+00 0.  1.
          1   -1    0    0  503    0 -0.00000000000E+00 -0.00000000000E+00 -0.15823317476E+04  0.15823317476E+04  0.00000000000E+00 0.  1.
         21    1    1    2  503  505  0.31765381195E+02 -0.55562584932E+01 -0.16868894794E+03  0.17174362465E+03  0.00000000000E+00 0.  1.
         21    1    1    2  504  501 -0.82628503543E+01 -0.83119591206E+02 -0.11015040741E+02  0.84252431779E+02  0.00000000000E+00 0.  1.
         21    1    1    2  505  502  0.12675999863E+03  0.37394798512E+02  0.27191542894E+02  0.13492904881E+03  0.00000000000E+00 0.  1.
          1    1    1    2  501    0 -0.15026252947E+03  0.51281051186E+02 -0.13058044256E+04  0.13154215187E+04  0.00000000000E+00 0.  1.
<scales pt_clust_3="32.24766" pt_clust_4="83.61683" pt_clust_5="14000.00000" pt_clust_6="128.10847"></scales>
<clustering>
<clus scale="   32.248">  2  3  1 -1</clus>
<clus scale="   83.617">  1  4  2 -1</clus>
<clus scale="  128.108">  2  6  1 -1</clus>
<clus scale="   83.617">  1  3  2 -1</clus>
</clustering>
</event>
<event>
 6    0  0.2117869E+002  0.9019779E+02  0.7546771E-02  0.1302373E+00
          2   -1    0    0  503    0 -0.00000000000E+00  0.00000000000E+00  0.28015456843E+04  0.28015456843E+04  0.00000000000E+00 0. -1.
         21   -1    0    0  505  502  0.00000000000E+00 -0.00000000000E+00 -0.18417971417E+02  0.18417971417E+02  0.00000000000E+00 0.  1.
         21    1    1    2  503  502 -0.28927372152E+00  0.40038404813E+02  0.15285121245E+04  0.15290364523E+04  0.00000000000E+00 0. -1.
         21    1    1    2  504  501  0.10029372128E+03 -0.15924088292E+02  0.48110953640E+03  0.49171007020E+03  0.00000000000E+00 0.  1.
         21    1    1    2  505  504 -0.23289501641E+02 -0.46749796241E+02  0.53448304216E+02  0.74730619955E+02  0.00000000000E+00 0.  1.
          2    1    1    2  501    0 -0.76714945922E+02  0.22635479720E+02  0.72005774773E+03  0.72448651329E+03  0.00000000000E+00 0. -1.
<scales pt_clust_3="40.03945" pt_clust_4="90.19779" pt_clust_5="50.43989" pt_clust_6="14000.00000"></scales>
<clustering>
<clus scale="   40.039">  1  3  2 -1</clus>
<clus scale="   50.440">  2  5  1 -1</clus>
<clus scale="   90.198">  2  4  1 -1</clus>
<clus scale="   50.440">  2  3  1 -1</clus>
</clustering>
</event>
<event>
 6    0  0.2117869E+002  0.1262661E+03  0.7546771E-02  0.1233104E+00
         21   -1    0    0  504  502  0.00000000000E+00  0.00000000000E+00  0.23728162392E+03  0.23728162392E+03  0.00000000000E+00 0. -1.
         -4   -1    0    0    0  501 -0.00000000000E+00 -0.00000000000E+00 -0.12425309577E+04  0.12425309577E+04  0.00000000000E+00 0.  1.
         21    1    1    2  503  502  0.14048421036E+02  0.39515776612E+02  0.47122575545E+02  0.63082421171E+02  0.00000000000E+00 0. -1.
         21    1    1    2  504  501 -0.66510893730E+02  0.45736362553E+01  0.16088162143E+03  0.17414796366E+03  0.00000000000E+00 0. -1.
         21    1    1    2  505  503 -0.80043912945E+02  0.30600696499E+02 -0.19456873495E+03  0.21260391164E+03  0.00000000000E+00 0.  1.
         -4    1    1    2    0  505  0.13250638564E+03 -0.74690109366E+02 -0.10186847958E+04  0.10299782851E+04  0.00000000000E+00 0.  1.
<scales pt_clust_3="41.93870" pt_clust_4="67.42222" pt_clust_5="126.26614" pt_clust_6="14000.00000"></scales>
<clustering>
<clus scale="   41.939">  1  3  2 -1</clus>
<clus scale="   67.422">  1  4  2 -1</clus>
<clus scale="  126.266">  1  5  2 -1</clus>
<clus scale="   41.939">  1  3  2 -1</clus>
</clustering>
</event>
<event>
 6    0  0.2117869E+002  0.2346864E+03  0.7546771E-02  0.1123384E+00
         21   -1    0    0  501  502  0.00000000000E+00  0.00000000000E+00  0.74440172634E+03  0.74440172634E+03  0.00000000000E+00 0.  1.
          2   -1    0    0  504    0 -0.00000000000E+00 -0.00000000000E+00 -0.13097688520E+04  0.13097688520E+04  0.00000000000E+00 0. -1.
         21    1    1    2  503  505 -0.16039195195E+03  0.22849890801E+03 -0.23323009324E+03  0.36377686239E+03  0.00000000000E+00 0. -1.
         21    1    1    2  504  503 -0.43132816120E+02  0.44474541607E+02 -0.32679257051E+03  0.33261360287E+03  0.00000000000E+00 0.  1.
         21    1    1    2  505  502  0.18697500590E+03 -0.13831538632E+03  0.64905444578E+03  0.68946535265E+03  0.00000000000E+00 0.  1.
          2    1    1    2  501    0  0.16549762171E+02 -0.13465806330E+03 -0.65439890765E+03  0.66831476040E+03  0.00000000000E+00 0. -1.
<scales pt_clust_3="14000.00000" pt_clust_4="61.95502" pt_clust_5="234.68644" pt_clust_6="105.39691"></scales>
<clustering>
<clus scale="   61.955">  2  4  1 -1</clus>
<clus scale="  105.397">  2  6  1 -1</clus>
<clus scale="  234.686">  1  5  2 -1</clus>
<clus scale="  234.686">  1  3  2 -1</clus>
</clustering>
</event>
<event>
 6    0  0.2117869E+002  0.1274982E+03  0.7546771E-02  0.1231216E+00
         21   -1    0    0  501  502  0.00000000000E+00  0.00000000000E+00  0.92693710715E+03  0.92693710715E+03  0.00000000000E+00 0. -1.
          2   -1    0    0  503    0 -0.00000000000E+00 -0.00000000000E+00 -0.13165866567E+04  0.13165866567E+04  0.00000000000E+00 0. -1.
         21    1    1    2  503  504  0.34359973387E+02  0.88150174091E+02 -0.33040455329E+03  0.34368332779E+03  0.00000000000E+00 0. -1.
         21    1    1    2  504  505  0.13699317730E+03  0.69750548257E+02 -0.22819047997E+03  0.27514208104E+03  0.00000000000E+00 0. -1.
         21    1    1    2  505  502 -0.12729258780E+03 -0.16793326537E+01  0.88315171427E+03  0.89227976189E+03  0.00000000000E+00 0. -1.
          2    1    1    2  501    0 -0.44060562881E+02 -0.15622138969E+03 -0.71420623058E+03  0.73241859316E+03  0.00000000000E+00 0. -1.
<scales pt_clust_3="94.61005" pt_clust_4="14000.00000" pt_clust_5="127.49818" pt_clust_6="93.02623"></scales>
<clustering>
<clus scale="   94.610">  2  3  1 -1</clus>
<clus scale="   93.026">  2  6  1 -1</clus>
<clus scale="  127.498">  1  5  2 -1</clus>
<clus scale="  127.498">  1  3  2 -1</clus>
</clustering>
</event>
<event>
 6    0  0.2117869E+002  0.1112773E+03  0.7546771E-02  0.1258223E+00
          2   -1    0    0  504    0 -0.00000000000E+00  0.00000000000E+00  0.13704920242E+04  0.13704920242E+04  0.00000000000E+00 0. -1.
         21   -1    0    0  503  502  0.00000000000E+00 -0.00000000000E+00 -0.47255347865E+02  0.47255347865E+02  0.00000000000E+00 0.  1.
         21    1    1    2  503  501  0.13416676001E+02  0.31742724699E+02  0.31608577154E+02  0.46762270218E+02  0.00000000000E+00 0.  1.
         21    1    1    2  504  505 -0.18005273015E+02  0.25848716970E+02  0.18959227375E+03  0.19219150941E+03  0.00000000000E+00 0.  1.
         21    1    1    2  505  502 -0.10025264998E+03 -0.96257160888E+02  0.10165492234E+03  0.17219105112E+03  0.00000000000E+00 0.  1.
          2    1    1    2  501    0  0.10484124699E+03  0.38665719218E+02  0.10003809031E+04  0.10066025413E+04  0.00000000000E+00 0. -1.
<scales pt_clust_3="35.03094" pt_clust_4="31.50152" pt_clust_5="111.27729" pt_clust_6="14000.00000"></scales>
<clustering>
<clus scale="   31.502">  1  4  2 -1</clus>
<clus scale="   35.031">  2  3  1 -1</clus>
<clus scale="  111.277">  2  5  1 -1</clus>
<clus scale="   35.031">  2  3  1 -1</clus>
</clustering>
</event>
<event>
 6    0  0.2117869E+002  0.7773686E+02  0.7546771E-02  0.1335599E+00
          2   -1    0    0  504    0 -0.00000000000E+00  0.00000000000E+00  0.17798551693E+03  0.17798551693E+03  0.00000000000E+00 0. -1.
         21   -1    0    0  503  502  0.00000000000E+00 -0.00000000000E+00 -0.59315186666E+03  0.59315186666E+03  0.00000000000E+00 0. -1.
         21    1    1    2  503  501 -0.79714631536E+02 -0.45832166227E+01 -0.31086070132E+03  0.32095140439E+03  0.00000000000E+00 0. -1.
         21    1    1    2  504  505 -0.38477261671E+02 -0.30612478952E+02  0.96794411113E+02  0.10856694504E+03  0.00000000000E+00 0. -1.
         21    1    1    2  505  502  0.26058393887E+02  0.62646895775E+02 -0.23114478645E+03  0.24089745898E+03  0.00000000000E+00 0. -1.
          2    1    1    2  501    0  0.92133499320E+02 -0.27451200200E+02  0.30044726925E+02  0.10072157517E+03  0.00000000000E+00 0. -1.
<scales pt_clust_3="14000.00000" pt_clust_4="49.16934" pt_clust_5="65.08139" pt_clust_6="77.73686"></scales>
<clustering>
<clus scale="   49.169">  1  4  2 -1</clus>
<clus scale="   65.081">  2  5  1 -1</clus>
<clus scale="   77.737">  1  6  2 -1</clus>
<clus scale="   65.081">  2  3  1 -1</clus>
</clustering>
</event>
<event>
 6    0  0.2117869E+002  0.5840361E+02  0.7546771E-02  0.1404656E+00
         21   -1    0    0  504  502  0.00000000000E+00  0.00000000000E+00  0.56717062741E+03  0.56717062741E+03  0.00000000000E+00 0.  1.
          2   -1    0    0  503    0 -0.00000000000E+00 -0.00000000000E+00 -0.16266492860E+04  0.16266492860E+04  0.00000000000E+00 0. -1.
         21    1    1    2  503  502 -0.44780265001E+02  0.70589258806E+02 -0.75305459264E+03  0.75768023274E+03  0.00000000000E+00 0. -1.
         21    1    1    2  504  505  0.62389362210E+02  0.21546152730E+01  0.33500095554E+03  0.34076783166E+03  0.00000000000E+00 0.  1.
         21    1    1    2  505  501 -0.49377970037E+02 -0.29464859186E+02  0.22248490810E+03  0.22979533543E+03  0.00000000000E+00 0.  1.
          2    1    1    2  501    0  0.31768872827E+02 -0.43279014893E+02 -0.86390992963E+03  0.86557651362E+03  0.00000000000E+00 0. -1.
<scales pt_clust_3="30.70407" pt_clust_4="58.40361" pt_clust_5="14000.00000" pt_clust_6="53.68738"></scales>
<clustering>
<clus scale="   53.687">  2  6  1 -1</clus>
<clus scale="   30.704">  2  3  1 -1</clus>
<clus scale="   58.404">  1  4  2 -1</clus>
<clus scale="   58.404">  1  3  2 -1</clus>
</clustering>
</event>
<event>
 6    0  0.2117869E+002  0.8755307E+02  0.7546771E-02  0.1308888E+00
          2   -1    0    0  503    0 -0.00000000000E+00  0.00000000000E+00  0.46135798099E+04  0.46135798099E+04  0.00000000000E+00 0. -1.
         21   -1    0    0  504  502  0.00000000000E+00 -0.00000000000E+00 -0.18368785451E+03  0.18368785451E+03  0.00000000000E+00 0.  1.
         21    1    1    2  503  505 -0.32701966544E+02 -0.32572792247E+02  0.25928697830E+03  0.26336313813E+03  0.00000000000E+00 0. -1.
         21    1    1    2  504  501  0.38811209451E+02  0.50467558122E+02 -0.56848028694E+02  0.85352110509E+02  0.00000000000E+00 0.  1.
         21    1    1    2  505  502  0.48099146724E+02 -0.66521268887E+02 -0.94961749033E+02  0.12552426423E+03  0.00000000000E+00 0.  1.
          2    1    1    2  501    0 -0.54208389630E+02  0.48626503011E+02  0.43224147548E+04  0.43230281515E+04  0.00000000000E+00 0. -1.
<scales pt_clust_3="46.15631" pt_clust_4="63.51558" pt_clust_5="87.55307" pt_clust_6="14000.00000"></scales>
<clustering>
<clus scale="   46.156">  1  3  2 -1</clus>
<clus scale="   63.516">  2  4  1 -1</clus>
<clus scale="   87.553">  2  5  1 -1</clus>
<clus scale="   63.516">  2  3  1 -1</clus>
</clustering>
</event>
<event>
 6    0  0.2117869E+002  0.5710766E+02  0.7546771E-02  0.1410387E+00
          2   -1    0    0  505    0 -0.00000000000E+00  0.00000000000E+00  0.22654546647E+03  0.22654546647E+03  0.00000000000E+00 0. -1.
         21   -1    0    0  504  502  0.00000000000E+00 -0.00000000000E+00 -0.39861969028E+03  0.39861969028E+03  0.00000000000E+00 0.  1.
         21    1    1    2  503  502 -0.50848570032E+02 -0.88203394950E+02 -0.29846067117E+03  0.31534772584E+03  0.00000000000E+00 0.  1.
         21    1    1    2  504  501  0.11290743213E+02  0.53684323359E+02 -0.63532426681E+02  0.83939601481E+02  0.00000000000E+00 0.  1.
         21    1    1    2  505  503  0.65809401246E+01 -0.39891923298E+02  0.72438579140E+02  0.82957953598E+02  0.00000000000E+00 0. -1.
          2    1    1    2  501    0  0.32976886694E+02  0.74410994889E+02  0.11748029491E+03  0.14291987583E+03  0.00000000000E+00 0. -1.
<scales pt_clust_3="57.10766" pt_clust_4="52.28521" pt_clust_5="40.43111" pt_clust_6="14000.00000"></scales>
<clustering>
<clus scale="   40.431">  1  5  2 -1</clus>
<clus scale="   52.285">  2  4  1 -1</clus>
<clus scale="   57.108">  2  3  1 -1</clus>
<clus scale="   52.285">  2  3  1 -1</clus>
</clustering>
</event>
<event>
 6    0  0.2117869E+002  0.1193835E+03  0.7546771E-02  0.1244118E+00
         21   -1    0    0  503  502  0.00000000000E+00  0.00000000000E+00  0.20705591002E+03  0.20705591002E+03  0.00000000000E+00 0. -1.
          2   -1    0    0  505    0 -0.00000000000E+00 -0.00000000000E+00 -0.86877783664E+03  0.86877783664E+03  0.00000000000E+00 0. -1.
         21    1    1    2  503  501 -0.13520660806E+03  0.28208790633E+02  0.10537635488E+03  0.17372604554E+03  0.00000000000E+00 0. -1.
         21    1    1    2  504  502  0.94888330387E+02 -0.23105557219E+02  0.20394531453E+02  0.99767724898E+02  0.00000000000E+00 0. -1.
         21    1    1    2  505  504 -0.41376175612E+02  0.32689698155E+01 -0.80274774059E+02  0.90369870101E+02  0.00000000000E+00 0. -1.
          2    1    1    2  501    0  0.81694453282E+02 -0.83722032297E+01 -0.70721803889E+03  0.71197010612E+03  0.00000000000E+00 0. -1.
<scales pt_clust_3="119.38350" pt_clust_4="14000.00000" pt_clust_5="41.50511" pt_clust_6="44.54897"></scales>
<clustering>
<clus scale="   41.505">  2  5  1 -1</clus>
<clus scale="   44.549">  2  6  1 -1</clus>
<clus scale="  119.383">  1  3  2 -1</clus>
<clus scale="  119.383">  1  3  2 -1</clus>
</clustering>
</event>
<event>
 6    0  0.2117869E+002  0.1118838E+03  0.7546771E-02  0.1257121E+00
         -4   -1    0    0    0  501 -0.00000000000E+00  0.00000000000E+00  0.86433480263E+02  0.86433480263E+02  0.00000000000E+00 0. -1.
         21   -1    0    0  505  502  0.00000000000E+00 -0.00000000000E+00 -0.43810479805E+03  0.43810479805E+03  0.00000000000E+00 0.  1.
         21    1    1    2  503  502  0.10208931967E+03  0.43525505845E+02 -0.26379390183E+03  0.28618861174E+03  0.00000000000E+00 0.  1.
         21    1    1    2  504  501  0.31971520338E+02 -0.11738219611E+02 -0.65434401197E+01  0.34681126293E+02  0.00000000000E+00 0.  1.
         21    1    1    2  505  504 -0.45034639940E+02  0.48958728961E+02 -0.30105817617E+02  0.73016684329E+02  0.00000000000E+00 0. -1.
         -4    1    1    2    0  503 -0.89026200066E+02 -0.80746015196E+02 -0.51228158224E+02  0.13065185595E+03  0.00000000000E+00 0. -1.
<scales pt_clust_3="111.88376" pt_clust_4="34.05824" pt_clust_5="57.72760" pt_clust_6="14000.00000"></scales>
<clustering>
<clus scale="   34.058">  1  4  2 -1</clus>
<clus scale="   57.728">  1  5  2 -1</clus>
<clus scale="  111.884">  2  3  1 -1</clus>
<clus scale="  111.884">  2  3  1 -1</clus>
</clustering>
</event>
<event>
 6    0  0.2117869E+002  0.8840753E+02  0.7546771E-02  0.1306755E+00
         21   -1    0    0  505  502  0.00000000000E+00  0.00000000000E+00  0.48324427739E+03  0.48324427739E+03  0.00000000000E+00 0.  1.
          2   -1    0    0  504    0 -0.00000000000E+00 -0.00000000000E+00 -0.30347963259E+04  0.30347963259E+04  0.00000000000E+00 0. -1.
         21    1    1    2  503  502  0.64653046503E+02 -0.65831177874E+02  0.41846126554E+03  0.42851323335E+03  0.00000000000E+00 0.  1.
         21    1    1    2  504  503 -0.30973764263E+02  0.35731787905E+02 -0.38501404357E+03  0.38790713900E+03  0.00000000000E+00 0.  1.
         21    1    1    2  505  501 -0.80334011412E+02  0.11574178960E+02  0.29709130178E+02  0.86430014602E+02  0.00000000000E+00 0.  1.
          2    1    1    2  501    0  0.46654729171E+02  0.18525211008E+02 -0.26147084006E+04  0.26151902163E+04  0.00000000000E+00 0. -1.
<scales pt_clust_3="88.40753" pt_clust_4="47.28779" pt_clust_5="14000.00000" pt_clust_6="56.15546"></scales>
<clustering>
<clus scale="   47.288">  2  4  1 -1</clus>
<clus scale="   56.155">  2  6  1 -1</clus>
<clus scale="   88.408">  1  3  2 -1</clus>
<clus scale="   88.408">  1  3  2 -1</clus>
</clustering>
</event>
<event>
 6    0  0.2117869E+002  0.2061423E+03  0.7546771E-02  0.1144658E+00
         21   -1    0    0  501  502  0.00000000000E+00  0.00000000000E+00  0.18640881619E+03  0.18640881619E+03  0.00000000000E+00 0. -1.
          2   -1    0    0  504    0 -0.00000000000E+00 -0.00000000000E+00 -0.17364523091E+04  0.17364523091E+04  0.00000000000E+00 0.  1.
         21    1    1    2  503  505  0.12333214250E+03  0.30727281775E+02 -0.12199852564E+02  0.12768641126E+03  0.00000000000E+00 0. -1.
         21    1    1    2  504  503  0.40685572502E+02  0.39329775231E+02 -0.13936069483E+03  0.15041127050E+03  0.00000000000E+00 0. -1.
         21    1    1    2  505  502  0.46221333352E+02  0.11319201499E+03  0.76116122863E+02  0.14402259571E+03  0.00000000000E+00 0. -1.
          2    1    1    2  501    0 -0.21023904835E+03 -0.18324907200E+03 -0.14745990684E+04  0.15007408478E+04  0.00000000000E+00 0.  1.
<scales pt_clust_3="206.14227" pt_clust_4="56.58752" pt_clust_5="123.37131" pt_clust_6="14000.00000"></scales>
<clustering>
<clus scale="   56.588">  2  4  1 -1</clus>
<clus scale="  123.371">  1  5  2 -1</clus>
<clus scale="  206.142">  1  3  2 -1</clus>
<clus scale="  123.371">  1  3  2 -1</clus>
</clustering>
</event>
<event>
 6    0  0.2117869E+002  0.1526803E+03  0.7546771E-02  0.1197218E+00
         21   -1    0    0  505  502  0.00000000000E+00  0.00000000000E+00  0.58268127795E+03  0.58268127795E+03  0.00000000000E+00 0. -1.
          1   -1    0    0  504    0 -0.00000000000E+00 -0.00000000000E+00 -0.55227174589E+03  0.55227174589E+03  0.00000000000E+00 0. -1.
         21    1    1    2  503  502 -0.13485518466E+03 -0.13178526891E+03  0.15936588110E+03  0.24688208114E+03  0.00000000000E+00 0. -1.
         21    1    1    2  504  503  0.42866282230E+02  0.41891870063E+02 -0.72341511973E+02  0.93945416514E+02  0.00000000000E+00 0. -1.
         21    1    1    2  505  501  0.13819297797E+02  0.35660535676E+02  0.36241668057E+03  0.36442900152E+03  0.00000000000E+00 0. -1.
          1    1    1    2  501    0  0.78169604637E+02  0.54232863167E+02 -0.41903151764E+03  0.42969652466E+03  0.00000000000E+00 0. -1.
<scales pt_clust_3="14000.00000" pt_clust_4="61.65680" pt_clust_5="38.24457" pt_clust_6="152.68025"></scales>
<clustering>
<clus scale="   38.245">  1  5  2 -1</clus>
<clus scale="   61.657">  2  4  1 -1</clus>
<clus scale="  152.680">  2  6  1 -1</clus>
<clus scale="   38.245">  1  3  2 -1</clus>
</clustering>
</event>
<event>
 6    0  0.2117869E+002  0.6898523E+02  0.7546771E-02  0.1363578E+00
          2   -1    0    0  505    0 -0.00000000000E+00  0.00000000000E+00  0.28170066010E+04  0.28170066010E+04  0.00000000000E+00 0.  1.
         21   -1    0    0  503  502  0.00000000000E+00 -0.00000000000E+00 -0.28353030470E+03  0.28353030470E+03  0.00000000000E+00 0.  1.
         21    1    1    2  503  501  0.63654095850E+02  0.21737144000E+02 -0.22747452328E+03  0.23721088948E+03  0.00000000000E+00 0.  1.
         21    1    1    2  504  502 -0.77460960852E+02 -0.35499535048E+02  0.42690989531E+01  0.85314961470E+02  0.00000000000E+00 0.  1.
         21    1    1    2  505  504  0.18249998646E+02  0.59547639288E+02  0.82182070684E+02  0.10311584038E+03  0.00000000000E+00 0.  1.
          2    1    1    2  501    0 -0.44431336437E+01 -0.45785248240E+02  0.26744996500E+04  0.26748952144E+04  0.00000000000E+00 0.  1.
<scales pt_clust_3="68.98523" pt_clust_4="14000.00000" pt_clust_5="33.47077" pt_clust_6="46.00033"></scales>
<clustering>
<clus scale="   46.000">  1  6  2 -1</clus>
<clus scale="   33.471">  1  5  2 -1</clus>
<clus scale="   68.985">  2  3  1 -1</clus>
<clus scale="   68.985">  2  3  1 -1</clus>
</clustering>
</event>
<event>
 6    0  0.2117869E+002  0.1263332E+03  0.7546771E-02  0.1233000E+00
         21   -1    0    0  505  502  0.00000000000E+00  0.00000000000E+00  0.29704530874E+04  0.29704530874E+04  0.00000000000E+00 0. -1.
         -2   -1    0    0    0  501 -0.00000000000E+00 -0.00000000000E+00 -0.56572113933E+03  0.56572113933E+03  0.00000000000E+00 0. -1.
         21    1    1    2  503  502 -0.65566303066E+02  0.44510323587E+00  0.27813850766E+04  0.27821578105E+04  0.00000000000E+00 0. -1.
         21    1    1    2  504  501  0.80474510260E+02 -0.96968510177E+02  0.47196879910E+02  0.13456070838E+03  0.00000000000E+00 0. -1.
         21    1    1    2  505  504  0.25013791139E+02 -0.24088120811E+02  0.86668250964E+02  0.93366552022E+02  0.00000000000E+00 0. -1.
         -2    1    1    2    0  503 -0.39921998333E+02  0.12061152775E+03 -0.51051825946E+03  0.52608915577E+03  0.00000000000E+00 0. -1.
<scales pt_clust_3="47.27990" pt_clust_4="126.33324" pt_clust_5="34.72646" pt_clust_6="14000.00000"></scales>
<clustering>
<clus scale="   34.726">  1  5  2 -1</clus>
<clus scale="   47.280">  1  3  2 -1</clus>
<clus scale="  126.333">  1  4  2 -1</clus>
<clus scale="   34.726">  1  3  2 -1</clus>
</clustering>
</event>
<event>
 6    0  0.2117869E+002  0.1680598E+03  0.7546771E-02  0.1179886E+00
         21   -1    0    0  505  502  0.00000000000E+00  0.00000000000E+00  0.48632679032E+02  0.48632679032E+02  0.00000000000E+00 0.  1.
          2   -1    0    0  503    0 -0.00000000000E+00 -0.00000000000E+00 -0.21572512710E+04  0.21572512710E+04  0.00000000000E+00 0. -1.
         21    1    1    2  503  502  0.37314024080E+02 -0.67083902421E+02 -0.13466779016E+03  0.15500967732E+03  0.00000000000E+00 0.  1.
         21    1    1    2  504  501 -0.15780849589E+02  0.36950758652E+02 -0.72067689290E+03  0.72179607767E+03  0.00000000000E+00 0. -1.
         21    1    1    2  505  504  0.96542375362E+02 -0.19059510658E+02 -0.35512963202E+02  0.10461771237E+03  0.00000000000E+00 0.  1.
          2    1    1    2  501    0 -0.11807554985E+03  0.49192654427E+02 -0.12177609457E+04  0.12244604826E+04  0.00000000000E+00 0. -1.
<scales pt_clust_3="76.76318" pt_clust_4="39.76948" pt_clust_5="152.34497" pt_clust_6="39.76948"></scales>
<clustering>
<clus scale="   39.769">  4  6 -1 -1</clus>
<clus scale="   76.763">  1  3  2 -1</clus>
<clus scale="  152.345">  1  5  2 -1</clus>
<clus scale="   76.763">  1  3  2 -1</clus>
</clustering>
</event>
<event>
 6    0  0.2117869E+002  0.1270476E+03  0.7546771E-02  0.1231903E+00
         -1   -1    0    0    0  501 -0.00000000000E+00  0.00000000000E+00  0.18558060659E+03  0.18558060659E+03  0.00000000000E+00 0. -1.
         21   -1    0    0  504  502  0.00000000000E+00 -0.00000000000E+00 -0.12699490378E+04  0.12699490378E+04  0.00000000000E+00 0. -1.
         21    1    1    2  503  505  0.82466453629E+02  0.42315228730E+02 -0.30110978242E+03  0.31505300447E+03  0.00000000000E+00 0. -1.
         21    1    1    2  504  503  0.49958634784E+02 -0.16125641089E+02 -0.91933338924E+03  0.92083102797E+03  0.00000000000E+00 0. -1.
         21    1    1    2  505  501 -0.35700011264E+02  0.23687317966E+02 -0.31206605323E+01  0.42957168887E+02  0.00000000000E+00 0.  1.
         -1    1    1    2    0  502 -0.96725077149E+02 -0.49876905607E+02  0.13919540098E+03  0.17668844308E+03  0.00000000000E+00 0. -1.
<scales pt_clust_3="14000.00000" pt_clust_4="52.31025" pt_clust_5="42.84367" pt_clust_6="127.04763"></scales>
<clustering>
<clus scale="   42.844">  1  5  2 -1</clus>
<clus scale="   52.310">  2  4  1 -1</clus>
<clus scale="  127.048">  1  6  2 -1</clus>
<clus scale="   52.310">  2  3  1 -1</clus>
</clustering>
</event>
<event>
 6    0  0.2117869E+002  0.6485709E+02  0.7546771E-02  0.1378510E+00
         -1   -1    0    0    0  501 -0.00000000000E+00  0.00000000000E+00  0.28605361760E+03  0.28605361760E+03  0.00000000000E+00 0.  1.
         21   -1    0    0  503  502  0.00000000000E+00 -0.00000000000E+00 -0.22099500950E+03  0.22099500950E+03  0.00000000000E+00 0. -1.
         21    1    1    2  503  501 -0.10496411765E+03  0.26994682613E+02 -0.41226344240E+02  0.11595598450E+03  0.00000000000E+00 0. -1.
         21    1    1    2  504  502  0.21728314528E+02  0.30959955909E+02 -0.99834326676E+02  0.10675922117E+03  0.00000000000E+00 0. -1.
         21    1    1    2  505  504  0.49340441131E+02 -0.37352186752E+01 -0.16931551831E+02  0.52298264187E+02  0.00000000000E+00 0. -1.
         -1    1    1    2    0  505  0.33895361986E+02 -0.54219419847E+02  0.22305083085E+03  0.23203515724E+03  0.00000000000E+00 0.  1.
<scales pt_clust_3="14000.00000" pt_clust_4="37.82378" pt_clust_5="55.98884" pt_clust_6="64.85709"></scales>
<clustering>
<clus scale="   37.824">  2  4  1 -1</clus>
<clus scale="   55.989">  2  5  1 -1</clus>
<clus scale="   64.857">  1  6  2 -1</clus>
<clus scale="   37.824">  2  3  1 -1</clus>
</clustering>
</event>
<event>
 6    0  0.2117869E+002  0.1808299E+03  0.7546771E-02  0.1167002E+00
         21   -1    0    0  504  502  0.00000000000E+00  0.00000000000E+00  0.32065257313E+03  0.32065257313E+03  0.00000000000E+00 0. -1.
          2   -1    0    0  503    0 -0.00000000000E+00 -0.00000000000E+00 -0.79723947598E+03  0.79723947598E+03  0.00000000000E+00 0.  1.
         21    1    1    2  503  505  0.27662134969E+02  0.12512495423E+02 -0.27824827282E+03  0.27989972772E+03  0.00000000000E+00 0.  1.
         21    1    1    2  504  501  0.27534944821E+02 -0.17613994320E+02  0.39826263175E+01  0.32928517952E+02  0.00000000000E+00 0. -1.
         21    1    1    2  505  502  0.13896856837E+03 -0.54564700743E+02  0.26015221879E+03  0.29994790632E+03  0.00000000000E+00 0. -1.
          2    1    1    2  501    0 -0.19416564816E+03  0.59666199639E+02 -0.46247347514E+03  0.50511589711E+03  0.00000000000E+00 0.  1.
<scales pt_clust_3="30.36044" pt_clust_4="33.15693" pt_clust_5="180.82990" pt_clust_6="14000.00000"></scales>
<clustering>
<clus scale="   30.360">  2  3  1 -1</clus>
<clus scale="   33.157">  1  4  2 -1</clus>
<clus scale="  180.830">  1  5  2 -1</clus>
<clus scale="   33.157">  1  3  2 -1</clus>
</clustering>
</event>
<event>
 6    0  0.2117869E+002  0.1585658E+03  0.7546771E-02  0.1190325E+00
          2   -1    0    0  503    0 -0.00000000000E+00  0.00000000000E+00  0.71359851716E+03  0.71359851716E+03  0.00000000000E+00 0. -1.
         21   -1    0    0  504  502  0.00000000000E+00 -0.00000000000E+00 -0.10780104907E+04  0.10780104907E+04  0.00000000000E+00 0. -1.
         21    1    1    2  503  505 -0.38003083064E+02 -0.32273534464E+02  0.84177311913E+02  0.97834734067E+02  0.00000000000E+00 0. -1.
         21    1    1    2  504  501  0.29421150583E+02  0.29289817521E+02 -0.88454602385E+02  0.97712405533E+02  0.00000000000E+00 0. -1.
         21    1    1    2  505  502  0.12790500807E+03 -0.13298770965E+01 -0.96808423405E+03  0.97649810235E+03  0.00000000000E+00 0. -1.
          2    1    1    2  501    0 -0.11932307559E+03  0.43135940393E+01  0.60794955099E+03  0.61956376590E+03  0.00000000000E+00 0. -1.
<scales pt_clust_3="49.57102" pt_clust_4="41.51503" pt_clust_5="158.56584" pt_clust_6="14000.00000"></scales>
<clustering>
<clus scale="   41.515">  2  4  1 -1</clus>
<clus scale="   49.571">  1  3  2 -1</clus>
<clus scale="  158.566">  2  5  1 -1</clus>
<clus scale="   41.515">  2  3  1 -1</clus>
</clustering>
</event>
<event>
 6    0  0.2117869E+002  0.1252008E+03  0.7546771E-02  0.1234756E+00
          2   -1    0    0  505    0 -0.00000000000E+00  0.00000000000E+00  0.45334525331E+03  0.45334525331E+03  0.00000000000E+00 0.  1.
         21   -1    0    0  504  502  0.00000000000E+00 -0.00000000000E+00 -0.26150761135E+03  0.26150761135E+03  0.00000000000E+00 0.  1.
         21    1    1    2  503  502  0.96246219868E+02 -0.15028174627E+01  0.15993297235E+03  0.18666587515E+03  0.00000000000E+00 0.  1.
         21    1    1    2  504  501  0.36096527034E+02  0.11447541060E+03 -0.17511121986E+03  0.21230053748E+03  0.00000000000E+00 0.  1.
         21    1    1    2  505  503 -0.32653983774E+02  0.42103650793E+02  0.58707334426E+02  0.79281468086E+02  0.00000000000E+00 0.  1.
          2    1    1    2  501    0 -0.99688763129E+02 -0.15507624393E+03  0.14830855505E+03  0.23660498394E+03  0.00000000000E+00 0.  1.
<scales pt_clust_3="83.37613" pt_clust_4="14000.00000" pt_clust_5="53.28227" pt_clust_6="125.20078"></scales>
<clustering>
<clus scale="   53.282">  1  5  2 -1</clus>
<clus scale="   83.376">  1  3  2 -1</clus>
<clus scale="  125.201">  1  6  2 -1</clus>
<clus scale="  125.201">  2  3  1 -1</clus>
</clustering>
</event>
<event>
 6    0  0.2117869E+002  0.8745262E+02  0.7546771E-02  0.1309140E+00
         -2   -1    0    0    0  501 -0.00000000000E+00  0.00000000000E+00  0.24884934334E+03  0.24884934334E+03  0.00000000000E+00 0.  1.
         21   -1    0    0  504  502  0.00000000000E+00 -0.00000000000E+00 -0.94215095407E+03  0.94215095407E+03  0.00000000000E+00 0. -1.
         21    1    1    2  503  505  0.20049328624E+02 -0.42777787669E+02  0.11526686041E+03  0.12457272496E+03  0.00000000000E+00 0. -1.
         21    1    1    2  504  501 -0.98356706812E+01 -0.52883597576E+02 -0.67053617394E+02  0.85962799606E+02  0.00000000000E+00 0. -1.
         21    1    1    2  505  502 -0.47314838377E+02  0.10993931632E+03 -0.85338697911E+03  0.86173933606E+03  0.00000000000E+00 0. -1.
         -2    1    1    2    0  503  0.37101180434E+02 -0.14277931075E+02  0.11187212536E+03  0.11872543678E+03  0.00000000000E+00 0.  1.
<scales pt_clust_3="30.15087" pt_clust_4="53.79048" pt_clust_5="81.04085" pt_clust_6="30.15087"></scales>
<clustering>
<clus scale="   30.151">  3  6 -1 -1</clus>
<clus scale="   53.790">  2  4  1 -1</clus>
<clus scale="   81.041">  2  5  1 -1</clus>
<clus scale="   53.790">  2  3  1 -1</clus>
</clustering>
</event>
<event>
 6    0  0.2117869E+002  0.1242924E+03  0.7546771E-02  0.1236179E+00
          2   -1    0    0  505    0 -0.00000000000E+00  0.00000000000E+00  0.24491381258E+04  0.24491381258E+04  0.00000000000E+00 0. -1.
         21   -1    0    0  504  502  0.00000000000E+00 -0.00000000000E+00 -0.73538465083E+02  0.73538465083E+02  0.00000000000E+00 0. -1.
         21    1    1    2  503  502 -0.45716413304E+02  0.11553218095E+03  0.26424297309E+02  0.12702723633E+03  0.00000000000E+00 0. -1.
         21    1    1    2  504  501  0.10553115025E+03 -0.41417108676E+01  0.24432484716E+03  0.26617401898E+03  0.00000000000E+00 0. -1.
         21    1    1    2  505  503 -0.78782975720E+02  0.59052934412E+02  0.28432007065E+03  0.30088520884E+03  0.00000000000E+00 0. -1.
          2    1    1    2  501    0  0.18968238775E+02 -0.17044340450E+03  0.18205304456E+04  0.18285901268E+04  0.00000000000E+00 0. -1.
<scales pt_clust_3="124.29240" pt_clust_4="96.24847" pt_clust_5="98.45815" pt_clust_6="14000.00000"></scales>
<clustering>
<clus scale="   98.458">  1  5  2 -1</clus>
<clus scale="   96.248">  2  4  1 -1</clus>
<clus scale="  124.292">  2  3  1 -1</clus>
<clus scale="   96.248">  2  3  1 -1</clus>
</clustering>
</event>
<event>
 6    0  0.2117869E+002  0.8249795E+02  0.7546771E-02  0.1322108E+00
          2   -1    0    0  503    0 -0.00000000000E+00  0.00000000000E+00  0.15730489692E+04  0.15730489692E+04  0.00000000000E+00 0. -1.
         21   -1    0    0  505  502  0.00000000000E+00 -0.00000000000E+00 -0.24651272204E+03  0.24651272204E+03  0.00000000000E+00 0.  1.
         21    1    1    2  503  504 -0.11079496163E+02 -0.30653858730E+02  0.57820468935E+03  0.57912267878E+03  0.00000000000E+00 0. -1.
         21    1    1    2  504  502 -0.64071486712E+02 -0.71224095220E+00 -0.60225656547E+02  0.87936297416E+02  0.00000000000E+00 0. -1.
         21    1    1    2  505  501  0.12810908448E+03 -0.49466125121E+02 -0.14171055150E+03  0.19733402004E+03  0.00000000000E+00 0.  1.
          2    1    1    2  501    0 -0.52958101604E+02  0.80832224804E+02  0.95026776587E+03  0.95516869502E+03  0.00000000000E+00 0. -1.
<scales pt_clust_3="32.59470" pt_clust_4="64.23597" pt_clust_5="14000.00000" pt_clust_6="82.49795"></scales>
<clustering>
<clus scale="   32.595">  1  3  2 -1</clus>
<clus scale="   64.236">  2  4  1 -1</clus>
<clus scale="   82.498">  1  6  2 -1</clus>
<clus scale="   64.236">  2  3  1 -1</clus>
</clustering>
</event>
<event>
 6    0  0.2117869E+002  0.1707057E+03  0.7546771E-02  0.1177114E+00
          2   -1    0    0  504    0 -0.00000000000E+00  0.00000000000E+00  0.38853974963E+03  0.38853974963E+03  0.00000000000E+00 0. -1.
         21   -1    0    0  503  502  0.00000000000E+00 -0.00000000000E+00 -0.24895945045E+03  0.24895945045E+03  0.00000000000E+00 0. -1.
         21    1    1    2  503  501  0.15102343340E+03 -0.38953540339E+02 -0.16320896989E+03  0.22574902789E+03  0.00000000000E+00 0. -1.
         21    1    1    2  504  505 -0.11248817867E+02 -0.27822223112E+02  0.65645422092E+02  0.72179868689E+02  0.00000000000E+00 0.  1.
         21    1    1    2  505  502  0.67363366330E+01 -0.32545751797E+02 -0.10784514117E+02  0.34941521662E+02  0.00000000000E+00 0. -1.
          2    1    1    2  501    0 -0.14651095217E+03  0.99321515248E+02  0.24792836109E+03  0.30462878184E+03  0.00000000000E+00 0. -1.
<scales pt_clust_3="170.70572" pt_clust_4="30.01020" pt_clust_5="34.18478" pt_clust_6="14000.00000"></scales>
<clustering>
<clus scale="   30.010">  1  4  2 -1</clus>
<clus scale="   34.185">  2  5  1 -1</clus>
<clus scale="  170.706">  2  3  1 -1</clus>
<clus scale="   34.185">  2  3  1 -1</clus>
</clustering>
</event>
<event>
 6    0  0.2117869E+002  0.1856736E+03  0.7546771E-02  0.1162422E+00
         21   -1    0    0  503  502  0.00000000000E+00  0.00000000000E+00  0.32560842761E+03  0.32560842761E+03  0.00000000000E+00 0. -1.
         -2   -1    0    0    0  501 -0.00000000000E+00 -0.00000000000E+00 -0.10969603934E+04  0.10969603934E+04  0.00000000000E+00 0. -1.
         21    1    1    2  503  504 -0.90158857376E+02  0.21867093507E+03  0.22095236606E+03  0.32367506156E+03  0.00000000000E+00 0. -1.
         21    1    1    2  504  501  0.29144449023E+02  0.38687640912E+02 -0.23473410697E+03  0.23967943893E+03  0.00000000000E+00 0.  1.
         21    1    1    2  505  502  0.60905103665E+02 -0.41204006171E+02 -0.22441592085E+01  0.73567914388E+02  0.00000000000E+00 0. -1.
         -2    1    1    2    0  505  0.10930468798E+00 -0.21615456981E+03 -0.75532606568E+03  0.78564640615E+03  0.00000000000E+00 0. -1.
<scales pt_clust_3="14000.00000" pt_clust_4="48.43689" pt_clust_5="73.67306" pt_clust_6="185.67357"></scales>
<clustering>
<clus scale="   48.437">  2  4  1 -1</clus>
<clus scale="   73.673">  1  5  2 -1</clus>
<clus scale="  185.674">  2  6  1 -1</clus>
<clus scale="   73.673">  1  3  2 -1</clus>
</clustering>
</event>
<event>
 6    0  0.2117869E+002  0.1580368E+03  0.7546771E-02  0.1190931E+00
          2   -1    0    0  504    0 -0.00000000000E+00  0.00000000000E+00  0.25428719701E+04  0.25428719701E+04  0.00000000000E+00 0.  1.
         21   -1    0    0  501  502  0.00000000000E+00 -0.00000000000E+00 -0.10303008422E+03  0.10303008422E+03  0.00000000000E+00 0. -1.
         21    1    1    2  503  505 -0.13503766780E+03  0.13444627540E+03  0.35950197649E+02  0.19391593386E+03  0.00000000000E+00 0. -1.
         21    1    1    2  504  503  0.36601320207E+02  0.40871839292E+02  0.15117755809E+03  0.16082542696E+03  0.00000000000E+00 0. -1.
         21    1    1    2  505  502  0.48314368666E+02 -0.67574844342E+01  0.21983144454E+02  0.53508882025E+02  0.00000000000E+00 0. -1.
          2    1    1    2  501    0  0.50121978925E+02 -0.16856063026E+03  0.22307309857E+04  0.22376518115E+04  0.00000000000E+00 0.  1.
<scales pt_clust_3="14000.00000" pt_clust_4="56.41281" pt_clust_5="48.78465" pt_clust_6="158.03678"></scales>
<clustering>
<clus scale="   48.785">  2  5  1 -1</clus>
<clus scale="   56.413">  1  4  2 -1</clus>
<clus scale="  158.037">  1  6  2 -1</clus>
<clus scale="   48.785">  2  3  1 -1</clus>
</clustering>
</event>
<event>
 6    0  0.2117869E+002  0.1064437E+03  0.7546771E-02  0.1267301E+00
         21   -1    0    0  505  502  0.00000000000E+00  0.00000000000E+00  0.86306563244E+03  0.86306563244E+03  0.00000000000E+00 0. -1.
          1   -1    0    0  503    0 -0.00000000000E+00 -0.00000000000E+00 -0.13062685654E+04  0.13062685654E+04  0.00000000000E+00 0. -1.
         21    1    1    2  503  502 -0.14049766726E+02  0.40345402761E+02  0.73584024773E+03  0.73707938354E+03  0.00000000000E+00 0. -1.
         21    1    1    2  504  501  0.18883432643E+02 -0.30977957159E+02  0.22710472408E+01  0.36350729204E+02  0.00000000000E+00 0. -1.
         21    1    1    2  505  504 -0.28740848005E+01 -0.10046252571E+03  0.81752683116E+02  0.12955493287E+03  0.00000000000E+00 0. -1.
          1    1    1    2  501    0 -0.19595811170E+01  0.91095080104E+02 -0.12630669110E+04  0.12663491522E+04  0.00000000000E+00 0. -1.
<scales pt_clust_3="42.72174" pt_clust_4="32.53182" pt_clust_5="32.53182" pt_clust_6="91.64308"></scales>
<clustering>
<clus scale="   32.532">  4  5 -1 -1</clus>
<clus scale="   42.722">  1  3  2 -1</clus>
<clus scale="   91.643">  2  6  1 -1</clus>
<clus scale="   42.722">  1  3  2 -1</clus>
</clustering>
</event>
<event>
 6    0  0.2117869E+002  0.1374967E+03  0.7546771E-02  0.1216738E+00
         21   -1    0    0  503  502  0.00000000000E+00  0.00000000000E+00  0.11887882461E+03  0.11887882461E+03  0.00000000000E+00 0.  1.
          1   -1    0    0  505    0 -0.00000000000E+00 -0.00000000000E+00 -0.19234360655E+04  0.19234360655E+04  0.00000000000E+00 0.  1.
         21    1    1    2  503  501 -0.16855516190E+02 -0.81841701367E+02  0.67345602350E+02  0.10732009441E+03  0.00000000000E+00 0.  1.
         21    1    1    2  504  502 -0.15573560580E+03  0.32467425538E+02 -0.59859552609E+03  0.61937413288E+03  0.00000000000E+00 0.  1.
         21    1    1    2  505  504  0.41914062385E+02  0.49376329296E+02 -0.10820308584E+04  0.10839675221E+04  0.00000000000E+00 0.  1.
          1    1    1    2  501    0  0.13067705961E+03 -0.20534670588E-02 -0.19127645881E+03  0.23165314072E+03  0.00000000000E+00 0.  1.
<scales pt_clust_3="82.21152" pt_clust_4="14000.00000" pt_clust_5="64.76736" pt_clust_6="137.49672"></scales>
<clustering>
<clus scale="   64.767">  2  5  1 -1</clus>
<clus scale="   82.212">  1  3  2 -1</clus>
<clus scale="  137.497">  1  6  2 -1</clus>
<clus scale="   82.212">  1  3  2 -1</clus>
</clustering>
</event>
<event>
 6    0  0.2117869E+002  0.1297689E+03  0.7546771E-02  0.1227799E+00
          2   -1    0    0  505    0 -0.00000000000E+00  0.00000000000E+00  0.21754803404E+04  0.21754803404E+04  0.00000000000E+00 0. -1.
         21   -1    0    0  501  502  0.00000000000E+00 -0.00000000000E+00 -0.93643070164E+02  0.93643070164E+02  0.00000000000E+00 0. -1.
         21    1    1    2  503  504  0.13245748788E+03 -0.67334840791E+01  0.17654052524E+03  0.22080960794E+03  0.00000000000E+00 0. -1.
         21    1    1    2  504  502 -0.15839924201E+02 -0.38875735014E+02 -0.59577784754E+02  0.72881674019E+02  0.00000000000E+00 0. -1.
         21    1    1    2  505  503  0.27487913931E+02 -0.29051641204E+02  0.49904478591E+03  0.50064486576E+03  0.00000000000E+00 0.  1.
          2    1    1    2  501    0 -0.14410547761E+03  0.74660860297E+02  0.14658297439E+04  0.14747872629E+04  0.00000000000E+00 0. -1.
<scales pt_clust_3="129.76894" pt_clust_4="42.04475" pt_clust_5="39.99479" pt_clust_6="14000.00000"></scales>
<clustering>
<clus scale="   39.995">  1  5  2 -1</clus>
<clus scale="   42.045">  2  4  1 -1</clus>
<clus scale="  129.769">  2  3  1 -1</clus>
<clus scale="   42.045">  2  3  1 -1</clus>
</clustering>
</event>
<event>
 6    0  0.2117869E+002  0.1109647E+03  0.7546771E-02  0.1258794E+00
         -3   -1    0    0    0  501 -0.00000000000E+00  0.00000000000E+00  0.35649916262E+03  0.35649916262E+03  0.00000000000E+00 0. -1.
         21   -1    0    0  504  502  0.00000000000E+00 -0.00000000000E+00 -0.15987816313E+03  0.15987816313E+03  0.00000000000E+00 0. -1.
         21    1    1    2  503  501  0.32517871003E+02  0.45384674833E+02  0.14432976429E+03  0.15475225848E+03  0.00000000000E+00 0. -1.
         21    1    1    2  504  505 -0.33829444244E+02  0.34681472835E+02 -0.74609826836E+02  0.88959890492E+02  0.00000000000E+00 0. -1.
         21    1    1    2  505  503 -0.88091028607E+02  0.18551844614E+02  0.18706186294E+01  0.90042764694E+02  0.00000000000E+00 0.  1.
         -3    1    1    2    0  502  0.89402601849E+02 -0.98617992283E+02  0.12503044340E+03  0.18262241209E+03  0.00000000000E+00 0. -1.
<scales pt_clust_3="56.48793" pt_clust_4="48.44828" pt_clust_5="110.96475" pt_clust_6="14000.00000"></scales>
<clustering>
<clus scale="   48.448">  2  4  1 -1</clus>
<clus scale="   56.488">  1  3  2 -1</clus>
<clus scale="  110.965">  2  5  1 -1</clus>
<clus scale="   48.448">  2  3  1 -1</clus>
</clustering>
</event>
<event>
 6    0  0.2117869E+002  0.1350453E+03  0.7546771E-02  0.1220156E+00
         21   -1    0    0  505  502  0.00000000000E+00  0.00000000000E+00  0.67610560642E+03  0.67610560642E+03  0.00000000000E+00 0.  1.
          1   -1    0    0  504    0 -0.00000000000E+00 -0.00000000000E+00 -0.24648365755E+03  0.24648365755E+03  0.00000000000E+00 0. -1.
         21    1    1    2  503  501 -0.49018384552E+02 -0.25486514882E+02  0.30331391270E+03  0.30830454765E+03  0.00000000000E+00 0.  1.
         21    1    1    2  504  502 -0.71596121847E+01 -0.30192276954E+02  0.21170247945E+02  0.37563453413E+02  0.00000000000E+00 0.  1.
         21    1    1    2  505  503 -0.27232998695E+02 -0.46997455612E+02  0.31990400510E+03  0.32448261823E+03  0.00000000000E+00 0.  1.
          1    1    1    2  501    0  0.83410995432E+02  0.10267624745E+03 -0.21476621689E+03  0.25223864467E+03  0.00000000000E+00 0. -1.
<scales pt_clust_3="30.57463" pt_clust_4="31.02956" pt_clust_5="30.57463" pt_clust_6="131.47774"></scales>
<clustering>
<clus scale="   30.575">  3  5 -1 -1</clus>
<clus scale="   31.030">  1  4  2 -1</clus>
<clus scale="  131.478">  2  6  1 -1</clus>
<clus scale="   31.030">  1  3  2 -1</clus>
</clustering>
</event>
<event>
 6    0  0.2117869E+002  0.1055839E+03  0.7546771E-02  0.1268973E+00
          1   -1    0    0  503    0 -0.00000000000E+00  0.00000000000E+00  0.19948229889E+04  0.19948229889E+04  0.00000000000E+00 0.  1.
         21   -1    0    0  504  502  0.00000000000E+00 -0.00000000000E+00 -0.19287161977E+02  0.19287161977E+02  0.00000000000E+00 0.  1.
         21    1    1    2  503  505 -0.35920685565E+02  0.18579193048E+02  0.22377292885E+03  0.22739790182E+03  0.00000000000E+00 0. -1.
         21    1    1    2  504  501  0.81376383124E+02  0.25304923217E+02  0.19478355819E+03  0.21261018182E+03  0.00000000000E+00 0.  1.
         21    1    1    2  505  502 -0.52292260658E+02  0.54647548042E+02  0.20480466446E+03  0.21832495418E+03  0.00000000000E+00 0.  1.
          1    1    1    2  501    0  0.68365630994E+01 -0.98531664306E+02  0.13521746754E+04  0.13557771130E+04  0.00000000000E+00 0.  1.
<scales pt_clust_3="31.42051" pt_clust_4="85.22004" pt_clust_5="31.42051" pt_clust_6="96.44443"></scales>
<clustering>
<clus scale="   31.421">  3  5 -1 -1</clus>
<clus scale="   85.220">  2  4  1 -1</clus>
<clus scale="   96.444">  1  6  2 -1</clus>
<clus scale="   85.220">  2  3  1 -1</clus>
</clustering>
</event>
<event>
 6    0  0.2117869E+002  0.7946829E+02  0.7546771E-02  0.1330567E+00
         21   -1    0    0  504  502  0.00000000000E+00  0.00000000000E+00  0.10455588154E+03  0.10455588154E+03  0.00000000000E+00 0.  1.
          1   -1    0    0  503    0 -0.00000000000E+00 -0.00000000000E+00 -0.26264973106E+04  0.26264973106E+04  0.00000000000E+00 0. -1.
         21    1    1    2  503  505 -0.48057112339E+02  0.10303963028E+02 -0.12017800954E+04  0.12027847087E+04  0.00000000000E+00 0. -1.
         21    1    1    2  504  501 -0.18360616273E+02  0.30153759798E+02  0.87986704763E+02  0.94805177469E+02  0.00000000000E+00 0.  1.
         21    1    1    2  505  502 -0.37673925734E+02  0.31702245470E+02 -0.52745184012E+02  0.72155467461E+02  0.00000000000E+00 0. -1.
          1    1    1    2  501    0  0.10409165435E+03 -0.72159968296E+02 -0.13554028544E+04  0.13613078385E+04  0.00000000000E+00 0. -1.
<scales pt_clust_3="50.08543" pt_clust_4="35.30384" pt_clust_5="14000.00000" pt_clust_6="79.46829"></scales>
<clustering>
<clus scale="   35.304">  1  4  2 -1</clus>
<clus scale="   50.085">  2  3  1 -1</clus>
<clus scale="   79.468">  2  6  1 -1</clus>
<clus scale="   35.304">  1  3  2 -1</clus>
</clustering>
</event>
<event>
 6    0  0.2117869E+002  0.6698709E+02  0.7546771E-02  0.1370649E+00
         21   -1    0    0  505  502  0.00000000000E+00  0.00000000000E+00  0.82550706716E+03  0.82550706716E+03  0.00000000000E+00 0. -1.
          1   -1    0    0  503    0 -0.00000000000E+00 -0.00000000000E+00 -0.76500844651E+03  0.76500844651E+03  0.00000000000E+00 0. -1.
         21    1    1    2  503  502  0.28639364660E+02 -0.32595161609E+02 -0.14591349654E+03  0.15222813879E+03  0.00000000000E+00 0. -1.
         21    1    1    2  504  501  0.26746067395E+01  0.88957088116E+02  0.17335082014E+03  0.19486155057E+03  0.00000000000E+00 0.  1.
         21    1    1    2  505  504  0.49540062162E+02 -0.45979957494E+02  0.63369309251E+03  0.63728746241E+03  0.00000000000E+00 0. -1.
          1    1    1    2  501    0 -0.80854033562E+02 -0.10381969013E+02 -0.60063179547E+03  0.60613836188E+03  0.00000000000E+00 0. -1.
<scales pt_clust_3="43.38960" pt_clust_4="66.98709" pt_clust_5="14000.00000" pt_clust_6="67.66122"></scales>
<clustering>
<clus scale="   43.390">  2  3  1 -1</clus>
<clus scale="   67.661">  2  6  1 -1</clus>
<clus scale="   66.987">  2  4  1 -1</clus>
<clus scale="   66.987">  1  3  2 -1</clus>
</clustering>
</event>
<event>
 6    0  0.2117869E+002  0.1757043E+03  0.7546771E-02  0.1172026E+00
         21   -1    0    0  501  502  0.00000000000E+00  0.00000000000E+00  0.23806628961E+03  0.23806628961E+03  0.00000000000E+00 0.  1.
          2   -1    0    0  505    0 -0.00000000000E+00 -0.00000000000E+00 -0.97267182351E+03  0.97267182351E+03  0.00000000000E+00 0.  1.
         21    1    1    2  503  504 -0.14184468484E+03 -0.15845468481E+03  0.78646456676E+02  0.22674449696E+03  0.00000000000E+00 0.  1.
         21    1    1    2  504  502  0.17236632208E+02  0.39333882975E+02  0.66221364546E+02  0.78927339763E+02  0.00000000000E+00 0.  1.
         21    1    1    2  505  503  0.21168542659E+02 -0.27036219406E+02 -0.16043749705E+03  0.16407088352E+03  0.00000000000E+00 0.  1.
          2    1    1    2  501    0  0.10343950997E+03  0.14615702124E+03 -0.71903585807E+03  0.74099539288E+03  0.00000000000E+00 0.  1.
<scales pt_clust_3="14000.00000" pt_clust_4="42.81794" pt_clust_5="34.33751" pt_clust_6="175.70429"></scales>
<clustering>
<clus scale="   34.338">  2  5  1 -1</clus>
<clus scale="   42.818">  1  4  2 -1</clus>
<clus scale="  175.704">  2  6  1 -1</clus>
<clus scale="   42.818">  1  3  2 -1</clus>
</clustering>
</event>
<event>
 6    0  0.2117869E+002  0.8816959E+02  0.7546771E-02  0.1307346E+00
          1   -1    0    0  503    0 -0.00000000000E+00  0.00000000000E+00  0.12942899449E+03  0.12942899449E+03  0.00000000000E+00 0. -1.
         21   -1    0    0  505  502  0.00000000000E+00 -0.00000000000E+00 -0.36506253196E+03  0.36506253196E+03  0.00000000000E+00 0.  1.
         21    1    1    2  503  502 -0.73500637747E+02  0.65435396623E+02 -0.53337240880E+02  0.11193299846E+03  0.00000000000E+00 0. -1.
         21    1    1    2  504  501 -0.13766928280E+02 -0.41340957318E+02 -0.15453568541E+03  0.16056114453E+03  0.00000000000E+00 0.  1.
         21    1    1    2  505  504  0.13860770679E+02 -0.42922651552E+02 -0.10470048513E+03  0.11400292350E+03  0.00000000000E+00 0.  1.
          1    1    1    2  501    0  0.73406795348E+02  0.18828212247E+02  0.76939873945E+02  0.10799445996E+03  0.00000000000E+00 0. -1.
<scales pt_clust_3="81.80590" pt_clust_4="32.32533" pt_clust_5="32.32533" pt_clust_6="75.78297"></scales>
<clustering>
<clus scale="   32.325">  4  5 -1 -1</clus>
<clus scale="   75.783">  1  6  2 -1</clus>
<clus scale="   81.806">  1  3  2 -1</clus>
<clus scale="   88.170">  2  3  1 -1</clus>
</clustering>
</event>
<event>
 6    0  0.2117869E+002  0.8140216E+02  0.7546771E-02  0.1325119E+00
         21   -1    0    0  503  502  0.00000000000E+00  0.00000000000E+00  0.66570013211E+02  0.66570013211E+02  0.00000000000E+00 0.  1.
          2   -1    0    0  505    0 -0.00000000000E+00 -0.00000000000E+00 -0.11349104965E+04  0.11349104965E+04  0.00000000000E+00 0.  1.
         21    1    1    2  503  501 -0.34445809077E+02 -0.11850586450E+03 -0.31035749283E+02  0.12725317842E+03  0.00000000000E+00 0.  1.
         21    1    1    2  504  502  0.46431595661E+01  0.33243133902E+02 -0.17305484145E+02  0.37764330576E+02  0.00000000000E+00 0.  1.
         21    1    1    2  505  504  0.49788694413E+02  0.73104814382E+01 -0.91020613706E+02  0.10400533327E+03  0.00000000000E+00 0. -1.
          2    1    1    2  501    0 -0.19986044901E+02  0.77952249159E+02 -0.92897863616E+03  0.93245766745E+03  0.00000000000E+00 0.  1.
<scales pt_clust_3="14000.00000" pt_clust_4="33.56583" pt_clust_5="51.54228" pt_clust_6="81.40216"></scales>
<clustering>
<clus scale="   33.566">  1  4  2 -1</clus>
<clus scale="   51.542">  1  5  2 -1</clus>
<clus scale="   81.402">  2  6  1 -1</clus>
<clus scale="   33.566">  1  3  2 -1</clus>
</clustering>
</event>
<event>
 6    0  0.2117869E+002  0.8957888E+02  0.7546771E-02  0.1303875E+00
         21   -1    0    0  503  502  0.00000000000E+00  0.00000000000E+00  0.12054568858E+04  0.12054568858E+04  0.00000000000E+00 0. -1.
          3   -1    0    0  505    0 -0.00000000000E+00 -0.00000000000E+00 -0.47114990026E+02  0.47114990026E+02  0.00000000000E+00 0. -1.
         21    1    1    2  503  504 -0.88123183829E+02  0.16749314251E+02  0.97203127085E+03  0.97616137322E+03  0.00000000000E+00 0. -1.
         21    1    1    2  504  501  0.90616967513E+02  0.27735677992E+01  0.14160662768E+03  0.16814150137E+03  0.00000000000E+00 0. -1.
         21    1    1    2  505  502 -0.35432735483E+02 -0.44480417521E+02  0.30757343509E+02  0.64652923108E+02  0.00000000000E+00 0. -1.
          3    1    1    2  501    0  0.32938951799E+02  0.24957535471E+02  0.13946653758E+02  0.43616078152E+02  0.00000000000E+00 0. -1.
<scales pt_clust_3="14000.00000" pt_clust_4="89.57888" pt_clust_5="36.24303" pt_clust_6="41.32618"></scales>
<clustering>
<clus scale="   41.326">  2  6  1 -1</clus>
<clus scale="   36.243">  2  5  1 -1</clus>
<clus scale="   89.579">  2  4  1 -1</clus>
<clus scale="   89.579">  1  3  2 -1</clus>
</clustering>
</event>
<event>
 6    0  0.2117869E+002  0.1181704E+03  0.7546771E-02  0.1246146E+00
         21   -1    0    0  505  502  0.00000000000E+00  0.00000000000E+00  0.15162675838E+03  0.15162675838E+03  0.00000000000E+00 0. -1.
          1   -1    0    0  503    0 -0.00000000000E+00 -0.00000000000E+00 -0.17180727677E+04  0.17180727677E+04  0.00000000000E+00 0. -1.
         21    1    1    2  503  502  0.53387708752E+02  0.48061086886E+02  0.10060659142E+03  0.12361958484E+03  0.00000000000E+00 0. -1.
         21    1    1    2  504  501 -0.22812997941E+02 -0.34560596238E+02 -0.49189801106E+03  0.49363804652E+03  0.00000000000E+00 0.  1.
         21    1    1    2  505  504 -0.57066780832E+02  0.60206183431E+02 -0.87542731923E+01  0.83414862567E+02  0.00000000000E+00 0.  1.
          1    1    1    2  501    0  0.26492070021E+02 -0.73706674079E+02 -0.11664003165E+04  0.11690270321E+04  0.00000000000E+00 0. -1.
<scales pt_clust_3="71.83394" pt_clust_4="38.24519" pt_clust_5="105.81944" pt_clust_6="38.24519"></scales>
<clustering>
<clus scale="   38.245">  4  6 -1 -1</clus>
<clus scale="   71.834">  1  3  2 -1</clus>
<clus scale="  105.819">  1  5  2 -1</clus>
<clus scale="   71.834">  1  3  2 -1</clus>
</clustering>
</event>
<event>
 6    0  0.2117869E+002  0.1760690E+03  0.7546771E-02  0.1171663E+00
          2   -1    0    0  505    0 -0.00000000000E+00  0.00000000000E+00  0.23955396067E+04  0.23955396067E+04  0.00000000000E+00 0. -1.
         21   -1    0    0  504  502  0.00000000000E+00 -0.00000000000E+00 -0.67744360798E+03  0.67744360798E+03  0.00000000000E+00 0.  1.
         21    1    1    2  503  502  0.12566842619E+03 -0.59977854660E+02 -0.20390346150E+03  0.24691398908E+03  0.00000000000E+00 0.  1.
         21    1    1    2  504  501 -0.17281357022E+03  0.16020579807E+03 -0.40376264940E+03  0.46749834742E+03  0.00000000000E+00 0.  1.
         21    1    1    2  505  503  0.81832637774E+02 -0.18431042267E+03  0.65513951439E+03  0.68547406648E+03  0.00000000000E+00 0. -1.
          2    1    1    2  501    0 -0.34687493741E+02  0.84082479259E+02  0.16706225953E+04  0.16730968117E+04  0.00000000000E+00 0. -1.
<scales pt_clust_3="176.06900" pt_clust_4="14000.00000" pt_clust_5="117.46323" pt_clust_6="90.95650"></scales>
<clustering>
<clus scale="   90.957">  1  6  2 -1</clus>
<clus scale="  117.463">  1  5  2 -1</clus>
<clus scale="  176.069">  2  3  1 -1</clus>
<clus scale="  176.069">  2  3  1 -1</clus>
</clustering>
</event>
<event>
 6    0  0.2117869E+002  0.2542031E+03  0.7546771E-02  0.1110677E+00
          1   -1    0    0  505    0 -0.00000000000E+00  0.00000000000E+00  0.27786175018E+04  0.27786175018E+04  0.00000000000E+00 0. -1.
         21   -1    0    0  504  502  0.00000000000E+00 -0.00000000000E+00 -0.56004476012E+03  0.56004476012E+03  0.00000000000E+00 0. -1.
         21    1    1    2  503  502  0.22007995435E+03 -0.89906776217E+02 -0.51956613067E+02  0.24334729166E+03  0.00000000000E+00 0.  1.
         21    1    1    2  504  501 -0.25425929846E+03  0.63788958817E+02 -0.36957772467E+03  0.45310541455E+03  0.00000000000E+00 0. -1.
         21    1    1    2  505  503  0.27401926062E+02 -0.17453652138E+02  0.21164062095E+04  0.21166555552E+04  0.00000000000E+00 0. -1.
          1    1    1    2  501    0  0.67774180511E+01  0.43571469538E+02  0.52370086990E+03  0.52555400054E+03  0.00000000000E+00 0. -1.
<scales pt_clust_3="254.20313" pt_clust_4="14000.00000" pt_clust_5="32.48839" pt_clust_6="41.18557"></scales>
<clustering>
<clus scale="   32.488">  1  5  2 -1</clus>
<clus scale="   41.186">  1  6  2 -1</clus>
<clus scale="  254.203">  1  3  2 -1</clus>
<clus scale="  254.203">  2  3  1 -1</clus>
</clustering>
</event>
<event>
 6    0  0.2117869E+002  0.1857457E+03  0.7546771E-02  0.1162355E+00
          2   -1    0    0  505    0 -0.00000000000E+00  0.00000000000E+00  0.13900681376E+04  0.13900681376E+04  0.00000000000E+00 0.  1.
         21   -1    0    0  503  502  0.00000000000E+00 -0.00000000000E+00 -0.63717943230E+03  0.63717943230E+03  0.00000000000E+00 0. -1.
         21    1    1    2  503  501 -0.51092648431E+02  0.60966676738E+02 -0.46840228756E+03  0.47510851117E+03  0.00000000000E+00 0. -1.
         21    1    1    2  504  502 -0.11557324955E+03  0.43601148283E+02 -0.99437533628E+02  0.15857509022E+03  0.00000000000E+00 0. -1.
         21    1    1    2  505  504 -0.31298697418E+02  0.28811423446E+01  0.10062512748E+04  0.10067420412E+04  0.00000000000E+00 0.  1.
          2    1    1    2  501    0  0.19796459540E+03 -0.10744896736E+03  0.31447725162E+03  0.38682192725E+03  0.00000000000E+00 0.  1.
<scales pt_clust_3="79.74020" pt_clust_4="14000.00000" pt_clust_5="31.43103" pt_clust_6="185.74574"></scales>
<clustering>
<clus scale="   31.431">  1  5  2 -1</clus>
<clus scale="   79.740">  2  3  1 -1</clus>
<clus scale="  185.746">  1  6  2 -1</clus>
<clus scale="   79.740">  2  3  1 -1</clus>
</clustering>
</event>
<event>
 6    0  0.2117869E+002  0.1132421E+03  0.7546771E-02  0.1254681E+00
          2   -1    0    0  504    0 -0.00000000000E+00  0.00000000000E+00  0.15794799295E+04  0.15794799295E+04  0.00000000000E+00 0.  1.
         21   -1    0    0  501  502  0.00000000000E+00 -0.00000000000E+00 -0.90516498331E+02  0.90516498331E+02  0.00000000000E+00 0. -1.
         21    1    1    2  503  502 -0.23556701496E+02 -0.38465193064E+02  0.53756708861E+01  0.45424520915E+02  0.00000000000E+00 0. -1.
         21    1    1    2  504  505 -0.63501357616E+02 -0.33504319458E+02  0.22651552519E+03  0.23762206335E+03  0.00000000000E+00 0.  1.
         21    1    1    2  505  503 -0.16442090944E+02 -0.54863400843E+02 -0.46108198833E+02  0.73527553382E+02  0.00000000000E+00 0. -1.
          2    1    1    2  501    0  0.10350015006E+03  0.12683291337E+03  0.13031804340E+04  0.13134222902E+04  0.00000000000E+00 0.  1.
<scales pt_clust_3="41.43765" pt_clust_4="71.79806" pt_clust_5="41.43765" pt_clust_6="103.16708"></scales>
<clustering>
<clus scale="   41.438">  3  5 -1 -1</clus>
<clus scale="   71.798">  1  4  2 -1</clus>
<clus scale="  103.167">  1  6  2 -1</clus>
<clus scale="  113.242">  2  3  1 -1</clus>
</clustering>
</event>
<event>
 6    0  0.2117869E+002  0.4630811E+03  0.7546771E-02  0.1023891E+00
         21   -1    0    0  504  502  0.00000000000E+00  0.00000000000E+00  0.79273517917E+03  0.79273517917E+03  0.00000000000E+00 0. -1.
          2   -1    0    0  503    0 -0.00000000000E+00 -0.00000000000E+00 -0.17809647920E+04  0.17809647920E+04  0.00000000000E+00 0.  1.
         21    1    1    2  503  505 -0.30863966321E+02 -0.37557351363E+01 -0.28352998040E+02  0.42078289667E+02  0.00000000000E+00 0.  1.
         21    1    1    2  504  501 -0.91701012895E+01 -0.41926218883E+02  0.37762343842E+03  0.38005441693E+03  0.00000000000E+00 0. -1.
         21    1    1    2  505  502  0.20898659299E+03  0.45700831153E+03  0.20762531397E+03  0.54372811575E+03  0.00000000000E+00 0. -1.
          2    1    1    2  501    0 -0.16895252538E+03 -0.41132635751E+03 -0.15451253671E+04  0.16078391488E+04  0.00000000000E+00 0.  1.
<scales pt_clust_3="31.09164" pt_clust_4="42.92450" pt_clust_5="14000.00000" pt_clust_6="463.08112"></scales>
<clustering>
<clus scale="   31.092">  2  3  1 -1</clus>
<clus scale="   42.924">  1  4  2 -1</clus>
<clus scale="  463.081">  2  6  1 -1</clus>
<clus scale="   42.924">  1  3  2 -1</clus>
</clustering>
</event>
<event>
 6    0  0.2117869E+002  0.1114435E+03  0.7546771E-02  0.1257920E+00
         -3   -1    0    0    0  501 -0.00000000000E+00  0.00000000000E+00  0.22880398648E+03  0.22880398648E+03  0.00000000000E+00 0.  1.
         21   -1    0    0  503  502  0.00000000000E+00 -0.00000000000E+00 -0.25076312456E+03  0.25076312456E+03  0.00000000000E+00 0.  1.
         21    1    1    2  503  505  0.12312472394E+03 -0.14745878753E+02 -0.14229882255E+03  0.18874875757E+03  0.00000000000E+00 0.  1.
         21    1    1    2  504  502 -0.81157248226E+02  0.53051384741E+02 -0.19494779388E+02  0.98898911955E+02  0.00000000000E+00 0.  1.
         21    1    1    2  505  501  0.38922161449E+02 -0.16766827785E+02  0.23077753504E+02  0.48256024210E+02  0.00000000000E+00 0.  1.
         -3    1    1    2    0  504 -0.80889637162E+02 -0.21538678203E+02  0.11675671035E+03  0.14366341731E+03  0.00000000000E+00 0.  1.
<scales pt_clust_3="14000.00000" pt_clust_4="111.44350" pt_clust_5="42.37996" pt_clust_6="63.75846"></scales>
<clustering>
<clus scale="   42.380">  1  5  2 -1</clus>
<clus scale="   63.758">  1  6  2 -1</clus>
<clus scale="  111.444">  1  4  2 -1</clus>
<clus scale="  111.444">  2  3  1 -1</clus>
</clustering>
</event>
<event>
 6    0  0.2117869E+002  0.9444745E+02  0.7546771E-02  0.1292425E+00
          2   -1    0    0  504    0 -0.00000000000E+00  0.00000000000E+00  0.19730696401E+04  0.19730696401E+04  0.00000000000E+00 0.  1.
         21   -1    0    0  505  502  0.00000000000E+00 -0.00000000000E+00 -0.19076687347E+03  0.19076687347E+03  0.00000000000E+00 0. -1.
         21    1    1    2  503  501  0.36275316837E+02 -0.80944890485E+02  0.29437243433E+03  0.30744609934E+03  0.00000000000E+00 0.  1.
         21    1    1    2  504  502 -0.29692009707E+02 -0.58483088597E+01  0.10533549562E+03  0.10959646342E+03  0.00000000000E+00 0.  1.
         21    1    1    2  505  503  0.54162941947E+02  0.23708092006E+02 -0.17603853404E+03  0.18570208231E+03  0.00000000000E+00 0. -1.
          2    1    1    2  501    0 -0.60746249076E+02  0.63085107339E+02  0.15586333707E+04  0.15610918685E+04  0.00000000000E+00 0.  1.
<scales pt_clust_3="94.44745" pt_clust_4="30.26249" pt_clust_5="59.04791" pt_clust_6="14000.00000"></scales>
<clustering>
<clus scale="   30.262">  1  4  2 -1</clus>
<clus scale="   59.048">  2  5  1 -1</clus>
<clus scale="   94.447">  2  3  1 -1</clus>
<clus scale="   59.048">  2  3  1 -1</clus>
</clustering>
</event>
<event>
 6    0  0.2117869E+002  0.1504573E+03  0.7546771E-02  0.1199912E+00
         21   -1    0    0  504  502  0.00000000000E+00  0.00000000000E+00  0.23252483004E+03  0.23252483004E+03  0.00000000000E+00 0.  1.
          2   -1    0    0  505    0 -0.00000000000E+00 -0.00000000000E+00 -0.32395866321E+04  0.32395866321E+04  0.00000000000E+00 0.  1.
         21    1    1    2  503  501 -0.37312156009E+02  0.10598458515E+03  0.15288420165E+03  0.18973272883E+03  0.00000000000E+00 0.  1.
         21    1    1    2  504  503  0.22165048037E+02  0.31334799735E+02  0.51714583782E+02  0.64401531074E+02  0.00000000000E+00 0.  1.
         21    1    1    2  505  502  0.63280657549E+02 -0.25512139138E+02 -0.68595937133E+03  0.68934430437E+03  0.00000000000E+00 0. -1.
          2    1    1    2  501    0 -0.48133549578E+02 -0.11180724575E+03 -0.25257012161E+04  0.25286328978E+04  0.00000000000E+00 0.  1.
<scales pt_clust_3="35.24985" pt_clust_4="35.24985" pt_clust_5="68.22984" pt_clust_6="137.84005"></scales>
<clustering>
<clus scale="   35.250">  3  4 -1 -1</clus>
<clus scale="   68.230">  2  5  1 -1</clus>
<clus scale="  137.840">  2  6  1 -1</clus>
<clus scale="  150.457">  1  3  2 -1</clus>
</clustering>
</event>
<event>
 6    0  0.2117869E+002  0.1557533E+03  0.7546771E-02  0.1193576E+00
          1   -1    0    0  504    0 -0.00000000000E+00  0.00000000000E+00  0.99879460455E+03  0.99879460455E+03  0.00000000000E+00 0.  1.
         21   -1    0    0  505  502  0.00000000000E+00 -0.00000000000E+00 -0.44620381462E+03  0.44620381462E+03  0.00000000000E+00 0. -1.
         21    1    1    2  503  502 -0.11284849384E+03 -0.10986273833E+03 -0.37367994820E+03  0.40551363420E+03  0.00000000000E+00 0. -1.
         21    1    1    2  504  503  0.36342029947E+02  0.34329668376E+02  0.58998914273E+02  0.77331372397E+02  0.00000000000E+00 0. -1.
         21    1    1    2  505  501 -0.42320330078E+02  0.73715845628E+02 -0.17748507936E+01  0.85018741051E+02  0.00000000000E+00 0. -1.
          1    1    1    2  501    0  0.11882679397E+03  0.18172243266E+01  0.86904667465E+03  0.87713467152E+03  0.00000000000E+00 0.  1.
<scales pt_clust_3="155.75330" pt_clust_4="49.99269" pt_clust_5="85.55013" pt_clust_6="14000.00000"></scales>
<clustering>
<clus scale="   49.993">  1  4  2 -1</clus>
<clus scale="   85.550">  2  5  1 -1</clus>
<clus scale="  155.753">  2  3  1 -1</clus>
<clus scale="   85.550">  2  3  1 -1</clus>
</clustering>
</event>
<event>
 6    0  0.2117869E+002  0.1123954E+03  0.7546771E-02  0.1256197E+00
         21   -1    0    0  504  502  0.00000000000E+00  0.00000000000E+00  0.16689021158E+03  0.16689021158E+03  0.00000000000E+00 0. -1.
          1   -1    0    0  503    0 -0.00000000000E+00 -0.00000000000E+00 -0.98892720352E+03  0.98892720352E+03  0.00000000000E+00 0.  1.
         21    1    1    2  503  502  0.33318845278E+02  0.21074657897E+02 -0.35163539536E+03  0.35383857609E+03  0.00000000000E+00 0.  1.
         21    1    1    2  504  505  0.22555928769E+02 -0.11806237835E+03  0.13562259954E+03  0.18122081726E+03  0.00000000000E+00 0. -1.
         21    1    1    2  505  501 -0.27674493336E+02  0.54370967029E+02 -0.15078740473E+03  0.16266198407E+03  0.00000000000E+00 0.  1.
          1    1    1    2  501    0 -0.28200280711E+02  0.42616753423E+02 -0.45523679139E+03  0.45809603768E+03  0.00000000000E+00 0.  1.
<scales pt_clust_3="39.42444" pt_clust_4="14000.00000" pt_clust_5="112.39544" pt_clust_6="57.90310"></scales>
<clustering>
<clus scale="   39.424">  2  3  1 -1</clus>
<clus scale="   57.903">  2  6  1 -1</clus>
<clus scale="  112.395">  2  5  1 -1</clus>
<clus scale="  112.395">  1  3  2 -1</clus>
</clustering>
</event>
<event>
 6    0  0.2117869E+002  0.1838390E+03  0.7546771E-02  0.1164139E+00
          2   -1    0    0  505    0 -0.00000000000E+00  0.00000000000E+00  0.21928515712E+04  0.21928515712E+04  0.00000000000E+00 0. -1.
         21   -1    0    0  503  502  0.00000000000E+00 -0.00000000000E+00 -0.16910542067E+04  0.16910542067E+04  0.00000000000E+00 0.  1.
         21    1    1    2  503  501 -0.15403698934E+02 -0.99354043248E+02 -0.32063789833E+03  0.33603148914E+03  0.00000000000E+00 0.  1.
         21    1    1    2  504  502 -0.38393840245E+02 -0.11033348148E+02 -0.13270335664E+04  0.13276347043E+04  0.00000000000E+00 0.  1.
         21    1    1    2  505  504  0.28298689197E+02 -0.72699104860E+02  0.17089083231E+02  0.79862459412E+02  0.00000000000E+00 0. -1.
          2    1    1    2  501    0  0.25498849982E+02  0.18308649626E+03  0.21323797460E+04  0.21403771250E+04  0.00000000000E+00 0. -1.
<scales pt_clust_3="183.83900" pt_clust_4="39.94774" pt_clust_5="77.77389" pt_clust_6="14000.00000"></scales>
<clustering>
<clus scale="   39.948">  2  4  1 -1</clus>
<clus scale="   77.774">  2  5  1 -1</clus>
<clus scale="  183.839">  2  3  1 -1</clus>
<clus scale="   39.948">  2  3  1 -1</clus>
</clustering>
</event>
<event>
 6    0  0.2117869E+002  0.1089372E+03  0.7546771E-02  0.1262551E+00
         21   -1    0    0  504  502  0.00000000000E+00  0.00000000000E+00  0.33079215284E+03  0.33079215284E+03  0.00000000000E+00 0.  1.
          2   -1    0    0  503    0 -0.00000000000E+00 -0.00000000000E+00 -0.12144115388E+04  0.12144115388E+04  0.00000000000E+00 0. -1.
         21    1    1    2  503  505  0.75162033645E+02 -0.41099722463E+02 -0.18593077678E+03  0.20471632139E+03  0.00000000000E+00 0.  1.
         21    1    1    2  504  501  0.72215294235E+02  0.29026660703E+02  0.28750694294E+03  0.29785539779E+03  0.00000000000E+00 0.  1.
         21    1    1    2  505  502 -0.30903803954E+02 -0.11323940860E+02  0.14454598091E+02  0.35947352356E+02  0.00000000000E+00 0.  1.
          2    1    1    2  501    0 -0.11647352393E+03  0.23397002621E+02 -0.99965015019E+03  0.10066846201E+04  0.00000000000E+00 0. -1.
<scales pt_clust_3="108.93715" pt_clust_4="46.33321" pt_clust_5="32.91317" pt_clust_6="14000.00000"></scales>
<clustering>
<clus scale="   32.913">  1  5  2 -1</clus>
<clus scale="   46.333">  1  4  2 -1</clus>
<clus scale="  108.937">  1  3  2 -1</clus>
<clus scale="   32.913">  1  3  2 -1</clus>
</clustering>
</event>
<event>
 6    0  0.2117869E+002  0.9590348E+02  0.7546771E-02  0.1289154E+00
          2   -1    0    0  505    0 -0.00000000000E+00  0.00000000000E+00  0.33875239511E+03  0.33875239511E+03  0.00000000000E+00 0. -1.
         21   -1    0    0  504  502  0.00000000000E+00 -0.00000000000E+00 -0.37772308691E+03  0.37772308691E+03  0.00000000000E+00 0.  1.
         21    1    1    2  503  502  0.34557014567E+02 -0.14008560499E+03 -0.28999916021E+03  0.32390998272E+03  0.00000000000E+00 0.  1.
         21    1    1    2  504  501 -0.21178337765E+01  0.61468023999E+02 -0.15422244831E+02  0.63408586405E+02  0.00000000000E+00 0. -1.
         21    1    1    2  505  503  0.25968193443E+02 -0.45163693600E+02  0.45091435591E+02  0.68900971357E+02  0.00000000000E+00 0. -1.
          2    1    1    2  501    0 -0.58407374234E+02  0.12378127459E+03  0.22135927765E+03  0.26025594154E+03  0.00000000000E+00 0. -1.
<scales pt_clust_3="14000.00000" pt_clust_4="57.62215" pt_clust_5="52.09709" pt_clust_6="95.90348"></scales>
<clustering>
<clus scale="   52.097">  1  5  2 -1</clus>
<clus scale="   57.622">  2  4  1 -1</clus>
<clus scale="   95.903">  1  6  2 -1</clus>
<clus scale="   57.622">  2  3  1 -1</clus>
</clustering>
</event>
<event>
 6    0  0.2117869E+002  0.7618257E+02  0.7546771E-02  0.1340248E+00
         21   -1    0    0  501  502  0.00000000000E+00  0.00000000000E+00  0.11047948780E+04  0.11047948780E+04  0.00000000000E+00 0.  1.
          1   -1    0    0  504    0 -0.00000000000E+00 -0.00000000000E+00 -0.21833139909E+04  0.21833139909E+04  0.00000000000E+00 0. -1.
         21    1    1    2  503  505  0.10406427170E+03 -0.26362681885E+02  0.96627140682E+03  0.97221643438E+03  0.00000000000E+00 0.  1.
         21    1    1    2  504  503 -0.48014045865E+02  0.66553768990E+02 -0.24925134333E+03  0.26241376664E+03  0.00000000000E+00 0.  1.
         21    1    1    2  505  502 -0.34470701599E+02 -0.43184531923E+01  0.12639820772E+03  0.13108541194E+03  0.00000000000E+00 0. -1.
          1    1    1    2  501    0 -0.21579524239E+02 -0.35872633913E+02 -0.19219373842E+04  0.19223932559E+04  0.00000000000E+00 0. -1.
<scales pt_clust_3="14000.00000" pt_clust_4="76.18257" pt_clust_5="34.74015" pt_clust_6="41.86815"></scales>
<clustering>
<clus scale="   34.740">  1  5  2 -1</clus>
<clus scale="   41.868">  2  6  1 -1</clus>
<clus scale="   76.183">  2  4  1 -1</clus>
<clus scale="   34.740">  1  3  2 -1</clus>
</clustering>
</event>
<event>
 6    0  0.2117869E+002  0.3696666E+03  0.7546771E-02  0.1054821E+00
         21   -1    0    0  501  502  0.00000000000E+00  0.00000000000E+00  0.28281930869E+03  0.28281930869E+03  0.00000000000E+00 0. -1.
          2   -1    0    0  504    0 -0.00000000000E+00 -0.00000000000E+00 -0.83521190558E+03  0.83521190558E+03  0.00000000000E+00 0. -1.
         21    1    1    2  503  502  0.20599890063E+03  0.77939106976E+02  0.10042518701E+03  0.24206459808E+03  0.00000000000E+00 0. -1.
         21    1    1    2  504  505  0.32369519174E+02  0.78903091332E+01 -0.53825351278E+02  0.63302536995E+02  0.00000000000E+00 0.  1.
         21    1    1    2  505  503  0.11945545472E+03  0.37375858569E+02 -0.29004067603E+02  0.12848266966E+03  0.00000000000E+00 0. -1.
          2    1    1    2  501    0 -0.35782387452E+03 -0.12320527468E+03 -0.56998836502E+03  0.68418140953E+03  0.00000000000E+00 0. -1.
<scales pt_clust_3="86.46598" pt_clust_4="33.31730" pt_clust_5="86.46598" pt_clust_6="351.66342"></scales>
<clustering>
<clus scale="   33.317">  2  4  1 -1</clus>
<clus scale="   86.466">  3  5 -1 -1</clus>
<clus scale="  351.663">  2  6  1 -1</clus>
<clus scale="  369.667">  1  3  2 -1</clus>
</clustering>
</event>
<event>
 6    0  0.2117869E+002  0.5796470E+02  0.7546771E-02  0.1406577E+00
         -1   -1    0    0    0  501 -0.00000000000E+00  0.00000000000E+00  0.64828035322E+03  0.64828035322E+03  0.00000000000E+00 0.  1.
         21   -1    0    0  503  502  0.00000000000E+00 -0.00000000000E+00 -0.22742392335E+03  0.22742392335E+03  0.00000000000E+00 0.  1.
         21    1    1    2  503  505 -0.57258966056E+02 -0.81031097955E+01 -0.48655328322E+02  0.75575065705E+02  0.00000000000E+00 0.  1.
         21    1    1    2  504  502  0.43367096426E+02 -0.48584093730E+02 -0.14640344286E+03  0.16023447599E+03  0.00000000000E+00 0.  1.
         21    1    1    2  505  501  0.45524059440E+02 -0.31827829274E+02  0.90875855590E+02  0.10650761397E+03  0.00000000000E+00 0. -1.
         -1    1    1    2    0  504 -0.31632189810E+02  0.88515032799E+02  0.52503934546E+03  0.53338712090E+03  0.00000000000E+00 0.  1.
<scales pt_clust_3="56.84236" pt_clust_4="57.96470" pt_clust_5="55.54683" pt_clust_6="14000.00000"></scales>
<clustering>
<clus scale="   55.547">  1  5  2 -1</clus>
<clus scale="   56.842">  2  3  1 -1</clus>
<clus scale="   57.965">  2  4  1 -1</clus>
<clus scale="   56.842">  2  3  1 -1</clus>
</clustering>
</event>
<event>
 6    0  0.2117869E+002  0.9876485E+02  0.7546771E-02  0.1282915E+00
         21   -1    0    0  504  502  0.00000000000E+00  0.00000000000E+00  0.11308942757E+03  0.11308942757E+03  0.00000000000E+00 0.  1.
          1   -1    0    0  503    0 -0.00000000000E+00 -0.00000000000E+00 -0.31457264750E+04  0.31457264750E+04  0.00000000000E+00 0. -1.
         21    1    1    2  503  505 -0.32546316714E+02  0.17327571211E+02  0.47575662836E+02  0.60190955716E+02  0.00000000000E+00 0.  1.
         21    1    1    2  504  501  0.12468937761E+02  0.10811414638E+03 -0.29102432607E+03  0.31070774277E+03  0.00000000000E+00 0.  1.
         21    1    1    2  505  502 -0.14363305787E+02 -0.32803657862E+02  0.41892164631E+02  0.55112049315E+02  0.00000000000E+00 0. -1.
          1    1    1    2  501    0  0.34440684741E+02 -0.92638059728E+02 -0.28310805488E+04  0.28328051548E+04  0.00000000000E+00 0. -1.
<scales pt_clust_3="45.64693" pt_clust_4="14000.00000" pt_clust_5="35.81040" pt_clust_6="98.76485"></scales>
<clustering>
<clus scale="   35.810">  1  5  2 -1</clus>
<clus scale="   45.647">  1  3  2 -1</clus>
<clus scale="   98.765">  2  6  1 -1</clus>
<clus scale="   35.810">  1  3  2 -1</clus>
</clustering>
</event>
<event>
 6    0  0.2117869E+002  0.1258660E+03  0.7546771E-02  0.1233722E+00
         -1   -1    0    0    0  501 -0.00000000000E+00  0.00000000000E+00  0.83069007170E+03  0.83069007170E+03  0.00000000000E+00 0. -1.
         21   -1    0    0  503  502  0.00000000000E+00 -0.00000000000E+00 -0.33901015946E+03  0.33901015946E+03  0.00000000000E+00 0.  1.
         21    1    1    2  503  505  0.31339183703E+02  0.11953671677E+03 -0.27563839378E+03  0.30207233441E+03  0.00000000000E+00 0.  1.
         21    1    1    2  504  501  0.11048972352E+02  0.48796116036E+02  0.95461793708E+02  0.10777798842E+03  0.00000000000E+00 0.  1.
         21    1    1    2  505  504 -0.76412773715E+02 -0.13441054168E+03  0.95998917137E+02  0.18199147725E+03  0.00000000000E+00 0. -1.
         -1    1    1    2    0  502  0.34024617659E+02 -0.33922291127E+02  0.57585759517E+03  0.57785843107E+03  0.00000000000E+00 0. -1.
<scales pt_clust_3="14000.00000" pt_clust_4="42.99731" pt_clust_5="125.86597" pt_clust_6="48.04577"></scales>
<clustering>
<clus scale="   48.046">  1  6  2 -1</clus>
<clus scale="   42.997">  1  4  2 -1</clus>
<clus scale="  125.866">  1  5  2 -1</clus>
<clus scale="  125.866">  2  3  1 -1</clus>
</clustering>
</event>
<event>
 6    0  0.2329919E+002  0.2580873E+03  0.7546771E-02  0.1108298E+00
          2   -1    0    0  504    0 -0.00000000000E+00  0.00000000000E+00  0.14272538503E+04  0.14272538503E+04  0.00000000000E+00 0.  1.
         21   -1    0    0  501  502  0.00000000000E+00 -0.00000000000E+00 -0.10292027776E+04  0.10292027776E+04  0.00000000000E+00 0. -1.
         21    1    1    2  503  505 -0.16086751321E+02  0.12568401101E+03 -0.11351589036E+03  0.17012087337E+03  0.00000000000E+00 0. -1.
         21    1    1    2  504  503 -0.16181613895E+02  0.52726498009E+02  0.66384899985E+01  0.55551757578E+02  0.00000000000E+00 0. -1.
         21    1    1    2  505  502 -0.10741565588E+03  0.29280572574E+02 -0.84780779496E+03  0.85508685656E+03  0.00000000000E+00 0. -1.
          2    1    1    2  501    0  0.13968402110E+03 -0.20769108159E+03  0.13527362680E+04  0.13756971404E+04  0.00000000000E+00 0.  1.
<scales pt_clust_3="53.73585" pt_clust_4="53.73585" pt_clust_5="111.33497" pt_clust_6="244.89849"></scales>
<clustering>
<clus scale="   53.736">  3  4 -1 -1</clus>
<clus scale="  111.335">  2  5  1 -1</clus>
<clus scale="  244.898">  1  6  2 -1</clus>
<clus scale="  111.335">  2  3  1 -1</clus>
</clustering>
</event>
<event>
 6    0  0.2117869E+002  0.1828018E+03  0.7546771E-02  0.1165119E+00
          2   -1    0    0  505    0 -0.00000000000E+00  0.00000000000E+00  0.91643596452E+03  0.91643596452E+03  0.00000000000E+00 0.  1.
         21   -1    0    0  503  502  0.00000000000E+00 -0.00000000000E+00 -0.81592291018E+02  0.81592291018E+02  0.00000000000E+00 0.  1.
         21    1    1    2  503  501  0.53208267036E+02  0.40885047395E+02 -0.50079143706E+01  0.67288825134E+02  0.00000000000E+00 0.  1.
         21    1    1    2  504  502 -0.43015617358E+02 -0.24809774769E+02  0.31503791961E+02  0.58807798536E+02  0.00000000000E+00 0.  1.
         21    1    1    2  505  504 -0.14472550865E+03 -0.83021320941E+02  0.31853580721E+03  0.35958736499E+03  0.00000000000E+00 0.  1.
          2    1    1    2  501    0  0.13453285897E+03  0.66946048315E+02  0.48981198870E+03  0.51234426688E+03  0.00000000000E+00 0.  1.
<scales pt_clust_3="67.10221" pt_clust_4="41.01605" pt_clust_5="41.01605" pt_clust_6="166.62526"></scales>
<clustering>
<clus scale="   41.016">  4  5 -1 -1</clus>
<clus scale="   67.102">  2  3  1 -1</clus>
<clus scale="  166.625">  1  6  2 -1</clus>
<clus scale="   67.102">  2  3  1 -1</clus>
</clustering>
</event>
<event>
 6    0  0.2117869E+002  0.1070307E+03  0.7546771E-02  0.1266169E+00
          2   -1    0    0  505    0 -0.00000000000E+00  0.00000000000E+00  0.26047195589E+04  0.26047195589E+04  0.00000000000E+00 0. -1.
         21   -1    0    0  503  502  0.00000000000E+00 -0.00000000000E+00 -0.81861657618E+02  0.81861657618E+02  0.00000000000E+00 0.  1.
         21    1    1    2  503  501 -0.64062922533E+02  0.86494521772E+01 -0.13776461780E+02  0.66095854375E+02  0.00000000000E+00 0.  1.
         21    1    1    2  504  502 -0.31263670080E+02 -0.62279349625E+02 -0.62624511915E+01  0.69966797494E+02  0.00000000000E+00 0.  1.
         21    1    1    2  505  504 -0.34684999693E+02 -0.22244239865E+02  0.34065192294E+03  0.34313494141E+03  0.00000000000E+00 0. -1.
          2    1    1    2  501    0  0.13001159231E+03  0.75874137313E+02  0.22022448913E+04  0.22073836233E+04  0.00000000000E+00 0. -1.
<scales pt_clust_3="65.00789" pt_clust_4="14000.00000" pt_clust_5="41.20504" pt_clust_6="107.03072"></scales>
<clustering>
<clus scale="   41.205">  1  5  2 -1</clus>
<clus scale="   65.008">  2  3  1 -1</clus>
<clus scale="  107.031">  1  6  2 -1</clus>
<clus scale="   65.008">  2  3  1 -1</clus>
</clustering>
</event>
<event>
 6    0  0.2117869E+002  0.1042730E+03  0.7546771E-02  0.1271559E+00
         21   -1    0    0  505  502  0.00000000000E+00  0.00000000000E+00  0.21638579178E+03  0.21638579178E+03  0.00000000000E+00 0. -1.
          4   -1    0    0  503    0 -0.00000000000E+00 -0.00000000000E+00 -0.18138475756E+03  0.18138475756E+03  0.00000000000E+00 0. -1.
         21    1    1    2  503  504 -0.41216563473E+02 -0.79144363598E+02 -0.46765362530E+02  0.10074539457E+03  0.00000000000E+00 0. -1.
         21    1    1    2  504  502 -0.36988058223E+02 -0.13788593765E+02  0.45985129637E+02  0.60604240090E+02  0.00000000000E+00 0. -1.
         21    1    1    2  505  501  0.28827670122E+02 -0.25512303889E+02  0.89406387619E+02  0.97341740078E+02  0.00000000000E+00 0. -1.
          4    1    1    2  501    0  0.49376951575E+02  0.11844526125E+03 -0.53625120506E+02  0.13907917461E+03  0.00000000000E+00 0. -1.
<scales pt_clust_3="14000.00000" pt_clust_4="34.88969" pt_clust_5="38.49561" pt_clust_6="104.27301"></scales>
<clustering>
<clus scale="   38.496">  1  5  2 -1</clus>
<clus scale="   34.890">  1  4  2 -1</clus>
<clus scale="  104.273">  1  6  2 -1</clus>
<clus scale="   38.496">  1  3  2 -1</clus>
</clustering>
</event>
<event>
 6    0  0.2117869E+002  0.1295521E+03  0.7546771E-02  0.1228122E+00
          2   -1    0    0  503    0 -0.00000000000E+00  0.00000000000E+00  0.29783356107E+03  0.29783356107E+03  0.00000000000E+00 0.  1.
         21   -1    0    0  505  502  0.00000000000E+00 -0.00000000000E+00 -0.15387996733E+04  0.15387996733E+04  0.00000000000E+00 0. -1.
         21    1    1    2  503  502  0.16246001149E+03  0.10430741903E+03 -0.29465968445E+03  0.35227492480E+03  0.00000000000E+00 0. -1.
         21    1    1    2  504  501 -0.59933334344E+02  0.17937438420E+02  0.97039197126E+02  0.11545718705E+03  0.00000000000E+00 0. -1.
         21    1    1    2  505  504 -0.71227778797E+02 -0.10135872826E+03 -0.12007185166E+04  0.12070923512E+04  0.00000000000E+00 0. -1.
          2    1    1    2  501    0 -0.31298898349E+02 -0.20886129189E+02  0.15737289170E+03  0.16180877131E+03  0.00000000000E+00 0.  1.
<scales pt_clust_3="129.55215" pt_clust_4="84.00965" pt_clust_5="14000.00000" pt_clust_6="37.62780"></scales>
<clustering>
<clus scale="   37.628">  1  6  2 -1</clus>
<clus scale="   84.010">  1  4  2 -1</clus>
<clus scale="  129.552">  1  3  2 -1</clus>
<clus scale="  129.552">  2  3  1 -1</clus>
</clustering>
</event>
<event>
 6    0  0.2117869E+002  0.9428125E+02  0.7546771E-02  0.1292803E+00
          2   -1    0    0  504    0 -0.00000000000E+00  0.00000000000E+00  0.36212092793E+04  0.36212092793E+04  0.00000000000E+00 0. -1.
         21   -1    0    0  505  502  0.00000000000E+00 -0.00000000000E+00 -0.35601725333E+03  0.35601725333E+03  0.00000000000E+00 0.  1.
         21    1    1    2  503  501 -0.28790541090E+02 -0.65043512981E+02  0.25073396399E+03  0.26062823050E+03  0.00000000000E+00 0.  1.
         21    1    1    2  504  502 -0.34212991150E+01  0.39523249853E+02 -0.15933088662E+03  0.16419538361E+03  0.00000000000E+00 0.  1.
         21    1    1    2  505  503  0.13595425345E+02 -0.70546385556E+02 -0.18175147831E+03  0.19543599457E+03  0.00000000000E+00 0.  1.
          2    1    1    2  501    0  0.18616414860E+02  0.96066648684E+02  0.33555404269E+04  0.33569669240E+04  0.00000000000E+00 0. -1.
<scales pt_clust_3="94.28125" pt_clust_4="39.67105" pt_clust_5="33.77528" pt_clust_6="14000.00000"></scales>
<clustering>
<clus scale="   39.671">  2  4  1 -1</clus>
<clus scale="   33.775">  2  5  1 -1</clus>
<clus scale="   94.281">  2  3  1 -1</clus>
<clus scale="   39.671">  2  3  1 -1</clus>
</clustering>
</event>
<event>
 6    0  0.2117869E+002  0.1544850E+03  0.7546771E-02  0.1195068E+00
          2   -1    0    0  503    0 -0.00000000000E+00  0.00000000000E+00  0.18144091208E+04  0.18144091208E+04  0.00000000000E+00 0. -1.
         21   -1    0    0  504  502  0.00000000000E+00 -0.00000000000E+00 -0.71725122711E+02  0.71725122711E+02  0.00000000000E+00 0. -1.
         21    1    1    2  503  505 -0.16078352275E+03  0.43104523958E+02  0.22300566859E+03  0.27828199618E+03  0.00000000000E+00 0. -1.
         21    1    1    2  504  501  0.54426787575E+02 -0.18615278945E+02  0.98541108084E+02  0.11410150656E+03  0.00000000000E+00 0. -1.
         21    1    1    2  505  502 -0.87715134910E+01  0.79387928213E+02  0.17745941990E+02  0.81818708447E+02  0.00000000000E+00 0. -1.
          2    1    1    2  501    0  0.11512824866E+03 -0.10387717323E+03  0.14033912795E+04  0.14119320324E+04  0.00000000000E+00 0. -1.
<scales pt_clust_3="154.48505" pt_clust_4="57.52220" pt_clust_5="72.46207" pt_clust_6="14000.00000"></scales>
<clustering>
<clus scale="   57.522">  2  4  1 -1</clus>
<clus scale="   72.462">  2  5  1 -1</clus>
<clus scale="  154.485">  2  3  1 -1</clus>
<clus scale="   57.522">  2  3  1 -1</clus>
</clustering>
</event>
<event>
 6    0  0.2117869E+002  0.1181945E+03  0.7546771E-02  0.1246106E+00
          4   -1    0    0  503    0 -0.00000000000E+00  0.00000000000E+00  0.90618761666E+03  0.90618761666E+03  0.00000000000E+00 0.  1.
         21   -1    0    0  501  502  0.00000000000E+00 -0.00000000000E+00 -0.11142739493E+04  0.11142739493E+04  0.00000000000E+00 0. -1.
         21    1    1    2  503  505 -0.29890239063E+02 -0.27467069668E+01  0.30780821250E+03  0.30926827589E+03  0.00000000000E+00 0. -1.
         21    1    1    2  504  502 -0.29612341926E+02  0.26832875761E+02 -0.66204223797E+03  0.66324717781E+03  0.00000000000E+00 0. -1.
         21    1    1    2  505  504 -0.15282470725E+01  0.87685456095E+02 -0.43972883377E+03  0.44838880672E+03  0.00000000000E+00 0. -1.
          4    1    1    2  501    0  0.61030828061E+02 -0.11177162489E+03  0.58587652664E+03  0.59955730549E+03  0.00000000000E+00 0.  1.
<scales pt_clust_3="30.01618" pt_clust_4="39.98163" pt_clust_5="14000.00000" pt_clust_6="118.19450"></scales>
<clustering>
<clus scale="   30.016">  1  3  2 -1</clus>
<clus scale="   39.982">  2  4  1 -1</clus>
<clus scale="  118.195">  1  6  2 -1</clus>
<clus scale="   39.982">  2  3  1 -1</clus>
</clustering>
</event>
<event>
 6    0  0.2117869E+002  0.7689481E+02  0.7546771E-02  0.1338102E+00
          2   -1    0    0  504    0 -0.00000000000E+00  0.00000000000E+00  0.22974505024E+04  0.22974505024E+04  0.00000000000E+00 0.  1.
         21   -1    0    0  505  502  0.00000000000E+00 -0.00000000000E+00 -0.33877426763E+02  0.33877426763E+02  0.00000000000E+00 0.  1.
         21    1    1    2  503  502  0.23557489521E+02 -0.82895074839E+02  0.78714981538E+02  0.11671588180E+03  0.00000000000E+00 0.  1.
         21    1    1    2  504  503  0.23685654482E+02  0.21269218587E+02  0.40431439139E+03  0.40556567528E+03  0.00000000000E+00 0.  1.
         21    1    1    2  505  501  0.27653804919E+02  0.70342527113E+02  0.93097813971E+02  0.11991666695E+03  0.00000000000E+00 0.  1.
          2    1    1    2  501    0 -0.74896948923E+02 -0.87166708613E+01  0.16874458888E+04  0.16891297051E+04  0.00000000000E+00 0.  1.
<scales pt_clust_3="76.89481" pt_clust_4="31.83379" pt_clust_5="14000.00000" pt_clust_6="54.73691"></scales>
<clustering>
<clus scale="   31.834">  1  4  2 -1</clus>
<clus scale="   54.737">  1  6  2 -1</clus>
<clus scale="   76.895">  2  3  1 -1</clus>
<clus scale="   76.895">  2  3  1 -1</clus>
</clustering>
</event>
<event>
 6    0  0.2117869E+002  0.8629107E+02  0.7546771E-02  0.1312090E+00
         21   -1    0    0  505  502  0.00000000000E+00  0.00000000000E+00  0.40298916492E+03  0.40298916492E+03  0.00000000000E+00 0.  1.
         -3   -1    0    0    0  501 -0.00000000000E+00 -0.00000000000E+00 -0.24430357042E+03  0.24430357042E+03  0.00000000000E+00 0. -1.
         21    1    1    2  503  501 -0.32391427656E+02  0.28894523333E+02  0.35139235086E+01  0.43548199993E+02  0.00000000000E+00 0. -1.
         21    1    1    2  504  503 -0.71456585700E+02 -0.29031617543E+02 -0.45483802400E+02  0.89541357695E+02  0.00000000000E+00 0. -1.
         21    1    1    2  505  504  0.44670051204E+02 -0.75972355124E+02  0.33637370689E+03  0.34772759871E+03  0.00000000000E+00 0.  1.
         -3    1    1    2    0  502  0.59177962152E+02  0.76109449334E+02 -0.13571823350E+03  0.16647557895E+03  0.00000000000E+00 0. -1.
<scales pt_clust_3="43.40620" pt_clust_4="83.71386" pt_clust_5="14000.00000" pt_clust_6="86.29107"></scales>
<clustering>
<clus scale="   43.406">  2  3  1 -1</clus>
<clus scale="   83.714">  2  4  1 -1</clus>
<clus scale="   86.291">  2  6  1 -1</clus>
<clus scale="   86.291">  1  3  2 -1</clus>
</clustering>
</event>
<event>
 6    0  0.2117869E+002  0.8252104E+02  0.7546771E-02  0.1322046E+00
         21   -1    0    0  503  502  0.00000000000E+00  0.00000000000E+00  0.36737455402E+03  0.36737455402E+03  0.00000000000E+00 0. -1.
          1   -1    0    0  504    0 -0.00000000000E+00 -0.00000000000E+00 -0.81850274373E+03  0.81850274373E+03  0.00000000000E+00 0. -1.
         21    1    1    2  503  505 -0.32216206247E+01 -0.69841704229E+02  0.14868969250E+03  0.16430723400E+03  0.00000000000E+00 0.  1.
         21    1    1    2  504  502  0.47943798392E+02  0.10113794805E+03  0.19038209349E+03  0.22084572412E+03  0.00000000000E+00 0. -1.
         21    1    1    2  505  501 -0.60724792835E+02 -0.21288668600E+01 -0.18734820622E+03  0.19695528151E+03  0.00000000000E+00 0. -1.
          1    1    1    2  501    0  0.16002615068E+02 -0.29167376966E+02 -0.60285176949E+03  0.60376905812E+03  0.00000000000E+00 0. -1.
<scales pt_clust_3="14000.00000" pt_clust_4="82.52104" pt_clust_5="54.31388" pt_clust_6="33.26890"></scales>
<clustering>
<clus scale="   33.269">  2  6  1 -1</clus>
<clus scale="   54.314">  2  5  1 -1</clus>
<clus scale="   82.521">  2  4  1 -1</clus>
<clus scale="   82.521">  1  3  2 -1</clus>
</clustering>
</event>
<event>
 6    0  0.2117869E+002  0.2070340E+03  0.7546771E-02  0.1143937E+00
          2   -1    0    0  503    0 -0.00000000000E+00  0.00000000000E+00  0.40609488600E+04  0.40609488600E+04  0.00000000000E+00 0.  1.
         21   -1    0    0  504  502  0.00000000000E+00 -0.00000000000E+00 -0.40565385561E+03  0.40565385561E+03  0.00000000000E+00 0. -1.
         21    1    1    2  503  502  0.23713350373E+02  0.30365980170E+02  0.96278543155E+02  0.10370136744E+03  0.00000000000E+00 0.  1.
         21    1    1    2  504  505  0.33519003739E+02 -0.40633661724E+02 -0.38827754551E+03  0.39183423845E+03  0.00000000000E+00 0. -1.
         21    1    1    2  505  501 -0.16050930740E+03 -0.14618352655E+03  0.13836933517E+04  0.14006213452E+04  0.00000000000E+00 0.  1.
          2    1    1    2  501    0  0.10327695329E+03  0.15645120810E+03  0.25636006551E+04  0.25704457645E+04  0.00000000000E+00 0.  1.
<scales pt_clust_3="38.52812" pt_clust_4="52.67090" pt_clust_5="14000.00000" pt_clust_6="207.03397"></scales>
<clustering>
<clus scale="   38.528">  1  3  2 -1</clus>
<clus scale="   52.671">  2  4  1 -1</clus>
<clus scale="  207.034">  1  6  2 -1</clus>
<clus scale="   52.671">  2  3  1 -1</clus>
</clustering>
</event>
<event>
 6    0  0.2117869E+002  0.6082180E+02  0.7546771E-02  0.1394415E+00
         21   -1    0    0  505  502  0.00000000000E+00  0.00000000000E+00  0.17238005297E+03  0.17238005297E+03  0.00000000000E+00 0.  1.
          1   -1    0    0  504    0 -0.00000000000E+00 -0.00000000000E+00 -0.60667556592E+03  0.60667556592E+03  0.00000000000E+00 0.  1.
         21    1    1    2  503  502  0.12606384450E+02  0.72853271568E+02  0.97293239954E+02  0.12219858693E+03  0.00000000000E+00 0.  1.
         21    1    1    2  504  503 -0.43029027699E+02 -0.42193500575E+02 -0.35467170101E+03  0.35975520040E+03  0.00000000000E+00 0. -1.
         21    1    1    2  505  501 -0.38131617035E+02 -0.43731492443E+02  0.39182573880E+02  0.70012411364E+02  0.00000000000E+00 0.  1.
          1    1    1    2  501    0  0.68554260284E+02  0.13071721450E+02 -0.21609962577E+03  0.22708942019E+03  0.00000000000E+00 0.  1.
<scales pt_clust_3="39.44944" pt_clust_4="60.82180" pt_clust_5="58.02123" pt_clust_6="14000.00000"></scales>
<clustering>
<clus scale="   58.021">  1  5  2 -1</clus>
<clus scale="   39.449">  1  3  2 -1</clus>
<clus scale="   60.822">  2  4  1 -1</clus>
<clus scale="   58.021">  1  3  2 -1</clus>
</clustering>
</event>
<event>
 6    0  0.2117869E+002  0.8699334E+02  0.7546771E-02  0.1310301E+00
          2   -1    0    0  504    0 -0.00000000000E+00  0.00000000000E+00  0.24908331693E+04  0.24908331693E+04  0.00000000000E+00 0. -1.
         21   -1    0    0  501  502  0.00000000000E+00 -0.00000000000E+00 -0.27787245917E+03  0.27787245917E+03  0.00000000000E+00 0.  1.
         21    1    1    2  503  502 -0.52047469550E+02 -0.34519881870E+02 -0.14112047645E+03  0.15432287648E+03  0.00000000000E+00 0. -1.
         21    1    1    2  504  505  0.32214061688E+02  0.67367930228E+00  0.27221421703E+03  0.27411453732E+03  0.00000000000E+00 0.  1.
         21    1    1    2  505  503  0.12992903124E+03 -0.19450628232E+01 -0.94595861692E+02  0.16072869525E+03  0.00000000000E+00 0.  1.
          2    1    1    2  501    0 -0.11009562337E+03  0.35791265391E+02  0.21764628313E+04  0.21795395195E+04  0.00000000000E+00 0. -1.
<scales pt_clust_3="62.37348" pt_clust_4="32.22111" pt_clust_5="86.99334" pt_clust_6="14000.00000"></scales>
<clustering>
<clus scale="   32.221">  1  4  2 -1</clus>
<clus scale="   62.373">  2  3  1 -1</clus>
<clus scale="   86.993">  2  5  1 -1</clus>
<clus scale="   62.373">  2  3  1 -1</clus>
</clustering>
</event>
<event>
 6    0  0.2414969E+002  0.1545349E+03  0.7546771E-02  0.1195009E+00
         21   -1    0    0  503  502  0.00000000000E+00  0.00000000000E+00  0.89547588749E+03  0.89547588749E+03  0.00000000000E+00 0.  1.
         -2   -1    0    0    0  501 -0.00000000000E+00 -0.00000000000E+00 -0.12613319798E+04  0.12613319798E+04  0.00000000000E+00 0.  1.
         21    1    1    2  503  504 -0.41242869495E+02  0.30304005470E+02  0.26100793977E+02  0.57450487186E+02  0.00000000000E+00 0.  1.
         21    1    1    2  504  501 -0.31397531504E+01  0.66485387689E+02 -0.14181349825E+03  0.15665641740E+03  0.00000000000E+00 0.  1.
         21    1    1    2  505  502 -0.99509829244E+02  0.34194740703E+02  0.83431518816E+03  0.84092408670E+03  0.00000000000E+00 0.  1.
         -2    1    1    2    0  505  0.14389245189E+03 -0.13098413386E+03 -0.10844585762E+04  0.11017768760E+04  0.00000000000E+00 0.  1.
<scales pt_clust_3="51.17917" pt_clust_4="66.84044" pt_clust_5="154.53494" pt_clust_6="14000.00000"></scales>
<clustering>
<clus scale="   51.179">  1  3  2 -1</clus>
<clus scale="   66.840">  2  4  1 -1</clus>
<clus scale="  154.535">  1  5  2 -1</clus>
<clus scale="   51.179">  1  3  2 -1</clus>
</clustering>
</event>
<event>
 6    0  0.2117869E+002  0.1178902E+03  0.7546771E-02  0.1246619E+00
         -4   -1    0    0    0  501 -0.00000000000E+00  0.00000000000E+00  0.70857441892E+03  0.70857441892E+03  0.00000000000E+00 0.  1.
         21   -1    0    0  504  502  0.00000000000E+00 -0.00000000000E+00 -0.46505232677E+03  0.46505232677E+03  0.00000000000E+00 0.  1.
         21    1    1    2  503  505 -0.63263987113E+02  0.76246770651E+02 -0.45533259878E+02  0.10903751582E+03  0.00000000000E+00 0.  1.
         21    1    1    2  504  501 -0.31070874474E+02 -0.84057330723E+02  0.13830810167E+03  0.16480341343E+03  0.00000000000E+00 0.  1.
         21    1    1    2  505  502 -0.30861455849E+02  0.81210359943E+01 -0.36635566791E+03  0.36774292120E+03  0.00000000000E+00 0.  1.
         -4    1    1    2    0  503  0.12519631744E+03 -0.31047592171E+00  0.51710291827E+03  0.53204289525E+03  0.00000000000E+00 0.  1.
<scales pt_clust_3="14000.00000" pt_clust_4="90.13506" pt_clust_5="31.91208" pt_clust_6="117.89018"></scales>
<clustering>
<clus scale="   31.912">  2  5  1 -1</clus>
<clus scale="   90.135">  1  4  2 -1</clus>
<clus scale="  117.890">  1  6  2 -1</clus>
<clus scale="   31.912">  2  3  1 -1</clus>
</clustering>
</event>
<event>
 6    0  0.2117869E+002  0.1217546E+03  0.7546771E-02  0.1240230E+00
          1   -1    0    0  504    0 -0.00000000000E+00  0.00000000000E+00  0.11196609296E+04  0.11196609296E+04  0.00000000000E+00 0.  1.
         21   -1    0    0  503  502  0.00000000000E+00 -0.00000000000E+00 -0.55423518870E+03  0.55423518870E+03  0.00000000000E+00 0.  1.
         21    1    1    2  503  505 -0.18940438682E+00  0.39915938255E+02 -0.32508369747E+03  0.32752515684E+03  0.00000000000E+00 0.  1.
         21    1    1    2  504  502  0.32933447883E+02  0.10383105174E+03  0.22909457624E+03  0.25367267128E+03  0.00000000000E+00 0. -1.
         21    1    1    2  505  501  0.86755023136E+02 -0.76110785485E+02 -0.19432483548E+03  0.22601200718E+03  0.00000000000E+00 0.  1.
          1    1    1    2  501    0 -0.11949906663E+03 -0.67636204510E+02  0.85573969760E+03  0.86668628300E+03  0.00000000000E+00 0.  1.
<scales pt_clust_3="39.91639" pt_clust_4="121.75459" pt_clust_5="95.08459" pt_clust_6="14000.00000"></scales>
<clustering>
<clus scale="   39.916">  2  3  1 -1</clus>
<clus scale="   95.085">  2  5  1 -1</clus>
<clus scale="  121.755">  2  4  1 -1</clus>
<clus scale="   39.916">  2  3  1 -1</clus>
</clustering>
</event>
<event>
 6    0  0.2117869E+002  0.1269798E+03  0.7546771E-02  0.1232007E+00
         21   -1    0    0  503  502  0.00000000000E+00  0.00000000000E+00  0.42499514941E+03  0.42499514941E+03  0.00000000000E+00 0.  1.
          2   -1    0    0  504    0 -0.00000000000E+00 -0.00000000000E+00 -0.41931510161E+03  0.41931510161E+03  0.00000000000E+00 0.  1.
         21    1    1    2  503  505  0.62762352001E+02 -0.67524767608E+02  0.20332610264E+03  0.22324921295E+03  0.00000000000E+00 0.  1.
         21    1    1    2  504  502 -0.17022573736E+03  0.10214502310E+03  0.15218630531E+03  0.25014211746E+03  0.00000000000E+00 0.  1.
         21    1    1    2  505  501  0.35477245360E+02  0.11744785274E+02 -0.11819788468E+03  0.12396497433E+03  0.00000000000E+00 0.  1.
          2    1    1    2  501    0  0.71986139998E+02 -0.46365040768E+02 -0.23163447546E+03  0.24695394627E+03  0.00000000000E+00 0.  1.
<scales pt_clust_3="92.18843" pt_clust_4="116.93009" pt_clust_5="32.70816" pt_clust_6="32.70816"></scales>
<clustering>
<clus scale="   32.708">  5  6 -1 -1</clus>
<clus scale="   92.188">  1  3  2 -1</clus>
<clus scale="  116.930">  1  4  2 -1</clus>
<clus scale="   92.188">  1  3  2 -1</clus>
</clustering>
</event>
<event>
 6    0  0.2117869E+002  0.2673740E+03  0.7546771E-02  0.1102792E+00
         -2   -1    0    0    0  501 -0.00000000000E+00  0.00000000000E+00  0.29975072187E+04  0.29975072187E+04  0.00000000000E+00 0.  1.
         21   -1    0    0  504  502  0.00000000000E+00 -0.00000000000E+00 -0.69301946678E+03  0.69301946678E+03  0.00000000000E+00 0. -1.
         21    1    1    2  503  505  0.86537828224E+02  0.74295021282E+02 -0.22999203194E+03  0.25671945906E+03  0.00000000000E+00 0. -1.
         21    1    1    2  504  501  0.22777852209E+03 -0.64565548660E+02  0.11289121775E+03  0.26229028241E+03  0.00000000000E+00 0. -1.
         21    1    1    2  505  502 -0.44272467210E+02  0.17844447382E+02 -0.36682719666E+03  0.36991981275E+03  0.00000000000E+00 0. -1.
         -2    1    1    2    0  503 -0.27004388310E+03 -0.27573920004E+02  0.27884157627E+04  0.28015971312E+04  0.00000000000E+00 0.  1.
<scales pt_clust_3="102.62839" pt_clust_4="267.37404" pt_clust_5="47.73338" pt_clust_6="14000.00000"></scales>
<clustering>
<clus scale="   47.733">  2  5  1 -1</clus>
<clus scale="  102.628">  2  3  1 -1</clus>
<clus scale="  267.374">  2  4  1 -1</clus>
<clus scale="   47.733">  2  3  1 -1</clus>
</clustering>
</event>
<event>
 6    0  0.2117869E+002  0.6595266E+02  0.7546771E-02  0.1374423E+00
          2   -1    0    0  504    0 -0.00000000000E+00  0.00000000000E+00  0.54482554703E+03  0.54482554703E+03  0.00000000000E+00 0.  1.
         21   -1    0    0  503  502  0.00000000000E+00 -0.00000000000E+00 -0.12737563783E+03  0.12737563783E+03  0.00000000000E+00 0.  1.
         21    1    1    2  503  501 -0.87376805390E+02 -0.48490828324E+01 -0.55061493503E+02  0.10339239716E+03  0.00000000000E+00 0.  1.
         21    1    1    2  504  505  0.97055870202E+02  0.46736272361E+02  0.37613855439E+03  0.39125993047E+03  0.00000000000E+00 0. -1.
         21    1    1    2  505  502  0.34958249741E+02 -0.24702740077E+02 -0.23254122187E+02  0.48714051269E+02  0.00000000000E+00 0.  1.
          2    1    1    2  501    0 -0.44637314553E+02 -0.17184449451E+02  0.11962697050E+03  0.12883480595E+03  0.00000000000E+00 0.  1.
<scales pt_clust_3="65.95266" pt_clust_4="14000.00000" pt_clust_5="42.80543" pt_clust_6="46.66902"></scales>
<clustering>
<clus scale="   42.805">  2  5  1 -1</clus>
<clus scale="   46.669">  1  6  2 -1</clus>
<clus scale="   65.953">  2  3  1 -1</clus>
<clus scale="   42.805">  2  3  1 -1</clus>
</clustering>
</event>
<event>
 6    0  0.2117869E+002  0.1005638E+03  0.7546771E-02  0.1279115E+00
         21   -1    0    0  504  502  0.00000000000E+00  0.00000000000E+00  0.99213152789E+03  0.99213152789E+03  0.00000000000E+00 0.  1.
          3   -1    0    0  503    0 -0.00000000000E+00 -0.00000000000E+00 -0.39079076107E+03  0.39079076107E+03  0.00000000000E+00 0. -1.
         21    1    1    2  503  502  0.57939504731E+02  0.31419251274E+02 -0.26214508258E+03  0.27030390282E+03  0.00000000000E+00 0. -1.
         21    1    1    2  504  505  0.30353965317E+02 -0.96105584019E+01  0.71647419431E+03  0.71718128612E+03  0.00000000000E+00 0.  1.
         21    1    1    2  505  501  0.40160302955E+02 -0.65772925111E+02  0.22571328277E+03  0.23850663226E+03  0.00000000000E+00 0.  1.
          3    1    1    2  501    0 -0.12845377300E+03  0.43964232240E+02 -0.78701627678E+02  0.15693046777E+03  0.00000000000E+00 0. -1.
<scales pt_clust_3="66.23858" pt_clust_4="31.83906" pt_clust_5="14000.00000" pt_clust_6="100.56381"></scales>
<clustering>
<clus scale="   31.839">  1  4  2 -1</clus>
<clus scale="   66.239">  2  3  1 -1</clus>
<clus scale="  100.564">  2  6  1 -1</clus>
<clus scale="   31.839">  1  3  2 -1</clus>
</clustering>
</event>
<event>
 6    0  0.2117869E+002  0.2016930E+03  0.7546771E-02  0.1148318E+00
          2   -1    0    0  505    0 -0.00000000000E+00  0.00000000000E+00  0.14180586136E+04  0.14180586136E+04  0.00000000000E+00 0. -1.
         21   -1    0    0  503  502  0.00000000000E+00 -0.00000000000E+00 -0.85920979187E+03  0.85920979187E+03  0.00000000000E+00 0.  1.
         21    1    1    2  503  501 -0.15426785917E+02  0.24336358460E+03  0.25688650876E+03  0.35419556521E+03  0.00000000000E+00 0. -1.
         21    1    1    2  504  502 -0.14703921818E+02 -0.19953439662E+03 -0.79728331770E+03  0.82200417847E+03  0.00000000000E+00 0.  1.
         21    1    1    2  505  504  0.77782150532E+00 -0.31377254278E+02  0.52082834673E+03  0.52177323029E+03  0.00000000000E+00 0. -1.
          2    1    1    2  501    0  0.29352886230E+02 -0.12451933703E+02  0.57841728390E+03  0.57929543145E+03  0.00000000000E+00 0. -1.
<scales pt_clust_3="14000.00000" pt_clust_4="201.69302" pt_clust_5="31.38689" pt_clust_6="44.28314"></scales>
<clustering>
<clus scale="   31.387">  1  5  2 -1</clus>
<clus scale="   44.283">  1  6  2 -1</clus>
<clus scale="  201.693">  2  4  1 -1</clus>
<clus scale="  201.693">  2  3  1 -1</clus>
</clustering>
</event>
<event>
 6    0  0.2117869E+002  0.1579319E+03  0.7546771E-02  0.1191052E+00
         21   -1    0    0  501  502  0.00000000000E+00  0.00000000000E+00  0.33070706725E+02  0.33070706725E+02  0.00000000000E+00 0. -1.
          2   -1    0    0  504    0 -0.00000000000E+00 -0.00000000000E+00 -0.19352742562E+04  0.19352742562E+04  0.00000000000E+00 0. -1.
         21    1    1    2  503  505  0.43671280415E+02  0.73450857951E+02 -0.11027433927E+03  0.13950856306E+03  0.00000000000E+00 0. -1.
         21    1    1    2  504  503  0.38476377065E+02 -0.23887765936E+02 -0.78028282172E+03  0.78159602022E+03  0.00000000000E+00 0. -1.
         21    1    1    2  505  502  0.68671058431E+02  0.54109599561E+01 -0.99138363238E+02  0.12072037036E+03  0.00000000000E+00 0. -1.
          2    1    1    2  501    0 -0.15081871591E+03 -0.54974051971E+02 -0.91250802521E+03  0.92652000925E+03  0.00000000000E+00 0. -1.
<scales pt_clust_3="65.23549" pt_clust_4="45.28860" pt_clust_5="65.23549" pt_clust_6="141.12777"></scales>
<clustering>
<clus scale="   45.289">  2  4  1 -1</clus>
<clus scale="   65.235">  3  5 -1 -1</clus>
<clus scale="  141.128">  2  6  1 -1</clus>
<clus scale="  157.932">  1  3  2 -1</clus>
</clustering>
</event>
<event>
 6    0  0.2117869E+002  0.9718665E+02  0.7546771E-02  0.1286326E+00
         21   -1    0    0  504  502  0.00000000000E+00  0.00000000000E+00  0.11429314821E+03  0.11429314821E+03  0.00000000000E+00 0.  1.
         -1   -1    0    0    0  501 -0.00000000000E+00 -0.00000000000E+00 -0.12746932150E+04  0.12746932150E+04  0.00000000000E+00 0. -1.
         21    1    1    2  503  502 -0.53999283700E+01 -0.31965085315E+02 -0.45978872449E+02  0.56258178226E+02  0.00000000000E+00 0. -1.
         21    1    1    2  504  505  0.45476711434E+02 -0.54865689942E+02  0.90135073770E+02  0.11490303190E+03  0.00000000000E+00 0.  1.
         21    1    1    2  505  501  0.21912489359E+02 -0.35646150890E+02 -0.30440101646E+03  0.30726337902E+03  0.00000000000E+00 0. -1.
         -1    1    1    2    0  503 -0.61989272423E+02  0.12247692615E+03 -0.90015525166E+03  0.91056177409E+03  0.00000000000E+00 0. -1.
<scales pt_clust_3="32.41799" pt_clust_4="97.18665" pt_clust_5="42.16352" pt_clust_6="14000.00000"></scales>
<clustering>
<clus scale="   32.418">  1  3  2 -1</clus>
<clus scale="   42.164">  2  5  1 -1</clus>
<clus scale="   97.187">  1  4  2 -1</clus>
<clus scale="   32.418">  1  3  2 -1</clus>
</clustering>
</event>
<event>
 6    0  0.2117869E+002  0.1003800E+03  0.7546771E-02  0.1279499E+00
         21   -1    0    0  504  502  0.00000000000E+00  0.00000000000E+00  0.21629258359E+04  0.21629258359E+04  0.00000000000E+00 0. -1.
          2   -1    0    0  505    0 -0.00000000000E+00 -0.00000000000E+00 -0.10084868842E+04  0.10084868842E+04  0.00000000000E+00 0. -1.
         21    1    1    2  503  502  0.10340832641E+03  0.37782944852E+02  0.60490057076E+03  0.61483781065E+03  0.00000000000E+00 0. -1.
         21    1    1    2  504  501 -0.31297278869E+01 -0.32540680083E+02  0.15489488137E+04  0.15492937483E+04  0.00000000000E+00 0. -1.
         21    1    1    2  505  503 -0.13035690036E+02  0.28144916125E+02 -0.19269671324E+03  0.19517707040E+03  0.00000000000E+00 0. -1.
          2    1    1    2  501    0 -0.87242908489E+02 -0.33387180894E+02 -0.80671371955E+03  0.81210409076E+03  0.00000000000E+00 0. -1.
<scales pt_clust_3="14000.00000" pt_clust_4="32.68517" pt_clust_5="31.01718" pt_clust_6="100.37997"></scales>
<clustering>
<clus scale="   31.017">  2  5  1 -1</clus>
<clus scale="   32.685">  1  4  2 -1</clus>
<clus scale="  100.380">  2  6  1 -1</clus>
<clus scale="   32.685">  1  3  2 -1</clus>
</clustering>
</event>
<event>
 6    0  0.2117869E+002  0.1279247E+03  0.7546771E-02  0.1230568E+00
         21   -1    0    0  501  502  0.00000000000E+00  0.00000000000E+00  0.30996384229E+02  0.30996384229E+02  0.00000000000E+00 0.  1.
          2   -1    0    0  503    0 -0.00000000000E+00 -0.00000000000E+00 -0.23078334758E+04  0.23078334758E+04  0.00000000000E+00 0. -1.
         21    1    1    2  503  504 -0.46934612916E+02 -0.36561130829E+00 -0.10293981651E+04  0.10304676481E+04  0.00000000000E+00 0. -1.
         21    1    1    2  504  505  0.11626860549E+03 -0.35450738337E+02 -0.13408650389E+03  0.18098158469E+03  0.00000000000E+00 0.  1.
         21    1    1    2  505  502  0.19670570063E+01 -0.36908096824E+02 -0.70813898621E+02  0.79879191047E+02  0.00000000000E+00 0.  1.
          2    1    1    2  501    0 -0.71301049584E+02  0.72724446469E+02 -0.10425385240E+04  0.10475014362E+04  0.00000000000E+00 0. -1.
<scales pt_clust_3="46.90803" pt_clust_4="127.92469" pt_clust_5="36.96048" pt_clust_6="14000.00000"></scales>
<clustering>
<clus scale="   36.960">  1  5  2 -1</clus>
<clus scale="   46.908">  2  3  1 -1</clus>
<clus scale="  127.925">  1  4  2 -1</clus>
<clus scale="   36.960">  1  3  2 -1</clus>
</clustering>
</event>
<event>
 6    0  0.2117869E+002  0.1482557E+03  0.7546771E-02  0.1202633E+00
         21   -1    0    0  504  502  0.00000000000E+00  0.00000000000E+00  0.25845980796E+03  0.25845980796E+03  0.00000000000E+00 0. -1.
          1   -1    0    0  503    0 -0.00000000000E+00 -0.00000000000E+00 -0.19720198480E+04  0.19720198480E+04  0.00000000000E+00 0.  1.
         21    1    1    2  503  502  0.35228899899E+02 -0.53553484205E+02 -0.11319668721E+03  0.13008666747E+03  0.00000000000E+00 0. -1.
         21    1    1    2  504  505 -0.69130320140E+02  0.79659771637E+02  0.15678180609E+03  0.18895823639E+03  0.00000000000E+00 0. -1.
         21    1    1    2  505  501 -0.43130292438E+02  0.47696586020E+01  0.70025459832E+02  0.82380439388E+02  0.00000000000E+00 0. -1.
          1    1    1    2  501    0  0.77031712680E+02 -0.30875946034E+02 -0.18271706188E+04  0.18290543127E+04  0.00000000000E+00 0.  1.
<scales pt_clust_3="64.10188" pt_clust_4="31.76375" pt_clust_5="31.76375" pt_clust_6="139.74039"></scales>
<clustering>
<clus scale="   31.764">  4  5 -1 -1</clus>
<clus scale="   64.102">  2  3  1 -1</clus>
<clus scale="  139.740">  2  6  1 -1</clus>
<clus scale="  148.256">  1  3  2 -1</clus>
</clustering>
</event>
<event>
 6    0  0.2117869E+002  0.7165414E+02  0.7546771E-02  0.1354557E+00
         21   -1    0    0  503  502  0.00000000000E+00  0.00000000000E+00  0.32580991920E+03  0.32580991920E+03  0.00000000000E+00 0. -1.
          2   -1    0    0  505    0 -0.00000000000E+00 -0.00000000000E+00 -0.18071991390E+04  0.18071991390E+04  0.00000000000E+00 0.  1.
         21    1    1    2  503  501 -0.10967889285E+03 -0.78260769898E+02  0.18482612978E+03  0.22872451965E+03  0.00000000000E+00 0. -1.
         21    1    1    2  504  502  0.47784598096E+02  0.46380277663E+02  0.10476844826E+03  0.12414074965E+03  0.00000000000E+00 0. -1.
         21    1    1    2  505  504 -0.55528089805E+02  0.28880209254E+02 -0.66590959323E+03  0.66884454218E+03  0.00000000000E+00 0.  1.
          2    1    1    2  501    0  0.11742238455E+03  0.30002829806E+01 -0.11050742046E+04  0.11112992467E+04  0.00000000000E+00 0.  1.
<scales pt_clust_3="71.65414" pt_clust_4="66.42627" pt_clust_5="62.58942" pt_clust_6="14000.00000"></scales>
<clustering>
<clus scale="   62.589">  2  5  1 -1</clus>
<clus scale="   66.426">  1  4  2 -1</clus>
<clus scale="   71.654">  1  3  2 -1</clus>
<clus scale="   66.426">  1  3  2 -1</clus>
</clustering>
</event>
<event>
 6    0  0.2117869E+002  0.2591522E+03  0.7546771E-02  0.1107654E+00
         21   -1    0    0  501  502  0.00000000000E+00  0.00000000000E+00  0.12531133590E+04  0.12531133590E+04  0.00000000000E+00 0.  1.
          2   -1    0    0  505    0 -0.00000000000E+00 -0.00000000000E+00 -0.37760622253E+03  0.37760622253E+03  0.00000000000E+00 0.  1.
         21    1    1    2  503  502  0.64279586668E+01 -0.55176854732E+02  0.10722089224E+03  0.12075646436E+03  0.00000000000E+00 0.  1.
         21    1    1    2  504  503  0.83939544362E+02 -0.19073095014E+03  0.10685575832E+04  0.10886870308E+04  0.00000000000E+00 0.  1.
         21    1    1    2  505  504  0.28218955701E+02  0.10452971942E+02 -0.18120081851E+02  0.35127075733E+02  0.00000000000E+00 0. -1.
          2    1    1    2  501    0 -0.11858645873E+03  0.23545483293E+03 -0.28215125709E+03  0.38614901065E+03  0.00000000000E+00 0.  1.
<scales pt_clust_3="55.41564" pt_clust_4="14000.00000" pt_clust_5="30.09276" pt_clust_6="259.15222"></scales>
<clustering>
<clus scale="   30.093">  2  5  1 -1</clus>
<clus scale="   55.416">  1  3  2 -1</clus>
<clus scale="  259.152">  2  6  1 -1</clus>
<clus scale="   55.416">  1  3  2 -1</clus>
</clustering>
</event>
<event>
 6    0  0.2117869E+002  0.9100186E+02  0.7546771E-02  0.1300444E+00
         21   -1    0    0  503  502  0.00000000000E+00  0.00000000000E+00  0.55596981486E+03  0.55596981486E+03  0.00000000000E+00 0.  1.
          2   -1    0    0  504    0 -0.00000000000E+00 -0.00000000000E+00 -0.30024804355E+03  0.30024804355E+03  0.00000000000E+00 0.  1.
         21    1    1    2  503  505 -0.53863122266E+02  0.82550886993E+02  0.41236944091E+03  0.42398636851E+03  0.00000000000E+00 0.  1.
         21    1    1    2  504  502  0.28141718041E+02  0.37667598245E+02 -0.13771325937E+03  0.14551888557E+03  0.00000000000E+00 0.  1.
         21    1    1    2  505  501  0.86271728109E+01 -0.80626146095E+02  0.11798495930E+03  0.14316233501E+03  0.00000000000E+00 0.  1.
          2    1    1    2  501    0  0.17094231415E+02 -0.39592339144E+02 -0.13691936953E+03  0.14355026931E+03  0.00000000000E+00 0.  1.
<scales pt_clust_3="91.00186" pt_clust_4="43.35027" pt_clust_5="14000.00000" pt_clust_6="43.12501"></scales>
<clustering>
<clus scale="   43.125">  2  6  1 -1</clus>
<clus scale="   43.350">  2  4  1 -1</clus>
<clus scale="   91.002">  1  3  2 -1</clus>
<clus scale="   91.002">  1  3  2 -1</clus>
</clustering>
</event>
<event>
 6    0  0.2117869E+002  0.1377427E+03  0.7546771E-02  0.1216399E+00
         21   -1    0    0  503  502  0.00000000000E+00  0.00000000000E+00  0.30827227618E+03  0.30827227618E+03  0.00000000000E+00 0. -1.
          2   -1    0    0  505    0 -0.00000000000E+00 -0.00000000000E+00 -0.10472087967E+04  0.10472087967E+04  0.00000000000E+00 0. -1.
         21    1    1    2  503  501  0.30848057287E+02  0.39778145672E+02  0.24623823188E+01  0.50398083675E+02  0.00000000000E+00 0. -1.
         21    1    1    2  504  502 -0.80774878465E+01  0.42573419886E+02  0.17944784872E+03  0.18460572121E+03  0.00000000000E+00 0. -1.
         21    1    1    2  505  504  0.21151860745E+02  0.41396430174E+02  0.89915117195E+02  0.10122150930E+03  0.00000000000E+00 0. -1.
          2    1    1    2  501    0 -0.43922430185E+02 -0.12374799573E+03 -0.10107618688E+04  0.10192557588E+04  0.00000000000E+00 0. -1.
<scales pt_clust_3="50.33789" pt_clust_4="42.29322" pt_clust_5="42.29322" pt_clust_6="130.59150"></scales>
<clustering>
<clus scale="   42.293">  4  5 -1 -1</clus>
<clus scale="   50.338">  1  3  2 -1</clus>
<clus scale="  130.591">  2  6  1 -1</clus>
<clus scale="   50.338">  1  3  2 -1</clus>
</clustering>
</event>
<event>
 6    0  0.2117869E+002  0.8604662E+02  0.7546771E-02  0.1312718E+00
         21   -1    0    0  504  502  0.00000000000E+00  0.00000000000E+00  0.26753808052E+04  0.26753808052E+04  0.00000000000E+00 0.  1.
         -3   -1    0    0    0  501 -0.00000000000E+00 -0.00000000000E+00 -0.96935176361E+01  0.96935176361E+01  0.00000000000E+00 0.  1.
         21    1    1    2  503  502  0.95624671090E+01  0.67395415494E+02  0.71252611272E+03  0.71577024534E+03  0.00000000000E+00 0.  1.
         21    1    1    2  504  505 -0.26739361030E+02 -0.10286790346E+03  0.15665736906E+04  0.15701751262E+04  0.00000000000E+00 0.  1.
         21    1    1    2  505  501 -0.18564310664E+02 -0.23672252690E+02  0.11005640370E+03  0.11409391383E+03  0.00000000000E+00 0. -1.
         -3    1    1    2    0  503  0.35741204585E+02  0.59144740655E+02  0.27653108058E+03  0.28503503746E+03  0.00000000000E+00 0.  1.
<scales pt_clust_3="14000.00000" pt_clust_4="86.04662" pt_clust_5="30.08337" pt_clust_6="52.60002"></scales>
<clustering>
<clus scale="   30.083">  2  5  1 -1</clus>
<clus scale="   52.600">  2  6  1 -1</clus>
<clus scale="   86.047">  2  4  1 -1</clus>
<clus scale="   86.047">  1  3  2 -1</clus>
</clustering>
</event>
<event>
 6    0  0.2117869E+002  0.1072780E+03  0.7546771E-02  0.1265695E+00
          4   -1    0    0  505    0 -0.00000000000E+00  0.00000000000E+00  0.37126465218E+03  0.37126465218E+03  0.00000000000E+00 0. -1.
         21   -1    0    0  501  502  0.00000000000E+00 -0.00000000000E+00 -0.22208445987E+03  0.22208445987E+03  0.00000000000E+00 0.  1.
         21    1    1    2  503  502 -0.97422198837E+02  0.37787064727E+02 -0.16690221696E+03  0.19691444110E+03  0.00000000000E+00 0.  1.
         21    1    1    2  504  503 -0.39835582202E+02 -0.58061166633E+00  0.39458991525E+02  0.56073369182E+02  0.00000000000E+00 0.  1.
         21    1    1    2  505  504 -0.66672731088E+01  0.31737346586E+02  0.19808081864E+02  0.38000944806E+02  0.00000000000E+00 0. -1.
          4    1    1    2  501    0  0.14392505415E+03 -0.68943799646E+02  0.25681533588E+03  0.30236035697E+03  0.00000000000E+00 0. -1.
<scales pt_clust_3="14000.00000" pt_clust_4="40.94695" pt_clust_5="32.43010" pt_clust_6="107.27796"></scales>
<clustering>
<clus scale="   32.430">  1  5  2 -1</clus>
<clus scale="   40.947">  1  4  2 -1</clus>
<clus scale="  107.278">  1  6  2 -1</clus>
<clus scale="  107.278">  2  3  1 -1</clus>
</clustering>
</event>
<event>
 6    0  0.2117869E+002  0.1774226E+03  0.7546771E-02  0.1170321E+00
          2   -1    0    0  505    0 -0.00000000000E+00  0.00000000000E+00  0.89984566719E+03  0.89984566719E+03  0.00000000000E+00 0. -1.
         21   -1    0    0  501  502  0.00000000000E+00 -0.00000000000E+00 -0.83022368378E+02  0.83022368378E+02  0.00000000000E+00 0.  1.
         21    1    1    2  503  502  0.37287142082E+02 -0.20796168726E+02 -0.57149259161E+01  0.43075189803E+02  0.00000000000E+00 0.  1.
         21    1    1    2  504  503  0.10968699659E+03 -0.94275998722E+02  0.14769930445E+03  0.20672272660E+03  0.00000000000E+00 0.  1.
         21    1    1    2  505  504  0.77700456566E+01 -0.32855655543E+02  0.29608377195E+03  0.29800246262E+03  0.00000000000E+00 0. -1.
          2    1    1    2  501    0 -0.15474418433E+03  0.14792782299E+03  0.37875514832E+03  0.43506765655E+03  0.00000000000E+00 0. -1.
<scales pt_clust_3="43.40749" pt_clust_4="177.42257" pt_clust_5="33.76193" pt_clust_6="14000.00000"></scales>
<clustering>
<clus scale="   33.762">  1  5  2 -1</clus>
<clus scale="   43.407">  2  3  1 -1</clus>
<clus scale="  177.423">  2  4  1 -1</clus>
<clus scale="   43.407">  2  3  1 -1</clus>
</clustering>
</event>
<event>
 6    0  0.2117869E+002  0.1079295E+03  0.7546771E-02  0.1264453E+00
          1   -1    0    0  505    0 -0.00000000000E+00  0.00000000000E+00  0.58442180091E+03  0.58442180091E+03  0.00000000000E+00 0. -1.
         21   -1    0    0  504  502  0.00000000000E+00 -0.00000000000E+00 -0.26098150244E+03  0.26098150244E+03  0.00000000000E+00 0. -1.
         21    1    1    2  503  501 -0.19257138919E+02  0.53087283998E+02 -0.96283044028E+02  0.11162222758E+03  0.00000000000E+00 0. -1.
         21    1    1    2  504  503 -0.48530279310E+02  0.19709654281E+02 -0.13403099611E+03  0.14390262819E+03  0.00000000000E+00 0. -1.
         21    1    1    2  505  502 -0.15195964351E+02 -0.56733948309E+02  0.45965199130E+03  0.46338926544E+03  0.00000000000E+00 0. -1.
          1    1    1    2  501    0  0.82983382580E+02 -0.16062989969E+02  0.94102347311E+02  0.12648918215E+03  0.00000000000E+00 0. -1.
<scales pt_clust_3="46.72577" pt_clust_4="46.72577" pt_clust_5="58.73379" pt_clust_6="96.41016"></scales>
<clustering>
<clus scale="   46.726">  3  4 -1 -1</clus>
<clus scale="   58.734">  1  5  2 -1</clus>
<clus scale="   96.410">  1  6  2 -1</clus>
<clus scale="  107.930">  2  3  1 -1</clus>
</clustering>
</event>
<event>
 6    0  0.2117869E+002  0.1430799E+03  0.7546771E-02  0.1209244E+00
         21   -1    0    0  505  502  0.00000000000E+00  0.00000000000E+00  0.34130252784E+03  0.34130252784E+03  0.00000000000E+00 0. -1.
          4   -1    0    0  504    0 -0.00000000000E+00 -0.00000000000E+00 -0.48909567959E+03  0.48909567959E+03  0.00000000000E+00 0.  1.
         21    1    1    2  503  502  0.30383696279E+02  0.26324261489E+02  0.21209626632E+03  0.21587255947E+03  0.00000000000E+00 0. -1.
         21    1    1    2  504  503 -0.33240263441E+02  0.14141591779E+03 -0.35215205283E+03  0.38093889960E+03  0.00000000000E+00 0.  1.
         21    1    1    2  505  501  0.31491871589E+02 -0.24435298275E+02  0.60382335366E+02  0.72352250844E+02  0.00000000000E+00 0. -1.
          4    1    1    2  501    0 -0.28635304427E+02 -0.14330488100E+03 -0.68119700613E+02  0.16123449752E+03  0.00000000000E+00 0.  1.
<scales pt_clust_3="55.37815" pt_clust_4="143.07985" pt_clust_5="39.86003" pt_clust_6="14000.00000"></scales>
<clustering>
<clus scale="   39.860">  1  5  2 -1</clus>
<clus scale="   55.378">  1  3  2 -1</clus>
<clus scale="  143.080">  2  4  1 -1</clus>
<clus scale="   39.860">  1  3  2 -1</clus>
</clustering>
</event>
<event>
 6    0  0.2117869E+002  0.1039727E+03  0.7546771E-02  0.1272157E+00
          2   -1    0    0  503    0 -0.00000000000E+00  0.00000000000E+00  0.12230416604E+04  0.12230416604E+04  0.00000000000E+00 0. -1.
         21   -1    0    0  504  502  0.00000000000E+00 -0.00000000000E+00 -0.27950663234E+03  0.27950663234E+03  0.00000000000E+00 0. -1.
         21    1    1    2  503  505  0.21610993091E+02 -0.28565213691E+02  0.11362515431E+03  0.11913724081E+03  0.00000000000E+00 0. -1.
         21    1    1    2  504  501 -0.23001482293E+02 -0.64420881766E+02 -0.48136380116E+01  0.68573240452E+02  0.00000000000E+00 0. -1.
         21    1    1    2  505  502  0.28594238880E+02 -0.44411479792E+02 -0.23251922037E+03  0.23844328020E+03  0.00000000000E+00 0. -1.
          2    1    1    2  501    0 -0.27203749678E+02  0.13739757525E+03  0.10672427321E+04  0.10763945313E+04  0.00000000000E+00 0. -1.
<scales pt_clust_3="35.81908" pt_clust_4="14000.00000" pt_clust_5="52.91614" pt_clust_6="103.97272"></scales>
<clustering>
<clus scale="   35.819">  1  3  2 -1</clus>
<clus scale="   52.916">  2  5  1 -1</clus>
<clus scale="  103.973">  1  6  2 -1</clus>
<clus scale="   52.916">  2  3  1 -1</clus>
</clustering>
</event>
<event>
 6    0  0.2117869E+002  0.5738717E+02  0.7546771E-02  0.1409136E+00
          2   -1    0    0  504    0 -0.00000000000E+00  0.00000000000E+00  0.12468491676E+04  0.12468491676E+04  0.00000000000E+00 0. -1.
         21   -1    0    0  503  502  0.00000000000E+00 -0.00000000000E+00 -0.89485189491E+02  0.89485189491E+02  0.00000000000E+00 0.  1.
         21    1    1    2  503  501  0.31993514501E+02 -0.64270276504E+00 -0.24284967131E+02  0.40171602725E+02  0.00000000000E+00 0.  1.
         21    1    1    2  504  505 -0.44415008985E+02  0.56444641049E+01  0.36794402737E+03  0.37065800986E+03  0.00000000000E+00 0.  1.
         21    1    1    2  505  502 -0.85047343661E+02  0.90145526997E+01 -0.18493708345E+02  0.87500457555E+02  0.00000000000E+00 0.  1.
          2    1    1    2  501    0  0.97468838145E+02 -0.14016314040E+02  0.83219862619E+03  0.83800428692E+03  0.00000000000E+00 0. -1.
<scales pt_clust_3="31.99997" pt_clust_4="44.01819" pt_clust_5="57.38717" pt_clust_6="14000.00000"></scales>
<clustering>
<clus scale="   32.000">  2  3  1 -1</clus>
<clus scale="   44.018">  1  4  2 -1</clus>
<clus scale="   57.387">  2  5  1 -1</clus>
<clus scale="   32.000">  2  3  1 -1</clus>
</clustering>
</event>
<event>
 6    0  0.2117869E+002  0.1498540E+03  0.7546771E-02  0.1200653E+00
          1   -1    0    0  505    0 -0.00000000000E+00  0.00000000000E+00  0.26289729153E+04  0.26289729153E+04  0.00000000000E+00 0.  1.
         21   -1    0    0  504  502  0.00000000000E+00 -0.00000000000E+00 -0.61398171823E+02  0.61398171823E+02  0.00000000000E+00 0. -1.
         21    1    1    2  503  501  0.63823936297E+01 -0.51502533573E+02  0.14000062246E+03  0.14930981281E+03  0.00000000000E+00 0. -1.
         21    1    1    2  504  503 -0.47632266238E+02  0.13404333563E+03  0.49316335859E+02  0.15056078372E+03  0.00000000000E+00 0. -1.
         21    1    1    2  505  502 -0.24924522292E+02 -0.18081791813E+02  0.20289464890E+04  0.20291801394E+04  0.00000000000E+00 0.  1.
          1    1    1    2  501    0  0.66174394901E+02 -0.64459010240E+02  0.34931129615E+03  0.36132035116E+03  0.00000000000E+00 0.  1.
<scales pt_clust_3="39.97804" pt_clust_4="140.89278" pt_clust_5="30.79258" pt_clust_6="39.97804"></scales>
<clustering>
<clus scale="   30.793">  1  5  2 -1</clus>
<clus scale="   39.978">  3  6 -1 -1</clus>
<clus scale="  140.893">  2  4  1 -1</clus>
<clus scale="  140.893">  2  3  1 -1</clus>
</clustering>
</event>
<event>
 6    0  0.2117869E+002  0.6109123E+02  0.7546771E-02  0.1393309E+00
          3   -1    0    0  503    0 -0.00000000000E+00  0.00000000000E+00  0.88829730759E+03  0.88829730759E+03  0.00000000000E+00 0. -1.
         21   -1    0    0  504  502  0.00000000000E+00 -0.00000000000E+00 -0.14632096735E+03  0.14632096735E+03  0.00000000000E+00 0.  1.
         21    1    1    2  503  505 -0.36033544827E+02  0.34048780566E+02  0.11977073232E+03  0.12962547640E+03  0.00000000000E+00 0.  1.
         21    1    1    2  504  501 -0.56636172555E+02  0.26565649578E+02 -0.10779680803E+03  0.12463362949E+03  0.00000000000E+00 0.  1.
         21    1    1    2  505  502  0.62692881914E+02  0.12432075441E+02  0.21444229883E+02  0.67415198121E+02  0.00000000000E+00 0.  1.
          3    1    1    2  501    0  0.29976835468E+02 -0.73046505585E+02  0.70855818607E+03  0.71294397093E+03  0.00000000000E+00 0. -1.
<scales pt_clust_3="49.57556" pt_clust_4="61.09123" pt_clust_5="14000.00000" pt_clust_6="41.50741"></scales>
<clustering>
<clus scale="   49.576">  1  3  2 -1</clus>
<clus scale="   41.507">  1  6  2 -1</clus>
<clus scale="   61.091">  2  4  1 -1</clus>
<clus scale="   61.091">  2  3  1 -1</clus>
</clustering>
</event>
<event>
 6    0  0.2117869E+002  0.9200519E+02  0.7546771E-02  0.1298067E+00
         21   -1    0    0  504  502  0.00000000000E+00  0.00000000000E+00  0.44606162617E+02  0.44606162617E+02  0.00000000000E+00 0. -1.
          1   -1    0    0  505    0 -0.00000000000E+00 -0.00000000000E+00 -0.16701532646E+04  0.16701532646E+04  0.00000000000E+00 0.  1.
         21    1    1    2  503  501  0.73125918806E+02 -0.72414392800E+02 -0.14532827450E+03  0.17807737547E+03  0.00000000000E+00 0. -1.
         21    1    1    2  504  503 -0.34805175783E+02 -0.12304522743E+02  0.11302540238E+02  0.38607628223E+02  0.00000000000E+00 0. -1.
         21    1    1    2  505  502  0.20289992431E+02  0.29303215110E+02 -0.15184478311E+03  0.15597179350E+03  0.00000000000E+00 0. -1.
          1    1    1    2  501    0 -0.58610735454E+02  0.55415700434E+02 -0.13396765846E+04  0.13421026300E+04  0.00000000000E+00 0.  1.
<scales pt_clust_3="92.00519" pt_clust_4="36.65643" pt_clust_5="35.64214" pt_clust_6="14000.00000"></scales>
<clustering>
<clus scale="   35.642">  2  5  1 -1</clus>
<clus scale="   36.656">  1  4  2 -1</clus>
<clus scale="   92.005">  1  3  2 -1</clus>
<clus scale="   36.656">  1  3  2 -1</clus>
</clustering>
</event>
<event>
 6    0  0.2117869E+002  0.1192369E+03  0.7546771E-02  0.1244361E+00
         21   -1    0    0  503  502  0.00000000000E+00  0.00000000000E+00  0.15239064114E+03  0.15239064114E+03  0.00000000000E+00 0. -1.
          1   -1    0    0  505    0 -0.00000000000E+00 -0.00000000000E+00 -0.17801083722E+04  0.17801083722E+04  0.00000000000E+00 0. -1.
         21    1    1    2  503  501 -0.29062985203E+02  0.42947247733E+02 -0.15151547069E+02  0.54024925500E+02  0.00000000000E+00 0.  1.
         21    1    1    2  504  502 -0.18674084565E+01  0.39300718026E+02  0.11947972049E+03  0.12579124477E+03  0.00000000000E+00 0. -1.
         21    1    1    2  505  504 -0.10612862441E+03 -0.12462959177E+01 -0.82083603244E+03  0.82766939676E+03  0.00000000000E+00 0.  1.
          1    1    1    2  501    0  0.13705901807E+03 -0.81001669841E+02 -0.91120987206E+03  0.92501344633E+03  0.00000000000E+00 0. -1.
<scales pt_clust_3="75.00438" pt_clust_4="39.34506" pt_clust_5="119.23690" pt_clust_6="14000.00000"></scales>
<clustering>
<clus scale="   39.345">  1  4  2 -1</clus>
<clus scale="   75.004">  1  3  2 -1</clus>
<clus scale="  119.237">  2  5  1 -1</clus>
<clus scale="   39.345">  1  3  2 -1</clus>
</clustering>
</event>
<event>
 6    0  0.2117869E+002  0.1099648E+03  0.7546771E-02  0.1260635E+00
         21   -1    0    0  504  502  0.00000000000E+00  0.00000000000E+00  0.97927845679E+03  0.97927845679E+03  0.00000000000E+00 0.  1.
          2   -1    0    0  505    0 -0.00000000000E+00 -0.00000000000E+00 -0.23791348651E+03  0.23791348651E+03  0.00000000000E+00 0.  1.
         21    1    1    2  503  502 -0.32379528995E+02  0.35889954315E+00 -0.36415584254E+01  0.32585635709E+02  0.00000000000E+00 0. -1.
         21    1    1    2  504  501 -0.16825888303E+01 -0.60874048885E+02  0.88269846456E+03  0.88479662085E+03  0.00000000000E+00 0.  1.
         21    1    1    2  505  503 -0.60213841562E+02  0.71712887401E+02  0.37241903998E+02  0.10077402616E+03  0.00000000000E+00 0.  1.
          2    1    1    2  501    0  0.94275959387E+02 -0.11197738059E+02 -0.17493383986E+03  0.19903566058E+03  0.00000000000E+00 0.  1.
<scales pt_clust_3="31.60182" pt_clust_4="60.89730" pt_clust_5="31.60182" pt_clust_6="95.93912"></scales>
<clustering>
<clus scale="   31.602">  3  5 -1 -1</clus>
<clus scale="   60.897">  1  4  2 -1</clus>
<clus scale="   95.939">  2  6  1 -1</clus>
<clus scale="   60.897">  1  3  2 -1</clus>
</clustering>
</event>
<event>
 6    0  0.2117869E+002  0.1097338E+03  0.7546771E-02  0.1261064E+00
         21   -1    0    0  504  502  0.00000000000E+00  0.00000000000E+00  0.28326286380E+02  0.28326286380E+02  0.00000000000E+00 0. -1.
          2   -1    0    0  505    0 -0.00000000000E+00 -0.00000000000E+00 -0.19137505968E+04  0.19137505968E+04  0.00000000000E+00 0.  1.
         21    1    1    2  503  502 -0.43106459208E+02  0.12004388229E+03 -0.16241659475E+03  0.20651356070E+03  0.00000000000E+00 0. -1.
         21    1    1    2  504  501  0.21581890241E+02 -0.71874769756E+02 -0.35611293000E+03  0.36393430647E+03  0.00000000000E+00 0.  1.
         21    1    1    2  505  503 -0.23762477346E+02  0.19067722777E+02 -0.26229328696E+03  0.26405681541E+03  0.00000000000E+00 0. -1.
          2    1    1    2  501    0  0.45287046314E+02 -0.67236835314E+02 -0.11046014987E+04  0.11075722006E+04  0.00000000000E+00 0.  1.
<scales pt_clust_3="14000.00000" pt_clust_4="109.73380" pt_clust_5="30.46692" pt_clust_6="61.87084"></scales>
<clustering>
<clus scale="   30.467">  2  5  1 -1</clus>
<clus scale="   61.871">  2  6  1 -1</clus>
<clus scale="  109.734">  2  4  1 -1</clus>
<clus scale="  109.734">  1  3  2 -1</clus>
</clustering>
</event>
<event>
 6    0  0.2117869E+002  0.1094259E+03  0.7546771E-02  0.1261637E+00
         21   -1    0    0  505  502  0.00000000000E+00  0.00000000000E+00  0.96205558778E+02  0.96205558778E+02  0.00000000000E+00 0. -1.
         -4   -1    0    0    0  501 -0.00000000000E+00 -0.00000000000E+00 -0.41057233470E+03  0.41057233470E+03  0.00000000000E+00 0. -1.
         21    1    1    2  503  502 -0.99755077471E+01  0.31420326577E+02 -0.24661112664E+02  0.41169383707E+02  0.00000000000E+00 0.  1.
         21    1    1    2  504  501 -0.51314263041E+02 -0.17688286043E+02 -0.16700363849E+03  0.17560251799E+03  0.00000000000E+00 0. -1.
         21    1    1    2  505  504 -0.18739230022E+02  0.84436251776E+02  0.30061682548E+02  0.91566064201E+02  0.00000000000E+00 0. -1.
         -4    1    1    2    0  503  0.80029000810E+02 -0.98168292309E+02 -0.15276370731E+03  0.19843992758E+03  0.00000000000E+00 0. -1.
<scales pt_clust_3="32.96586" pt_clust_4="54.26173" pt_clust_5="14000.00000" pt_clust_6="109.42589"></scales>
<clustering>
<clus scale="   32.966">  1  3  2 -1</clus>
<clus scale="   54.262">  2  4  1 -1</clus>
<clus scale="  109.426">  2  6  1 -1</clus>
<clus scale="   32.966">  1  3  2 -1</clus>
</clustering>
</event>
<event>
 6    0  0.2117869E+002  0.8655626E+02  0.7546771E-02  0.1311412E+00
         21   -1    0    0  505  502  0.00000000000E+00  0.00000000000E+00  0.20614117994E+02  0.20614117994E+02  0.00000000000E+00 0. -1.
          2   -1    0    0  503    0 -0.00000000000E+00 -0.00000000000E+00 -0.27264288118E+04  0.27264288118E+04  0.00000000000E+00 0.  1.
         21    1    1    2  503  504  0.22110601924E+02 -0.22210945076E+02 -0.33381617806E+03  0.33528412657E+03  0.00000000000E+00 0. -1.
         21    1    1    2  504  502 -0.14887933856E+03  0.20560773483E+01 -0.37278425488E+03  0.40141921427E+03  0.00000000000E+00 0. -1.
         21    1    1    2  505  501  0.64183651579E+02 -0.72878780651E+01 -0.20748965105E+03  0.21731223985E+03  0.00000000000E+00 0. -1.
          2    1    1    2  501    0  0.62585085054E+02  0.27442745793E+02 -0.17917246098E+04  0.17930273490E+04  0.00000000000E+00 0.  1.
<scales pt_clust_3="31.34015" pt_clust_4="86.55626" pt_clust_5="66.79214" pt_clust_6="14000.00000"></scales>
<clustering>
<clus scale="   31.340">  2  3  1 -1</clus>
<clus scale="   66.792">  1  5  2 -1</clus>
<clus scale="   86.556">  1  4  2 -1</clus>
<clus scale="   66.792">  1  3  2 -1</clus>
</clustering>
</event>
<event>
 6    0  0.2117869E+002  0.1040908E+03  0.7546771E-02  0.1271921E+00
         -3   -1    0    0    0  501 -0.00000000000E+00  0.00000000000E+00  0.21682295509E+04  0.21682295509E+04  0.00000000000E+00 0. -1.
         21   -1    0    0  503  502  0.00000000000E+00 -0.00000000000E+00 -0.38704953662E+02  0.38704953662E+02  0.00000000000E+00 0. -1.
         21    1    1    2  503  501 -0.42482724817E+02  0.59627226535E+01  0.13325592833E+02  0.44921124137E+02  0.00000000000E+00 0. -1.
         21    1    1    2  504  502  0.72493153648E+02 -0.66283191031E+01  0.69247887078E+02  0.10047119888E+03  0.00000000000E+00 0. -1.
         21    1    1    2  505  504  0.30934826107E+02  0.89686508230E+02  0.40143506372E+03  0.41249332553E+03  0.00000000000E+00 0. -1.
         -3    1    1    2    0  505 -0.60945254938E+02 -0.89020911780E+02  0.16455160536E+04  0.16490488560E+04  0.00000000000E+00 0. -1.
<scales pt_clust_3="42.89914" pt_clust_4="43.61589" pt_clust_5="104.09076" pt_clust_6="14000.00000"></scales>
<clustering>
<clus scale="   42.899">  2  3  1 -1</clus>
<clus scale="   43.616">  2  4  1 -1</clus>
<clus scale="  104.091">  2  5  1 -1</clus>
<clus scale="   42.899">  2  3  1 -1</clus>
</clustering>
</event>
<event>
 6    0  0.2117869E+002  0.8925799E+02  0.7546771E-02  0.1304659E+00
          1   -1    0    0  503    0 -0.00000000000E+00  0.00000000000E+00  0.88629490423E+03  0.88629490423E+03  0.00000000000E+00 0.  1.
         21   -1    0    0  505  502  0.00000000000E+00 -0.00000000000E+00 -0.52242297634E+03  0.52242297634E+03  0.00000000000E+00 0.  1.
         21    1    1    2  503  504 -0.22784226562E+02  0.63796392637E+02  0.12911341323E+03  0.14580594696E+03  0.00000000000E+00 0.  1.
         21    1    1    2  504  502 -0.82877061167E+02 -0.39287034553E+02 -0.48451696369E+03  0.49312145203E+03  0.00000000000E+00 0.  1.
         21    1    1    2  505  501  0.18802481983E+02 -0.23707943623E+02 -0.12600703274E+02  0.32777700385E+02  0.00000000000E+00 0. -1.
          1    1    1    2  501    0  0.86858805746E+02 -0.80141446067E+00  0.73187618164E+03  0.73701278120E+03  0.00000000000E+00 0.  1.
<scales pt_clust_3="67.26459" pt_clust_4="89.25799" pt_clust_5="30.25888" pt_clust_6="14000.00000"></scales>
<clustering>
<clus scale="   30.259">  2  5  1 -1</clus>
<clus scale="   67.265">  1  3  2 -1</clus>
<clus scale="   89.258">  2  4  1 -1</clus>
<clus scale="   30.259">  2  3  1 -1</clus>
</clustering>
</event>
<event>
 6    0  0.2117869E+002  0.1414152E+03  0.7546771E-02  0.1211437E+00
          1   -1    0    0  505    0 -0.00000000000E+00  0.00000000000E+00  0.71087381320E+02  0.71087381320E+02  0.00000000000E+00 0.  1.
         21   -1    0    0  501  502  0.00000000000E+00 -0.00000000000E+00 -0.41516170450E+03  0.41516170450E+03  0.00000000000E+00 0.  1.
         21    1    1    2  503  502  0.48311845470E+02 -0.75663253580E+01 -0.65863520762E+02  0.82032231832E+02  0.00000000000E+00 0. -1.
         21    1    1    2  504  503  0.71836265282E+01  0.79133541811E+02 -0.14387197128E+03  0.16435591273E+03  0.00000000000E+00 0.  1.
         21    1    1    2  505  504 -0.27126702876E+02  0.57501248230E+02 -0.63771860838E+02  0.90050551313E+02  0.00000000000E+00 0.  1.
          1    1    1    2  501    0 -0.28368769122E+02 -0.12906846468E+03 -0.70566970295E+02  0.14981038994E+03  0.00000000000E+00 0.  1.
<scales pt_clust_3="48.90075" pt_clust_4="45.08088" pt_clust_5="45.08088" pt_clust_6="132.13015"></scales>
<clustering>
<clus scale="   45.081">  4  5 -1 -1</clus>
<clus scale="   48.901">  2  3  1 -1</clus>
<clus scale="  132.130">  1  6  2 -1</clus>
<clus scale="   48.901">  2  3  1 -1</clus>
</clustering>
</event>
<event>
 6    0  0.2117869E+002  0.8817830E+02  0.7546771E-02  0.1307324E+00
         21   -1    0    0  503  502  0.00000000000E+00  0.00000000000E+00  0.62055718060E+03  0.62055718060E+03  0.00000000000E+00 0. -1.
          2   -1    0    0  504    0 -0.00000000000E+00 -0.00000000000E+00 -0.90336206740E+03  0.90336206740E+03  0.00000000000E+00 0. -1.
         21    1    1    2  503  505 -0.63617582958E+02  0.25452202154E+02  0.40363002612E+03  0.40940470130E+03  0.00000000000E+00 0. -1.
         21    1    1    2  504  502  0.15457776961E+02 -0.36907234603E+02  0.19978474509E+03  0.20375237717E+03  0.00000000000E+00 0. -1.
         21    1    1    2  505  501  0.80323121484E+02  0.84954498076E+02 -0.36126843461E+03  0.37971562048E+03  0.00000000000E+00 0.  1.
          2    1    1    2  501    0 -0.32163315488E+02 -0.73499465627E+02 -0.52495122340E+03  0.53104654905E+03  0.00000000000E+00 0. -1.
<scales pt_clust_3="49.70725" pt_clust_4="40.01358" pt_clust_5="14000.00000" pt_clust_6="88.17830"></scales>
<clustering>
<clus scale="   40.014">  1  4  2 -1</clus>
<clus scale="   49.707">  1  3  2 -1</clus>
<clus scale="   88.178">  2  6  1 -1</clus>
<clus scale="   40.014">  1  3  2 -1</clus>
</clustering>
</event>
<event>
 6    0  0.2117869E+002  0.7137860E+02  0.7546771E-02  0.1355467E+00
         -3   -1    0    0    0  501 -0.00000000000E+00  0.00000000000E+00  0.21605012588E+03  0.21605012588E+03  0.00000000000E+00 0.  1.
         21   -1    0    0  504  502  0.00000000000E+00 -0.00000000000E+00 -0.28813344830E+03  0.28813344830E+03  0.00000000000E+00 0.  1.
         21    1    1    2  503  502 -0.22762685069E+02 -0.24658189407E+02 -0.13043284760E+03  0.13468071083E+03  0.00000000000E+00 0.  1.
         21    1    1    2  504  505 -0.20951504698E+01  0.86942277802E+02 -0.11731903196E+03  0.14603802445E+03  0.00000000000E+00 0.  1.
         21    1    1    2  505  501 -0.36526430215E+02  0.14717788316E+02  0.44076061589E+02  0.59105774696E+02  0.00000000000E+00 0.  1.
         -3    1    1    2    0  503  0.61384265754E+02 -0.77001876710E+02  0.13159249555E+03  0.16435906420E+03  0.00000000000E+00 0.  1.
<scales pt_clust_3="33.55840" pt_clust_4="14000.00000" pt_clust_5="39.98354" pt_clust_6="71.37860"></scales>
<clustering>
<clus scale="   33.558">  2  3  1 -1</clus>
<clus scale="   39.984">  1  5  2 -1</clus>
<clus scale="   71.379">  1  6  2 -1</clus>
<clus scale="   33.558">  2  3  1 -1</clus>
</clustering>
</event>
<event>
 6    0  0.2117869E+002  0.1266966E+03  0.7546771E-02  0.1232441E+00
         21   -1    0    0  505  502  0.00000000000E+00  0.00000000000E+00  0.39487534397E+03  0.39487534397E+03  0.00000000000E+00 0.  1.
          1   -1    0    0  504    0 -0.00000000000E+00 -0.00000000000E+00 -0.64284522456E+03  0.64284522456E+03  0.00000000000E+00 0.  1.
         21    1    1    2  503  502  0.18232542303E+02 -0.98646519333E+02  0.71098454801E+02  0.12295751970E+03  0.00000000000E+00 0. -1.
         21    1    1    2  504  503 -0.75583255277E+02  0.39624657076E+02 -0.25108346994E+03  0.26519021627E+03  0.00000000000E+00 0.  1.
         21    1    1    2  505  501 -0.56468697797E+02 -0.33530008982E+02  0.27172099041E+03  0.27954475843E+03  0.00000000000E+00 0.  1.
          1    1    1    2  501    0  0.11381941077E+03  0.92551871238E+02 -0.33970585587E+03  0.37002807414E+03  0.00000000000E+00 0.  1.
<scales pt_clust_3="126.69658" pt_clust_4="87.44016" pt_clust_5="65.67325" pt_clust_6="14000.00000"></scales>
<clustering>
<clus scale="   65.673">  1  5  2 -1</clus>
<clus scale="   87.440">  2  4  1 -1</clus>
<clus scale="  126.697">  1  3  2 -1</clus>
<clus scale="   65.673">  1  3  2 -1</clus>
</clustering>
</event>
<event>
 6    0  0.2117869E+002  0.1542852E+03  0.7546771E-02  0.1195304E+00
         -2   -1    0    0    0  501 -0.00000000000E+00  0.00000000000E+00  0.80238060151E+02  0.80238060151E+02  0.00000000000E+00 0. -1.
         21   -1    0    0  503  502  0.00000000000E+00 -0.00000000000E+00 -0.11675222439E+04  0.11675222439E+04  0.00000000000E+00 0.  1.
         21    1    1    2  503  505  0.87331354868E+02 -0.14590544975E+03 -0.79974523055E+03  0.81762314032E+03  0.00000000000E+00 0.  1.
         21    1    1    2  504  502 -0.17899365502E+02  0.25386659445E+02 -0.78618895717E+02  0.84532836974E+02  0.00000000000E+00 0.  1.
         21    1    1    2  505  501  0.96190169131E+01 -0.62971728065E+02 -0.98565465044E+02  0.11735891496E+03  0.00000000000E+00 0. -1.
         -2    1    1    2    0  504 -0.79051006279E+02  0.18349051837E+03 -0.11035459241E+03  0.22824541176E+03  0.00000000000E+00 0. -1.
<scales pt_clust_3="14000.00000" pt_clust_4="31.06235" pt_clust_5="60.95408" pt_clust_6="154.28520"></scales>
<clustering>
<clus scale="   31.062">  2  4  1 -1</clus>
<clus scale="   60.954">  1  5  2 -1</clus>
<clus scale="  154.285">  1  6  2 -1</clus>
<clus scale="   31.062">  2  3  1 -1</clus>
</clustering>
</event>
<event>
 6    0  0.2117869E+002  0.7040388E+02  0.7546771E-02  0.1358725E+00
         21   -1    0    0  504  502  0.00000000000E+00  0.00000000000E+00  0.10864308277E+03  0.10864308277E+03  0.00000000000E+00 0. -1.
          2   -1    0    0  503    0 -0.00000000000E+00 -0.00000000000E+00 -0.39153000504E+03  0.39153000504E+03  0.00000000000E+00 0. -1.
         21    1    1    2  503  505  0.24139139107E+02  0.58295910420E+02 -0.10763912572E+03  0.12476895685E+03  0.00000000000E+00 0. -1.
         21    1    1    2  504  501 -0.12529011651E+02 -0.27761787859E+02  0.48205904738E+02  0.57021945334E+02  0.00000000000E+00 0. -1.
         21    1    1    2  505  502  0.63077810588E+02  0.49600854111E+02 -0.13226406430E+02  0.81326457836E+02  0.00000000000E+00 0. -1.
          2    1    1    2  501    0 -0.74687938044E+02 -0.80134976672E+02 -0.21022729486E+03  0.23705572779E+03  0.00000000000E+00 0. -1.
<scales pt_clust_3="58.44254" pt_clust_4="30.45805" pt_clust_5="70.40388" pt_clust_6="14000.00000"></scales>
<clustering>
<clus scale="   30.458">  1  4  2 -1</clus>
<clus scale="   58.443">  2  3  1 -1</clus>
<clus scale="   70.404">  1  5  2 -1</clus>
<clus scale="   30.458">  1  3  2 -1</clus>
</clustering>
</event>
<event>
 6    0  0.2117869E+002  0.9184899E+02  0.7546771E-02  0.1298435E+00
         21   -1    0    0  505  502  0.00000000000E+00  0.00000000000E+00  0.13163899738E+02  0.13163899738E+02  0.00000000000E+00 0.  1.
          1   -1    0    0  504    0 -0.00000000000E+00 -0.00000000000E+00 -0.22132639690E+04  0.22132639690E+04  0.00000000000E+00 0. -1.
         21    1    1    2  503  501  0.74940024202E+02  0.11111791822E+03 -0.84420214126E+03  0.85477508988E+03  0.00000000000E+00 0.  1.
         21    1    1    2  504  502 -0.43389410867E+02 -0.22643352143E+02 -0.77055565916E+03  0.77210840316E+03  0.00000000000E+00 0. -1.
         21    1    1    2  505  503 -0.20524610445E+02 -0.24575840585E+02 -0.44463595774E+02  0.54792726922E+02  0.00000000000E+00 0.  1.
          1    1    1    2  501    0 -0.11026002890E+02 -0.63898725490E+02 -0.54087867308E+03  0.54475164879E+03  0.00000000000E+00 0. -1.
<scales pt_clust_3="91.84899" pt_clust_4="51.82568" pt_clust_5="32.01924" pt_clust_6="14000.00000"></scales>
<clustering>
<clus scale="   32.019">  1  5  2 -1</clus>
<clus scale="   51.826">  2  4  1 -1</clus>
<clus scale="   91.849">  1  3  2 -1</clus>
<clus scale="   32.019">  1  3  2 -1</clus>
</clustering>
</event>
<event>
 6    0  0.2117869E+002  0.1417797E+03  0.7546771E-02  0.1210954E+00
          2   -1    0    0  505    0 -0.00000000000E+00  0.00000000000E+00  0.28192878091E+04  0.28192878091E+04  0.00000000000E+00 0. -1.
         21   -1    0    0  504  502  0.00000000000E+00 -0.00000000000E+00 -0.23373128655E+02  0.23373128655E+02  0.00000000000E+00 0.  1.
         21    1    1    2  503  501  0.15914153877E+02  0.37687597426E+02  0.32324354338E+03  0.32582204289E+03  0.00000000000E+00 0.  1.
         21    1    1    2  504  503  0.16596203780E+02  0.62388416251E+02  0.20068890799E+03  0.21081694963E+03  0.00000000000E+00 0.  1.
         21    1    1    2  505  502  0.56878592968E+02 -0.16079684985E+03  0.45643217679E+03  0.48725879497E+03  0.00000000000E+00 0.  1.
          2    1    1    2  501    0 -0.89388950625E+02  0.60720836175E+02  0.18155500523E+04  0.18187631503E+04  0.00000000000E+00 0. -1.
<scales pt_clust_3="39.03116" pt_clust_4="39.03116" pt_clust_5="133.03169" pt_clust_6="108.06204"></scales>
<clustering>
<clus scale="   39.031">  3  4 -1 -1</clus>
<clus scale="  108.062">  1  6  2 -1</clus>
<clus scale="  133.032">  2  5  1 -1</clus>
<clus scale="  133.032">  2  3  1 -1</clus>
</clustering>
</event>
<event>
 6    0  0.2117869E+002  0.1646706E+03  0.7546771E-02  0.1183522E+00
         21   -1    0    0  501  502  0.00000000000E+00  0.00000000000E+00  0.97631141055E+02  0.97631141055E+02  0.00000000000E+00 0.  1.
          2   -1    0    0  504    0 -0.00000000000E+00 -0.00000000000E+00 -0.15286909800E+04  0.15286909800E+04  0.00000000000E+00 0.  1.
         21    1    1    2  503  505 -0.85314735503E+02 -0.46614504077E+00 -0.10499921439E+03  0.13529100638E+03  0.00000000000E+00 0.  1.
         21    1    1    2  504  503 -0.13084788748E+03  0.54291707035E+02 -0.53349830729E+03  0.55198659675E+03  0.00000000000E+00 0.  1.
         21    1    1    2  505  502  0.33577921529E+02  0.39126358433E+01  0.58032193107E+02  0.67160412226E+02  0.00000000000E+00 0.  1.
          2    1    1    2  501    0  0.18258470145E+03 -0.57738197838E+02 -0.85059451043E+03  0.87188410575E+03  0.00000000000E+00 0.  1.
<scales pt_clust_3="70.80928" pt_clust_4="14000.00000" pt_clust_5="33.80511" pt_clust_6="164.67062"></scales>
<clustering>
<clus scale="   33.805">  1  5  2 -1</clus>
<clus scale="   70.809">  1  3  2 -1</clus>
<clus scale="  164.671">  1  6  2 -1</clus>
<clus scale="   33.805">  1  3  2 -1</clus>
</clustering>
</event>
<event>
 6    0  0.2117869E+002  0.7455687E+02  0.7546771E-02  0.1345249E+00
         21   -1    0    0  503  502  0.00000000000E+00  0.00000000000E+00  0.25937944925E+03  0.25937944925E+03  0.00000000000E+00 0.  1.
          1   -1    0    0  504    0 -0.00000000000E+00 -0.00000000000E+00 -0.64751280876E+03  0.64751280876E+03  0.00000000000E+00 0.  1.
         21    1    1    2  503  501  0.10498462482E+01 -0.55325550051E+02 -0.21438138359E+02  0.59343175192E+02  0.00000000000E+00 0.  1.
         21    1    1    2  504  505 -0.18827009502E+02  0.45393899595E+02 -0.28009307894E+02  0.56564863086E+02  0.00000000000E+00 0.  1.
         21    1    1    2  505  502 -0.66027684252E+02  0.81301491690E+02  0.20823762115E+03  0.23309331715E+03  0.00000000000E+00 0.  1.
          1    1    1    2  501    0  0.83804847506E+02 -0.71369841235E+02 -0.54692353440E+03  0.55789090258E+03  0.00000000000E+00 0.  1.
<scales pt_clust_3="52.29653" pt_clust_4="49.14328" pt_clust_5="14000.00000" pt_clust_6="74.55687"></scales>
<clustering>
<clus scale="   49.143">  2  4  1 -1</clus>
<clus scale="   52.297">  1  3  2 -1</clus>
<clus scale="   74.557">  2  6  1 -1</clus>
<clus scale="   52.297">  1  3  2 -1</clus>
</clustering>
</event>
<event>
 6    0  0.2117869E+002  0.2066584E+03  0.7546771E-02  0.1144240E+00
          2   -1    0    0  505    0 -0.00000000000E+00  0.00000000000E+00  0.70987128450E+03  0.70987128450E+03  0.00000000000E+00 0. -1.
         21   -1    0    0  501  502  0.00000000000E+00 -0.00000000000E+00 -0.43802924252E+03  0.43802924252E+03  0.00000000000E+00 0. -1.
         21    1    1    2  503  504  0.53043956237E+02 -0.20229452451E+02 -0.83346579219E+02  0.10084415852E+03  0.00000000000E+00 0. -1.
         21    1    1    2  504  502  0.49013570136E+02 -0.14301839358E+03 -0.31119019863E+03  0.34597099688E+03  0.00000000000E+00 0. -1.
         21    1    1    2  505  503 -0.79884455513E+01  0.78228600121E+02  0.14994213689E+03  0.16931087843E+03  0.00000000000E+00 0.  1.
          2    1    1    2  501    0 -0.94069080822E+02  0.85019245907E+02  0.51643668293E+03  0.53177449320E+03  0.00000000000E+00 0. -1.
<scales pt_clust_3="50.97152" pt_clust_4="50.97152" pt_clust_5="78.63542" pt_clust_6="189.17918"></scales>
<clustering>
<clus scale="   50.972">  3  4 -1 -1</clus>
<clus scale="   78.635">  1  5  2 -1</clus>
<clus scale="  189.179">  1  6  2 -1</clus>
<clus scale="  206.658">  2  3  1 -1</clus>
</clustering>
</event>
<event>
 6    0  0.2117869E+002  0.8816174E+02  0.7546771E-02  0.1307365E+00
         21   -1    0    0  505  502  0.00000000000E+00  0.00000000000E+00  0.66210829679E+02  0.66210829679E+02  0.00000000000E+00 0. -1.
          1   -1    0    0  504    0 -0.00000000000E+00 -0.00000000000E+00 -0.59511513572E+03  0.59511513572E+03  0.00000000000E+00 0. -1.
         21    1    1    2  503  501  0.48071258124E+02 -0.58344993055E+02 -0.15190258508E+03  0.16967433344E+03  0.00000000000E+00 0. -1.
         21    1    1    2  504  502 -0.54755429774E+02  0.87327478465E+01 -0.28317573608E+02  0.62259962654E+02  0.00000000000E+00 0.  1.
         21    1    1    2  505  503  0.29109561584E+02 -0.50521275376E+02  0.74384930668E+01  0.58780073327E+02  0.00000000000E+00 0. -1.
          1    1    1    2  501    0 -0.22425389934E+02  0.10013352058E+03 -0.35612264042E+03  0.37061159598E+03  0.00000000000E+00 0. -1.
<scales pt_clust_3="88.16174" pt_clust_4="55.44743" pt_clust_5="45.30983" pt_clust_6="14000.00000"></scales>
<clustering>
<clus scale="   55.447">  1  4  2 -1</clus>
<clus scale="   45.310">  1  5  2 -1</clus>
<clus scale="   88.162">  1  3  2 -1</clus>
<clus scale="   55.447">  1  3  2 -1</clus>
</clustering>
</event>
<event>
 6    0  0.2117869E+002  0.9017300E+02  0.7546771E-02  0.1302433E+00
         21   -1    0    0  505  502  0.00000000000E+00  0.00000000000E+00  0.47082615713E+02  0.47082615713E+02  0.00000000000E+00 0.  1.
          1   -1    0    0  504    0 -0.00000000000E+00 -0.00000000000E+00 -0.34082110531E+04  0.34082110531E+04  0.00000000000E+00 0. -1.
         21    1    1    2  503  501  0.17630487277E+02  0.56923294508E+02 -0.16191671387E+03  0.17253439590E+03  0.00000000000E+00 0. -1.
         21    1    1    2  504  502 -0.18343386528E+02 -0.27360442557E+02 -0.11510971191E+04  0.11515683441E+04  0.00000000000E+00 0. -1.
         21    1    1    2  505  503  0.63627201821E+01 -0.10316790863E+03 -0.24496831338E+02  0.10622709788E+03  0.00000000000E+00 0.  1.
          1    1    1    2  501    0 -0.56498209316E+01  0.73605056678E+02 -0.20236177731E+04  0.20249638309E+04  0.00000000000E+00 0. -1.
<scales pt_clust_3="90.17300" pt_clust_4="32.94046" pt_clust_5="14000.00000" pt_clust_6="53.81300"></scales>
<clustering>
<clus scale="   32.940">  2  4  1 -1</clus>
<clus scale="   53.813">  2  6  1 -1</clus>
<clus scale="   90.173">  2  3  1 -1</clus>
<clus scale="   90.173">  1  3  2 -1</clus>
</clustering>
</event>
<event>
 6    0  0.2117869E+002  0.1048543E+03  0.7546771E-02  0.1270407E+00
         -1   -1    0    0    0  501 -0.00000000000E+00  0.00000000000E+00  0.37874845183E+04  0.37874845183E+04  0.00000000000E+00 0.  1.
         21   -1    0    0  503  502  0.00000000000E+00 -0.00000000000E+00 -0.18318747835E+03  0.18318747835E+03  0.00000000000E+00 0.  1.
         21    1    1    2  503  505  0.97902742420E+02 -0.36912524756E+02 -0.16271375864E+03  0.19345089483E+03  0.00000000000E+00 0.  1.
         21    1    1    2  504  502 -0.12562760256E+03  0.32285335616E+01  0.95340476980E+03  0.96165137812E+03  0.00000000000E+00 0. -1.
         21    1    1    2  505  501  0.40064488063E+02  0.96520100447E+00  0.47076736659E+03  0.47247011362E+03  0.00000000000E+00 0. -1.
         -1    1    1    2    0  504 -0.12339627920E+02  0.32718790189E+02  0.23428386622E+04  0.23430996101E+04  0.00000000000E+00 0.  1.
<scales pt_clust_3="14000.00000" pt_clust_4="104.85433" pt_clust_5="37.87135" pt_clust_6="34.96835"></scales>
<clustering>
<clus scale="   34.968">  1  6  2 -1</clus>
<clus scale="   37.871">  1  5  2 -1</clus>
<clus scale="  104.854">  1  4  2 -1</clus>
<clus scale="  104.854">  2  3  1 -1</clus>
</clustering>
</event>
<event>
 6    0  0.2117869E+002  0.3044708E+03  0.7546771E-02  0.1083027E+00
         21   -1    0    0  501  502  0.00000000000E+00  0.00000000000E+00  0.14584528831E+03  0.14584528831E+03  0.00000000000E+00 0. -1.
          2   -1    0    0  505    0 -0.00000000000E+00 -0.00000000000E+00 -0.72923477061E+03  0.72923477061E+03  0.00000000000E+00 0. -1.
         21    1    1    2  503  504 -0.25284401174E+03  0.49771674118E+02 -0.19451941268E+03  0.32287012207E+03  0.00000000000E+00 0. -1.
         21    1    1    2  504  502 -0.52049644777E+02 -0.28584816206E+02 -0.50730120727E+02  0.78101231668E+02  0.00000000000E+00 0.  1.
         21    1    1    2  505  503  0.28174876044E+02  0.24729809224E+02 -0.97748221412E+02  0.10469050527E+03  0.00000000000E+00 0. -1.
          2    1    1    2  501    0  0.27671878047E+03 -0.45916667135E+02 -0.24039172748E+03  0.36941819991E+03  0.00000000000E+00 0. -1.
<scales pt_clust_3="40.20311" pt_clust_4="40.20311" pt_clust_5="37.48849" pt_clust_6="292.37101"></scales>
<clustering>
<clus scale="   37.488">  2  5  1 -1</clus>
<clus scale="   40.203">  3  4 -1 -1</clus>
<clus scale="  292.371">  1  6  2 -1</clus>
<clus scale="  292.371">  1  3  2 -1</clus>
</clustering>
</event>
<event>
 6    0  0.2117869E+002  0.2947794E+03  0.7546771E-02  0.1087880E+00
         21   -1    0    0  503  502  0.00000000000E+00  0.00000000000E+00  0.13419251131E+03  0.13419251131E+03  0.00000000000E+00 0. -1.
          1   -1    0    0  504    0 -0.00000000000E+00 -0.00000000000E+00 -0.45402004652E+04  0.45402004652E+04  0.00000000000E+00 0. -1.
         21    1    1    2  503  501 -0.15877194219E+03  0.25631646043E+03 -0.93636259858E+02  0.31571253804E+03  0.00000000000E+00 0. -1.
         21    1    1    2  504  505  0.22487671490E+02 -0.25441221721E+02 -0.15719923097E+04  0.15723589835E+04  0.00000000000E+00 0. -1.
         21    1    1    2  505  502 -0.22114743267E+02 -0.20694560563E+02  0.29186652529E+01  0.30427706346E+02  0.00000000000E+00 0.  1.
          1    1    1    2  501    0  0.15839901396E+03 -0.21018067815E+03 -0.27432980496E+04  0.27558937487E+04  0.00000000000E+00 0. -1.
<scales pt_clust_3="14000.00000" pt_clust_4="33.95651" pt_clust_5="30.28740" pt_clust_6="294.77936"></scales>
<clustering>
<clus scale="   30.287">  1  5  2 -1</clus>
<clus scale="   33.957">  2  4  1 -1</clus>
<clus scale="  294.779">  2  6  1 -1</clus>
<clus scale="   30.287">  1  3  2 -1</clus>
</clustering>
</event>
<event>
 6    0  0.2117869E+002  0.1351826E+03  0.7546771E-02  0.1219962E+00
         21   -1    0    0  504  502  0.00000000000E+00  0.00000000000E+00  0.25473793167E+03  0.25473793167E+03  0.00000000000E+00 0. -1.
          2   -1    0    0  503    0 -0.00000000000E+00 -0.00000000000E+00 -0.89481470711E+03  0.89481470711E+03  0.00000000000E+00 0. -1.
         21    1    1    2  503  505 -0.29773712458E+02  0.76965992710E+02 -0.10773806634E+03  0.13571193362E+03  0.00000000000E+00 0. -1.
         21    1    1    2  504  501  0.22770314387E+02  0.23202667738E+02  0.25788638358E+01  0.32611371424E+02  0.00000000000E+00 0. -1.
         21    1    1    2  505  502 -0.38355785973E+02  0.10981924079E+03  0.19130626592E+03  0.22389622450E+03  0.00000000000E+00 0. -1.
          2    1    1    2  501    0  0.45359184045E+02 -0.20998790123E+03 -0.72622383885E+03  0.75733310925E+03  0.00000000000E+00 0. -1.
<scales pt_clust_3="83.33427" pt_clust_4="32.50924" pt_clust_5="135.18264" pt_clust_6="14000.00000"></scales>
<clustering>
<clus scale="   32.509">  1  4  2 -1</clus>
<clus scale="   83.334">  2  3  1 -1</clus>
<clus scale="  135.183">  1  5  2 -1</clus>
<clus scale="   32.509">  1  3  2 -1</clus>
</clustering>
</event>
<event>
 6    0  0.2117869E+002  0.6519812E+02  0.7546771E-02  0.1377228E+00
          2   -1    0    0  504    0 -0.00000000000E+00  0.00000000000E+00  0.17643252411E+04  0.17643252411E+04  0.00000000000E+00 0.  1.
         21   -1    0    0  503  502  0.00000000000E+00 -0.00000000000E+00 -0.28058587212E+02  0.28058587212E+02  0.00000000000E+00 0.  1.
         21    1    1    2  503  501  0.31339883591E+02  0.21870170469E+02  0.80805081878E+02  0.89386542148E+02  0.00000000000E+00 0.  1.
         21    1    1    2  504  505 -0.29840340835E+02  0.41263385836E+02  0.60998770125E+03  0.61210955607E+03  0.00000000000E+00 0.  1.
         21    1    1    2  505  502 -0.65715412059E+02  0.83840798404E+01  0.33274440388E+02  0.74134988770E+02  0.00000000000E+00 0.  1.
          2    1    1    2  501    0  0.64215869303E+02 -0.71517636146E+02  0.10121994304E+04  0.10167527413E+04  0.00000000000E+00 0.  1.
<scales pt_clust_3="38.21639" pt_clust_4="14000.00000" pt_clust_5="47.35539" pt_clust_6="65.19812"></scales>
<clustering>
<clus scale="   38.216">  2  3  1 -1</clus>
<clus scale="   47.355">  2  5  1 -1</clus>
<clus scale="   65.198">  2  6  1 -1</clus>
<clus scale="   38.216">  2  3  1 -1</clus>
</clustering>
</event>
<event>
 6    0  0.2117869E+002  0.1208315E+03  0.7546771E-02  0.1241732E+00
         21   -1    0    0  501  502  0.00000000000E+00  0.00000000000E+00  0.37137134687E+03  0.37137134687E+03  0.00000000000E+00 0. -1.
          1   -1    0    0  504    0 -0.00000000000E+00 -0.00000000000E+00 -0.90313799360E+03  0.90313799360E+03  0.00000000000E+00 0. -1.
         21    1    1    2  503  502  0.26088657111E+02 -0.16551077859E+02  0.27156521901E+03  0.27331707664E+03  0.00000000000E+00 0. -1.
         21    1    1    2  504  505 -0.38715766134E+02 -0.36392346925E+01 -0.23395517308E+03  0.23716487427E+03  0.00000000000E+00 0. -1.
         21    1    1    2  505  503  0.35934143727E+02  0.12181186032E+03  0.49591002623E+02  0.13634023449E+03  0.00000000000E+00 0. -1.
          1    1    1    2  501    0 -0.23307034704E+02 -0.10162154777E+03 -0.61896769528E+03  0.62768715507E+03  0.00000000000E+00 0. -1.
<scales pt_clust_3="30.89589" pt_clust_4="38.49143" pt_clust_5="120.83147" pt_clust_6="14000.00000"></scales>
<clustering>
<clus scale="   30.896">  1  3  2 -1</clus>
<clus scale="   38.491">  2  4  1 -1</clus>
<clus scale="  120.831">  1  5  2 -1</clus>
<clus scale="   30.896">  1  3  2 -1</clus>
</clustering>
</event>
<event>
 6    0  0.2117869E+002  0.6705564E+02  0.7546771E-02  0.1370402E+00
          2   -1    0    0  504    0 -0.00000000000E+00  0.00000000000E+00  0.10616169522E+04  0.10616169522E+04  0.00000000000E+00 0.  1.
         21   -1    0    0  503  502  0.00000000000E+00 -0.00000000000E+00 -0.62736047196E+03  0.62736047196E+03  0.00000000000E+00 0. -1.
         21    1    1    2  503  501 -0.21425281969E+02  0.99023299685E+02 -0.23776090867E+03  0.25844710538E+03  0.00000000000E+00 0. -1.
         21    1    1    2  504  505 -0.60494311901E+02 -0.59311213969E+02  0.93819460637E+03  0.94201194329E+03  0.00000000000E+00 0.  1.
         21    1    1    2  505  502  0.49988494552E+02 -0.38777107828E+02 -0.37232816557E+03  0.37766489982E+03  0.00000000000E+00 0. -1.
          2    1    1    2  501    0  0.31931099318E+02 -0.93497788729E+00  0.10615094812E+03  0.11085347570E+03  0.00000000000E+00 0.  1.
<scales pt_clust_3="67.05564" pt_clust_4="14000.00000" pt_clust_5="63.33768" pt_clust_6="31.94478"></scales>
<clustering>
<clus scale="   31.945">  1  6  2 -1</clus>
<clus scale="   63.338">  2  5  1 -1</clus>
<clus scale="   67.056">  2  3  1 -1</clus>
<clus scale="   63.338">  2  3  1 -1</clus>
</clustering>
</event>
<event>
 6    0  0.2117869E+002  0.1373682E+03  0.7546771E-02  0.1216915E+00
         21   -1    0    0  503  502  0.00000000000E+00  0.00000000000E+00  0.23057346261E+03  0.23057346261E+03  0.00000000000E+00 0.  1.
          2   -1    0    0  502    0 -0.00000000000E+00 -0.00000000000E+00 -0.11670212307E+03  0.11670212307E+03  0.00000000000E+00 0.  1.
         21    1    1    2  503  505  0.36019571630E+02  0.25121566796E+02  0.49446567334E+02  0.66132183389E+02  0.00000000000E+00 0.  1.
         21    1    1    2  504  501  0.46933999836E+02 -0.28938227711E+02  0.13035161927E+02  0.56658069241E+02  0.00000000000E+00 0.  1.
         21    1    1    2  505  504  0.32816837666E+02 -0.70005989209E+02  0.39075597206E+02  0.86629588805E+02  0.00000000000E+00 0.  1.
          2    1    1    2  501    0 -0.11577040913E+03  0.73822650124E+02  0.12314013070E+02  0.13785574424E+03  0.00000000000E+00 0.  1.
<scales pt_clust_3="43.91472" pt_clust_4="34.46557" pt_clust_5="34.46557" pt_clust_6="131.16533"></scales>
<clustering>
<clus scale="   34.466">  4  5 -1 -1</clus>
<clus scale="   43.915">  1  3  2 -1</clus>
<clus scale="  131.165">  2  6  1 -1</clus>
<clus scale="   43.915">  1  3  2 -1</clus>
</clustering>
</event>
<event>
 6    0  0.2117869E+002  0.1899484E+03  0.7546771E-02  0.1158508E+00
          1   -1    0    0  505    0 -0.00000000000E+00  0.00000000000E+00  0.43190233576E+03  0.43190233576E+03  0.00000000000E+00 0.  1.
         21   -1    0    0  504  502  0.00000000000E+00 -0.00000000000E+00 -0.10673304511E+04  0.10673304511E+04  0.00000000000E+00 0. -1.
         21    1    1    2  503  501  0.27988074621E+02  0.53706466262E+02 -0.28883100431E+03  0.29511195484E+03  0.00000000000E+00 0. -1.
         21    1    1    2  504  503  0.12715572732E+03  0.32643754698E+02 -0.72588107211E+03  0.73765677965E+03  0.00000000000E+00 0. -1.
         21    1    1    2  505  502 -0.22412698003E+02 -0.34314291824E+02  0.30107981393E+03  0.30385663398E+03  0.00000000000E+00 0.  1.
          1    1    1    2  501    0 -0.13273110394E+03 -0.52035929136E+02  0.78204147171E+02  0.16260741837E+03  0.00000000000E+00 0.  1.
<scales pt_clust_3="49.96755" pt_clust_4="49.96755" pt_clust_5="40.98536" pt_clust_6="175.03054"></scales>
<clustering>
<clus scale="   40.985">  1  5  2 -1</clus>
<clus scale="   49.968">  3  4 -1 -1</clus>
<clus scale="  175.031">  1  6  2 -1</clus>
<clus scale="  189.948">  2  3  1 -1</clus>
</clustering>
</event>
<event>
 6    0  0.2117869E+002  0.1036854E+03  0.7546771E-02  0.1272732E+00
          2   -1    0    0  504    0 -0.00000000000E+00  0.00000000000E+00  0.14103862525E+04  0.14103862525E+04  0.00000000000E+00 0. -1.
         21   -1    0    0  501  502  0.00000000000E+00 -0.00000000000E+00 -0.26265015234E+02  0.26265015234E+02  0.00000000000E+00 0.  1.
         21    1    1    2  503  502  0.79360092114E+02 -0.18425706677E+02  0.17862023343E+03  0.19632299579E+03  0.00000000000E+00 0.  1.
         21    1    1    2  504  505 -0.21014465034E+02  0.25212180623E+02  0.38983515527E+03  0.39121440423E+03  0.00000000000E+00 0. -1.
         21    1    1    2  505  503  0.41577120918E+02 -0.93453586489E+02  0.40240183617E+03  0.41519810641E+03  0.00000000000E+00 0.  1.
          2    1    1    2  501    0 -0.99922747999E+02  0.86667112544E+02  0.41326401238E+03  0.43391576128E+03  0.00000000000E+00 0. -1.
<scales pt_clust_3="76.74649" pt_clust_4="32.82167" pt_clust_5="14000.00000" pt_clust_6="103.68540"></scales>
<clustering>
<clus scale="   32.822">  1  4  2 -1</clus>
<clus scale="   76.746">  2  3  1 -1</clus>
<clus scale="  103.685">  2  6  1 -1</clus>
<clus scale="   76.746">  2  3  1 -1</clus>
</clustering>
</event>
<event>
 6    0  0.2117869E+002  0.1008990E+03  0.7546771E-02  0.1278417E+00
          2   -1    0    0  504    0 -0.00000000000E+00  0.00000000000E+00  0.45723946720E+03  0.45723946720E+03  0.00000000000E+00 0.  1.
         21   -1    0    0  505  502  0.00000000000E+00 -0.00000000000E+00 -0.84166306013E+03  0.84166306013E+03  0.00000000000E+00 0.  1.
         21    1    1    2  503  502  0.60275891700E+02  0.37967404048E+02 -0.29716575068E+03  0.30558499680E+03  0.00000000000E+00 0.  1.
         21    1    1    2  504  503 -0.11754740983E+02 -0.90080781662E+02  0.43031778740E+02  0.10052091893E+03  0.00000000000E+00 0. -1.
         21    1    1    2  505  501 -0.14241791349E+02 -0.47610868978E+02 -0.50300342792E+03  0.50545234391E+03  0.00000000000E+00 0.  1.
          2    1    1    2  501    0 -0.34279359368E+02  0.99724246592E+02  0.37271380693E+03  0.38734426770E+03  0.00000000000E+00 0.  1.
<scales pt_clust_3="47.77374" pt_clust_4="100.89900" pt_clust_5="49.69531" pt_clust_6="14000.00000"></scales>
<clustering>
<clus scale="   49.695">  2  5  1 -1</clus>
<clus scale="   47.774">  2  3  1 -1</clus>
<clus scale="  100.899">  2  4  1 -1</clus>
<clus scale="   49.695">  2  3  1 -1</clus>
</clustering>
</event>
<event>
 6    0  0.2117869E+002  0.8394918E+02  0.7546771E-02  0.1318204E+00
         21   -1    0    0  503  502  0.00000000000E+00  0.00000000000E+00  0.86355601429E+03  0.86355601429E+03  0.00000000000E+00 0.  1.
         -1   -1    0    0    0  501 -0.00000000000E+00 -0.00000000000E+00 -0.10437533112E+04  0.10437533112E+04  0.00000000000E+00 0. -1.
         21    1    1    2  503  505 -0.36827417002E+02  0.14848834306E+02  0.53817842719E+03  0.53964133090E+03  0.00000000000E+00 0.  1.
         21    1    1    2  504  502  0.58517996837E+02  0.66345011739E+02  0.30268377708E+03  0.31534661159E+03  0.00000000000E+00 0.  1.
         21    1    1    2  505  501 -0.20293023045E+02  0.22634430364E+02 -0.48062651175E+01  0.30777011008E+02  0.00000000000E+00 0. -1.
         -1    1    1    2    0  504 -0.13975567904E+01 -0.10382827641E+03 -0.10162532360E+04  0.10215443719E+04  0.00000000000E+00 0. -1.
<scales pt_clust_3="39.72772" pt_clust_4="83.94918" pt_clust_5="30.39941" pt_clust_6="14000.00000"></scales>
<clustering>
<clus scale="   30.399">  2  5  1 -1</clus>
<clus scale="   39.728">  1  3  2 -1</clus>
<clus scale="   83.949">  1  4  2 -1</clus>
<clus scale="   39.728">  1  3  2 -1</clus>
</clustering>
</event>
<event>
 6    0  0.2117869E+002  0.6587901E+02  0.7546771E-02  0.1374695E+00
          1   -1    0    0  505    0 -0.00000000000E+00  0.00000000000E+00  0.15644571205E+04  0.15644571205E+04  0.00000000000E+00 0.  1.
         21   -1    0    0  504  502  0.00000000000E+00 -0.00000000000E+00 -0.16805793883E+04  0.16805793883E+04  0.00000000000E+00 0. -1.
         21    1    1    2  503  502 -0.99956312459E+02  0.21539919508E+02 -0.19347121610E+03  0.21882948611E+03  0.00000000000E+00 0. -1.
         21    1    1    2  504  501  0.63644486454E+02 -0.57810334085E+01 -0.14558093757E+04  0.14572113709E+04  0.00000000000E+00 0. -1.
         21    1    1    2  505  503  0.35973125710E+02  0.46881229747E+02  0.33298877704E+02  0.67828686647E+02  0.00000000000E+00 0.  1.
          1    1    1    2  501    0  0.33870029480E+00 -0.62640115847E+02  0.14998594463E+04  0.15011669652E+04  0.00000000000E+00 0.  1.
<scales pt_clust_3="65.87901" pt_clust_4="14000.00000" pt_clust_5="59.09243" pt_clust_6="39.46053"></scales>
<clustering>
<clus scale="   59.092">  1  5  2 -1</clus>
<clus scale="   39.461">  1  6  2 -1</clus>
<clus scale="   65.879">  1  3  2 -1</clus>
<clus scale="   65.879">  2  3  1 -1</clus>
</clustering>
</event>
<event>
 6    0  0.2117869E+002  0.8100288E+02  0.7546771E-02  0.1326229E+00
         21   -1    0    0  504  502  0.00000000000E+00  0.00000000000E+00  0.25437217667E+03  0.25437217667E+03  0.00000000000E+00 0. -1.
          2   -1    0    0  505    0 -0.00000000000E+00 -0.00000000000E+00 -0.71209650906E+03  0.71209650906E+03  0.00000000000E+00 0.  1.
         21    1    1    2  503  502  0.19324507298E+02  0.23122952736E+02  0.14846162189E+03  0.15148914384E+03  0.00000000000E+00 0. -1.
         21    1    1    2  504  501 -0.67057996217E+01 -0.10391896608E+03  0.64376366493E+02  0.12242726748E+03  0.00000000000E+00 0.  1.
         21    1    1    2  505  503  0.36278990017E+02  0.16167883208E+02 -0.38499940957E+02  0.55315558551E+02  0.00000000000E+00 0.  1.
          2    1    1    2  501    0 -0.48897697693E+02  0.64628130136E+02 -0.63206237983E+03  0.63723671586E+03  0.00000000000E+00 0.  1.
<scales pt_clust_3="30.13482" pt_clust_4="81.00288" pt_clust_5="41.91179" pt_clust_6="14000.00000"></scales>
<clustering>
<clus scale="   30.135">  1  3  2 -1</clus>
<clus scale="   41.912">  1  5  2 -1</clus>
<clus scale="   81.003">  1  4  2 -1</clus>
<clus scale="   30.135">  1  3  2 -1</clus>
</clustering>
</event>
<event>
 6    0  0.2117869E+002  0.1232632E+03  0.7546771E-02  0.1237809E+00
         21   -1    0    0  505  502  0.00000000000E+00  0.00000000000E+00  0.27495560698E+02  0.27495560698E+02  0.00000000000E+00 0.  1.
          2   -1    0    0  503    0 -0.00000000000E+00 -0.00000000000E+00 -0.20832750290E+04  0.20832750290E+04  0.00000000000E+00 0. -1.
         21    1    1    2  503  502  0.33941446631E+02  0.40119308695E+02 -0.99769788495E+03  0.99908090281E+03  0.00000000000E+00 0. -1.
         21    1    1    2  504  501 -0.30792655780E+02  0.38482279644E+02 -0.84047562377E+02  0.97432367507E+02  0.00000000000E+00 0.  1.
         21    1    1    2  505  504 -0.71045126457E+02  0.45266674107E+01 -0.57638174505E+02  0.91597270000E+02  0.00000000000E+00 0.  1.
          2    1    1    2  501    0  0.67896335606E+02 -0.83128255749E+02 -0.91639584646E+03  0.92266004937E+03  0.00000000000E+00 0. -1.
<scales pt_clust_3="52.55074" pt_clust_4="48.77766" pt_clust_5="48.77766" pt_clust_6="108.43050"></scales>
<clustering>
<clus scale="   48.778">  4  5 -1 -1</clus>
<clus scale="   52.551">  2  3  1 -1</clus>
<clus scale="  108.431">  2  6  1 -1</clus>
<clus scale="  123.263">  1  3  2 -1</clus>
</clustering>
</event>
<event>
 6    0  0.2117869E+002  0.8950383E+02  0.7546771E-02  0.1304058E+00
          2   -1    0    0  504    0 -0.00000000000E+00  0.00000000000E+00  0.22108591739E+04  0.22108591739E+04  0.00000000000E+00 0.  1.
         21   -1    0    0  505  502  0.00000000000E+00 -0.00000000000E+00 -0.47359725226E+02  0.47359725226E+02  0.00000000000E+00 0. -1.
         21    1    1    2  503  501 -0.40491123923E+02 -0.53050215189E+02  0.54705448128E+02  0.86293351442E+02  0.00000000000E+00 0. -1.
         21    1    1    2  504  502 -0.77812620386E+01 -0.39782502894E+02  0.63470993256E+03  0.63600306137E+03  0.00000000000E+00 0. -1.
         21    1    1    2  505  503  0.13593615853E+02 -0.33638976159E+02 -0.16303489376E+02  0.39776511596E+02  0.00000000000E+00 0. -1.
          2    1    1    2  501    0  0.34678770109E+02  0.12647169424E+03  0.14903875574E+04  0.14961459747E+04  0.00000000000E+00 0.  1.
<scales pt_clust_3="89.50383" pt_clust_4="41.55915" pt_clust_5="36.28177" pt_clust_6="14000.00000"></scales>
<clustering>
<clus scale="   36.282">  2  5  1 -1</clus>
<clus scale="   41.559">  1  4  2 -1</clus>
<clus scale="   89.504">  2  3  1 -1</clus>
<clus scale="   36.282">  2  3  1 -1</clus>
</clustering>
</event>
<event>
 6    0  0.2117869E+002  0.1591970E+03  0.7546771E-02  0.1189606E+00
          2   -1    0    0  504    0 -0.00000000000E+00  0.00000000000E+00  0.11987734674E+04  0.11987734674E+04  0.00000000000E+00 0. -1.
         21   -1    0    0  501  502  0.00000000000E+00 -0.00000000000E+00 -0.34732860858E+02  0.34732860858E+02  0.00000000000E+00 0. -1.
         21    1    1    2  503  502 -0.42513978043E+02 -0.18047654183E+02  0.39340118221E+02  0.60669605671E+02  0.00000000000E+00 0. -1.
         21    1    1    2  504  505 -0.11128466783E+02  0.57359645556E+02  0.24620511084E+03  0.25304333288E+03  0.00000000000E+00 0. -1.
         21    1    1    2  505  503 -0.97335503567E+02 -0.45181514701E+02  0.22814360324E+03  0.25212114791E+03  0.00000000000E+00 0. -1.
          2    1    1    2  501    0  0.15097794839E+03  0.58695233279E+01  0.65035177426E+03  0.66767224182E+03  0.00000000000E+00 0. -1.
<scales pt_clust_3="34.30756" pt_clust_4="58.42920" pt_clust_5="34.30756" pt_clust_6="150.36286"></scales>
<clustering>
<clus scale="   34.308">  3  5 -1 -1</clus>
<clus scale="   58.429">  1  4  2 -1</clus>
<clus scale="  150.363">  1  6  2 -1</clus>
<clus scale="  159.197">  2  3  1 -1</clus>
</clustering>
</event>
<event>
 6    0  0.2117869E+002  0.8098434E+02  0.7546771E-02  0.1326281E+00
          1   -1    0    0  505    0 -0.00000000000E+00  0.00000000000E+00  0.61143878369E+03  0.61143878369E+03  0.00000000000E+00 0.  1.
         21   -1    0    0  504  502  0.00000000000E+00 -0.00000000000E+00 -0.52537617930E+03  0.52537617930E+03  0.00000000000E+00 0.  1.
         21    1    1    2  503  502  0.43048494632E+02 -0.86398593554E+02  0.28381067856E+03  0.29977723583E+03  0.00000000000E+00 0.  1.
         21    1    1    2  504  501 -0.50785944684E+02  0.48194389004E+01 -0.50559943524E+03  0.50816653578E+03  0.00000000000E+00 0.  1.
         21    1    1    2  505  503 -0.29685450420E+02  0.55497290226E+01  0.98292903132E+02  0.10282762404E+03  0.00000000000E+00 0.  1.
          1    1    1    2  501    0  0.37422900471E+02  0.76029425631E+02  0.20955845795E+03  0.22604356735E+03  0.00000000000E+00 0.  1.
<scales pt_clust_3="80.98434" pt_clust_4="51.08967" pt_clust_5="30.19976" pt_clust_6="14000.00000"></scales>
<clustering>
<clus scale="   30.200">  1  5  2 -1</clus>
<clus scale="   51.090">  2  4  1 -1</clus>
<clus scale="   80.984">  1  3  2 -1</clus>
<clus scale="   51.090">  2  3  1 -1</clus>
</clustering>
</event>
<event>
 6    0  0.2117869E+002  0.1385720E+03  0.7546771E-02  0.1215263E+00
         21   -1    0    0  505  502  0.00000000000E+00  0.00000000000E+00  0.12038282941E+04  0.12038282941E+04  0.00000000000E+00 0.  1.
         -4   -1    0    0    0  501 -0.00000000000E+00 -0.00000000000E+00 -0.13052640615E+03  0.13052640615E+03  0.00000000000E+00 0.  1.
         21    1    1    2  503  501  0.30913858037E+02 -0.44591504473E+01 -0.22715671229E+02  0.38620620927E+02  0.00000000000E+00 0. -1.
         21    1    1    2  504  503  0.66835537538E+02  0.92740775666E+02  0.11651619236E+03  0.16322948150E+03  0.00000000000E+00 0.  1.
         21    1    1    2  505  504 -0.71605585463E+02 -0.12470425240E+03  0.10440536100E+04  0.10539100773E+04  0.00000000000E+00 0.  1.
         -4    1    1    2    0  502 -0.26143810111E+02  0.36422627180E+02 -0.64552243116E+02  0.78594520605E+02  0.00000000000E+00 0.  1.
<scales pt_clust_3="31.23381" pt_clust_4="138.57198" pt_clust_5="14000.00000" pt_clust_6="33.46480"></scales>
<clustering>
<clus scale="   31.234">  2  3  1 -1</clus>
<clus scale="   33.465">  2  6  1 -1</clus>
<clus scale="  138.572">  2  4  1 -1</clus>
<clus scale="  138.572">  1  3  2 -1</clus>
</clustering>
</event>
<event>
 6    0  0.2117869E+002  0.1408091E+03  0.7546771E-02  0.1212244E+00
         21   -1    0    0  505  502  0.00000000000E+00  0.00000000000E+00  0.44096474583E+03  0.44096474583E+03  0.00000000000E+00 0.  1.
          2   -1    0    0  504    0 -0.00000000000E+00 -0.00000000000E+00 -0.20876257228E+04  0.20876257228E+04  0.00000000000E+00 0.  1.
         21    1    1    2  503  501 -0.85369151299E+02 -0.81996220535E+02 -0.51811116720E+03  0.53146067941E+03  0.00000000000E+00 0.  1.
         21    1    1    2  504  502  0.47596165445E+02  0.48058477498E+01 -0.48326500026E+02  0.67999571634E+02  0.00000000000E+00 0. -1.
         21    1    1    2  505  503 -0.81378016985E+02 -0.17998775360E+02  0.41644950926E+03  0.42470758331E+03  0.00000000000E+00 0.  1.
          2    1    1    2  501    0  0.11915100284E+03  0.95189148146E+02 -0.14966728190E+04  0.15044226343E+04  0.00000000000E+00 0.  1.
<scales pt_clust_3="140.80908" pt_clust_4="47.83818" pt_clust_5="83.24803" pt_clust_6="14000.00000"></scales>
<clustering>
<clus scale="   47.838">  2  4  1 -1</clus>
<clus scale="   83.248">  1  5  2 -1</clus>
<clus scale="  140.809">  1  3  2 -1</clus>
<clus scale="   83.248">  1  3  2 -1</clus>
</clustering>
</event>
<event>
 6    0  0.2117869E+002  0.9445861E+02  0.7546771E-02  0.1292400E+00
         21   -1    0    0  501  502  0.00000000000E+00  0.00000000000E+00  0.35803691743E+03  0.35803691743E+03  0.00000000000E+00 0. -1.
          2   -1    0    0  504    0 -0.00000000000E+00 -0.00000000000E+00 -0.95979199690E+03  0.95979199690E+03  0.00000000000E+00 0.  1.
         21    1    1    2  503  502 -0.52464937350E+02  0.14631242686E+02  0.27582782135E+03  0.28115410355E+03  0.00000000000E+00 0. -1.
         21    1    1    2  504  505  0.40170480734E+02 -0.18398038353E+02 -0.70112396358E+02  0.82872814968E+02  0.00000000000E+00 0. -1.
         21    1    1    2  505  503  0.73062138118E+02  0.77976563719E+02  0.29895829325E+02  0.11096026823E+03  0.00000000000E+00 0. -1.
          2    1    1    2  501    0 -0.60767681502E+02 -0.74209768052E+02 -0.83736633378E+03  0.84284172757E+03  0.00000000000E+00 0.  1.
<scales pt_clust_3="54.33534" pt_clust_4="44.18320" pt_clust_5="94.45861" pt_clust_6="14000.00000"></scales>
<clustering>
<clus scale="   44.183">  2  4  1 -1</clus>
<clus scale="   54.335">  1  3  2 -1</clus>
<clus scale="   94.459">  1  5  2 -1</clus>
<clus scale="   54.335">  1  3  2 -1</clus>
</clustering>
</event>
<event>
 6    0  0.2117869E+002  0.1999252E+03  0.7546771E-02  0.1149802E+00
         21   -1    0    0  503  502  0.00000000000E+00  0.00000000000E+00  0.50852616168E+02  0.50852616168E+02  0.00000000000E+00 0. -1.
          1   -1    0    0  505    0 -0.00000000000E+00 -0.00000000000E+00 -0.51896902997E+04  0.51896902997E+04  0.00000000000E+00 0.  1.
         21    1    1    2  503  504 -0.56977598132E+02  0.51084812837E+02 -0.10800403139E+03  0.13236682208E+03  0.00000000000E+00 0. -1.
         21    1    1    2  504  501 -0.31586590652E+02 -0.73579418225E+02 -0.28870422922E+03  0.29960269603E+03  0.00000000000E+00 0. -1.
         21    1    1    2  505  502  0.24818238494E+03 -0.90930675144E+02 -0.53345546615E+03  0.59534663705E+03  0.00000000000E+00 0. -1.
          1    1    1    2  501    0 -0.15961819616E+03  0.11342528053E+03 -0.42086739568E+04  0.42132267608E+04  0.00000000000E+00 0.  1.
<scales pt_clust_3="76.52519" pt_clust_4="77.30338" pt_clust_5="199.92522" pt_clust_6="14000.00000"></scales>
<clustering>
<clus scale="   76.525">  1  3  2 -1</clus>
<clus scale="   77.303">  1  4  2 -1</clus>
<clus scale="  199.925">  1  5  2 -1</clus>
<clus scale="   76.525">  1  3  2 -1</clus>
</clustering>
</event>
<event>
 6    0  0.2117869E+002  0.7077751E+02  0.7546771E-02  0.1357469E+00
         21   -1    0    0  505  502  0.00000000000E+00  0.00000000000E+00  0.26076892021E+03  0.26076892021E+03  0.00000000000E+00 0.  1.
          2   -1    0    0  503    0 -0.00000000000E+00 -0.00000000000E+00 -0.70101624772E+03  0.70101624772E+03  0.00000000000E+00 0.  1.
         21    1    1    2  503  502  0.33363922123E+02  0.33267979423E+02 -0.63954022128E+03  0.64127342405E+03  0.00000000000E+00 0.  1.
         21    1    1    2  504  501  0.39906098791E+02 -0.57199665641E+02  0.68385187700E+02  0.97677184474E+02  0.00000000000E+00 0.  1.
         21    1    1    2  505  504 -0.21033608446E+02  0.69681922074E+02  0.13489701901E+03  0.15328140358E+03  0.00000000000E+00 0.  1.
          2    1    1    2  501    0 -0.52236412469E+02 -0.45750235857E+02 -0.39893129397E+01  0.69553155833E+02  0.00000000000E+00 0.  1.
<scales pt_clust_3="47.11592" pt_clust_4="70.77751" pt_clust_5="14000.00000" pt_clust_6="40.95522"></scales>
<clustering>
<clus scale="   47.116">  2  3  1 -1</clus>
<clus scale="   40.955">  2  6  1 -1</clus>
<clus scale="   70.778">  2  4  1 -1</clus>
<clus scale="   70.778">  1  3  2 -1</clus>
</clustering>
</event>
<event>
 6    0  0.2117869E+002  0.1240025E+03  0.7546771E-02  0.1236636E+00
          2   -1    0    0  503    0 -0.00000000000E+00  0.00000000000E+00  0.41011365950E+03  0.41011365950E+03  0.00000000000E+00 0. -1.
         21   -1    0    0  504  502  0.00000000000E+00 -0.00000000000E+00 -0.15490182726E+03  0.15490182726E+03  0.00000000000E+00 0.  1.
         21    1    1    2  503  505 -0.27448794266E+02  0.33907126145E+02  0.44059783084E+02  0.62003177302E+02  0.00000000000E+00 0. -1.
         21    1    1    2  504  501  0.10082570517E+03 -0.13026018594E+03 -0.89274463702E+01  0.16496435422E+03  0.00000000000E+00 0.  1.
         21    1    1    2  505  502 -0.51789218383E+02  0.12440931398E+02 -0.38250719570E+02  0.65574518392E+02  0.00000000000E+00 0.  1.
          2    1    1    2  501    0 -0.21587692521E+02  0.83912128397E+02  0.25833021509E+03  0.27247343685E+03  0.00000000000E+00 0. -1.
<scales pt_clust_3="43.62487" pt_clust_4="14000.00000" pt_clust_5="54.59616" pt_clust_6="124.00252"></scales>
<clustering>
<clus scale="   43.625">  1  3  2 -1</clus>
<clus scale="   54.596">  2  5  1 -1</clus>
<clus scale="  124.003">  1  6  2 -1</clus>
<clus scale="   54.596">  2  3  1 -1</clus>
</clustering>
</event>
<event>
 6    0  0.2117869E+002  0.7418446E+02  0.7546771E-02  0.1346415E+00
          4   -1    0    0  505    0 -0.00000000000E+00  0.00000000000E+00  0.16632555034E+04  0.16632555034E+04  0.00000000000E+00 0. -1.
         21   -1    0    0  501  502  0.00000000000E+00 -0.00000000000E+00 -0.40753592349E+02  0.40753592349E+02  0.00000000000E+00 0.  1.
         21    1    1    2  503  502 -0.24820469317E+02 -0.28470912858E+02 -0.89206694463E+01  0.38810139390E+02  0.00000000000E+00 0.  1.
         21    1    1    2  504  503  0.41753504278E+02 -0.13290443720E+02  0.31434504279E+02  0.53926979083E+02  0.00000000000E+00 0. -1.
         21    1    1    2  505  504  0.24184140767E+02  0.97234488867E+02  0.55260440674E+03  0.56161468004E+03  0.00000000000E+00 0. -1.
          4    1    1    2  501    0 -0.41117175728E+02 -0.55473132288E+02  0.10473836694E+04  0.10496572972E+04  0.00000000000E+00 0. -1.
<scales pt_clust_3="37.77100" pt_clust_4="40.94331" pt_clust_5="74.18446" pt_clust_6="14000.00000"></scales>
<clustering>
<clus scale="   37.771">  2  3  1 -1</clus>
<clus scale="   40.943">  2  4  1 -1</clus>
<clus scale="   74.184">  2  5  1 -1</clus>
<clus scale="   37.771">  2  3  1 -1</clus>
</clustering>
</event>
<event>
 6    0  0.2117869E+002  0.9288374E+02  0.7546771E-02  0.1296015E+00
         21   -1    0    0  503  502  0.00000000000E+00  0.00000000000E+00  0.25661297137E+03  0.25661297137E+03  0.00000000000E+00 0. -1.
         -3   -1    0    0    0  501 -0.00000000000E+00 -0.00000000000E+00 -0.32909233006E+03  0.32909233006E+03  0.00000000000E+00 0. -1.
         21    1    1    2  503  504 -0.18346564610E+02 -0.40715908242E+02  0.17154888518E+02  0.47840064977E+02  0.00000000000E+00 0. -1.
         21    1    1    2  504  501  0.70299546022E+02 -0.45419179017E+02 -0.12362078020E+03  0.14928839637E+03  0.00000000000E+00 0. -1.
         21    1    1    2  505  502 -0.21456189530E+02 -0.41757982848E+02  0.18353832822E+03  0.18944765801E+03  0.00000000000E+00 0. -1.
         -3    1    1    2    0  505 -0.30496791882E+02  0.12789307011E+03 -0.14955179523E+03  0.19912918208E+03  0.00000000000E+00 0. -1.
<scales pt_clust_3="44.65850" pt_clust_4="92.88374" pt_clust_5="84.08216" pt_clust_6="14000.00000"></scales>
<clustering>
<clus scale="   44.658">  1  3  2 -1</clus>
<clus scale="   84.082">  1  5  2 -1</clus>
<clus scale="   92.884">  2  4  1 -1</clus>
<clus scale="   44.658">  1  3  2 -1</clus>
</clustering>
</event>
<event>
 6    0  0.2117869E+002  0.1982024E+03  0.7546771E-02  0.1151265E+00
         21   -1    0    0  505  502  0.00000000000E+00  0.00000000000E+00  0.59992648152E+03  0.59992648152E+03  0.00000000000E+00 0. -1.
         -3   -1    0    0    0  501 -0.00000000000E+00 -0.00000000000E+00 -0.70269347439E+03  0.70269347439E+03  0.00000000000E+00 0.  1.
         21    1    1    2  503  504 -0.12785457600E+03 -0.15297512988E+03  0.19249536950E+03  0.27713291080E+03  0.00000000000E+00 0. -1.
         21    1    1    2  504  502  0.32373049767E+02 -0.16127050218E+02  0.30870828190E+03  0.31081972172E+03  0.00000000000E+00 0. -1.
         21    1    1    2  505  501  0.42625784387E+02 -0.84870772792E+02 -0.60909132381E+02  0.11282698248E+03  0.00000000000E+00 0.  1.
         -3    1    1    2    0  503  0.52855741848E+02  0.25397295289E+03 -0.54306151189E+03  0.60184034091E+03  0.00000000000E+00 0.  1.
<scales pt_clust_3="198.20240" pt_clust_4="36.16761" pt_clust_5="97.58218" pt_clust_6="14000.00000"></scales>
<clustering>
<clus scale="   36.168">  1  4  2 -1</clus>
<clus scale="   97.582">  2  5  1 -1</clus>
<clus scale="  198.202">  1  3  2 -1</clus>
<clus scale="   36.168">  1  3  2 -1</clus>
</clustering>
</event>
<event>
 6    0  0.2117869E+002  0.8695152E+02  0.7546771E-02  0.1310407E+00
          2   -1    0    0  504    0 -0.00000000000E+00  0.00000000000E+00  0.24374817707E+04  0.24374817707E+04  0.00000000000E+00 0. -1.
         21   -1    0    0  503  502  0.00000000000E+00 -0.00000000000E+00 -0.63448004867E+02  0.63448004867E+02  0.00000000000E+00 0. -1.
         21    1    1    2  503  501 -0.10558540022E+02 -0.62981769960E+02 -0.38469925775E+02  0.74552808826E+02  0.00000000000E+00 0. -1.
         21    1    1    2  504  505 -0.91926897382E+01  0.45105823778E+02  0.12052570667E+04  0.12061358289E+04  0.00000000000E+00 0.  1.
         21    1    1    2  505  502  0.96646109251E+02  0.25968647648E+02  0.65126615645E+03  0.65891004517E+03  0.00000000000E+00 0. -1.
          2    1    1    2  501    0 -0.76894879490E+02 -0.80927014658E+01  0.55598046840E+03  0.56133109263E+03  0.00000000000E+00 0. -1.
<scales pt_clust_3="63.23185" pt_clust_4="46.03304" pt_clust_5="14000.00000" pt_clust_6="86.95152"></scales>
<clustering>
<clus scale="   46.033">  1  4  2 -1</clus>
<clus scale="   63.232">  2  3  1 -1</clus>
<clus scale="   86.952">  1  6  2 -1</clus>
<clus scale="   63.232">  2  3  1 -1</clus>
</clustering>
</event>
<event>
 6    0  0.2117869E+002  0.1256893E+03  0.7546771E-02  0.1233996E+00
         21   -1    0    0  503  502  0.00000000000E+00  0.00000000000E+00  0.10713999984E+03  0.10713999984E+03  0.00000000000E+00 0.  1.
          2   -1    0    0  504    0 -0.00000000000E+00 -0.00000000000E+00 -0.66054438039E+03  0.66054438039E+03  0.00000000000E+00 0.  1.
         21    1    1    2  503  505  0.28220459148E+02 -0.28374446551E+02 -0.33901859588E+02  0.52448447214E+02  0.00000000000E+00 0.  1.
         21    1    1    2  504  502 -0.13617578416E+03 -0.72145094247E+01  0.39946320436E+02  0.14209715639E+03  0.00000000000E+00 0.  1.
         21    1    1    2  505  501  0.21544801045E+02  0.24690552582E+02 -0.92399243119E+02  0.98037859870E+02  0.00000000000E+00 0. -1.
          2    1    1    2  501    0  0.86410523967E+02  0.10898403394E+02 -0.46704959828E+03  0.47510091676E+03  0.00000000000E+00 0.  1.
<scales pt_clust_3="40.01879" pt_clust_4="114.95071" pt_clust_5="31.18107" pt_clust_6="31.18107"></scales>
<clustering>
<clus scale="   31.181">  5  6 -1 -1</clus>
<clus scale="   40.019">  1  3  2 -1</clus>
<clus scale="  114.951">  1  4  2 -1</clus>
<clus scale="   40.019">  1  3  2 -1</clus>
</clustering>
</event>
<event>
 6    0  0.2117869E+002  0.8677357E+02  0.7546771E-02  0.1310859E+00
          2   -1    0    0  503    0 -0.00000000000E+00  0.00000000000E+00  0.29638470628E+04  0.29638470628E+04  0.00000000000E+00 0. -1.
         21   -1    0    0  501  502  0.00000000000E+00 -0.00000000000E+00 -0.67407837549E+02  0.67407837549E+02  0.00000000000E+00 0.  1.
         21    1    1    2  503  505 -0.16102097150E+02  0.80379161531E+02  0.13031114242E+04  0.13056873558E+04  0.00000000000E+00 0. -1.
         21    1    1    2  504  502 -0.30003168485E+02 -0.29607321922E+02 -0.49420263035E+02  0.64954953845E+02  0.00000000000E+00 0.  1.
         21    1    1    2  505  504 -0.46406063664E+02  0.12141026512E+02  0.75976959909E+02  0.89852243748E+02  0.00000000000E+00 0.  1.
          2    1    1    2  501    0  0.92511329298E+02 -0.62912866121E+02  0.15667711042E+04  0.15707603470E+04  0.00000000000E+00 0. -1.
<scales pt_clust_3="14000.00000" pt_clust_4="42.15191" pt_clust_5="67.24507" pt_clust_6="86.77357"></scales>
<clustering>
<clus scale="   42.152">  2  4  1 -1</clus>
<clus scale="   67.245">  2  5  1 -1</clus>
<clus scale="   86.774">  2  6  1 -1</clus>
<clus scale="   42.152">  2  3  1 -1</clus>
</clustering>
</event>
<event>
 6    0  0.2117869E+002  0.7045471E+02  0.7546771E-02  0.1358554E+00
          2   -1    0    0  504    0 -0.00000000000E+00  0.00000000000E+00  0.18020797288E+04  0.18020797288E+04  0.00000000000E+00 0.  1.
         21   -1    0    0  503  502  0.00000000000E+00 -0.00000000000E+00 -0.21985196136E+03  0.21985196136E+03  0.00000000000E+00 0. -1.
         21    1    1    2  503  501  0.20176145378E+02  0.88557257039E+02 -0.19761106640E+03  0.21748470792E+03  0.00000000000E+00 0. -1.
         21    1    1    2  504  505  0.35206204956E+02 -0.70575592167E+01  0.17409553385E+03  0.17775978431E+03  0.00000000000E+00 0.  1.
         21    1    1    2  505  502  0.21474410317E+02 -0.32548395958E+02  0.32374433158E+02  0.50681873487E+02  0.00000000000E+00 0. -1.
          2    1    1    2  501    0 -0.76856760651E+02 -0.48951301864E+02  0.15733688668E+04  0.15760053245E+04  0.00000000000E+00 0.  1.
<scales pt_clust_3="70.45471" pt_clust_4="35.90663" pt_clust_5="39.64513" pt_clust_6="14000.00000"></scales>
<clustering>
<clus scale="   35.907">  1  4  2 -1</clus>
<clus scale="   39.645">  2  5  1 -1</clus>
<clus scale="   70.455">  2  3  1 -1</clus>
<clus scale="   39.645">  2  3  1 -1</clus>
</clustering>
</event>
<event>
 6    0  0.2117869E+002  0.1722508E+03  0.7546771E-02  0.1175521E+00
          1   -1    0    0  504    0 -0.00000000000E+00  0.00000000000E+00  0.27766511656E+04  0.27766511656E+04  0.00000000000E+00 0. -1.
         21   -1    0    0  505  502  0.00000000000E+00 -0.00000000000E+00 -0.13181711864E+03  0.13181711864E+03  0.00000000000E+00 0.  1.
         21    1    1    2  503  501  0.11914366799E+03  0.12971144667E+02 -0.39463585691E+02  0.12617780634E+03  0.00000000000E+00 0.  1.
         21    1    1    2  504  502 -0.12969616944E+03  0.13214937381E+03  0.20318799278E+04  0.20402991433E+04  0.00000000000E+00 0.  1.
         21    1    1    2  505  503 -0.98016417699E+02 -0.47627845943E+02  0.46036278789E+02  0.11830033310E+03  0.00000000000E+00 0.  1.
          1    1    1    2  501    0  0.10856891915E+03 -0.97492672539E+02  0.60638142603E+03  0.62369100141E+03  0.00000000000E+00 0. -1.
<scales pt_clust_3="44.44200" pt_clust_4="172.25078" pt_clust_5="108.97536" pt_clust_6="14000.00000"></scales>
<clustering>
<clus scale="  108.975">  2  5  1 -1</clus>
<clus scale="   44.442">  2  3  1 -1</clus>
<clus scale="  172.251">  1  4  2 -1</clus>
<clus scale="  108.975">  2  3  1 -1</clus>
</clustering>
</event>
<event>
 6    0  0.2117869E+002  0.9755165E+02  0.7546771E-02  0.1285530E+00
          2   -1    0    0  505    0 -0.00000000000E+00  0.00000000000E+00  0.16042715293E+04  0.16042715293E+04  0.00000000000E+00 0.  1.
         21   -1    0    0  504  502  0.00000000000E+00 -0.00000000000E+00 -0.24152512242E+02  0.24152512242E+02  0.00000000000E+00 0. -1.
         21    1    1    2  503  502  0.89676043464E+02 -0.12871192787E+02  0.28338110820E+03  0.29751018951E+03  0.00000000000E+00 0. -1.
         21    1    1    2  504  501 -0.53562220910E+02 -0.96287266671E+01  0.77206558255E+02  0.94458861542E+02  0.00000000000E+00 0.  1.
         21    1    1    2  505  503  0.47368166229E+02 -0.66626316125E+02  0.49402790860E+03  0.50074582739E+03  0.00000000000E+00 0. -1.
          2    1    1    2  501    0 -0.83481988783E+02  0.89126235579E+02  0.72550344197E+03  0.73570916307E+03  0.00000000000E+00 0.  1.
<scales pt_clust_3="67.54550" pt_clust_4="54.42080" pt_clust_5="14000.00000" pt_clust_6="97.55165"></scales>
<clustering>
<clus scale="   54.421">  2  4  1 -1</clus>
<clus scale="   67.545">  2  3  1 -1</clus>
<clus scale="   97.552">  2  6  1 -1</clus>
<clus scale="   54.421">  2  3  1 -1</clus>
</clustering>
</event>
<event>
 6    0  0.2117869E+002  0.1135512E+03  0.7546771E-02  0.1254131E+00
         -2   -1    0    0    0  501 -0.00000000000E+00  0.00000000000E+00  0.66674463317E+03  0.66674463317E+03  0.00000000000E+00 0.  1.
         21   -1    0    0  505  502  0.00000000000E+00 -0.00000000000E+00 -0.86845004486E+02  0.86845004486E+02  0.00000000000E+00 0.  1.
         21    1    1    2  503  502  0.95466061637E+02 -0.41389561259E+02  0.12569646015E+03  0.16317617719E+03  0.00000000000E+00 0.  1.
         21    1    1    2  504  503  0.44866378203E+02  0.81103249469E+01  0.13434062208E+03  0.14186674030E+03  0.00000000000E+00 0.  1.
         21    1    1    2  505  501 -0.85639731718E+02 -0.86272955359E+00 -0.31548451238E+02  0.91269999050E+02  0.00000000000E+00 0.  1.
         -2    1    1    2    0  504 -0.54692708122E+02  0.34141965865E+02  0.35141099769E+03  0.35727672111E+03  0.00000000000E+00 0.  1.
<scales pt_clust_3="45.04769" pt_clust_4="45.04769" pt_clust_5="90.89923" pt_clust_6="64.47454"></scales>
<clustering>
<clus scale="   45.048">  3  4 -1 -1</clus>
<clus scale="   64.475">  1  6  2 -1</clus>
<clus scale="   90.899">  2  5  1 -1</clus>
<clus scale="   90.899">  2  3  1 -1</clus>
</clustering>
</event>
<event>
 6    0  0.2117869E+002  0.1220628E+03  0.7546771E-02  0.1239732E+00
          1   -1    0    0  504    0 -0.00000000000E+00  0.00000000000E+00  0.18940838140E+03  0.18940838140E+03  0.00000000000E+00 0.  1.
         21   -1    0    0  505  502  0.00000000000E+00 -0.00000000000E+00 -0.21634969298E+03  0.21634969298E+03  0.00000000000E+00 0.  1.
         21    1    1    2  503  502 -0.10057302601E+03 -0.12193578263E+02 -0.16772882689E+02  0.10268858994E+03  0.00000000000E+00 0.  1.
         21    1    1    2  504  503 -0.62606452079E+02 -0.55614608646E+01  0.61511593122E+02  0.87944151467E+02  0.00000000000E+00 0.  1.
         21    1    1    2  505  501  0.12335630502E+02 -0.27464867923E+02 -0.46869642574E+02  0.55706823145E+02  0.00000000000E+00 0. -1.
          1    1    1    2  501    0  0.15084384758E+03  0.45219907051E+02 -0.24810379439E+02  0.15941850983E+03  0.00000000000E+00 0.  1.
<scales pt_clust_3="14000.00000" pt_clust_4="62.10553" pt_clust_5="30.10792" pt_clust_6="122.06280"></scales>
<clustering>
<clus scale="   30.108">  2  5  1 -1</clus>
<clus scale="   62.106">  1  4  2 -1</clus>
<clus scale="  122.063">  1  6  2 -1</clus>
<clus scale="   30.108">  2  3  1 -1</clus>
</clustering>
</event>
<event>
 6    0  0.2117869E+002  0.7266765E+02  0.7546771E-02  0.1351250E+00
         21   -1    0    0  504  502  0.00000000000E+00  0.00000000000E+00  0.29895966186E+03  0.29895966186E+03  0.00000000000E+00 0.  1.
         -1   -1    0    0    0  501 -0.00000000000E+00 -0.00000000000E+00 -0.23638518510E+03  0.23638518510E+03  0.00000000000E+00 0. -1.
         21    1    1    2  503  502  0.39265413609E+02  0.83583462190E+02  0.23011822422E+03  0.24795637716E+03  0.00000000000E+00 0.  1.
         21    1    1    2  504  505  0.16344024728E+02 -0.43394236136E+02  0.16692686902E+02  0.49283188514E+02  0.00000000000E+00 0.  1.
         21    1    1    2  505  501  0.33653916595E+02  0.11283207945E+01 -0.55391655116E+01  0.34125380065E+02  0.00000000000E+00 0.  1.
         -1    1    1    2    0  503 -0.89263354932E+02 -0.41317546849E+02 -0.17869726885E+03  0.20397990123E+03  0.00000000000E+00 0. -1.
<scales pt_clust_3="72.66765" pt_clust_4="47.24423" pt_clust_5="33.67283" pt_clust_6="14000.00000"></scales>
<clustering>
<clus scale="   33.673">  2  5  1 -1</clus>
<clus scale="   47.244">  1  4  2 -1</clus>
<clus scale="   72.668">  1  3  2 -1</clus>
<clus scale="   47.244">  1  3  2 -1</clus>
</clustering>
</event>
<event>
 6    0  0.2117869E+002  0.9825962E+02  0.7546771E-02  0.1283999E+00
         21   -1    0    0  504  502  0.00000000000E+00  0.00000000000E+00  0.25630701612E+03  0.25630701612E+03  0.00000000000E+00 0.  1.
          1   -1    0    0  505    0 -0.00000000000E+00 -0.00000000000E+00 -0.77922173340E+03  0.77922173340E+03  0.00000000000E+00 0.  1.
         21    1    1    2  503  502 -0.86139721596E+02 -0.55658341637E+02  0.41787690873E+02  0.11074345913E+03  0.00000000000E+00 0.  1.
         21    1    1    2  504  501 -0.78731836191E+01  0.81529438463E+02  0.15884299678E+03  0.17871802926E+03  0.00000000000E+00 0.  1.
         21    1    1    2  505  503 -0.30515076435E+02  0.19027870431E+01 -0.35001161906E+03  0.35134445202E+03  0.00000000000E+00 0.  1.
          1    1    1    2  501    0  0.12452798165E+03 -0.27773883868E+02 -0.37353378587E+03  0.39472280910E+03  0.00000000000E+00 0.  1.
<scales pt_clust_3="98.25962" pt_clust_4="82.02363" pt_clust_5="30.57434" pt_clust_6="14000.00000"></scales>
<clustering>
<clus scale="   30.574">  2  5  1 -1</clus>
<clus scale="   82.024">  1  4  2 -1</clus>
<clus scale="   98.260">  1  3  2 -1</clus>
<clus scale="   82.024">  1  3  2 -1</clus>
</clustering>
</event>
<event>
 6    0  0.2117869E+002  0.1213601E+03  0.7546771E-02  0.1240870E+00
          1   -1    0    0  504    0 -0.00000000000E+00  0.00000000000E+00  0.76445879446E+03  0.76445879446E+03  0.00000000000E+00 0.  1.
         21   -1    0    0  503  502  0.00000000000E+00 -0.00000000000E+00 -0.13227769927E+03  0.13227769927E+03  0.00000000000E+00 0.  1.
         21    1    1    2  503  501 -0.37736611498E+02 -0.11841647494E+03 -0.51849793888E+02  0.13466593671E+03  0.00000000000E+00 0.  1.
         21    1    1    2  504  505 -0.75894984011E+02 -0.17816365823E+00  0.15389334321E+03  0.17159033022E+03  0.00000000000E+00 0.  1.
         21    1    1    2  505  502  0.11948503192E+03  0.69490361318E+02  0.13828874549E+03  0.19552329861E+03  0.00000000000E+00 0.  1.
          1    1    1    2  501    0 -0.58534364120E+01  0.49104277281E+02  0.39184880038E+03  0.39495692819E+03  0.00000000000E+00 0.  1.
<scales pt_clust_3="14000.00000" pt_clust_4="81.31735" pt_clust_5="121.36010" pt_clust_6="49.45192"></scales>
<clustering>
<clus scale="   49.452">  1  6  2 -1</clus>
<clus scale="   81.317">  1  4  2 -1</clus>
<clus scale="  121.360">  1  5  2 -1</clus>
<clus scale="  121.360">  2  3  1 -1</clus>
</clustering>
</event>
<event>
 6    0  0.2117869E+002  0.9210117E+02  0.7546771E-02  0.1297842E+00
         21   -1    0    0  503  502  0.00000000000E+00  0.00000000000E+00  0.52342533417E+02  0.52342533417E+02  0.00000000000E+00 0.  1.
          2   -1    0    0  505    0 -0.00000000000E+00 -0.00000000000E+00 -0.19072178014E+04  0.19072178014E+04  0.00000000000E+00 0. -1.
         21    1    1    2  503  501  0.17841047309E+02 -0.12917212639E+03 -0.13622677859E+03  0.18857750770E+03  0.00000000000E+00 0.  1.
         21    1    1    2  504  502 -0.25797333934E+02  0.18061052519E+02  0.72342263711E+01  0.32311578224E+02  0.00000000000E+00 0.  1.
         21    1    1    2  505  504  0.19313546512E+02  0.58616079022E+02 -0.15449268009E+03  0.16636359578E+03  0.00000000000E+00 0.  1.
          2    1    1    2  501    0 -0.11357259888E+02  0.52494994847E+02 -0.15713900357E+04  0.15723076531E+04  0.00000000000E+00 0. -1.
<scales pt_clust_3="14000.00000" pt_clust_4="31.49133" pt_clust_5="92.10117" pt_clust_6="54.03587"></scales>
<clustering>
<clus scale="   31.491">  1  4  2 -1</clus>
<clus scale="   54.036">  2  6  1 -1</clus>
<clus scale="   92.101">  2  5  1 -1</clus>
<clus scale="   31.491">  1  3  2 -1</clus>
</clustering>
</event>
<event>
 6    0  0.2117869E+002  0.1111176E+03  0.7546771E-02  0.1258514E+00
          2   -1    0    0  502    0 -0.00000000000E+00  0.00000000000E+00  0.20535009285E+04  0.20535009285E+04  0.00000000000E+00 0. -1.
         21   -1    0    0  504  502  0.00000000000E+00 -0.00000000000E+00 -0.32455938231E+02  0.32455938231E+02  0.00000000000E+00 0. -1.
         21    1    1    2  503  501 -0.38351264885E+02  0.10203992606E+02  0.22390921836E+03  0.22739894250E+03  0.00000000000E+00 0. -1.
         21    1    1    2  504  505  0.42319690688E+02 -0.33075400548E+02  0.85648093043E+01  0.54390204078E+02  0.00000000000E+00 0. -1.
         21    1    1    2  505  503 -0.54767707156E+02  0.95970687895E+02  0.47922251117E+03  0.49179679736E+03  0.00000000000E+00 0. -1.
          2    1    1    2  501    0  0.50799281353E+02 -0.73099279953E+02  0.13093484514E+04  0.13123709228E+04  0.00000000000E+00 0. -1.
<scales pt_clust_3="32.29553" pt_clust_4="53.71162" pt_clust_5="32.29553" pt_clust_6="97.17528"></scales>
<clustering>
<clus scale="   32.296">  3  5 -1 -1</clus>
<clus scale="   53.712">  2  4  1 -1</clus>
<clus scale="   97.175">  1  6  2 -1</clus>
<clus scale="   53.712">  2  3  1 -1</clus>
</clustering>
</event>
<event>
 6    0  0.2117869E+002  0.1099935E+03  0.7546771E-02  0.1260582E+00
          2   -1    0    0  504    0 -0.00000000000E+00  0.00000000000E+00  0.36098457218E+03  0.36098457218E+03  0.00000000000E+00 0.  1.
         21   -1    0    0  503  502  0.00000000000E+00 -0.00000000000E+00 -0.68619700352E+03  0.68619700352E+03  0.00000000000E+00 0.  1.
         21    1    1    2  503  505 -0.60149428926E+02  0.93577132232E+02 -0.62397261057E+03  0.63381105404E+03  0.00000000000E+00 0.  1.
         21    1    1    2  504  502 -0.31816805082E+02  0.62353509737E+00  0.49895657960E+01  0.32211700490E+02  0.00000000000E+00 0.  1.
         21    1    1    2  505  501  0.10785045839E+03 -0.35596394169E+02  0.40290572077E+02  0.12050790369E+03  0.00000000000E+00 0.  1.
          2    1    1    2  501    0 -0.15884224386E+02 -0.58604273161E+02  0.25348004136E+03  0.26065091748E+03  0.00000000000E+00 0.  1.
<scales pt_clust_3="14000.00000" pt_clust_4="31.82291" pt_clust_5="109.99352" pt_clust_6="70.43912"></scales>
<clustering>
<clus scale="   31.823">  1  4  2 -1</clus>
<clus scale="   70.439">  1  6  2 -1</clus>
<clus scale="  109.994">  1  5  2 -1</clus>
<clus scale="  109.994">  2  3  1 -1</clus>
</clustering>
</event>
<event>
 6    0  0.2117869E+002  0.8531329E+02  0.7546771E-02  0.1314615E+00
         21   -1    0    0  505  502  0.00000000000E+00  0.00000000000E+00  0.95935997837E+03  0.95935997837E+03  0.00000000000E+00 0.  1.
         -4   -1    0    0    0  501 -0.00000000000E+00 -0.00000000000E+00 -0.24882779793E+03  0.24882779793E+03  0.00000000000E+00 0.  1.
         21    1    1    2  503  502  0.25565525776E+02 -0.57240923518E+02  0.95413812493E+02  0.11416617296E+03  0.00000000000E+00 0.  1.
         21    1    1    2  504  501  0.64299022122E+02  0.31268620438E+02 -0.10348547905E+03  0.12578288931E+03  0.00000000000E+00 0.  1.
         21    1    1    2  505  504 -0.11155508355E+03  0.73654920858E+02  0.83234665113E+03  0.84301277076E+03  0.00000000000E+00 0.  1.
         -4    1    1    2    0  503  0.21690535655E+02 -0.47682617778E+02 -0.11374280413E+03  0.12522594326E+03  0.00000000000E+00 0.  1.
<scales pt_clust_3="66.48795" pt_clust_4="14000.00000" pt_clust_5="85.31329" pt_clust_6="52.38427"></scales>
<clustering>
<clus scale="   52.384">  2  6  1 -1</clus>
<clus scale="   66.488">  1  3  2 -1</clus>
<clus scale="   85.313">  1  5  2 -1</clus>
<clus scale="   66.488">  1  3  2 -1</clus>
</clustering>
</event>
<event>
 6    0  0.2117869E+002  0.1262557E+03  0.7546771E-02  0.1233120E+00
          2   -1    0    0  502    0 -0.00000000000E+00  0.00000000000E+00  0.26063087222E+04  0.26063087222E+04  0.00000000000E+00 0. -1.
         21   -1    0    0  504  502  0.00000000000E+00 -0.00000000000E+00 -0.31115597231E+03  0.31115597231E+03  0.00000000000E+00 0. -1.
         21    1    1    2  503  505 -0.17494313070E+03 -0.81381546436E+02 -0.60640605671E+02  0.20225068142E+03  0.00000000000E+00 0. -1.
         21    1    1    2  504  503  0.44470823343E+02  0.88125389168E+02 -0.15099460527E+03  0.18039708746E+03  0.00000000000E+00 0. -1.
         21    1    1    2  505  501  0.82422302733E+02  0.65916253463E+02  0.19787078026E+03  0.22425707155E+03  0.00000000000E+00 0. -1.
          2    1    1    2  501    0  0.48050004628E+02 -0.72660096194E+02  0.23089171806E+04  0.23105598541E+04  0.00000000000E+00 0. -1.
<scales pt_clust_3="126.25573" pt_clust_4="96.64062" pt_clust_5="14000.00000" pt_clust_6="87.11081"></scales>
<clustering>
<clus scale="   87.111">  1  6  2 -1</clus>
<clus scale="   96.641">  2  4  1 -1</clus>
<clus scale="  126.256">  2  3  1 -1</clus>
<clus scale="   96.641">  2  3  1 -1</clus>
</clustering>
</event>
<event>
 6    0  0.2117869E+002  0.7688476E+02  0.7546771E-02  0.1338132E+00
          1   -1    0    0  503    0 -0.00000000000E+00  0.00000000000E+00  0.68138576170E+03  0.68138576170E+03  0.00000000000E+00 0. -1.
         21   -1    0    0  501  502  0.00000000000E+00 -0.00000000000E+00 -0.42206948154E+03  0.42206948154E+03  0.00000000000E+00 0. -1.
         21    1    1    2  503  505 -0.55698948229E+01 -0.29686212544E+02  0.11686459195E+03  0.12070471323E+03  0.00000000000E+00 0. -1.
         21    1    1    2  504  502 -0.66982947247E+02  0.36056345725E+02 -0.36549639356E+03  0.37332879476E+03  0.00000000000E+00 0. -1.
         21    1    1    2  505  504  0.52210147050E+02 -0.86316604433E+02  0.63421509235E+01  0.10107758671E+03  0.00000000000E+00 0. -1.
          1    1    1    2  501    0  0.20342695019E+02  0.79946471253E+02  0.50160593084E+03  0.50834414855E+03  0.00000000000E+00 0. -1.
<scales pt_clust_3="30.20422" pt_clust_4="14000.00000" pt_clust_5="76.88476" pt_clust_6="55.46539"></scales>
<clustering>
<clus scale="   30.204">  1  3  2 -1</clus>
<clus scale="   55.465">  1  6  2 -1</clus>
<clus scale="   76.885">  1  5  2 -1</clus>
<clus scale="   76.885">  2  3  1 -1</clus>
</clustering>
</event>
<event>
 6    0  0.2117869E+002  0.8873048E+02  0.7546771E-02  0.1305955E+00
         21   -1    0    0  504  502  0.00000000000E+00  0.00000000000E+00  0.32258712487E+03  0.32258712487E+03  0.00000000000E+00 0. -1.
          2   -1    0    0  505    0 -0.00000000000E+00 -0.00000000000E+00 -0.16402474622E+03  0.16402474622E+03  0.00000000000E+00 0. -1.
         21    1    1    2  503  502  0.13648819007E+02 -0.50317865442E+02  0.92326226735E+02  0.10602975991E+03  0.00000000000E+00 0.  1.
         21    1    1    2  504  501  0.53820647934E+02 -0.13944690063E+02  0.16577904530E+03  0.17485367707E+03  0.00000000000E+00 0. -1.
         21    1    1    2  505  503  0.20781600356E+02 -0.36854595995E+02 -0.74559436110E+01  0.42961927965E+02  0.00000000000E+00 0. -1.
          2    1    1    2  501    0 -0.88251067297E+02  0.10111715150E+03 -0.92086949772E+02  0.16276650615E+03  0.00000000000E+00 0. -1.
<scales pt_clust_3="54.16277" pt_clust_4="14000.00000" pt_clust_5="42.31000" pt_clust_6="88.73048"></scales>
<clustering>
<clus scale="   42.310">  2  5  1 -1</clus>
<clus scale="   54.163">  1  3  2 -1</clus>
<clus scale="   88.730">  2  6  1 -1</clus>
<clus scale="   54.163">  1  3  2 -1</clus>
</clustering>
</event>
<event>
 6    0  0.2117869E+002  0.2446835E+03  0.7546771E-02  0.1116712E+00
         21   -1    0    0  503  502  0.00000000000E+00  0.00000000000E+00  0.12699113150E+04  0.12699113150E+04  0.00000000000E+00 0.  1.
         -1   -1    0    0    0  501 -0.00000000000E+00 -0.00000000000E+00 -0.13463339648E+03  0.13463339648E+03  0.00000000000E+00 0.  1.
         21    1    1    2  503  501 -0.39760911389E+02 -0.18633051226E+02 -0.52054491734E+02  0.68101327316E+02  0.00000000000E+00 0.  1.
         21    1    1    2  504  502 -0.81503032721E+01 -0.42809760207E+02  0.18116600439E+03  0.18633363668E+03  0.00000000000E+00 0.  1.
         21    1    1    2  505  504 -0.22561237279E+03  0.67188328887E+02  0.70485086283E+03  0.74312176198E+03  0.00000000000E+00 0.  1.
         -1    1    1    2    0  505  0.27352358745E+03 -0.57455174544E+01  0.30131554304E+03  0.40698798550E+03  0.00000000000E+00 0.  1.
<scales pt_clust_3="44.09985" pt_clust_4="43.57870" pt_clust_5="14000.00000" pt_clust_6="244.68347"></scales>
<clustering>
<clus scale="   43.579">  1  4  2 -1</clus>
<clus scale="   44.100">  2  3  1 -1</clus>
<clus scale="  244.683">  2  6  1 -1</clus>
<clus scale="   43.579">  1  3  2 -1</clus>
</clustering>
</event>
<event>
 6    0  0.2117869E+002  0.1124257E+03  0.7546771E-02  0.1256143E+00
         21   -1    0    0  505  502  0.00000000000E+00  0.00000000000E+00  0.44456345144E+03  0.44456345144E+03  0.00000000000E+00 0.  1.
          2   -1    0    0  502    0 -0.00000000000E+00 -0.00000000000E+00 -0.11417276661E+04  0.11417276661E+04  0.00000000000E+00 0.  1.
         21    1    1    2  503  504 -0.67372597709E+02  0.57258104261E+02  0.36463752956E+02  0.95640800421E+02  0.00000000000E+00 0. -1.
         21    1    1    2  504  501  0.43892505470E+02  0.36907741869E+02 -0.41327820580E+03  0.41723807213E+03  0.00000000000E+00 0. -1.
         21    1    1    2  505  503  0.53979497114E+02 -0.10999380343E+03  0.36612253842E+03  0.38608047871E+03  0.00000000000E+00 0.  1.
          2    1    1    2  501    0 -0.30499404875E+02  0.15827957299E+02 -0.68647230022E+03  0.68733176625E+03  0.00000000000E+00 0.  1.
<scales pt_clust_3="112.42573" pt_clust_4="53.80713" pt_clust_5="14000.00000" pt_clust_6="34.36187"></scales>
<clustering>
<clus scale="   34.362">  2  6  1 -1</clus>
<clus scale="   53.807">  2  4  1 -1</clus>
<clus scale="  112.426">  2  3  1 -1</clus>
<clus scale="  112.426">  1  3  2 -1</clus>
</clustering>
</event>
<event>
 6    0  0.2117869E+002  0.1108734E+03  0.7546771E-02  0.1258961E+00
         21   -1    0    0  504  502  0.00000000000E+00  0.00000000000E+00  0.88877828671E+02  0.88877828671E+02  0.00000000000E+00 0.  1.
          1   -1    0    0  505    0 -0.00000000000E+00 -0.00000000000E+00 -0.18563636109E+04  0.18563636109E+04  0.00000000000E+00 0.  1.
         21    1    1    2  503  502  0.15463232264E+03  0.11174018347E+02 -0.76048154668E+02  0.17268276034E+03  0.00000000000E+00 0.  1.
         21    1    1    2  504  501 -0.48064259093E+02 -0.41493432904E+02  0.11654009627E+02  0.64557678990E+02  0.00000000000E+00 0.  1.
         21    1    1    2  505  503 -0.27679126606E+02 -0.20868072701E+02 -0.38398349139E+03  0.38554498073E+03  0.00000000000E+00 0. -1.
          1    1    1    2  501    0 -0.78888936938E+02  0.51187487257E+02 -0.13191081458E+04  0.13224560195E+04  0.00000000000E+00 0.  1.
<scales pt_clust_3="14000.00000" pt_clust_4="64.11881" pt_clust_5="34.66425" pt_clust_6="110.87340"></scales>
<clustering>
<clus scale="   34.664">  2  5  1 -1</clus>
<clus scale="   64.119">  1  4  2 -1</clus>
<clus scale="  110.873">  2  6  1 -1</clus>
<clus scale="   64.119">  1  3  2 -1</clus>
</clustering>
</event>
<event>
 6    0  0.2117869E+002  0.6946267E+02  0.7546771E-02  0.1361930E+00
         21   -1    0    0  504  502  0.00000000000E+00  0.00000000000E+00  0.12986241045E+04  0.12986241045E+04  0.00000000000E+00 0.  1.
         -2   -1    0    0    0  501 -0.00000000000E+00 -0.00000000000E+00 -0.30569479739E+03  0.30569479739E+03  0.00000000000E+00 0.  1.
         21    1    1    2  503  505 -0.75890784245E+02 -0.73364645314E+02  0.27931591655E+03  0.29859531737E+03  0.00000000000E+00 0.  1.
         21    1    1    2  504  501 -0.22900068497E+02 -0.22692065025E+02 -0.83285740663E+01  0.33297268630E+02  0.00000000000E+00 0.  1.
         21    1    1    2  505  502  0.18606925650E+02  0.63993861420E+02  0.98926172665E+03  0.99150400695E+03  0.00000000000E+00 0.  1.
         -2    1    1    2    0  503  0.80183927092E+02  0.32062848918E+02 -0.26731976207E+03  0.28092230890E+03  0.00000000000E+00 0.  1.
<scales pt_clust_3="14000.00000" pt_clust_4="32.23884" pt_clust_5="69.46267" pt_clust_6="59.04152"></scales>
<clustering>
<clus scale="   32.239">  2  4  1 -1</clus>
<clus scale="   59.042">  2  6  1 -1</clus>
<clus scale="   69.463">  1  5  2 -1</clus>
<clus scale="   69.463">  1  3  2 -1</clus>
</clustering>
</event>
<event>
 6    0  0.2117869E+002  0.8913945E+02  0.7546771E-02  0.1304949E+00
          1   -1    0    0  504    0 -0.00000000000E+00  0.00000000000E+00  0.83537683630E+03  0.83537683630E+03  0.00000000000E+00 0.  1.
         21   -1    0    0  503  502  0.00000000000E+00 -0.00000000000E+00 -0.20747847135E+03  0.20747847135E+03  0.00000000000E+00 0. -1.
         21    1    1    2  503  505  0.19813043166E+02 -0.50247484897E+02 -0.18261607039E+03  0.19043632948E+03  0.00000000000E+00 0. -1.
         21    1    1    2  504  502  0.48637672860E+02  0.87665507069E+02  0.24369266242E+03  0.26350897152E+03  0.00000000000E+00 0. -1.
         21    1    1    2  505  501 -0.43428592716E+02  0.43948555692E+02  0.13083565422E+03  0.14469100396E+03  0.00000000000E+00 0. -1.
          1    1    1    2  501    0 -0.25022123310E+02 -0.81366577864E+02  0.43598611871E+03  0.44421900270E+03  0.00000000000E+00 0.  1.
<scales pt_clust_3="54.01265" pt_clust_4="14000.00000" pt_clust_5="45.90362" pt_clust_6="89.13945"></scales>
<clustering>
<clus scale="   54.013">  2  3  1 -1</clus>
<clus scale="   45.904">  2  5  1 -1</clus>
<clus scale="   89.139">  1  6  2 -1</clus>
<clus scale="   54.013">  2  3  1 -1</clus>
</clustering>
</event>
<event>
 6    0  0.2117869E+002  0.1526819E+03  0.7546771E-02  0.1197216E+00
         21   -1    0    0  505  502  0.00000000000E+00  0.00000000000E+00  0.57252848673E+03  0.57252848673E+03  0.00000000000E+00 0. -1.
          1   -1    0    0  504    0 -0.00000000000E+00 -0.00000000000E+00 -0.21043980374E+04  0.21043980374E+04  0.00000000000E+00 0. -1.
         21    1    1    2  503  502  0.98015944146E+02  0.39868128865E+02 -0.41118237472E+03  0.42457924853E+03  0.00000000000E+00 0.  1.
         21    1    1    2  504  503 -0.14065774638E+02 -0.42583446657E+02 -0.68865501027E+03  0.69011370014E+03  0.00000000000E+00 0. -1.
         21    1    1    2  505  501  0.34242790955E+02  0.14861560155E+03  0.54571247168E+03  0.56662268531E+03  0.00000000000E+00 0. -1.
          1    1    1    2  501    0 -0.11819296046E+03 -0.14590028376E+03 -0.97774463738E+03  0.99561089017E+03  0.00000000000E+00 0. -1.
<scales pt_clust_3="97.74948" pt_clust_4="44.84636" pt_clust_5="14000.00000" pt_clust_6="152.68190"></scales>
<clustering>
<clus scale="   44.846">  2  4  1 -1</clus>
<clus scale="   97.749">  2  3  1 -1</clus>
<clus scale="  152.682">  2  6  1 -1</clus>
<clus scale="  152.682">  1  3  2 -1</clus>
</clustering>
</event>
<event>
 6    0  0.2117869E+002  0.1209785E+03  0.7546771E-02  0.1241491E+00
          1   -1    0    0  503    0 -0.00000000000E+00  0.00000000000E+00  0.89470210822E+03  0.89470210822E+03  0.00000000000E+00 0.  1.
         21   -1    0    0  504  502  0.00000000000E+00 -0.00000000000E+00 -0.28043124753E+04  0.28043124753E+04  0.00000000000E+00 0. -1.
         21    1    1    2  503  505 -0.22743334557E+02 -0.40045947593E+02 -0.91280875776E+01  0.46949538531E+02  0.00000000000E+00 0. -1.
         21    1    1    2  504  501  0.95649231682E+02 -0.13680307162E+03 -0.24771110100E+03  0.29870494720E+03  0.00000000000E+00 0. -1.
         21    1    1    2  505  502 -0.12540344182E+02  0.56571740907E+02 -0.24974026572E+04  0.24980747896E+04  0.00000000000E+00 0. -1.
          1    1    1    2  501    0 -0.60365552942E+02  0.12027727830E+03  0.84463147870E+03  0.85528530822E+03  0.00000000000E+00 0.  1.
<scales pt_clust_3="46.05363" pt_clust_4="120.97851" pt_clust_5="57.93188" pt_clust_6="14000.00000"></scales>
<clustering>
<clus scale="   46.054">  1  3  2 -1</clus>
<clus scale="   57.932">  2  5  1 -1</clus>
<clus scale="  120.979">  2  4  1 -1</clus>
<clus scale="   57.932">  2  3  1 -1</clus>
</clustering>
</event>
<event>
 6    0  0.2117869E+002  0.1216388E+03  0.7546771E-02  0.1240418E+00
          2   -1    0    0  505    0 -0.00000000000E+00  0.00000000000E+00  0.82650794012E+03  0.82650794012E+03  0.00000000000E+00 0.  1.
         21   -1    0    0  504  502  0.00000000000E+00 -0.00000000000E+00 -0.97229964477E+02  0.97229964477E+02  0.00000000000E+00 0.  1.
         21    1    1    2  503  502  0.26247240944E+02 -0.76735673378E+02  0.26335156965E+02  0.85269113507E+02  0.00000000000E+00 0.  1.
         21    1    1    2  504  501 -0.11470232859E+02 -0.59829611741E+02 -0.44771012622E+02  0.75601536057E+02  0.00000000000E+00 0.  1.
         21    1    1    2  505  503  0.21739431188E+02  0.23213684273E+02  0.13599981981E+03  0.13966899798E+03  0.00000000000E+00 0.  1.
          2    1    1    2  501    0 -0.36516439273E+02  0.11335160085E+03  0.61171401148E+03  0.62319825705E+03  0.00000000000E+00 0.  1.
<scales pt_clust_3="121.63878" pt_clust_4="60.31845" pt_clust_5="31.80374" pt_clust_6="14000.00000"></scales>
<clustering>
<clus scale="   31.804">  1  5  2 -1</clus>
<clus scale="   60.318">  2  4  1 -1</clus>
<clus scale="  121.639">  2  3  1 -1</clus>
<clus scale="   60.318">  2  3  1 -1</clus>
</clustering>
</event>
<event>
 6    0  0.2117869E+002  0.1458248E+03  0.7546771E-02  0.1205699E+00
         21   -1    0    0  504  502  0.00000000000E+00  0.00000000000E+00  0.10056773491E+04  0.10056773491E+04  0.00000000000E+00 0.  1.
          1   -1    0    0  503    0 -0.00000000000E+00 -0.00000000000E+00 -0.14013803728E+04  0.14013803728E+04  0.00000000000E+00 0.  1.
         21    1    1    2  503  505 -0.68965719533E+02  0.37825786268E+02 -0.32753170363E+03  0.33684429261E+03  0.00000000000E+00 0.  1.
         21    1    1    2  504  501 -0.13731831831E+03  0.48888410819E+02  0.94535195124E+03  0.95652324017E+03  0.00000000000E+00 0.  1.
         21    1    1    2  505  502  0.40737196657E+02 -0.82768368965E+02 -0.57789118510E+01  0.92431152297E+02  0.00000000000E+00 0.  1.
          1    1    1    2  501    0  0.16554684118E+03 -0.39458281213E+01 -0.10077443595E+04  0.10212590368E+04  0.00000000000E+00 0.  1.
<scales pt_clust_3="78.65787" pt_clust_4="145.82479" pt_clust_5="89.31704" pt_clust_6="14000.00000"></scales>
<clustering>
<clus scale="   78.658">  2  3  1 -1</clus>
<clus scale="   89.317">  2  5  1 -1</clus>
<clus scale="  145.825">  1  4  2 -1</clus>
<clus scale="  145.825">  1  3  2 -1</clus>
</clustering>
</event>
<event>
 6    0  0.2117869E+002  0.9142235E+02  0.7546771E-02  0.1299443E+00
          2   -1    0    0  505    0 -0.00000000000E+00  0.00000000000E+00  0.11696209107E+04  0.11696209107E+04  0.00000000000E+00 0. -1.
         21   -1    0    0  504  502  0.00000000000E+00 -0.00000000000E+00 -0.13801886906E+03  0.13801886906E+03  0.00000000000E+00 0.  1.
         21    1    1    2  503  502 -0.78614834627E+02  0.50224287256E+02 -0.96616546274E+02  0.13430386542E+03  0.00000000000E+00 0.  1.
         21    1    1    2  504  501  0.33130334963E+02 -0.86440688805E+02  0.13894567120E+03  0.16695960985E+03  0.00000000000E+00 0.  1.
         21    1    1    2  505  503 -0.52969499669E+02 -0.68876701399E+01  0.13208519756E+03  0.14247704134E+03  0.00000000000E+00 0. -1.
          2    1    1    2  501    0  0.98453999333E+02  0.43104071688E+02  0.85718771915E+03  0.86389926313E+03  0.00000000000E+00 0. -1.
<scales pt_clust_3="14000.00000" pt_clust_4="91.42235" pt_clust_5="53.41543" pt_clust_6="65.91198"></scales>
<clustering>
<clus scale="   53.415">  1  5  2 -1</clus>
<clus scale="   65.912">  1  6  2 -1</clus>
<clus scale="   91.422">  1  4  2 -1</clus>
<clus scale="   91.422">  2  3  1 -1</clus>
</clustering>
</event>
<event>
 6    0  0.2117869E+002  0.1499099E+03  0.7546771E-02  0.1200584E+00
          2   -1    0    0  504    0 -0.00000000000E+00  0.00000000000E+00  0.13535009670E+04  0.13535009670E+04  0.00000000000E+00 0. -1.
         21   -1    0    0  505  502  0.00000000000E+00 -0.00000000000E+00 -0.27142975961E+02  0.27142975961E+02  0.00000000000E+00 0. -1.
         21    1    1    2  503  501 -0.31552419775E+01 -0.40568491174E+02  0.17976436518E+03  0.18431219444E+03  0.00000000000E+00 0. -1.
         21    1    1    2  504  502 -0.41306525733E+02  0.26247017542E+02  0.66893893342E+02  0.82885028591E+02  0.00000000000E+00 0. -1.
         21    1    1    2  505  503  0.13113815815E+03  0.71762958252E+02  0.42462425447E+03  0.45016985259E+03  0.00000000000E+00 0. -1.
          2    1    1    2  501    0 -0.86676390441E+02 -0.57441484621E+02  0.65507547806E+03  0.66327686736E+03  0.00000000000E+00 0. -1.
<scales pt_clust_3="38.42988" pt_clust_4="48.94012" pt_clust_5="136.74425" pt_clust_6="38.42988"></scales>
<clustering>
<clus scale="   38.430">  3  6 -1 -1</clus>
<clus scale="   48.940">  2  4  1 -1</clus>
<clus scale="  136.744">  2  5  1 -1</clus>
<clus scale="   48.940">  2  3  1 -1</clus>
</clustering>
</event>
<event>
 6    0  0.2117869E+002  0.8049662E+02  0.7546771E-02  0.1327648E+00
         21   -1    0    0  501  502  0.00000000000E+00  0.00000000000E+00  0.42000841528E+02  0.42000841528E+02  0.00000000000E+00 0. -1.
          2   -1    0    0  505    0 -0.00000000000E+00 -0.00000000000E+00 -0.94852052174E+03  0.94852052174E+03  0.00000000000E+00 0.  1.
         21    1    1    2  503  502  0.33206825469E+02  0.43376746643E+02 -0.58571816913E+01  0.54941259399E+02  0.00000000000E+00 0. -1.
         21    1    1    2  504  503 -0.25409051381E+02 -0.12477587522E+03 -0.28212909567E+03  0.30953427202E+03  0.00000000000E+00 0.  1.
         21    1    1    2  505  504 -0.14332993482E+02  0.33520622956E+02 -0.12659343198E+03  0.13173824002E+03  0.00000000000E+00 0. -1.
          2    1    1    2  501    0  0.65352193934E+01  0.47878505624E+02 -0.49193997087E+03  0.49430759182E+03  0.00000000000E+00 0.  1.
<scales pt_clust_3="55.30497" pt_clust_4="80.49662" pt_clust_5="36.45637" pt_clust_6="14000.00000"></scales>
<clustering>
<clus scale="   36.456">  2  5  1 -1</clus>
<clus scale="   55.305">  1  3  2 -1</clus>
<clus scale="   80.497">  1  4  2 -1</clus>
<clus scale="   55.305">  1  3  2 -1</clus>
</clustering>
</event>
<event>
 6    0  0.2117869E+002  0.8715991E+02  0.7546771E-02  0.1309879E+00
         21   -1    0    0  504  502  0.00000000000E+00  0.00000000000E+00  0.26595372934E+03  0.26595372934E+03  0.00000000000E+00 0.  1.
          1   -1    0    0  505    0 -0.00000000000E+00 -0.00000000000E+00 -0.20393391538E+04  0.20393391538E+04  0.00000000000E+00 0. -1.
         21    1    1    2  503  502  0.54023319748E+02  0.16377532555E+02  0.75073625525E+02  0.93929717867E+02  0.00000000000E+00 0.  1.
         21    1    1    2  504  501 -0.13992346250E+03 -0.10196309650E+02  0.14832046909E+03  0.20416048011E+03  0.00000000000E+00 0.  1.
         21    1    1    2  505  503  0.38326138120E+02  0.34409244687E+02 -0.13684488632E+03  0.14621700275E+03  0.00000000000E+00 0.  1.
          1    1    1    2  501    0  0.47574004636E+02 -0.40590467592E+02 -0.18599346328E+04  0.18609856824E+04  0.00000000000E+00 0. -1.
<scales pt_clust_3="56.68315" pt_clust_4="87.15991" pt_clust_5="51.50620" pt_clust_6="14000.00000"></scales>
<clustering>
<clus scale="   51.506">  2  5  1 -1</clus>
<clus scale="   56.683">  1  3  2 -1</clus>
<clus scale="   87.160">  1  4  2 -1</clus>
<clus scale="   56.683">  1  3  2 -1</clus>
</clustering>
</event>
<event>
 6    0  0.2117869E+002  0.9629887E+02  0.7546771E-02  0.1288277E+00
          2   -1    0    0  503    0 -0.00000000000E+00  0.00000000000E+00  0.10359783349E+04  0.10359783349E+04  0.00000000000E+00 0. -1.
         21   -1    0    0  504  502  0.00000000000E+00 -0.00000000000E+00 -0.20761337922E+03  0.20761337922E+03  0.00000000000E+00 0. -1.
         21    1    1    2  503  502 -0.50517338892E+02 -0.91414126088E+02 -0.13635154998E+03  0.17175648214E+03  0.00000000000E+00 0. -1.
         21    1    1    2  504  505 -0.54722025131E+02  0.63056678609E+02 -0.12177248725E+02  0.84373752661E+02  0.00000000000E+00 0. -1.
         21    1    1    2  505  501  0.58243527635E+02  0.15587973609E+02  0.19631951501E+03  0.20536953378E+03  0.00000000000E+00 0. -1.
          2    1    1    2  501    0  0.46995836388E+02  0.12769473870E+02  0.78057423936E+03  0.78209194552E+03  0.00000000000E+00 0. -1.
<scales pt_clust_3="14000.00000" pt_clust_4="80.73084" pt_clust_5="96.29887" pt_clust_6="48.69978"></scales>
<clustering>
<clus scale="   48.700">  1  6  2 -1</clus>
<clus scale="   80.731">  2  4  1 -1</clus>
<clus scale="   96.299">  1  5  2 -1</clus>
<clus scale="   80.731">  2  3  1 -1</clus>
</clustering>
</event>
<event>
 6    0  0.2117869E+002  0.1304311E+03  0.7546771E-02  0.1226817E+00
          2   -1    0    0  504    0 -0.00000000000E+00  0.00000000000E+00  0.22398115800E+04  0.22398115800E+04  0.00000000000E+00 0. -1.
         21   -1    0    0  503  502  0.00000000000E+00 -0.00000000000E+00 -0.26042215547E+03  0.26042215547E+03  0.00000000000E+00 0.  1.
         21    1    1    2  503  505 -0.88822244214E+02 -0.72501403269E+02 -0.18756033478E+03  0.21982885099E+03  0.00000000000E+00 0.  1.
         21    1    1    2  504  502  0.28510084594E+02 -0.40466140743E+02  0.20699980045E+03  0.21283620664E+03  0.00000000000E+00 0.  1.
         21    1    1    2  505  501  0.17794986967E+03  0.15417869069E+03  0.21709340316E+03  0.32026047285E+03  0.00000000000E+00 0. -1.
          2    1    1    2  501    0 -0.11763771005E+03 -0.41211146683E+02  0.17428565557E+04  0.17473082050E+04  0.00000000000E+00 0. -1.
<scales pt_clust_3="114.68384" pt_clust_4="49.50084" pt_clust_5="130.43114" pt_clust_6="14000.00000"></scales>
<clustering>
<clus scale="   49.501">  1  4  2 -1</clus>
<clus scale="  114.684">  2  3  1 -1</clus>
<clus scale="  130.431">  2  5  1 -1</clus>
<clus scale="  114.684">  2  3  1 -1</clus>
</clustering>
</event>
<event>
 6    0  0.2117869E+002  0.1116040E+03  0.7546771E-02  0.1257628E+00
         -2   -1    0    0    0  501 -0.00000000000E+00  0.00000000000E+00  0.45451290037E+03  0.45451290037E+03  0.00000000000E+00 0. -1.
         21   -1    0    0  505  502  0.00000000000E+00 -0.00000000000E+00 -0.89818458940E+03  0.89818458940E+03  0.00000000000E+00 0. -1.
         21    1    1    2  503  502 -0.31916429680E+02 -0.98054658137E+02 -0.86765663877E+03  0.87376279233E+03  0.00000000000E+00 0. -1.
         21    1    1    2  504  503  0.33497455427E+02  0.65568023770E+02  0.80484989535E+02  0.10908289876E+03  0.00000000000E+00 0. -1.
         21    1    1    2  505  501 -0.46206521789E+02 -0.31602895984E+02  0.18281909954E+03  0.19119782647E+03  0.00000000000E+00 0. -1.
         -2    1    1    2    0  504  0.44625496042E+02  0.64089530351E+02  0.16068086067E+03  0.17865397220E+03  0.00000000000E+00 0. -1.
<scales pt_clust_3="103.62519" pt_clust_4="40.23743" pt_clust_5="55.98023" pt_clust_6="40.23743"></scales>
<clustering>
<clus scale="   40.237">  4  6 -1 -1</clus>
<clus scale="   55.980">  1  5  2 -1</clus>
<clus scale="  103.625">  2  3  1 -1</clus>
<clus scale="  103.625">  2  3  1 -1</clus>
</clustering>
</event>
<event>
 6    0  0.2117869E+002  0.8535653E+02  0.7546771E-02  0.1314503E+00
          2   -1    0    0  503    0 -0.00000000000E+00  0.00000000000E+00  0.11530761858E+04  0.11530761858E+04  0.00000000000E+00 0.  1.
         21   -1    0    0  505  502  0.00000000000E+00 -0.00000000000E+00 -0.12230733805E+04  0.12230733805E+04  0.00000000000E+00 0.  1.
         21    1    1    2  503  502  0.16652518865E+02 -0.86731858201E+02 -0.53963149533E+02  0.10349755127E+03  0.00000000000E+00 0.  1.
         21    1    1    2  504  501 -0.72165647892E+02 -0.33359701868E+02  0.14604800481E+02  0.80833474758E+02  0.00000000000E+00 0.  1.
         21    1    1    2  505  504  0.30753156780E+02  0.38248875141E+02 -0.11089936064E+04  0.11100790747E+04  0.00000000000E+00 0.  1.
          2    1    1    2  501    0  0.24759972248E+02  0.81842684929E+02  0.10783547607E+04  0.10817394655E+04  0.00000000000E+00 0.  1.
<scales pt_clust_3="14000.00000" pt_clust_4="66.98336" pt_clust_5="49.07885" pt_clust_6="85.35653"></scales>
<clustering>
<clus scale="   49.079">  2  5  1 -1</clus>
<clus scale="   66.983">  2  4  1 -1</clus>
<clus scale="   85.357">  1  6  2 -1</clus>
<clus scale="   49.079">  2  3  1 -1</clus>
</clustering>
</event>
<event>
 6    0  0.2129538E+002  0.1579768E+03  0.7546771E-02  0.1191000E+00
         21   -1    0    0  504  502  0.00000000000E+00  0.00000000000E+00  0.48446246371E+03  0.48446246371E+03  0.00000000000E+00 0. -1.
          2   -1    0    0  503    0 -0.00000000000E+00 -0.00000000000E+00 -0.24695909133E+04  0.24695909133E+04  0.00000000000E+00 0.  1.
         21    1    1    2  503  505 -0.10661557861E+01 -0.32932793218E+02 -0.15532920560E+03  0.15878560284E+03  0.00000000000E+00 0.  1.
         21    1    1    2  504  501 -0.22928281196E+02 -0.13365003268E+03  0.44412527188E+03  0.46436547507E+03  0.00000000000E+00 0. -1.
         21    1    1    2  505  502  0.40835128895E+02 -0.23124577298E+02  0.20501788794E+01  0.46972939662E+02  0.00000000000E+00 0. -1.
          2    1    1    2  501    0 -0.16840691913E+02  0.18970740320E+03 -0.22759746948E+04  0.22839293595E+04  0.00000000000E+00 0.  1.
<scales pt_clust_3="32.95005" pt_clust_4="14000.00000" pt_clust_5="47.07764" pt_clust_6="157.97679"></scales>
<clustering>
<clus scale="   32.950">  2  3  1 -1</clus>
<clus scale="   47.078">  1  5  2 -1</clus>
<clus scale="  157.977">  2  6  1 -1</clus>
<clus scale="   47.078">  1  3  2 -1</clus>
</clustering>
</event>
<event>
 6    0  0.2117869E+002  0.5563212E+02  0.7546771E-02  0.1417133E+00
         21   -1    0    0  504  502  0.00000000000E+00  0.00000000000E+00  0.14913520870E+04  0.14913520870E+04  0.00000000000E+00 0.  1.
          1   -1    0    0  505    0 -0.00000000000E+00 -0.00000000000E+00 -0.10555053294E+04  0.10555053294E+04  0.00000000000E+00 0.  1.
         21    1    1    2  503  502  0.49403028687E+02  0.30296264115E+02  0.61154438117E+03  0.61428417935E+03  0.00000000000E+00 0.  1.
         21    1    1    2  504  501 -0.16098139707E+02 -0.58960561509E+02  0.87272624650E+03  0.87486376039E+03  0.00000000000E+00 0.  1.
         21    1    1    2  505  503  0.48301463894E+02 -0.88994051899E+01 -0.31541704007E+03  0.31921801327E+03  0.00000000000E+00 0. -1.
          1    1    1    2  501    0 -0.81606352874E+02  0.37563702584E+02 -0.73300683003E+03  0.73849146336E+03  0.00000000000E+00 0.  1.
<scales pt_clust_3="55.63212" pt_clust_4="14000.00000" pt_clust_5="49.11447" pt_clust_6="44.08172"></scales>
<clustering>
<clus scale="   49.114">  2  5  1 -1</clus>
<clus scale="   44.082">  2  6  1 -1</clus>
<clus scale="   55.632">  2  3  1 -1</clus>
<clus scale="   55.632">  1  3  2 -1</clus>
</clustering>
</event>
<event>
 6    0  0.2117869E+002  0.8545164E+02  0.7546771E-02  0.1314256E+00
         21   -1    0    0  504  502  0.00000000000E+00  0.00000000000E+00  0.26460845134E+03  0.26460845134E+03  0.00000000000E+00 0.  1.
          1   -1    0    0  505    0 -0.00000000000E+00 -0.00000000000E+00 -0.15691927867E+04  0.15691927867E+04  0.00000000000E+00 0. -1.
         21    1    1    2  503  502 -0.31170647907E+02 -0.70050906083E+02 -0.13236008077E+03  0.15296381832E+03  0.00000000000E+00 0. -1.
         21    1    1    2  504  501  0.59442692589E+02 -0.34554963319E+02  0.24294615615E+03  0.25248824523E+03  0.00000000000E+00 0.  1.
         21    1    1    2  505  503  0.24435440098E+02  0.49012373540E+02 -0.13221663027E+03  0.14311024007E+03  0.00000000000E+00 0. -1.
          1    1    1    2  501    0 -0.52707484780E+02  0.55593495862E+02 -0.12829537805E+04  0.12852389344E+04  0.00000000000E+00 0. -1.
<scales pt_clust_3="14000.00000" pt_clust_4="68.74522" pt_clust_5="54.76590" pt_clust_6="85.45164"></scales>
<clustering>
<clus scale="   54.766">  2  5  1 -1</clus>
<clus scale="   68.745">  1  4  2 -1</clus>
<clus scale="   85.452">  2  6  1 -1</clus>
<clus scale="   68.745">  1  3  2 -1</clus>
</clustering>
</event>
<event>
 6    0  0.2117869E+002  0.8518144E+02  0.7546771E-02  0.1314959E+00
          2   -1    0    0  505    0 -0.00000000000E+00  0.00000000000E+00  0.60836654785E+03  0.60836654785E+03  0.00000000000E+00 0. -1.
         21   -1    0    0  501  502  0.00000000000E+00 -0.00000000000E+00 -0.28497371617E+03  0.28497371617E+03  0.00000000000E+00 0. -1.
         21    1    1    2  503  502 -0.17016080858E+02 -0.83489831654E+02 -0.25670328762E+03  0.27047490988E+03  0.00000000000E+00 0. -1.
         21    1    1    2  504  503  0.23107829003E+02 -0.37850986057E+02  0.50948960285E+02  0.67546024760E+02  0.00000000000E+00 0. -1.
         21    1    1    2  505  504 -0.32024281725E+01  0.35717495385E+02  0.24450752560E+02  0.43403160294E+02  0.00000000000E+00 0. -1.
          2    1    1    2  501    0 -0.28893199722E+01  0.85623322327E+02  0.50469640645E+03  0.51191616910E+03  0.00000000000E+00 0. -1.
<scales pt_clust_3="85.18144" pt_clust_4="41.06344" pt_clust_5="35.86077" pt_clust_6="14000.00000"></scales>
<clustering>
<clus scale="   35.861">  1  5  2 -1</clus>
<clus scale="   41.063">  1  4  2 -1</clus>
<clus scale="   85.181">  2  3  1 -1</clus>
<clus scale="   85.181">  2  3  1 -1</clus>
</clustering>
</event>
<event>
 6    0  0.2117869E+002  0.9465286E+02  0.7546771E-02  0.1291960E+00
          2   -1    0    0  504    0 -0.00000000000E+00  0.00000000000E+00  0.14685663079E+04  0.14685663079E+04  0.00000000000E+00 0.  1.
         21   -1    0    0  501  502  0.00000000000E+00 -0.00000000000E+00 -0.28365111676E+03  0.28365111676E+03  0.00000000000E+00 0. -1.
         21    1    1    2  503  505 -0.80449007701E+01 -0.51360931922E+02  0.11695353143E+03  0.12798747701E+03  0.00000000000E+00 0.  1.
         21    1    1    2  504  503  0.39142645072E+02 -0.61838750290E+02  0.44354295900E+02  0.85577340842E+02  0.00000000000E+00 0.  1.
         21    1    1    2  505  502 -0.27430240787E+02  0.15846669093E+02 -0.25468783122E+03  0.25665039724E+03  0.00000000000E+00 0. -1.
          2    1    1    2  501    0 -0.36675035155E+01  0.97353013119E+02  0.12782951950E+04  0.12820022096E+04  0.00000000000E+00 0.  1.
<scales pt_clust_3="50.07747" pt_clust_4="94.65286" pt_clust_5="31.67862" pt_clust_6="14000.00000"></scales>
<clustering>
<clus scale="   31.679">  2  5  1 -1</clus>
<clus scale="   50.077">  2  3  1 -1</clus>
<clus scale="   94.653">  2  4  1 -1</clus>
<clus scale="   31.679">  2  3  1 -1</clus>
</clustering>
</event>
<event>
 6    0  0.2117869E+002  0.1265028E+03  0.7546771E-02  0.1232739E+00
          1   -1    0    0  505    0 -0.00000000000E+00  0.00000000000E+00  0.57594533383E+02  0.57594533383E+02  0.00000000000E+00 0. -1.
         21   -1    0    0  503  502  0.00000000000E+00 -0.00000000000E+00 -0.32585172497E+04  0.32585172497E+04  0.00000000000E+00 0. -1.
         21    1    1    2  503  501  0.55369106532E+02 -0.67783767722E+02 -0.21735622984E+03  0.23431625589E+03  0.00000000000E+00 0.  1.
         21    1    1    2  504  502 -0.44395305452E+02  0.12696769882E+03 -0.29106515263E+04  0.29137577194E+04  0.00000000000E+00 0. -1.
         21    1    1    2  505  504 -0.20094723197E+02  0.36457668608E+02 -0.57108604322E+02  0.70670730775E+02  0.00000000000E+00 0.  1.
          1    1    1    2  501    0  0.91209221169E+01 -0.95641599708E+02 -0.15806355915E+02  0.97367077097E+02  0.00000000000E+00 0. -1.
<scales pt_clust_3="14000.00000" pt_clust_4="126.50280" pt_clust_5="41.62883" pt_clust_6="66.75118"></scales>
<clustering>
<clus scale="   41.629">  1  5  2 -1</clus>
<clus scale="   66.751">  1  6  2 -1</clus>
<clus scale="  126.503">  2  4  1 -1</clus>
<clus scale="  126.503">  2  3  1 -1</clus>
</clustering>
</event>
<event>
 6    0  0.2117869E+002  0.1046934E+03  0.7546771E-02  0.1270725E+00
          2   -1    0    0  504    0 -0.00000000000E+00  0.00000000000E+00  0.76301324204E+02  0.76301324204E+02  0.00000000000E+00 0. -1.
         21   -1    0    0  503  502  0.00000000000E+00 -0.00000000000E+00 -0.84167313423E+03  0.84167313423E+03  0.00000000000E+00 0. -1.
         21    1    1    2  503  501 -0.57440257819E+02 -0.50023660554E+02 -0.46468246286E+03  0.47088378728E+03  0.00000000000E+00 0. -1.
         21    1    1    2  504  505 -0.12620242360E+02  0.71412672935E+02 -0.15433256694E+02  0.74143278759E+02  0.00000000000E+00 0. -1.
         21    1    1    2  505  502 -0.63238116679E+02  0.42286266697E+02 -0.16772502653E+03  0.18417076934E+03  0.00000000000E+00 0. -1.
          2    1    1    2  501    0  0.13329861686E+03 -0.63675279079E+02 -0.11753106394E+03  0.18877662305E+03  0.00000000000E+00 0. -1.
<scales pt_clust_3="73.81439" pt_clust_4="72.51924" pt_clust_5="104.69335" pt_clust_6="14000.00000"></scales>
<clustering>
<clus scale="   72.519">  1  4  2 -1</clus>
<clus scale="   73.814">  2  3  1 -1</clus>
<clus scale="  104.693">  2  5  1 -1</clus>
<clus scale="   73.814">  2  3  1 -1</clus>
</clustering>
</event>
<event>
 6    0  0.2117869E+002  0.2158709E+03  0.7546771E-02  0.1136999E+00
          2   -1    0    0  502    0 -0.00000000000E+00  0.00000000000E+00  0.29839003244E+04  0.29839003244E+04  0.00000000000E+00 0.  1.
         21   -1    0    0  503  502  0.00000000000E+00 -0.00000000000E+00 -0.13169932646E+04  0.13169932646E+04  0.00000000000E+00 0.  1.
         21    1    1    2  503  504 -0.36924912794E+02  0.32753189722E+02 -0.83665970813E+03  0.83811436441E+03  0.00000000000E+00 0.  1.
         21    1    1    2  504  505 -0.91885013252E+02  0.15787103378E+03 -0.41626547868E+03  0.45458010043E+03  0.00000000000E+00 0.  1.
         21    1    1    2  505  501  0.18198246467E+03 -0.59059310439E+02  0.17373094781E+03  0.25843386354E+03  0.00000000000E+00 0. -1.
          2    1    1    2  501    0 -0.53172538620E+02 -0.13156491306E+03  0.27461012988E+04  0.27497652606E+04  0.00000000000E+00 0.  1.
<scales pt_clust_3="49.35809" pt_clust_4="14000.00000" pt_clust_5="215.87089" pt_clust_6="141.84062"></scales>
<clustering>
<clus scale="   49.358">  2  3  1 -1</clus>
<clus scale="  141.841">  1  6  2 -1</clus>
<clus scale="  215.871">  1  5  2 -1</clus>
<clus scale="   49.358">  2  3  1 -1</clus>
</clustering>
</event>
<event>
 6    0  0.2117869E+002  0.1344203E+03  0.7546771E-02  0.1221040E+00
          1   -1    0    0  504    0 -0.00000000000E+00  0.00000000000E+00  0.92382578233E+03  0.92382578233E+03  0.00000000000E+00 0.  1.
         21   -1    0    0  503  502  0.00000000000E+00 -0.00000000000E+00 -0.11484765456E+03  0.11484765456E+03  0.00000000000E+00 0.  1.
         21    1    1    2  503  501  0.79545609286E+02 -0.12060603327E+03 -0.26626252452E+02  0.14690907575E+03  0.00000000000E+00 0.  1.
         21    1    1    2  504  505  0.50605897378E+02 -0.11548511201E+02  0.79238249720E+02  0.94726053328E+02  0.00000000000E+00 0.  1.
         21    1    1    2  505  502  0.16510201260E+02  0.36481440796E+02  0.30464527578E+02  0.50314706685E+02  0.00000000000E+00 0.  1.
          1    1    1    2  501    0 -0.14666170792E+03  0.95673103679E+02  0.72590160293E+03  0.74672360112E+03  0.00000000000E+00 0.  1.
<scales pt_clust_3="134.42032" pt_clust_4="52.57567" pt_clust_5="40.04350" pt_clust_6="14000.00000"></scales>
<clustering>
<clus scale="   40.044">  2  5  1 -1</clus>
<clus scale="   52.576">  1  4  2 -1</clus>
<clus scale="  134.420">  2  3  1 -1</clus>
<clus scale="   40.044">  2  3  1 -1</clus>
</clustering>
</event>
<event>
 6    0  0.2117869E+002  0.8112327E+02  0.7546771E-02  0.1325894E+00
         -2   -1    0    0    0  501 -0.00000000000E+00  0.00000000000E+00  0.38642851985E+03  0.38642851985E+03  0.00000000000E+00 0.  1.
         21   -1    0    0  503  502  0.00000000000E+00 -0.00000000000E+00 -0.13464547917E+04  0.13464547917E+04  0.00000000000E+00 0.  1.
         21    1    1    2  503  505 -0.34685078666E+02  0.17346166469E+02 -0.92875656500E+03  0.92956586706E+03  0.00000000000E+00 0.  1.
         21    1    1    2  504  502  0.10635970260E+03 -0.49762148792E+02 -0.38923862450E+03  0.40656532635E+03  0.00000000000E+00 0.  1.
         21    1    1    2  505  501  0.27361497589E+02  0.16478768697E+02  0.23905795043E+03  0.24118230663E+03  0.00000000000E+00 0.  1.
         -2    1    1    2    0  504 -0.99036121521E+02  0.15937213625E+02  0.11891096719E+03  0.15556981154E+03  0.00000000000E+00 0.  1.
<scales pt_clust_3="38.73349" pt_clust_4="81.12327" pt_clust_5="31.94059" pt_clust_6="14000.00000"></scales>
<clustering>
<clus scale="   31.941">  1  5  2 -1</clus>
<clus scale="   38.733">  2  3  1 -1</clus>
<clus scale="   81.123">  2  4  1 -1</clus>
<clus scale="   38.733">  2  3  1 -1</clus>
</clustering>
</event>
<event>
 6    0  0.2117869E+002  0.1194859E+03  0.7546771E-02  0.1243948E+00
         21   -1    0    0  501  502  0.00000000000E+00  0.00000000000E+00  0.29167322309E+03  0.29167322309E+03  0.00000000000E+00 0.  1.
          1   -1    0    0  503    0 -0.00000000000E+00 -0.00000000000E+00 -0.77346244354E+03  0.77346244354E+03  0.00000000000E+00 0.  1.
         21    1    1    2  503  505 -0.34159683023E+02 -0.88779723475E+01 -0.59135584449E+03  0.59240816770E+03  0.00000000000E+00 0.  1.
         21    1    1    2  504  502 -0.34997200673E+02  0.15746115003E+02  0.31549837436E+02  0.49680342540E+02  0.00000000000E+00 0.  1.
         21    1    1    2  505  504 -0.78235520661E+02 -0.51613600655E+02  0.20370960543E+03  0.22423729353E+03  0.00000000000E+00 0.  1.
          1    1    1    2  501    0  0.14739240436E+03  0.44745458000E+02 -0.12569281882E+03  0.19880986287E+03  0.00000000000E+00 0.  1.
<scales pt_clust_3="35.29451" pt_clust_4="39.76505" pt_clust_5="14000.00000" pt_clust_6="119.48592"></scales>
<clustering>
<clus scale="   35.295">  2  3  1 -1</clus>
<clus scale="   39.765">  1  4  2 -1</clus>
<clus scale="  119.486">  2  6  1 -1</clus>
<clus scale="   39.765">  1  3  2 -1</clus>
</clustering>
</event>
<event>
 6    0  0.2117869E+002  0.1209739E+03  0.7546771E-02  0.1241499E+00
         21   -1    0    0  505  502  0.00000000000E+00  0.00000000000E+00  0.46698728241E+03  0.46698728241E+03  0.00000000000E+00 0.  1.
          1   -1    0    0  503    0 -0.00000000000E+00 -0.00000000000E+00 -0.17323181266E+04  0.17323181266E+04  0.00000000000E+00 0. -1.
         21    1    1    2  503  504  0.55886297537E+02  0.84539769985E+02 -0.97163919756E+02  0.14039614761E+03  0.00000000000E+00 0.  1.
         21    1    1    2  504  502 -0.13682474203E+02 -0.38014510700E+02  0.34495740653E+03  0.34731531127E+03  0.00000000000E+00 0.  1.
         21    1    1    2  505  501  0.49650539992E+02  0.35974242417E+02  0.87153694576E+02  0.10656025862E+03  0.00000000000E+00 0.  1.
          1    1    1    2  501    0 -0.91854363326E+02 -0.82499501703E+02 -0.16002780256E+04  0.16050336915E+04  0.00000000000E+00 0. -1.
<scales pt_clust_3="14000.00000" pt_clust_4="40.40190" pt_clust_5="39.07465" pt_clust_6="120.97385"></scales>
<clustering>
<clus scale="   40.402">  1  4  2 -1</clus>
<clus scale="   39.075">  1  5  2 -1</clus>
<clus scale="  120.974">  2  6  1 -1</clus>
<clus scale="   40.402">  1  3  2 -1</clus>
</clustering>
</event>
<event>
 6    0  0.2117869E+002  0.7315568E+02  0.7546771E-02  0.1349679E+00
         21   -1    0    0  503  502  0.00000000000E+00  0.00000000000E+00  0.38022046059E+03  0.38022046059E+03  0.00000000000E+00 0.  1.
          2   -1    0    0  504    0 -0.00000000000E+00 -0.00000000000E+00 -0.19311332409E+04  0.19311332409E+04  0.00000000000E+00 0. -1.
         21    1    1    2  503  505 -0.68291022236E+01 -0.54507856195E+02  0.36660927264E+03  0.37070217400E+03  0.00000000000E+00 0.  1.
         21    1    1    2  504  502  0.79013792197E+02  0.11352008516E+02 -0.27958274472E+03  0.29075515232E+03  0.00000000000E+00 0.  1.
         21    1    1    2  505  501 -0.65822557914E+02 -0.10447125473E+02 -0.19741956417E+03  0.20836563027E+03  0.00000000000E+00 0.  1.
          2    1    1    2  501    0 -0.63621320595E+01  0.53602973152E+02 -0.14405197440E+04  0.14415307449E+04  0.00000000000E+00 0. -1.
<scales pt_clust_3="54.71523" pt_clust_4="73.15568" pt_clust_5="14000.00000" pt_clust_6="53.97921"></scales>
<clustering>
<clus scale="   53.979">  2  6  1 -1</clus>
<clus scale="   54.715">  1  3  2 -1</clus>
<clus scale="   73.156">  1  4  2 -1</clus>
<clus scale="   54.715">  1  3  2 -1</clus>
</clustering>
</event>
<event>
 6    0  0.2117869E+002  0.8474920E+02  0.7546771E-02  0.1316090E+00
         -4   -1    0    0    0  501 -0.00000000000E+00  0.00000000000E+00  0.84599564975E+03  0.84599564975E+03  0.00000000000E+00 0.  1.
         21   -1    0    0  504  502  0.00000000000E+00 -0.00000000000E+00 -0.92119882913E+02  0.92119882913E+02  0.00000000000E+00 0.  1.
         21    1    1    2  503  502 -0.40834846865E+02 -0.70346448159E+02 -0.23816805117E+01  0.81374319593E+02  0.00000000000E+00 0.  1.
         21    1    1    2  504  505  0.10771176197E+03  0.26324386758E+02  0.26572915582E+02  0.11402156308E+03  0.00000000000E+00 0.  1.
         21    1    1    2  505  501 -0.16912000145E+02 -0.38381901283E+02  0.24130623393E+03  0.24492424263E+03  0.00000000000E+00 0.  1.
         -4    1    1    2    0  503 -0.49964914957E+02  0.82403962685E+02  0.48837829784E+03  0.49779540736E+03  0.00000000000E+00 0.  1.
<scales pt_clust_3="14000.00000" pt_clust_4="84.74920" pt_clust_5="41.94265" pt_clust_6="81.68401"></scales>
<clustering>
<clus scale="   41.943">  1  5  2 -1</clus>
<clus scale="   81.684">  1  6  2 -1</clus>
<clus scale="   84.749">  1  4  2 -1</clus>
<clus scale="   84.749">  2  3  1 -1</clus>
</clustering>
</event>
<event>
 6    0  0.2117869E+002  0.9813386E+02  0.7546771E-02  0.1284270E+00
          2   -1    0    0  505    0 -0.00000000000E+00  0.00000000000E+00  0.20843981520E+04  0.20843981520E+04  0.00000000000E+00 0. -1.
         21   -1    0    0  501  502  0.00000000000E+00 -0.00000000000E+00 -0.37080060645E+02  0.37080060645E+02  0.00000000000E+00 0. -1.
         21    1    1    2  503  504 -0.71789262388E+02  0.10861141044E+03  0.35924336402E+03  0.38210722483E+03  0.00000000000E+00 0. -1.
         21    1    1    2  504  502 -0.35532586903E+02 -0.89054024594E+02  0.76677811614E+02  0.12277080607E+03  0.00000000000E+00 0. -1.
         21    1    1    2  505  503  0.32067492327E+02 -0.18682840094E+02  0.21522988298E+03  0.21840621582E+03  0.00000000000E+00 0.  1.
          2    1    1    2  501    0  0.75254356964E+02 -0.87454575646E+00  0.13961670327E+04  0.13981939659E+04  0.00000000000E+00 0. -1.
<scales pt_clust_3="14000.00000" pt_clust_4="96.19308" pt_clust_5="37.11297" pt_clust_6="98.13386"></scales>
<clustering>
<clus scale="   37.113">  1  5  2 -1</clus>
<clus scale="   96.193">  2  4  1 -1</clus>
<clus scale="   98.134">  1  6  2 -1</clus>
<clus scale="   96.193">  2  3  1 -1</clus>
</clustering>
</event>
<event>
 6    0  0.2117869E+002  0.1817253E+03  0.7546771E-02  0.1166144E+00
         21   -1    0    0  505  502  0.00000000000E+00  0.00000000000E+00  0.31980268180E+03  0.31980268180E+03  0.00000000000E+00 0.  1.
          1   -1    0    0  502    0 -0.00000000000E+00 -0.00000000000E+00 -0.11566712413E+04  0.11566712413E+04  0.00000000000E+00 0. -1.
         21    1    1    2  503  504 -0.33465419566E+02 -0.16345076643E+03  0.14684412101E+03  0.22225949525E+03  0.00000000000E+00 0.  1.
         21    1    1    2  504  501  0.13782953127E+02  0.56235064263E+02 -0.27941208365E+03  0.28534797132E+03  0.00000000000E+00 0.  1.
         21    1    1    2  505  503  0.44614009476E+02 -0.12400762124E+02  0.12360448779E+03  0.13199340190E+03  0.00000000000E+00 0.  1.
          1    1    1    2  501    0 -0.24931543037E+02  0.11961646429E+03 -0.82790508461E+03  0.83687305458E+03  0.00000000000E+00 0. -1.
<scales pt_clust_3="175.62290" pt_clust_4="32.14546" pt_clust_5="46.30539" pt_clust_6="32.14546"></scales>
<clustering>
<clus scale="   32.145">  4  6 -1 -1</clus>
<clus scale="   46.305">  1  5  2 -1</clus>
<clus scale="  175.623">  1  3  2 -1</clus>
<clus scale="   46.305">  1  3  2 -1</clus>
</clustering>
</event>
<event>
 6    0  0.2117869E+002  0.1189242E+03  0.7546771E-02  0.1244882E+00
         21   -1    0    0  505  502  0.00000000000E+00  0.00000000000E+00  0.80526183299E+03  0.80526183299E+03  0.00000000000E+00 0. -1.
          2   -1    0    0  504    0 -0.00000000000E+00 -0.00000000000E+00 -0.38854849351E+03  0.38854849351E+03  0.00000000000E+00 0. -1.
         21    1    1    2  503  502  0.54503063722E+02 -0.14074923563E+03  0.51382829751E+02  0.15944004039E+03  0.00000000000E+00 0. -1.
         21    1    1    2  504  503  0.36184068049E+02  0.44568853671E+02 -0.28893986589E+03  0.29458770443E+03  0.00000000000E+00 0. -1.
         21    1    1    2  505  501 -0.56262584647E+02  0.10160017848E+03  0.68411372458E+03  0.69390176744E+03  0.00000000000E+00 0. -1.
          2    1    1    2  501    0 -0.34424547124E+02 -0.54197965216E+01 -0.29843348958E+02  0.45880814249E+02  0.00000000000E+00 0. -1.
<scales pt_clust_3="14000.00000" pt_clust_4="40.76377" pt_clust_5="118.92419" pt_clust_6="34.84858"></scales>
<clustering>
<clus scale="   34.849">  2  6  1 -1</clus>
<clus scale="   40.764">  2  4  1 -1</clus>
<clus scale="  118.924">  1  5  2 -1</clus>
<clus scale="  118.924">  1  3  2 -1</clus>
</clustering>
</event>
<event>
 6    0  0.2117869E+002  0.1401603E+03  0.7546771E-02  0.1213113E+00
         21   -1    0    0  505  502  0.00000000000E+00  0.00000000000E+00  0.36404524344E+03  0.36404524344E+03  0.00000000000E+00 0.  1.
         -2   -1    0    0    0  501 -0.00000000000E+00 -0.00000000000E+00 -0.12353013445E+04  0.12353013445E+04  0.00000000000E+00 0. -1.
         21    1    1    2  503  501  0.50858532585E+02 -0.13811365558E+02 -0.18209980218E+03  0.18957236641E+03  0.00000000000E+00 0.  1.
         21    1    1    2  504  503  0.23450624721E+02 -0.65264562040E+02  0.16698516835E+03  0.18081327746E+03  0.00000000000E+00 0.  1.
         21    1    1    2  505  504 -0.40804361611E+02 -0.57763642811E+02  0.17473390681E+03  0.18850350805E+03  0.00000000000E+00 0. -1.
         -2    1    1    2    0  502 -0.33504795694E+02  0.13683957041E+03 -0.10308753741E+04  0.10404574360E+04  0.00000000000E+00 0. -1.
<scales pt_clust_3="52.70051" pt_clust_4="64.21303" pt_clust_5="64.21303" pt_clust_6="124.33441"></scales>
<clustering>
<clus scale="   52.701">  2  3  1 -1</clus>
<clus scale="   64.213">  4  5 -1 -1</clus>
<clus scale="  124.334">  2  6  1 -1</clus>
<clus scale="  140.160">  1  3  2 -1</clus>
</clustering>
</event>
<event>
 6    0  0.2117869E+002  0.8218251E+02  0.7546771E-02  0.1322969E+00
         21   -1    0    0  504  502  0.00000000000E+00  0.00000000000E+00  0.21389516348E+03  0.21389516348E+03  0.00000000000E+00 0. -1.
          3   -1    0    0  503    0 -0.00000000000E+00 -0.00000000000E+00 -0.54574283214E+03  0.54574283214E+03  0.00000000000E+00 0. -1.
         21    1    1    2  503  502  0.25024456433E+02 -0.31301098381E+02  0.32798512275E+02  0.51785370396E+02  0.00000000000E+00 0. -1.
         21    1    1    2  504  505 -0.28546738863E+02  0.56393419680E+02  0.13737863451E+03  0.15122176861E+03  0.00000000000E+00 0. -1.
         21    1    1    2  505  501  0.74340524921E+02  0.19210688839E+02 -0.38978002443E+02  0.86109516812E+02  0.00000000000E+00 0. -1.
          3    1    1    2  501    0 -0.70818242490E+02 -0.44303010138E+02 -0.46304681300E+03  0.47052133980E+03  0.00000000000E+00 0. -1.
<scales pt_clust_3="40.07471" pt_clust_4="30.99455" pt_clust_5="82.18251" pt_clust_6="14000.00000"></scales>
<clustering>
<clus scale="   40.075">  1  3  2 -1</clus>
<clus scale="   30.995">  1  4  2 -1</clus>
<clus scale="   82.183">  1  5  2 -1</clus>
<clus scale="   40.075">  1  3  2 -1</clus>
</clustering>
</event>
<event>
 6    0  0.2117869E+002  0.1516193E+03  0.7546771E-02  0.1198497E+00
         21   -1    0    0  505  502  0.00000000000E+00  0.00000000000E+00  0.15431535635E+03  0.15431535635E+03  0.00000000000E+00 0.  1.
          2   -1    0    0  503    0 -0.00000000000E+00 -0.00000000000E+00 -0.23765193628E+04  0.23765193628E+04  0.00000000000E+00 0.  1.
         21    1    1    2  503  502  0.28793159484E+02  0.16986480852E+02 -0.52828939754E+03  0.52934608161E+03  0.00000000000E+00 0.  1.
         21    1    1    2  504  501 -0.82887173306E+02 -0.13065795372E+03 -0.50690392439E+03  0.52999374801E+03  0.00000000000E+00 0.  1.
         21    1    1    2  505  504  0.46912596035E+02  0.14429269700E+03  0.10153429098E+03  0.18256611492E+03  0.00000000000E+00 0.  1.
          2    1    1    2  501    0  0.71814177876E+01 -0.30621224133E+02 -0.12885449755E+04  0.12889287747E+04  0.00000000000E+00 0.  1.
<scales pt_clust_3="32.35259" pt_clust_4="14000.00000" pt_clust_5="151.61925" pt_clust_6="31.45206"></scales>
<clustering>
<clus scale="   31.452">  2  6  1 -1</clus>
<clus scale="   32.353">  2  3  1 -1</clus>
<clus scale="  151.619">  1  5  2 -1</clus>
<clus scale="  151.619">  1  3  2 -1</clus>
</clustering>
</event>
<event>
 6    0  0.2117869E+002  0.1042673E+03  0.7546771E-02  0.1271570E+00
         21   -1    0    0  504  502  0.00000000000E+00  0.00000000000E+00  0.11373067753E+03  0.11373067753E+03  0.00000000000E+00 0.  1.
          2   -1    0    0  503    0 -0.00000000000E+00 -0.00000000000E+00 -0.82436498719E+03  0.82436498719E+03  0.00000000000E+00 0.  1.
         21    1    1    2  503  502 -0.26716469257E+02 -0.80017335277E+02 -0.22100225857E+03  0.23655557902E+03  0.00000000000E+00 0.  1.
         21    1    1    2  504  505 -0.38973557891E+02  0.28840191932E+02  0.45839250853E+02  0.66722798234E+02  0.00000000000E+00 0.  1.
         21    1    1    2  505  501  0.63861079568E+02 -0.74581646316E+02 -0.14952363213E+02  0.99318843209E+02  0.00000000000E+00 0.  1.
          2    1    1    2  501    0  0.18289475794E+01  0.12575878966E+03 -0.52051893873E+03  0.53549844426E+03  0.00000000000E+00 0.  1.
<scales pt_clust_3="14000.00000" pt_clust_4="48.48397" pt_clust_5="63.98656" pt_clust_6="104.26732"></scales>
<clustering>
<clus scale="   48.484">  1  4  2 -1</clus>
<clus scale="   63.987">  1  5  2 -1</clus>
<clus scale="  104.267">  2  6  1 -1</clus>
<clus scale="   48.484">  1  3  2 -1</clus>
</clustering>
</event>
<event>
 6    0  0.2117869E+002  0.1267192E+03  0.7546771E-02  0.1232407E+00
          2   -1    0    0  504    0 -0.00000000000E+00  0.00000000000E+00  0.49581550698E+03  0.49581550698E+03  0.00000000000E+00 0. -1.
         21   -1    0    0  501  502  0.00000000000E+00 -0.00000000000E+00 -0.65588745216E+03  0.65588745216E+03  0.00000000000E+00 0. -1.
         21    1    1    2  503  502  0.98482666688E+01 -0.76331451110E+02 -0.42320196893E+03  0.43014344735E+03  0.00000000000E+00 0. -1.
         21    1    1    2  504  505 -0.49120962843E+02  0.65911770549E+02 -0.21091335223E+02  0.84865039381E+02  0.00000000000E+00 0. -1.
         21    1    1    2  505  503  0.29100654373E+02 -0.45606412017E+02 -0.17026588117E+03  0.17865403212E+03  0.00000000000E+00 0. -1.
          2    1    1    2  501    0  0.10172041802E+02  0.56026092578E+02  0.45448724015E+03  0.45804044029E+03  0.00000000000E+00 0. -1.
<scales pt_clust_3="37.90871" pt_clust_4="118.37788" pt_clust_5="37.90871" pt_clust_6="56.94202"></scales>
<clustering>
<clus scale="   37.909">  3  5 -1 -1</clus>
<clus scale="   56.942">  1  6  2 -1</clus>
<clus scale="  118.378">  1  4  2 -1</clus>
<clus scale="  126.719">  2  3  1 -1</clus>
</clustering>
</event>
<event>
 6    0  0.2117869E+002  0.8224569E+02  0.7546771E-02  0.1322797E+00
         21   -1    0    0  504  502  0.00000000000E+00  0.00000000000E+00  0.12303127933E+03  0.12303127933E+03  0.00000000000E+00 0. -1.
          2   -1    0    0  503    0 -0.00000000000E+00 -0.00000000000E+00 -0.32078096855E+04  0.32078096855E+04  0.00000000000E+00 0.  1.
         21    1    1    2  503  505  0.30518700974E+02  0.16738644239E+02 -0.21989198802E+03  0.22262987157E+03  0.00000000000E+00 0.  1.
         21    1    1    2  504  501 -0.18306701317E+02  0.31340169033E+02 -0.52831607938E+02  0.64097740252E+02  0.00000000000E+00 0.  1.
         21    1    1    2  505  502  0.71653443098E+02  0.30501585341E+02  0.10170072679E+03  0.12809215607E+03  0.00000000000E+00 0. -1.
          2    1    1    2  501    0 -0.83865442755E+02 -0.78580398613E+02 -0.29137555370E+04  0.29160211969E+04  0.00000000000E+00 0.  1.
<scales pt_clust_3="34.80766" pt_clust_4="36.28320" pt_clust_5="82.24569" pt_clust_6="14000.00000"></scales>
<clustering>
<clus scale="   34.808">  2  3  1 -1</clus>
<clus scale="   36.283">  1  4  2 -1</clus>
<clus scale="   82.246">  1  5  2 -1</clus>
<clus scale="   36.283">  1  3  2 -1</clus>
</clustering>
</event>
<event>
 6    0  0.2117869E+002  0.9136084E+02  0.7546771E-02  0.1299589E+00
         -4   -1    0    0    0  501 -0.00000000000E+00  0.00000000000E+00  0.20952651868E+03  0.20952651868E+03  0.00000000000E+00 0. -1.
         21   -1    0    0  503  502  0.00000000000E+00 -0.00000000000E+00 -0.10087405828E+04  0.10087405828E+04  0.00000000000E+00 0.  1.
         21    1    1    2  503  505 -0.25796652922E+02 -0.75984492898E+02 -0.44911051816E+03  0.45622293672E+03  0.00000000000E+00 0.  1.
         21    1    1    2  504  502 -0.32413311866E+02  0.44143152169E+01 -0.46257883087E+03  0.46373406574E+03  0.00000000000E+00 0.  1.
         21    1    1    2  505  501 -0.75427202637E+02 -0.20893012935E+02 -0.28381494868E+02  0.83254370084E+02  0.00000000000E+00 0.  1.
         -4    1    1    2    0  504  0.13363716743E+03  0.92463190616E+02  0.14085677978E+03  0.21505572893E+03  0.00000000000E+00 0. -1.
<scales pt_clust_3="91.36084" pt_clust_4="32.71252" pt_clust_5="81.35335" pt_clust_6="14000.00000"></scales>
<clustering>
<clus scale="   32.713">  2  4  1 -1</clus>
<clus scale="   81.353">  1  5  2 -1</clus>
<clus scale="   91.361">  2  3  1 -1</clus>
<clus scale="   32.713">  2  3  1 -1</clus>
</clustering>
</event>
<event>
 6    0  0.2117869E+002  0.8448843E+02  0.7546771E-02  0.1316776E+00
          1   -1    0    0  504    0 -0.00000000000E+00  0.00000000000E+00  0.17889640578E+04  0.17889640578E+04  0.00000000000E+00 0.  1.
         21   -1    0    0  503  502  0.00000000000E+00 -0.00000000000E+00 -0.10724124686E+03  0.10724124686E+03  0.00000000000E+00 0.  1.
         21    1    1    2  503  505 -0.48168443834E+02 -0.29970003438E+02 -0.78753637958E+02  0.97059443533E+02  0.00000000000E+00 0.  1.
         21    1    1    2  504  502 -0.25384983500E+02  0.19536918999E+02  0.12844271810E+03  0.13237681226E+03  0.00000000000E+00 0.  1.
         21    1    1    2  505  501  0.12073805445E+03 -0.12767017006E+02  0.20136994617E+03  0.23513938363E+03  0.00000000000E+00 0.  1.
          1    1    1    2  501    0 -0.47184627117E+02  0.23200101445E+02  0.14306637846E+04  0.14316296652E+04  0.00000000000E+00 0.  1.
<scales pt_clust_3="56.79317" pt_clust_4="32.03262" pt_clust_5="84.48843" pt_clust_6="14000.00000"></scales>
<clustering>
<clus scale="   32.033">  1  4  2 -1</clus>
<clus scale="   56.793">  2  3  1 -1</clus>
<clus scale="   84.488">  2  5  1 -1</clus>
<clus scale="   56.793">  2  3  1 -1</clus>
</clustering>
</event>
<event>
 6    0  0.2117869E+002  0.8354926E+02  0.7546771E-02  0.1319271E+00
         -4   -1    0    0    0  501 -0.00000000000E+00  0.00000000000E+00  0.89467720096E+02  0.89467720096E+02  0.00000000000E+00 0. -1.
         21   -1    0    0  504  502  0.00000000000E+00 -0.00000000000E+00 -0.19512967443E+03  0.19512967443E+03  0.00000000000E+00 0. -1.
         21    1    1    2  503  501  0.26611243570E+02 -0.21890692209E+02 -0.65303297675E+01  0.35071439900E+02  0.00000000000E+00 0.  1.
         21    1    1    2  504  505  0.38938161960E+02  0.55163446643E+02  0.46771366734E+01  0.67683542386E+02  0.00000000000E+00 0. -1.
         21    1    1    2  505  503 -0.22159340525E+02  0.49988715701E+02 -0.29671976442E+02  0.62212010544E+02  0.00000000000E+00 0. -1.
         -4    1    1    2    0  502 -0.43390065005E+02 -0.83261470134E+02 -0.74136784795E+02  0.11963040170E+03  0.00000000000E+00 0. -1.
<scales pt_clust_3="34.45810" pt_clust_4="83.54926" pt_clust_5="48.13301" pt_clust_6="14000.00000"></scales>
<clustering>
<clus scale="   34.458">  1  3  2 -1</clus>
<clus scale="   48.133">  1  5  2 -1</clus>
<clus scale="   83.549">  1  4  2 -1</clus>
<clus scale="   83.549">  2  3  1 -1</clus>
</clustering>
</event>
<event>
 6    0  0.2117869E+002  0.2516813E+03  0.7546771E-02  0.1112247E+00
          2   -1    0    0  503    0 -0.00000000000E+00  0.00000000000E+00  0.17230139595E+04  0.17230139595E+04  0.00000000000E+00 0.  1.
         21   -1    0    0  505  502  0.00000000000E+00 -0.00000000000E+00 -0.36532592448E+03  0.36532592448E+03  0.00000000000E+00 0.  1.
         21    1    1    2  503  504 -0.23774851643E+02  0.41188287296E+02  0.15025982382E+03  0.15760626014E+03  0.00000000000E+00 0. -1.
         21    1    1    2  504  502  0.25860143145E+03  0.56179073900E+02  0.87149944498E+02  0.27861425218E+03  0.00000000000E+00 0.  1.
         21    1    1    2  505  501 -0.24941223828E+03  0.13747544348E+02 -0.20436798095E+03  0.32274096612E+03  0.00000000000E+00 0.  1.
          2    1    1    2  501    0  0.14585658467E+02 -0.11111490554E+03  0.13246462477E+04  0.13293784056E+04  0.00000000000E+00 0.  1.
<scales pt_clust_3="47.55753" pt_clust_4="14000.00000" pt_clust_5="251.68132" pt_clust_6="76.48047"></scales>
<clustering>
<clus scale="   47.558">  1  3  2 -1</clus>
<clus scale="   76.480">  1  6  2 -1</clus>
<clus scale="  251.681">  2  5  1 -1</clus>
<clus scale="  251.681">  2  3  1 -1</clus>
</clustering>
</event>
<event>
 6    0  0.2117869E+002  0.1066892E+03  0.7546771E-02  0.1266827E+00
         21   -1    0    0  505  502  0.00000000000E+00  0.00000000000E+00  0.86592040474E+02  0.86592040474E+02  0.00000000000E+00 0.  1.
          2   -1    0    0  503    0 -0.00000000000E+00 -0.00000000000E+00 -0.12139505591E+04  0.12139505591E+04  0.00000000000E+00 0.  1.
         21    1    1    2  503  502  0.50244277438E+02 -0.44484387925E+02 -0.39102666364E+03  0.39674324174E+03  0.00000000000E+00 0.  1.
         21    1    1    2  504  501 -0.12341959249E+03  0.10086968943E+03 -0.15759849024E+03  0.22415256899E+03  0.00000000000E+00 0.  1.
         21    1    1    2  505  504  0.51899318361E+02 -0.80081586138E+02  0.45096362710E+01  0.95535001460E+02  0.00000000000E+00 0.  1.
          2    1    1    2  501    0  0.21275996689E+02  0.23696284631E+02 -0.58324300101E+03  0.58411178739E+03  0.00000000000E+00 0.  1.
<scales pt_clust_3="70.12876" pt_clust_4="14000.00000" pt_clust_5="106.68920" pt_clust_6="31.84622"></scales>
<clustering>
<clus scale="   31.846">  2  6  1 -1</clus>
<clus scale="   70.129">  2  3  1 -1</clus>
<clus scale="  106.689">  1  5  2 -1</clus>
<clus scale="  106.689">  1  3  2 -1</clus>
</clustering>
</event>
<event>
 6    0  0.2117869E+002  0.2000909E+03  0.7546771E-02  0.1149662E+00
         21   -1    0    0  501  502  0.00000000000E+00  0.00000000000E+00  0.29313794069E+03  0.29313794069E+03  0.00000000000E+00 0. -1.
          1   -1    0    0  505    0 -0.00000000000E+00 -0.00000000000E+00 -0.52664708231E+03  0.52664708231E+03  0.00000000000E+00 0. -1.
         21    1    1    2  503  504 -0.14880690130E+02 -0.16068808339E+03 -0.64631955629E+01  0.16150500914E+03  0.00000000000E+00 0. -1.
         21    1    1    2  504  502 -0.28876340896E+02 -0.38107857111E+02  0.15994825072E+03  0.16694159082E+03  0.00000000000E+00 0. -1.
         21    1    1    2  505  503 -0.14776216139E+01 -0.49863610958E+02 -0.68797650548E+02  0.84980467075E+02  0.00000000000E+00 0.  1.
          1    1    1    2  501    0  0.45234652640E+02  0.24865955146E+03 -0.31819654624E+03  0.40635795595E+03  0.00000000000E+00 0. -1.
<scales pt_clust_3="14000.00000" pt_clust_4="47.81267" pt_clust_5="52.34394" pt_clust_6="200.09092"></scales>
<clustering>
<clus scale="   47.813">  1  4  2 -1</clus>
<clus scale="   52.344">  2  5  1 -1</clus>
<clus scale="  200.091">  2  6  1 -1</clus>
<clus scale="   47.813">  1  3  2 -1</clus>
</clustering>
</event>
<event>
 6    0  0.2117869E+002  0.1194347E+03  0.7546771E-02  0.1244033E+00
          2   -1    0    0  504    0 -0.00000000000E+00  0.00000000000E+00  0.18976807182E+04  0.18976807182E+04  0.00000000000E+00 0.  1.
         21   -1    0    0  505  502  0.00000000000E+00 -0.00000000000E+00 -0.14102965020E+03  0.14102965020E+03  0.00000000000E+00 0.  1.
         21    1    1    2  503  502 -0.51195431190E+01  0.90358549891E+02 -0.67054420019E+02  0.11263734951E+03  0.00000000000E+00 0.  1.
         21    1    1    2  504  503 -0.36223366773E+02  0.17076685292E+02  0.12785761204E+03  0.13398251541E+03  0.00000000000E+00 0.  1.
         21    1    1    2  505  501 -0.43557075667E+02  0.20234034892E+02 -0.31833365302E+02  0.57619425154E+02  0.00000000000E+00 0.  1.
          2    1    1    2  501    0  0.84899985559E+02 -0.12766927007E+03  0.17276812413E+04  0.17344710784E+04  0.00000000000E+00 0.  1.
<scales pt_clust_3="119.43472" pt_clust_4="40.04679" pt_clust_5="48.31968" pt_clust_6="14000.00000"></scales>
<clustering>
<clus scale="   40.047">  1  4  2 -1</clus>
<clus scale="   48.320">  2  5  1 -1</clus>
<clus scale="  119.435">  2  3  1 -1</clus>
<clus scale="   48.320">  2  3  1 -1</clus>
</clustering>
</event>
<event>
 6    0  0.2117869E+002  0.9585766E+02  0.7546771E-02  0.1289256E+00
         21   -1    0    0  505  502  0.00000000000E+00  0.00000000000E+00  0.33526310598E+03  0.33526310598E+03  0.00000000000E+00 0. -1.
          1   -1    0    0  504    0 -0.00000000000E+00 -0.00000000000E+00 -0.10725885198E+04  0.10725885198E+04  0.00000000000E+00 0. -1.
         21    1    1    2  503  501  0.18719460060E+02 -0.78006202349E+02 -0.23669239376E+03  0.24991733644E+03  0.00000000000E+00 0.  1.
         21    1    1    2  504  502  0.39060472278E+02 -0.61342228446E+00 -0.10227573852E+02  0.40381927249E+02  0.00000000000E+00 0. -1.
         21    1    1    2  505  503 -0.81783261431E+02 -0.26423714970E+02  0.30397799849E+03  0.31589450475E+03  0.00000000000E+00 0. -1.
          1    1    1    2  501    0  0.24003329094E+02  0.10504333960E+03 -0.79438344473E+03  0.80165785736E+03  0.00000000000E+00 0. -1.
<scales pt_clust_3="95.85766" pt_clust_4="39.06529" pt_clust_5="51.60994" pt_clust_6="14000.00000"></scales>
<clustering>
<clus scale="   39.065">  1  4  2 -1</clus>
<clus scale="   51.610">  1  5  2 -1</clus>
<clus scale="   95.858">  1  3  2 -1</clus>
<clus scale="   39.065">  1  3  2 -1</clus>
</clustering>
</event>
<event>
 6    0  0.2117869E+002  0.1225702E+03  0.7546771E-02  0.1238916E+00
          2   -1    0    0  504    0 -0.00000000000E+00  0.00000000000E+00  0.79212685409E+03  0.79212685409E+03  0.00000000000E+00 0.  1.
         21   -1    0    0  503  502  0.00000000000E+00 -0.00000000000E+00 -0.20639940425E+03  0.20639940425E+03  0.00000000000E+00 0.  1.
         21    1    1    2  503  501  0.13771143560E+03  0.48063956735E+02  0.75305062415E+02  0.16415064988E+03  0.00000000000E+00 0.  1.
         21    1    1    2  504  505 -0.40969824563E+02 -0.27274954087E+02  0.16389084857E+03  0.17112176919E+03  0.00000000000E+00 0.  1.
         21    1    1    2  505  502 -0.11161015056E+03  0.57553844531E+02 -0.12961883195E+03  0.18047246972E+03  0.00000000000E+00 0.  1.
          2    1    1    2  501    0  0.14868539531E+02 -0.78342847179E+02  0.47615037081E+03  0.48278136956E+03  0.00000000000E+00 0.  1.
<scales pt_clust_3="14000.00000" pt_clust_4="49.21839" pt_clust_5="122.57018" pt_clust_6="100.65441"></scales>
<clustering>
<clus scale="   49.218">  1  4  2 -1</clus>
<clus scale="  100.654">  1  6  2 -1</clus>
<clus scale="  122.570">  2  5  1 -1</clus>
<clus scale="  122.570">  2  3  1 -1</clus>
</clustering>
</event>
<event>
 6    0  0.2117869E+002  0.7437132E+02  0.7546771E-02  0.1345829E+00
         21   -1    0    0  505  502  0.00000000000E+00  0.00000000000E+00  0.42354070199E+03  0.42354070199E+03  0.00000000000E+00 0.  1.
          2   -1    0    0  504    0 -0.00000000000E+00 -0.00000000000E+00 -0.75431131395E+03  0.75431131395E+03  0.00000000000E+00 0.  1.
         21    1    1    2  503  502 -0.48390495940E+02  0.70840730443E+02  0.28757708358E+03  0.30010102997E+03  0.00000000000E+00 0.  1.
         21    1    1    2  504  503  0.80320149515E+02  0.79291163122E+01  0.10663018079E+03  0.13373179412E+03  0.00000000000E+00 0.  1.
         21    1    1    2  505  501 -0.49602780166E+02 -0.29080242302E+02 -0.89639797493E+02  0.10649596043E+03  0.00000000000E+00 0. -1.
          2    1    1    2  501    0  0.17673126592E+02 -0.49689604452E+02 -0.63533807884E+03  0.63752323143E+03  0.00000000000E+00 0.  1.
<scales pt_clust_3="74.37132" pt_clust_4="14000.00000" pt_clust_5="78.59229" pt_clust_6="52.73894"></scales>
<clustering>
<clus scale="   52.739">  2  6  1 -1</clus>
<clus scale="   78.592">  2  5  1 -1</clus>
<clus scale="   74.371">  1  3  2 -1</clus>
<clus scale="   74.371">  1  3  2 -1</clus>
</clustering>
</event>
<event>
 6    0  0.2117869E+002  0.1165520E+03  0.7546771E-02  0.1248896E+00
         21   -1    0    0  504  502  0.00000000000E+00  0.00000000000E+00  0.94975629704E+03  0.94975629704E+03  0.00000000000E+00 0. -1.
          2   -1    0    0  505    0 -0.00000000000E+00 -0.00000000000E+00 -0.36779294597E+04  0.36779294597E+04  0.00000000000E+00 0.  1.
         21    1    1    2  503  502  0.65632306343E+02  0.63973376373E+02  0.84083634265E+03  0.84581673407E+03  0.00000000000E+00 0. -1.
         21    1    1    2  504  501  0.50935174440E+02 -0.62508483339E+02  0.84372255422E+02  0.11670638359E+03  0.00000000000E+00 0.  1.
         21    1    1    2  505  503  0.49880004581E+02 -0.44819091939E+02 -0.30135043985E+03  0.30872132005E+03  0.00000000000E+00 0.  1.
          2    1    1    2  501    0 -0.16644748536E+03  0.43354198905E+02 -0.33520313209E+04  0.33564413190E+04  0.00000000000E+00 0.  1.
<scales pt_clust_3="116.55201" pt_clust_4="80.95072" pt_clust_5="67.05793" pt_clust_6="14000.00000"></scales>
<clustering>
<clus scale="   67.058">  2  5  1 -1</clus>
<clus scale="   80.951">  1  4  2 -1</clus>
<clus scale="  116.552">  1  3  2 -1</clus>
<clus scale="   80.951">  1  3  2 -1</clus>
</clustering>
</event>
<event>
 6    0  0.2117869E+002  0.9448693E+02  0.7546771E-02  0.1292336E+00
          2   -1    0    0  504    0 -0.00000000000E+00  0.00000000000E+00  0.50861292563E+03  0.50861292563E+03  0.00000000000E+00 0. -1.
         21   -1    0    0  505  502  0.00000000000E+00 -0.00000000000E+00 -0.11746479961E+04  0.11746479961E+04  0.00000000000E+00 0. -1.
         21    1    1    2  503  501  0.99515317933E+02  0.29528927894E+02 -0.39781169355E+03  0.41113185186E+03  0.00000000000E+00 0. -1.
         21    1    1    2  504  502  0.10212578902E+02  0.30070023577E+02  0.36094557313E+03  0.36233990927E+03  0.00000000000E+00 0. -1.
         21    1    1    2  505  503 -0.47580632191E+02 -0.88225614008E+02 -0.75763515487E+03  0.76423733449E+03  0.00000000000E+00 0. -1.
          2    1    1    2  501    0 -0.62147264645E+02  0.28626662537E+02  0.12846620481E+03  0.14555182613E+03  0.00000000000E+00 0. -1.
<scales pt_clust_3="94.48693" pt_clust_4="31.75694" pt_clust_5="14000.00000" pt_clust_6="77.32909"></scales>
<clustering>
<clus scale="   31.757">  1  4  2 -1</clus>
<clus scale="   77.329">  1  6  2 -1</clus>
<clus scale="   94.487">  1  3  2 -1</clus>
<clus scale="   94.487">  2  3  1 -1</clus>
</clustering>
</event>
<event>
 6    0  0.2117869E+002  0.1231371E+03  0.7546771E-02  0.1238010E+00
         21   -1    0    0  504  502  0.00000000000E+00  0.00000000000E+00  0.46377572671E+03  0.46377572671E+03  0.00000000000E+00 0.  1.
          1   -1    0    0  505    0 -0.00000000000E+00 -0.00000000000E+00 -0.66477325352E+03  0.66477325352E+03  0.00000000000E+00 0.  1.
         21    1    1    2  503  502 -0.11060975270E+03  0.31019593067E+01  0.23770487423E+03  0.26219791528E+03  0.00000000000E+00 0.  1.
         21    1    1    2  504  501  0.15213880399E+03  0.20637708914E+02  0.17773272981E+03  0.23486390518E+03  0.00000000000E+00 0.  1.
         21    1    1    2  505  503 -0.46304547464E+02  0.26112144705E+02 -0.10582202837E+03  0.11842405543E+03  0.00000000000E+00 0.  1.
          1    1    1    2  501    0  0.47754961722E+01 -0.49851812926E+02 -0.51061310248E+03  0.51306310434E+03  0.00000000000E+00 0.  1.
<scales pt_clust_3="123.13710" pt_clust_4="14000.00000" pt_clust_5="44.05735" pt_clust_6="50.08002"></scales>
<clustering>
<clus scale="   50.080">  2  6  1 -1</clus>
<clus scale="   44.057">  2  5  1 -1</clus>
<clus scale="  123.137">  1  3  2 -1</clus>
<clus scale="  123.137">  1  3  2 -1</clus>
</clustering>
</event>
<event>
 6    0  0.2117869E+002  0.1447459E+03  0.7546771E-02  0.1207082E+00
         21   -1    0    0  503  502  0.00000000000E+00  0.00000000000E+00  0.20071797705E+03  0.20071797705E+03  0.00000000000E+00 0. -1.
          2   -1    0    0  504    0 -0.00000000000E+00 -0.00000000000E+00 -0.27874859918E+04  0.27874859918E+04  0.00000000000E+00 0. -1.
         21    1    1    2  503  501  0.29761554841E+02  0.17360006444E+02 -0.38699865271E+01  0.34671267154E+02  0.00000000000E+00 0. -1.
         21    1    1    2  504  505  0.89476446810E+02  0.59701312042E+02 -0.48044915763E+03  0.49234304531E+03  0.00000000000E+00 0. -1.
         21    1    1    2  505  502  0.52481967418E+02 -0.71806293078E+02  0.16489183829E+03  0.18734945680E+03  0.00000000000E+00 0. -1.
          2    1    1    2  501    0 -0.17171996907E+03 -0.52550254076E+01 -0.22673407089E+04  0.22738401996E+04  0.00000000000E+00 0. -1.
<scales pt_clust_3="34.45461" pt_clust_4="144.74590" pt_clust_5="97.88866" pt_clust_6="14000.00000"></scales>
<clustering>
<clus scale="   34.455">  1  3  2 -1</clus>
<clus scale="   97.889">  1  5  2 -1</clus>
<clus scale="  144.746">  1  4  2 -1</clus>
<clus scale="   34.455">  1  3  2 -1</clus>
</clustering>
</event>
<event>
 6    0  0.2117869E+002  0.6502934E+02  0.7546771E-02  0.1377861E+00
         21   -1    0    0  503  502  0.00000000000E+00  0.00000000000E+00  0.36194204818E+02  0.36194204818E+02  0.00000000000E+00 0.  1.
         -1   -1    0    0    0  501 -0.00000000000E+00 -0.00000000000E+00 -0.90787640662E+03  0.90787640662E+03  0.00000000000E+00 0.  1.
         21    1    1    2  503  505  0.35795866629E+02  0.43699419344E+01 -0.79318169814E+02  0.87131007815E+02  0.00000000000E+00 0. -1.
         21    1    1    2  504  502 -0.75151434806E+02  0.36704703773E+02 -0.52964786527E+02  0.98996171867E+02  0.00000000000E+00 0.  1.
         21    1    1    2  505  501  0.69567823350E+00 -0.84577232561E+02 -0.22692287435E+03  0.24217304379E+03  0.00000000000E+00 0.  1.
         -1    1    1    2    0  504  0.38659889943E+02  0.43502586853E+02 -0.51247637111E+03  0.51577038797E+03  0.00000000000E+00 0.  1.
<scales pt_clust_3="36.06162" pt_clust_4="14000.00000" pt_clust_5="65.02934" pt_clust_6="59.59046"></scales>
<clustering>
<clus scale="   36.062">  1  3  2 -1</clus>
<clus scale="   59.590">  2  6  1 -1</clus>
<clus scale="   65.029">  2  5  1 -1</clus>
<clus scale="   36.062">  1  3  2 -1</clus>
</clustering>
</event>
<event>
 6    0  0.2117869E+002  0.8383552E+02  0.7546771E-02  0.1318506E+00
         -2   -1    0    0    0  501 -0.00000000000E+00  0.00000000000E+00  0.29191966268E+03  0.29191966268E+03  0.00000000000E+00 0. -1.
         21   -1    0    0  505  502  0.00000000000E+00 -0.00000000000E+00 -0.37650004104E+03  0.37650004104E+03  0.00000000000E+00 0.  1.
         21    1    1    2  503  501  0.36530539084E+02  0.26305341389E+02  0.39430909020E+02  0.59843528118E+02  0.00000000000E+00 0.  1.
         21    1    1    2  504  502 -0.32040280163E+01  0.66852190842E+02 -0.15718630213E+02  0.68749956739E+02  0.00000000000E+00 0.  1.
         21    1    1    2  505  503 -0.85974584839E+02 -0.66442014136E+02 -0.31061227457E+03  0.32906861837E+03  0.00000000000E+00 0.  1.
         -2    1    1    2    0  504  0.52648073771E+02 -0.26715518095E+02  0.20231961740E+03  0.21075760049E+03  0.00000000000E+00 0. -1.
<scales pt_clust_3="45.01612" pt_clust_4="69.73560" pt_clust_5="83.83552" pt_clust_6="14000.00000"></scales>
<clustering>
<clus scale="   45.016">  1  3  2 -1</clus>
<clus scale="   69.736">  2  4  1 -1</clus>
<clus scale="   83.836">  2  5  1 -1</clus>
<clus scale="   69.736">  2  3  1 -1</clus>
</clustering>
</event>
<event>
 6    0  0.2117869E+002  0.1299132E+03  0.7546771E-02  0.1227585E+00
         21   -1    0    0  503  502  0.00000000000E+00  0.00000000000E+00  0.10467623449E+03  0.10467623449E+03  0.00000000000E+00 0.  1.
          2   -1    0    0  505    0 -0.00000000000E+00 -0.00000000000E+00 -0.21218418536E+04  0.21218418536E+04  0.00000000000E+00 0.  1.
         21    1    1    2  503  501  0.26548026657E+01  0.38129899045E+02 -0.26955635235E+02  0.46771181825E+02  0.00000000000E+00 0. -1.
         21    1    1    2  504  502 -0.33624281735E+02 -0.20660178869E+02  0.78326624980E+02  0.87706872558E+02  0.00000000000E+00 0.  1.
         21    1    1    2  505  504 -0.31608940272E+02  0.10389825682E+03 -0.31500756434E+03  0.33320224859E+03  0.00000000000E+00 0. -1.
          2    1    1    2  501    0  0.62578419342E+02 -0.12136797700E+03 -0.17535290445E+04  0.17588377851E+04  0.00000000000E+00 0.  1.
<scales pt_clust_3="38.22221" pt_clust_4="33.79278" pt_clust_5="129.91323" pt_clust_6="14000.00000"></scales>
<clustering>
<clus scale="   38.222">  1  3  2 -1</clus>
<clus scale="   33.793">  1  4  2 -1</clus>
<clus scale="  129.913">  1  5  2 -1</clus>
<clus scale="   38.222">  1  3  2 -1</clus>
</clustering>
</event>
<event>
 6    0  0.2117869E+002  0.8924505E+02  0.7546771E-02  0.1304690E+00
          1   -1    0    0  505    0 -0.00000000000E+00  0.00000000000E+00  0.17588449738E+04  0.17588449738E+04  0.00000000000E+00 0.  1.
         21   -1    0    0  504  502  0.00000000000E+00 -0.00000000000E+00 -0.89365716936E+02  0.89365716936E+02  0.00000000000E+00 0.  1.
         21    1    1    2  503  502 -0.36986605299E+02  0.13023435568E+02  0.39939805255E+01  0.39415361548E+02  0.00000000000E+00 0.  1.
         21    1    1    2  504  501  0.54460984757E+02  0.73076701388E+02 -0.36593614057E+02  0.98210466530E+02  0.00000000000E+00 0.  1.
         21    1    1    2  505  503 -0.84234694889E+01  0.31152262922E+02  0.82819648943E+03  0.82882497756E+03  0.00000000000E+00 0.  1.
          1    1    1    2  501    0 -0.90509099686E+01 -0.11725239988E+03  0.87388240094E+03  0.88175988507E+03  0.00000000000E+00 0.  1.
<scales pt_clust_3="39.64408" pt_clust_4="14000.00000" pt_clust_5="32.27101" pt_clust_6="89.24505"></scales>
<clustering>
<clus scale="   32.271">  1  5  2 -1</clus>
<clus scale="   39.644">  2  3  1 -1</clus>
<clus scale="   89.245">  1  6  2 -1</clus>
<clus scale="   39.644">  2  3  1 -1</clus>
</clustering>
</event>
<event>
 6    0  0.2117869E+002  0.9478793E+02  0.7546771E-02  0.1291654E+00
         -2   -1    0    0    0  501 -0.00000000000E+00  0.00000000000E+00  0.11088985648E+04  0.11088985648E+04  0.00000000000E+00 0. -1.
         21   -1    0    0  505  502  0.00000000000E+00 -0.00000000000E+00 -0.10649911984E+03  0.10649911984E+03  0.00000000000E+00 0.  1.
         21    1    1    2  503  501  0.23698173264E+02  0.29539416701E+02  0.45068148047E+03  0.45226980597E+03  0.00000000000E+00 0. -1.
         21    1    1    2  504  502 -0.19201425279E+02  0.92826381551E+02 -0.72038378277E+02  0.11905864013E+03  0.00000000000E+00 0.  1.
         21    1    1    2  505  503 -0.34736567594E+02 -0.31939373948E+02  0.87606974622E+02  0.99507460719E+02  0.00000000000E+00 0. -1.
         -2    1    1    2    0  504  0.30239819609E+02 -0.90426424305E+02  0.53614936814E+03  0.54456177782E+03  0.00000000000E+00 0. -1.
<scales pt_clust_3="37.87058" pt_clust_4="94.78793" pt_clust_5="41.86852" pt_clust_6="14000.00000"></scales>
<clustering>
<clus scale="   37.871">  1  3  2 -1</clus>
<clus scale="   41.869">  1  5  2 -1</clus>
<clus scale="   94.788">  2  4  1 -1</clus>
<clus scale="   94.788">  2  3  1 -1</clus>
</clustering>
</event>
<event>
 6    0  0.2117869E+002  0.6770124E+02  0.7546771E-02  0.1368089E+00
         21   -1    0    0  503  502  0.00000000000E+00  0.00000000000E+00  0.18287773334E+03  0.18287773334E+03  0.00000000000E+00 0.  1.
          2   -1    0    0  504    0 -0.00000000000E+00 -0.00000000000E+00 -0.19756054809E+03  0.19756054809E+03  0.00000000000E+00 0.  1.
         21    1    1    2  503  501 -0.24663148005E+02  0.49633173254E+02  0.39959242714E+02  0.68326157766E+02  0.00000000000E+00 0.  1.
         21    1    1    2  504  505 -0.27607781844E+02  0.36641262092E+02 -0.83305751210E+02  0.95103206522E+02  0.00000000000E+00 0.  1.
         21    1    1    2  505  502 -0.40277529937E+02 -0.32556730984E+02  0.82355035104E+02  0.97286031665E+02  0.00000000000E+00 0.  1.
          2    1    1    2  501    0  0.92548459786E+02 -0.53717704363E+02 -0.53691341360E+02  0.11972288548E+03  0.00000000000E+00 0.  1.
<scales pt_clust_3="14000.00000" pt_clust_4="45.87779" pt_clust_5="51.77893" pt_clust_6="67.70124"></scales>
<clustering>
<clus scale="   45.878">  2  4  1 -1</clus>
<clus scale="   51.779">  1  5  2 -1</clus>
<clus scale="   67.701">  2  6  1 -1</clus>
<clus scale="   51.779">  1  3  2 -1</clus>
</clustering>
</event>
<event>
 6    0  0.2117869E+002  0.6237665E+02  0.7546771E-02  0.1388120E+00
          4   -1    0    0  504    0 -0.00000000000E+00  0.00000000000E+00  0.19316831926E+03  0.19316831926E+03  0.00000000000E+00 0. -1.
         21   -1    0    0  505  502  0.00000000000E+00 -0.00000000000E+00 -0.21344632591E+04  0.21344632591E+04  0.00000000000E+00 0.  1.
         21    1    1    2  503  502  0.73594241966E+02 -0.16752729454E+02 -0.19786065626E+03  0.21176781080E+03  0.00000000000E+00 0. -1.
         21    1    1    2  504  503  0.58924935508E+02 -0.74123750914E+00  0.30436417375E+01  0.59008145308E+02  0.00000000000E+00 0. -1.
         21    1    1    2  505  501 -0.28498718543E+02 -0.20926093344E+02 -0.18816707825E+04  0.18820029256E+04  0.00000000000E+00 0.  1.
          4    1    1    2  501    0 -0.10402045893E+03  0.38420060307E+02  0.13519285714E+03  0.17485269667E+03  0.00000000000E+00 0. -1.
<scales pt_clust_3="14000.00000" pt_clust_4="55.85210" pt_clust_5="35.35645" pt_clust_6="62.37665"></scales>
<clustering>
<clus scale="   35.356">  2  5  1 -1</clus>
<clus scale="   55.852">  1  4  2 -1</clus>
<clus scale="   62.377">  1  6  2 -1</clus>
<clus scale="   35.356">  2  3  1 -1</clus>
</clustering>
</event>
<event>
 6    0  0.2117869E+002  0.9835918E+02  0.7546771E-02  0.1283785E+00
          2   -1    0    0  504    0 -0.00000000000E+00  0.00000000000E+00  0.24850840215E+03  0.24850840215E+03  0.00000000000E+00 0. -1.
         21   -1    0    0  503  502  0.00000000000E+00 -0.00000000000E+00 -0.39808749672E+03  0.39808749672E+03  0.00000000000E+00 0. -1.
         21    1    1    2  503  505 -0.48047331282E+02 -0.78134653859E+02 -0.25807357493E+03  0.27388964978E+03  0.00000000000E+00 0. -1.
         21    1    1    2  504  502  0.30516014839E+02  0.19228747023E+01  0.82234553014E+02  0.87735091714E+02  0.00000000000E+00 0. -1.
         21    1    1    2  505  501  0.33580872668E+02  0.12844089495E+03 -0.87341384820E+02  0.15891273079E+03  0.00000000000E+00 0. -1.
          2    1    1    2  501    0 -0.16049556225E+02 -0.52229115789E+02  0.11360131216E+03  0.12605842659E+03  0.00000000000E+00 0. -1.
<scales pt_clust_3="98.35918" pt_clust_4="30.57654" pt_clust_5="14000.00000" pt_clust_6="51.21059"></scales>
<clustering>
<clus scale="   30.577">  1  4  2 -1</clus>
<clus scale="   51.211">  1  6  2 -1</clus>
<clus scale="   98.359">  2  3  1 -1</clus>
<clus scale="   98.359">  2  3  1 -1</clus>
</clustering>
</event>
<event>
 6    0  0.2117869E+002  0.1118602E+03  0.7546771E-02  0.1257163E+00
         21   -1    0    0  501  502  0.00000000000E+00  0.00000000000E+00  0.12845380321E+03  0.12845380321E+03  0.00000000000E+00 0.  1.
          1   -1    0    0  503    0 -0.00000000000E+00 -0.00000000000E+00 -0.49595004476E+03  0.49595004476E+03  0.00000000000E+00 0.  1.
         21    1    1    2  503  505  0.35780457029E+02  0.20248182089E+02 -0.91803234776E+02  0.10058858732E+03  0.00000000000E+00 0.  1.
         21    1    1    2  504  502 -0.23121695317E+02  0.43271668956E+02  0.66965440187E+02  0.83014578888E+02  0.00000000000E+00 0.  1.
         21    1    1    2  505  504  0.37865651929E+02  0.74757423513E+02 -0.20015387194E+02  0.86157389067E+02  0.00000000000E+00 0.  1.
          1    1    1    2  501    0 -0.50524413641E+02 -0.13827727456E+03 -0.32264305977E+03  0.35464329269E+03  0.00000000000E+00 0.  1.
<scales pt_clust_3="41.11241" pt_clust_4="49.08863" pt_clust_5="14000.00000" pt_clust_6="111.86018"></scales>
<clustering>
<clus scale="   41.112">  2  3  1 -1</clus>
<clus scale="   49.089">  1  4  2 -1</clus>
<clus scale="  111.860">  2  6  1 -1</clus>
<clus scale="   49.089">  1  3  2 -1</clus>
</clustering>
</event>
<event>
 6    0  0.2117869E+002  0.1249911E+03  0.7546771E-02  0.1235083E+00
          2   -1    0    0  505    0 -0.00000000000E+00  0.00000000000E+00  0.30404208406E+04  0.30404208406E+04  0.00000000000E+00 0. -1.
         21   -1    0    0  504  502  0.00000000000E+00 -0.00000000000E+00 -0.49494490637E+03  0.49494490637E+03  0.00000000000E+00 0. -1.
         21    1    1    2  503  502 -0.86410473746E+01  0.30092778013E+02 -0.60253495922E+02  0.67902332501E+02  0.00000000000E+00 0. -1.
         21    1    1    2  504  501  0.39722449831E+02 -0.44657621671E+02 -0.41705143384E+03  0.42131232437E+03  0.00000000000E+00 0. -1.
         21    1    1    2  505  503  0.11447079420E+03 -0.38120572462E+02  0.24455765055E+04  0.24485508337E+04  0.00000000000E+00 0. -1.
          2    1    1    2  501    0 -0.14555219666E+03  0.52685416120E+02  0.57720435848E+03  0.59760025642E+03  0.00000000000E+00 0. -1.
<scales pt_clust_3="31.30883" pt_clust_4="34.88911" pt_clust_5="14000.00000" pt_clust_6="124.99113"></scales>
<clustering>
<clus scale="   31.309">  2  3  1 -1</clus>
<clus scale="   34.889">  2  4  1 -1</clus>
<clus scale="  124.991">  2  6  1 -1</clus>
<clus scale="   31.309">  2  3  1 -1</clus>
</clustering>
</event>
<event>
 6    0  0.2117869E+002  0.6833976E+02  0.7546771E-02  0.1365832E+00
          2   -1    0    0  505    0 -0.00000000000E+00  0.00000000000E+00  0.10255399247E+04  0.10255399247E+04  0.00000000000E+00 0. -1.
         21   -1    0    0  503  502  0.00000000000E+00 -0.00000000000E+00 -0.72527333075E+03  0.72527333075E+03  0.00000000000E+00 0.  1.
         21    1    1    2  503  501 -0.10787935227E+02  0.41945860066E+02 -0.75273285678E+02  0.86844126225E+02  0.00000000000E+00 0.  1.
         21    1    1    2  504  502  0.43859544264E+02 -0.45813085697E+02 -0.62878288697E+03  0.63197343092E+03  0.00000000000E+00 0.  1.
         21    1    1    2  505  504 -0.49821661609E+02 -0.61891766540E+02  0.11324226797E+03  0.13833510034E+03  0.00000000000E+00 0. -1.
          2    1    1    2  501    0  0.16750052572E+02  0.65758992172E+02  0.89108049860E+03  0.89366059793E+03  0.00000000000E+00 0. -1.
<scales pt_clust_3="43.31091" pt_clust_4="33.64292" pt_clust_5="68.33976" pt_clust_6="14000.00000"></scales>
<clustering>
<clus scale="   43.311">  2  3  1 -1</clus>
<clus scale="   33.643">  2  4  1 -1</clus>
<clus scale="   68.340">  2  5  1 -1</clus>
<clus scale="   43.311">  2  3  1 -1</clus>
</clustering>
</event>
<event>
 6    0  0.2117869E+002  0.1426140E+03  0.7546771E-02  0.1209854E+00
         21   -1    0    0  505  502  0.00000000000E+00  0.00000000000E+00  0.41869152208E+03  0.41869152208E+03  0.00000000000E+00 0. -1.
          1   -1    0    0  503    0 -0.00000000000E+00 -0.00000000000E+00 -0.24938317678E+04  0.24938317678E+04  0.00000000000E+00 0. -1.
         21    1    1    2  503  502 -0.61416957798E+01  0.31478997929E+02 -0.64659764710E+03  0.64739258952E+03  0.00000000000E+00 0. -1.
         21    1    1    2  504  501 -0.14666838343E+03 -0.69665419683E+02 -0.98393151488E+02  0.18985809874E+03  0.00000000000E+00 0. -1.
         21    1    1    2  505  504  0.38622543217E+02 -0.23713035437E+02  0.36869504123E+03  0.37147010959E+03  0.00000000000E+00 0. -1.
          1    1    1    2  501    0  0.11418753599E+03  0.61899457192E+02 -0.16988444883E+04  0.17038024920E+04  0.00000000000E+00 0. -1.
<scales pt_clust_3="32.07254" pt_clust_4="14000.00000" pt_clust_5="45.30487" pt_clust_6="142.61399"></scales>
<clustering>
<clus scale="   32.073">  2  3  1 -1</clus>
<clus scale="   45.305">  1  5  2 -1</clus>
<clus scale="  142.614">  2  6  1 -1</clus>
<clus scale="   45.305">  1  3  2 -1</clus>
</clustering>
</event>
<event>
 6    0  0.2117869E+002  0.1379078E+03  0.7546771E-02  0.1216172E+00
          1   -1    0    0  503    0 -0.00000000000E+00  0.00000000000E+00  0.13928138521E+04  0.13928138521E+04  0.00000000000E+00 0.  1.
         21   -1    0    0  504  502  0.00000000000E+00 -0.00000000000E+00 -0.54591198259E+02  0.54591198259E+02  0.00000000000E+00 0.  1.
         21    1    1    2  503  505 -0.73413643680E+02 -0.73274654405E+02  0.27342892672E+03  0.29244164550E+03  0.00000000000E+00 0.  1.
         21    1    1    2  504  501 -0.52442604770E+02  0.39540330124E+02  0.14092052350E+03  0.15547430156E+03  0.00000000000E+00 0.  1.
         21    1    1    2  505  502  0.25685681704E+02 -0.10042712007E+03  0.60484240036E+02  0.12001543227E+03  0.00000000000E+00 0.  1.
          1    1    1    2  501    0  0.10017056675E+03  0.13416144435E+03  0.86338896360E+03  0.87947367105E+03  0.00000000000E+00 0.  1.
<scales pt_clust_3="137.90784" pt_clust_4="65.67849" pt_clust_5="75.90460" pt_clust_6="14000.00000"></scales>
<clustering>
<clus scale="   65.678">  2  4  1 -1</clus>
<clus scale="   75.905">  2  5  1 -1</clus>
<clus scale="  137.908">  2  3  1 -1</clus>
<clus scale="   65.678">  2  3  1 -1</clus>
</clustering>
</event>
<event>
 6    0  0.2117869E+002  0.2284796E+03  0.7546771E-02  0.1127715E+00
         21   -1    0    0  503  502  0.00000000000E+00  0.00000000000E+00  0.10646284212E+04  0.10646284212E+04  0.00000000000E+00 0.  1.
          2   -1    0    0  504    0 -0.00000000000E+00 -0.00000000000E+00 -0.14009501090E+04  0.14009501090E+04  0.00000000000E+00 0.  1.
         21    1    1    2  503  505 -0.62120136509E+02  0.20629565003E+03  0.80744947042E+03  0.83569818347E+03  0.00000000000E+00 0.  1.
         21    1    1    2  504  502  0.32782660999E+02 -0.16345170893E+02 -0.18086329597E+03  0.18453563153E+03  0.00000000000E+00 0.  1.
         21    1    1    2  505  501  0.41867728425E+02 -0.36083428749E+03  0.93529396483E+02  0.37510270289E+03  0.00000000000E+00 0.  1.
          2    1    1    2  501    0 -0.12530252915E+02  0.17088380835E+03 -0.10564372588E+04  0.10702420123E+04  0.00000000000E+00 0.  1.
<scales pt_clust_3="14000.00000" pt_clust_4="36.63151" pt_clust_5="228.47958" pt_clust_6="157.44076"></scales>
<clustering>
<clus scale="   36.632">  2  4  1 -1</clus>
<clus scale="  157.441">  2  6  1 -1</clus>
<clus scale="  228.480">  2  5  1 -1</clus>
<clus scale="  228.480">  1  3  2 -1</clus>
</clustering>
</event>
<event>
 6    0  0.2117869E+002  0.1017085E+03  0.7546771E-02  0.1276744E+00
          1   -1    0    0  503    0 -0.00000000000E+00  0.00000000000E+00  0.10402426824E+04  0.10402426824E+04  0.00000000000E+00 0. -1.
         21   -1    0    0  504  502  0.00000000000E+00 -0.00000000000E+00 -0.47777173795E+03  0.47777173795E+03  0.00000000000E+00 0.  1.
         21    1    1    2  503  505  0.63804229266E+02 -0.35682780262E+01  0.25059712887E+03  0.25861676913E+03  0.00000000000E+00 0.  1.
         21    1    1    2  504  501 -0.71753767849E+02  0.62044296457E+02 -0.12362626920E+02  0.95660506311E+02  0.00000000000E+00 0.  1.
         21    1    1    2  505  502 -0.37501408401E+02 -0.23099541618E+02 -0.41747541735E+03  0.41979241125E+03  0.00000000000E+00 0.  1.
          1    1    1    2  501    0  0.45450946984E+02 -0.35376476813E+02  0.74171185987E+03  0.74394473368E+03  0.00000000000E+00 0. -1.
<scales pt_clust_3="14000.00000" pt_clust_4="101.70853" pt_clust_5="44.04480" pt_clust_6="57.31033"></scales>
<clustering>
<clus scale="   44.045">  2  5  1 -1</clus>
<clus scale="   57.310">  1  6  2 -1</clus>
<clus scale="  101.709">  2  4  1 -1</clus>
<clus scale="   44.045">  2  3  1 -1</clus>
</clustering>
</event>
<event>
 6    0  0.2117869E+002  0.1365774E+03  0.7546771E-02  0.1218010E+00
         -2   -1    0    0    0  501 -0.00000000000E+00  0.00000000000E+00  0.79824973134E+03  0.79824973134E+03  0.00000000000E+00 0.  1.
         21   -1    0    0  503  502  0.00000000000E+00 -0.00000000000E+00 -0.20989845251E+03  0.20989845251E+03  0.00000000000E+00 0.  1.
         21    1    1    2  503  501  0.10305591576E+03  0.12989872980E+03 -0.13816116129E+03  0.21583027653E+03  0.00000000000E+00 0.  1.
         21    1    1    2  504  505 -0.34844077388E+02 -0.32994483283E+02  0.17265653757E+03  0.17920107595E+03  0.00000000000E+00 0.  1.
         21    1    1    2  505  502 -0.20349638017E+02 -0.31684109288E+02 -0.13514640742E+02  0.40007949999E+02  0.00000000000E+00 0. -1.
         -2    1    1    2    0  504 -0.47862200359E+02 -0.65220137225E+02  0.56737054329E+03  0.57310888138E+03  0.00000000000E+00 0.  1.
<scales pt_clust_3="129.65193" pt_clust_4="33.07077" pt_clust_5="37.65622" pt_clust_6="33.07077"></scales>
<clustering>
<clus scale="   33.071">  4  6 -1 -1</clus>
<clus scale="   37.656">  2  5  1 -1</clus>
<clus scale="  129.652">  2  3  1 -1</clus>
<clus scale="   37.656">  2  3  1 -1</clus>
</clustering>
</event>
<event>
 6    0  0.2117869E+002  0.7642667E+02  0.7546771E-02  0.1339509E+00
          1   -1    0    0  504    0 -0.00000000000E+00  0.00000000000E+00  0.34035949063E+02  0.34035949063E+02  0.00000000000E+00 0.  1.
         21   -1    0    0  503  502  0.00000000000E+00 -0.00000000000E+00 -0.20279534275E+04  0.20279534275E+04  0.00000000000E+00 0. -1.
         21    1    1    2  503  501 -0.52794258431E+02 -0.52241788874E+02 -0.16140926836E+04  0.16158006156E+04  0.00000000000E+00 0. -1.
         21    1    1    2  504  505  0.33488014148E+02 -0.31716482614E+02 -0.13426477923E+03  0.14196624001E+03  0.00000000000E+00 0. -1.
         21    1    1    2  505  502 -0.51769693907E+02 -0.15380945235E+02 -0.49695921652E+02  0.73391820474E+02  0.00000000000E+00 0. -1.
          1    1    1    2  501    0  0.71075938190E+02  0.99339216724E+02 -0.19586409398E+03  0.23083070047E+03  0.00000000000E+00 0.  1.
<scales pt_clust_3="76.42667" pt_clust_4="46.12356" pt_clust_5="47.60698" pt_clust_6="14000.00000"></scales>
<clustering>
<clus scale="   46.124">  1  4  2 -1</clus>
<clus scale="   47.607">  1  5  2 -1</clus>
<clus scale="   76.427">  2  3  1 -1</clus>
<clus scale="   76.427">  2  3  1 -1</clus>
</clustering>
</event>
<event>
 6    0  0.2117869E+002  0.1865391E+03  0.7546771E-02  0.1161620E+00
          2   -1    0    0  504    0 -0.00000000000E+00  0.00000000000E+00  0.22784087446E+04  0.22784087446E+04  0.00000000000E+00 0.  1.
         21   -1    0    0  501  502  0.00000000000E+00 -0.00000000000E+00 -0.80425374607E+02  0.80425374607E+02  0.00000000000E+00 0.  1.
         21    1    1    2  503  502  0.38936724342E+02 -0.68041764987E+01 -0.48160745301E+02  0.62304275201E+02  0.00000000000E+00 0.  1.
         21    1    1    2  504  505  0.79943079790E+02  0.75171887315E+02  0.26209615397E+03  0.28414099067E+03  0.00000000000E+00 0.  1.
         21    1    1    2  505  503  0.40579466443E+02  0.56346389691E+01  0.30822912680E+02  0.51268842382E+02  0.00000000000E+00 0.  1.
          2    1    1    2  501    0 -0.15945927057E+03 -0.74002349785E+02  0.19532250487E+04  0.19611200110E+04  0.00000000000E+00 0.  1.
<scales pt_clust_3="39.52677" pt_clust_4="51.33047" pt_clust_5="51.33047" pt_clust_6="170.74553"></scales>
<clustering>
<clus scale="   39.527">  2  3  1 -1</clus>
<clus scale="   51.330">  4  5 -1 -1</clus>
<clus scale="  170.746">  1  6  2 -1</clus>
<clus scale="   39.527">  2  3  1 -1</clus>
</clustering>
</event>
<event>
 6    0  0.2117869E+002  0.1094857E+03  0.7546771E-02  0.1261525E+00
          3   -1    0    0  505    0 -0.00000000000E+00  0.00000000000E+00  0.29560340277E+03  0.29560340277E+03  0.00000000000E+00 0.  1.
         21   -1    0    0  504  502  0.00000000000E+00 -0.00000000000E+00 -0.66881403851E+03  0.66881403851E+03  0.00000000000E+00 0.  1.
         21    1    1    2  503  501  0.14567024306E+03 -0.38381180893E+02 -0.33013863192E+03  0.36288352270E+03  0.00000000000E+00 0.  1.
         21    1    1    2  504  503 -0.85304580466E+02 -0.50618628586E+02 -0.28020683029E+03  0.29724566397E+03  0.00000000000E+00 0.  1.
         21    1    1    2  505  502  0.48013637339E+02  0.23290439595E+02  0.29360776854E+02  0.60908202768E+02  0.00000000000E+00 0.  1.
          3    1    1    2  501    0 -0.10837929994E+03  0.65709369884E+02  0.20777404961E+03  0.24338005184E+03  0.00000000000E+00 0.  1.
<scales pt_clust_3="14000.00000" pt_clust_4="97.38370" pt_clust_5="53.36435" pt_clust_6="109.48573"></scales>
<clustering>
<clus scale="   53.364">  1  5  2 -1</clus>
<clus scale="   97.384">  2  4  1 -1</clus>
<clus scale="  109.486">  1  6  2 -1</clus>
<clus scale="   97.384">  2  3  1 -1</clus>
</clustering>
</event>
<event>
 6    0  0.2117869E+002  0.1164380E+03  0.7546771E-02  0.1249092E+00
          1   -1    0    0  503    0 -0.00000000000E+00  0.00000000000E+00  0.81684945380E+03  0.81684945380E+03  0.00000000000E+00 0.  1.
         21   -1    0    0  505  502  0.00000000000E+00 -0.00000000000E+00 -0.21697981348E+03  0.21697981348E+03  0.00000000000E+00 0.  1.
         21    1    1    2  503  502 -0.27997178848E+02  0.85749692358E+02  0.14013578370E+02  0.91286538667E+02  0.00000000000E+00 0.  1.
         21    1    1    2  504  501 -0.65107233672E+02 -0.39494399498E+02  0.28616648128E+02  0.81349075092E+02  0.00000000000E+00 0.  1.
         21    1    1    2  505  504 -0.28690191093E+02 -0.14741149729E+02 -0.14460715788E+03  0.14816092153E+03  0.00000000000E+00 0.  1.
          1    1    1    2  501    0  0.12179460361E+03 -0.31514143131E+02  0.70184657170E+03  0.71303273199E+03  0.00000000000E+00 0.  1.
<scales pt_clust_3="116.43797" pt_clust_4="88.17054" pt_clust_5="32.25567" pt_clust_6="14000.00000"></scales>
<clustering>
<clus scale="   32.256">  2  5  1 -1</clus>
<clus scale="   88.171">  2  4  1 -1</clus>
<clus scale="  116.438">  2  3  1 -1</clus>
<clus scale="   32.256">  2  3  1 -1</clus>
</clustering>
</event>
<event>
 6    0  0.2117869E+002  0.1150884E+03  0.7546771E-02  0.1251427E+00
          2   -1    0    0  504    0 -0.00000000000E+00  0.00000000000E+00  0.24419423909E+04  0.24419423909E+04  0.00000000000E+00 0.  1.
         21   -1    0    0  505  502  0.00000000000E+00 -0.00000000000E+00 -0.42616641934E+02  0.42616641934E+02  0.00000000000E+00 0.  1.
         21    1    1    2  503  502 -0.28081960309E+02  0.26420435010E+02  0.22160032588E+02  0.44471371974E+02  0.00000000000E+00 0.  1.
         21    1    1    2  504  503 -0.41710063358E+02 -0.35078147121E+02  0.36435298715E+03  0.36840644001E+03  0.00000000000E+00 0.  1.
         21    1    1    2  505  501  0.12200267103E+03 -0.87451198675E+02  0.17475813271E+03  0.23037527826E+03  0.00000000000E+00 0.  1.
          2    1    1    2  501    0 -0.52210647365E+02  0.96108910785E+02  0.18380545965E+04  0.18413059426E+04  0.00000000000E+00 0.  1.
<scales pt_clust_3="38.55692" pt_clust_4="54.84414" pt_clust_5="115.08840" pt_clust_6="14000.00000"></scales>
<clustering>
<clus scale="   38.557">  2  3  1 -1</clus>
<clus scale="   54.844">  1  4  2 -1</clus>
<clus scale="  115.088">  2  5  1 -1</clus>
<clus scale="   38.557">  2  3  1 -1</clus>
</clustering>
</event>
<event>
 6    0  0.2117869E+002  0.7249112E+02  0.7546771E-02  0.1351821E+00
          2   -1    0    0  502    0 -0.00000000000E+00  0.00000000000E+00  0.88439569727E+03  0.88439569727E+03  0.00000000000E+00 0.  1.
         21   -1    0    0  505  502  0.00000000000E+00 -0.00000000000E+00 -0.24472669643E+03  0.24472669643E+03  0.00000000000E+00 0. -1.
         21    1    1    2  503  504 -0.33412979313E+02 -0.92582441572E+02  0.91092850026E+02  0.13411130825E+03  0.00000000000E+00 0. -1.
         21    1    1    2  504  501  0.19385442751E+02  0.54036347209E+02  0.27037007254E+03  0.27639771768E+03  0.00000000000E+00 0. -1.
         21    1    1    2  505  503  0.49143209294E+02  0.51996620577E+02 -0.21365564927E+03  0.22531631107E+03  0.00000000000E+00 0. -1.
          2    1    1    2  501    0 -0.35115672733E+02 -0.13450526213E+02  0.49186172754E+03  0.49329705670E+03  0.00000000000E+00 0.  1.
<scales pt_clust_3="14000.00000" pt_clust_4="44.94358" pt_clust_5="72.49112" pt_clust_6="37.60355"></scales>
<clustering>
<clus scale="   37.604">  1  6  2 -1</clus>
<clus scale="   44.944">  1  4  2 -1</clus>
<clus scale="   72.491">  2  5  1 -1</clus>
<clus scale="   72.491">  2  3  1 -1</clus>
</clustering>
</event>
<event>
 6    0  0.2117869E+002  0.1248737E+03  0.7546771E-02  0.1235267E+00
          2   -1    0    0  503    0 -0.00000000000E+00  0.00000000000E+00  0.50167298336E+03  0.50167298336E+03  0.00000000000E+00 0.  1.
         21   -1    0    0  501  502  0.00000000000E+00 -0.00000000000E+00 -0.42406124614E+02  0.42406124614E+02  0.00000000000E+00 0.  1.
         21    1    1    2  503  505  0.42851514427E+02 -0.57217360186E+01  0.10272591763E+03  0.11145225303E+03  0.00000000000E+00 0.  1.
         21    1    1    2  504  502  0.94817619580E+01  0.46034318250E+02  0.59434933550E+02  0.75773171985E+02  0.00000000000E+00 0.  1.
         21    1    1    2  505  504  0.58565606222E+02  0.19494006290E+02  0.49833171892E+02  0.79330268714E+02  0.00000000000E+00 0.  1.
          2    1    1    2  501    0 -0.11089888261E+03 -0.59806588522E+02  0.24727283567E+03  0.27752341424E+03  0.00000000000E+00 0.  1.
<scales pt_clust_3="43.07043" pt_clust_4="47.00066" pt_clust_5="43.07043" pt_clust_6="113.77550"></scales>
<clustering>
<clus scale="   43.070">  3  5 -1 -1</clus>
<clus scale="   47.001">  2  4  1 -1</clus>
<clus scale="  113.776">  1  6  2 -1</clus>
<clus scale="   47.001">  2  3  1 -1</clus>
</clustering>
</event>
<event>
 6    0  0.2117869E+002  0.1345928E+03  0.7546771E-02  0.1220796E+00
          2   -1    0    0  504    0 -0.00000000000E+00  0.00000000000E+00  0.22946817946E+04  0.22946817946E+04  0.00000000000E+00 0.  1.
         21   -1    0    0  501  502  0.00000000000E+00 -0.00000000000E+00 -0.19465155291E+02  0.19465155291E+02  0.00000000000E+00 0.  1.
         21    1    1    2  503  502  0.12645238289E+02  0.11864179042E+03  0.40095589843E+03  0.41833169731E+03  0.00000000000E+00 0.  1.
         21    1    1    2  504  505  0.42046679538E+02  0.12598031457E+02  0.30079947863E+03  0.30398513122E+03  0.00000000000E+00 0. -1.
         21    1    1    2  505  503  0.65634088198E+02 -0.38795420590E+02  0.30764626079E+03  0.31695289866E+03  0.00000000000E+00 0.  1.
          2    1    1    2  501    0 -0.12032600603E+03 -0.92444401285E+02  0.12658150015E+04  0.12748772227E+04  0.00000000000E+00 0.  1.
<scales pt_clust_3="119.31377" pt_clust_4="42.08433" pt_clust_5="42.08433" pt_clust_6="122.63297"></scales>
<clustering>
<clus scale="   42.084">  4  5 -1 -1</clus>
<clus scale="  119.314">  2  3  1 -1</clus>
<clus scale="  122.633">  1  6  2 -1</clus>
<clus scale="  119.314">  2  3  1 -1</clus>
</clustering>
</event>
<event>
 6    0  0.2117869E+002  0.9169079E+02  0.7546771E-02  0.1298808E+00
          2   -1    0    0  504    0 -0.00000000000E+00  0.00000000000E+00  0.51858047889E+04  0.51858047889E+04  0.00000000000E+00 0.  1.
         21   -1    0    0  505  502  0.00000000000E+00 -0.00000000000E+00 -0.19880013332E+03  0.19880013332E+03  0.00000000000E+00 0.  1.
         21    1    1    2  503  502 -0.51343607882E+02  0.48427019989E+01 -0.39976975175E+02  0.65251638885E+02  0.00000000000E+00 0.  1.
         21    1    1    2  504  503  0.65724932638E+01  0.42221813794E+02  0.34015636199E+03  0.34282973884E+03  0.00000000000E+00 0.  1.
         21    1    1    2  505  501  0.11743189395E+03  0.57663079171E+02 -0.11428990621E+03  0.17371661716E+03  0.00000000000E+00 0.  1.
          2    1    1    2  501    0 -0.72660779334E+02 -0.10472759496E+03  0.48011151750E+04  0.48028069273E+04  0.00000000000E+00 0.  1.
<scales pt_clust_3="51.56488" pt_clust_4="42.73031" pt_clust_5="14000.00000" pt_clust_6="91.69079"></scales>
<clustering>
<clus scale="   42.730">  1  4  2 -1</clus>
<clus scale="   51.565">  2  3  1 -1</clus>
<clus scale="   91.691">  1  6  2 -1</clus>
<clus scale="   51.565">  2  3  1 -1</clus>
</clustering>
</event>
<event>
 6    0  0.2117869E+002  0.2381689E+03  0.7546771E-02  0.1121019E+00
          2   -1    0    0  503    0 -0.00000000000E+00  0.00000000000E+00  0.27866461214E+04  0.27866461214E+04  0.00000000000E+00 0. -1.
         21   -1    0    0  505  502  0.00000000000E+00 -0.00000000000E+00 -0.27187481529E+03  0.27187481529E+03  0.00000000000E+00 0. -1.
         21    1    1    2  503  502  0.80211986805E+01 -0.12132527689E+03  0.62904782889E+03  0.64069129342E+03  0.00000000000E+00 0.  1.
         21    1    1    2  504  501 -0.25976493785E+03  0.70617684527E+02 -0.10924949343E+03  0.29051700831E+03  0.00000000000E+00 0. -1.
         21    1    1    2  505  504  0.31050949911E+02 -0.53910874179E+01 -0.55720304731E+02  0.64015448708E+02  0.00000000000E+00 0.  1.
          2    1    1    2  501    0  0.22069278926E+03  0.56098679783E+02  0.20506932753E+04  0.20632971862E+04  0.00000000000E+00 0. -1.
<scales pt_clust_3="121.79701" pt_clust_4="238.16888" pt_clust_5="31.51548" pt_clust_6="14000.00000"></scales>
<clustering>
<clus scale="   31.515">  2  5  1 -1</clus>
<clus scale="  121.797">  1  3  2 -1</clus>
<clus scale="  238.169">  2  4  1 -1</clus>
<clus scale="   31.515">  2  3  1 -1</clus>
</clustering>
</event>
<event>
 6    0  0.2117869E+002  0.9055330E+02  0.7546771E-02  0.1301517E+00
         21   -1    0    0  503  502  0.00000000000E+00  0.00000000000E+00  0.29030251715E+02  0.29030251715E+02  0.00000000000E+00 0. -1.
          2   -1    0    0  504    0 -0.00000000000E+00 -0.00000000000E+00 -0.27101836001E+04  0.27101836001E+04  0.00000000000E+00 0. -1.
         21    1    1    2  503  501  0.36122130063E+02  0.11844700149E+02 -0.48632211875E+02  0.61726795104E+02  0.00000000000E+00 0. -1.
         21    1    1    2  504  505 -0.23802803030E+02  0.28418568333E+02 -0.53947036716E+03  0.54074251313E+03  0.00000000000E+00 0. -1.
         21    1    1    2  505  502 -0.31971719134E+02  0.77815355353E+02 -0.68038225779E+02  0.10819713730E+03  0.00000000000E+00 0. -1.
          2    1    1    2  501    0  0.19652392100E+02 -0.11807862383E+03 -0.20250125436E+04  0.20285474063E+04  0.00000000000E+00 0. -1.
<scales pt_clust_3="37.67475" pt_clust_4="37.07005" pt_clust_5="14000.00000" pt_clust_6="90.55330"></scales>
<clustering>
<clus scale="   37.070">  2  4  1 -1</clus>
<clus scale="   37.675">  1  3  2 -1</clus>
<clus scale="   90.553">  2  6  1 -1</clus>
<clus scale="   37.675">  1  3  2 -1</clus>
</clustering>
</event>
<event>
 6    0  0.2117869E+002  0.1134686E+03  0.7546771E-02  0.1254278E+00
         -1   -1    0    0    0  501 -0.00000000000E+00  0.00000000000E+00  0.23926121206E+04  0.23926121206E+04  0.00000000000E+00 0. -1.
         21   -1    0    0  503  502  0.00000000000E+00 -0.00000000000E+00 -0.61239510091E+02  0.61239510091E+02  0.00000000000E+00 0.  1.
         21    1    1    2  503  504  0.31579768674E+02  0.34942716904E+01  0.57471313531E+02  0.65669198283E+02  0.00000000000E+00 0.  1.
         21    1    1    2  504  501  0.41374120838E+02 -0.10377359918E+02  0.37728952839E+03  0.37969315995E+03  0.00000000000E+00 0.  1.
         21    1    1    2  505  502 -0.13839773669E+03  0.39561637042E+02  0.38584815922E+02  0.14902296690E+03  0.00000000000E+00 0.  1.
         -1    1    1    2    0  505  0.65443847175E+02 -0.32678548814E+02  0.18580269527E+04  0.18594663056E+04  0.00000000000E+00 0. -1.
<scales pt_clust_3="31.77250" pt_clust_4="43.28268" pt_clust_5="113.46864" pt_clust_6="14000.00000"></scales>
<clustering>
<clus scale="   31.772">  2  3  1 -1</clus>
<clus scale="   43.283">  1  4  2 -1</clus>
<clus scale="  113.469">  2  5  1 -1</clus>
<clus scale="   31.772">  2  3  1 -1</clus>
</clustering>
</event>
<event>
 6    0  0.2117869E+002  0.1629541E+03  0.7546771E-02  0.1185401E+00
         21   -1    0    0  503  502  0.00000000000E+00  0.00000000000E+00  0.15526784627E+03  0.15526784627E+03  0.00000000000E+00 0.  1.
          1   -1    0    0  504    0 -0.00000000000E+00 -0.00000000000E+00 -0.22674528818E+04  0.22674528818E+04  0.00000000000E+00 0. -1.
         21    1    1    2  503  501 -0.53996825932E+02  0.24680935380E+02 -0.18429501928E+02  0.62164719281E+02  0.00000000000E+00 0.  1.
         21    1    1    2  504  505  0.26413286041E+02 -0.38770313662E+02 -0.40358936989E+03  0.40630675405E+03  0.00000000000E+00 0.  1.
         21    1    1    2  505  502  0.62259908369E+02 -0.18385424278E+03  0.51661788366E+02  0.20086716793E+03  0.00000000000E+00 0.  1.
          1    1    1    2  501    0 -0.34676368477E+02  0.19794362106E+03 -0.17418279521E+04  0.17533820868E+04  0.00000000000E+00 0. -1.
<scales pt_clust_3="58.50396" pt_clust_4="46.91267" pt_clust_5="162.95412" pt_clust_6="14000.00000"></scales>
<clustering>
<clus scale="   46.913">  2  4  1 -1</clus>
<clus scale="   58.504">  1  3  2 -1</clus>
<clus scale="  162.954">  1  5  2 -1</clus>
<clus scale="   58.504">  1  3  2 -1</clus>
</clustering>
</event>
<event>
 6    0  0.2117869E+002  0.6105318E+02  0.7546771E-02  0.1393464E+00
         -2   -1    0    0    0  501 -0.00000000000E+00  0.00000000000E+00  0.12781411529E+03  0.12781411529E+03  0.00000000000E+00 0. -1.
         21   -1    0    0  503  502  0.00000000000E+00 -0.00000000000E+00 -0.59502290239E+03  0.59502290239E+03  0.00000000000E+00 0. -1.
         21    1    1    2  503  504  0.49760687989E+02  0.34020241757E+01 -0.48329726350E+03  0.48586412168E+03  0.00000000000E+00 0. -1.
         21    1    1    2  504  505  0.76466882513E+01  0.60496432458E+02 -0.23031811166E+02  0.65182470856E+02  0.00000000000E+00 0. -1.
         21    1    1    2  505  501  0.31690484831E+02 -0.56017748684E+02  0.50251594746E+02  0.81654747388E+02  0.00000000000E+00 0. -1.
         -2    1    1    2    0  502 -0.89097861072E+02 -0.78807079493E+01 -0.11131307182E+02  0.90135677758E+02  0.00000000000E+00 0. -1.
<scales pt_clust_3="49.87685" pt_clust_4="61.05318" pt_clust_5="14000.00000" pt_clust_6="66.58521"></scales>
<clustering>
<clus scale="   49.877">  2  3  1 -1</clus>
<clus scale="   66.585">  2  6  1 -1</clus>
<clus scale="   61.053">  2  4  1 -1</clus>
<clus scale="   49.877">  2  3  1 -1</clus>
</clustering>
</event>
<event>
 6    0  0.2117869E+002  0.1461643E+03  0.7546771E-02  0.1205267E+00
         21   -1    0    0  505  502  0.00000000000E+00  0.00000000000E+00  0.27021638625E+04  0.27021638625E+04  0.00000000000E+00 0. -1.
          3   -1    0    0  504    0 -0.00000000000E+00 -0.00000000000E+00 -0.55933087042E+02  0.55933087042E+02  0.00000000000E+00 0.  1.
         21    1    1    2  503  502 -0.51028001545E+02  0.77213572387E+01  0.17823845060E+04  0.17831315161E+04  0.00000000000E+00 0. -1.
         21    1    1    2  504  503 -0.43365973490E+02  0.81132785450E+02  0.35103717120E+03  0.36289148804E+03  0.00000000000E+00 0.  1.
         21    1    1    2  505  501 -0.34430191960E+02  0.23724515594E+02  0.41072639715E+03  0.41284920259E+03  0.00000000000E+00 0. -1.
          3    1    1    2  501    0  0.12882416699E+03 -0.11257865828E+03  0.10208270110E+03  0.19922474286E+03  0.00000000000E+00 0.  1.
<scales pt_clust_3="82.11519" pt_clust_4="14000.00000" pt_clust_5="41.81257" pt_clust_6="146.16427"></scales>
<clustering>
<clus scale="   41.813">  1  5  2 -1</clus>
<clus scale="   82.115">  1  3  2 -1</clus>
<clus scale="  146.164">  2  6  1 -1</clus>
<clus scale="   41.813">  1  3  2 -1</clus>
</clustering>
</event>
<event>
 6    0  0.2117869E+002  0.1356748E+03  0.7546771E-02  0.1219270E+00
         21   -1    0    0  505  502  0.00000000000E+00  0.00000000000E+00  0.11782436477E+04  0.11782436477E+04  0.00000000000E+00 0.  1.
          2   -1    0    0  504    0 -0.00000000000E+00 -0.00000000000E+00 -0.12525630368E+04  0.12525630368E+04  0.00000000000E+00 0. -1.
         21    1    1    2  503  502  0.26871840580E+02  0.18740839223E+02  0.78522431411E+03  0.78590746169E+03  0.00000000000E+00 0.  1.
         21    1    1    2  504  503 -0.56819222488E+02  0.22803781101E+02 -0.29100655387E+03  0.29737728708E+03  0.00000000000E+00 0. -1.
         21    1    1    2  505  501 -0.41720020139E+02  0.11616121872E+03  0.37159859367E+03  0.39156034482E+03  0.00000000000E+00 0.  1.
          2    1    1    2  501    0  0.71667402047E+02 -0.15770583905E+03 -0.94013574296E+03  0.95596159096E+03  0.00000000000E+00 0. -1.
<scales pt_clust_3="32.76148" pt_clust_4="61.07921" pt_clust_5="135.67475" pt_clust_6="14000.00000"></scales>
<clustering>
<clus scale="   32.761">  1  3  2 -1</clus>
<clus scale="   61.079">  2  4  1 -1</clus>
<clus scale="  135.675">  1  5  2 -1</clus>
<clus scale="   32.761">  1  3  2 -1</clus>
</clustering>
</event>
<event>
 6    0  0.2117869E+002  0.1596093E+03  0.7546771E-02  0.1189139E+00
          4   -1    0    0  504    0 -0.00000000000E+00  0.00000000000E+00  0.50757457925E+03  0.50757457925E+03  0.00000000000E+00 0.  1.
         21   -1    0    0  505  502  0.00000000000E+00 -0.00000000000E+00 -0.14194120748E+04  0.14194120748E+04  0.00000000000E+00 0.  1.
         21    1    1    2  503  501  0.52645781397E+02 -0.61114717740E+02  0.29429364451E+02  0.85864279624E+02  0.00000000000E+00 0.  1.
         21    1    1    2  504  502 -0.15875122251E+03  0.12300865862E+03 -0.12011142265E+04  0.12177883502E+04  0.00000000000E+00 0.  1.
         21    1    1    2  505  503  0.65948964213E+02 -0.70672667795E+02 -0.16783473422E+03  0.19368115516E+03  0.00000000000E+00 0.  1.
          4    1    1    2  501    0  0.40156476896E+02  0.87787269188E+01  0.42768210069E+03  0.42965286911E+03  0.00000000000E+00 0.  1.
<scales pt_clust_3="98.55657" pt_clust_4="159.60927" pt_clust_5="14000.00000" pt_clust_6="41.10485"></scales>
<clustering>
<clus scale="   41.105">  1  6  2 -1</clus>
<clus scale="   98.557">  1  3  2 -1</clus>
<clus scale="  159.609">  2  4  1 -1</clus>
<clus scale="  159.609">  2  3  1 -1</clus>
</clustering>
</event>
<event>
 6    0  0.2117869E+002  0.9117181E+02  0.7546771E-02  0.1300039E+00
         21   -1    0    0  504  502  0.00000000000E+00  0.00000000000E+00  0.15568771739E+03  0.15568771739E+03  0.00000000000E+00 0. -1.
          1   -1    0    0  503    0 -0.00000000000E+00 -0.00000000000E+00 -0.90808835195E+03  0.90808835195E+03  0.00000000000E+00 0.  1.
         21    1    1    2  503  505  0.63818079951E+02  0.53814192256E+02 -0.36752431459E+03  0.37688570739E+03  0.00000000000E+00 0.  1.
         21    1    1    2  504  501  0.35567091033E+02 -0.52638314011E+02 -0.55144755640E+02  0.84123445846E+02  0.00000000000E+00 0. -1.
         21    1    1    2  505  502 -0.12745646084E+03  0.77661579050E+02  0.90324174066E+02  0.17445608815E+03  0.00000000000E+00 0. -1.
          1    1    1    2  501    0  0.28071289857E+02 -0.78837457295E+02 -0.42005573840E+03  0.42831082796E+03  0.00000000000E+00 0.  1.
<scales pt_clust_3="83.28164" pt_clust_4="63.52803" pt_clust_5="91.17181" pt_clust_6="14000.00000"></scales>
<clustering>
<clus scale="   63.528">  1  4  2 -1</clus>
<clus scale="   83.282">  2  3  1 -1</clus>
<clus scale="   91.172">  1  5  2 -1</clus>
<clus scale="   63.528">  1  3  2 -1</clus>
</clustering>
</event>
<event>
 6    0  0.2117869E+002  0.9569829E+02  0.7546771E-02  0.1289611E+00
         21   -1    0    0  504  502  0.00000000000E+00  0.00000000000E+00  0.14642585685E+02  0.14642585685E+02  0.00000000000E+00 0. -1.
          2   -1    0    0  505    0 -0.00000000000E+00 -0.00000000000E+00 -0.35897210939E+04  0.35897210939E+04  0.00000000000E+00 0. -1.
         21    1    1    2  503  502  0.72914422463E+02 -0.32310539092E+02 -0.35066478832E+03  0.35961962920E+03  0.00000000000E+00 0. -1.
         21    1    1    2  504  501 -0.10828279389E+03  0.24927478185E+02 -0.31600810034E+03  0.33497412154E+03  0.00000000000E+00 0. -1.
         21    1    1    2  505  503  0.27494008132E+02 -0.26705670383E+02 -0.67302858700E+03  0.67411912318E+03  0.00000000000E+00 0. -1.
          2    1    1    2  501    0  0.78743632941E+01  0.34088731290E+02 -0.22353770325E+04  0.22356508056E+04  0.00000000000E+00 0. -1.
<scales pt_clust_3="95.69829" pt_clust_4="14000.00000" pt_clust_5="32.88914" pt_clust_6="34.98639"></scales>
<clustering>
<clus scale="   34.986">  2  6  1 -1</clus>
<clus scale="   32.889">  2  5  1 -1</clus>
<clus scale="   95.698">  2  3  1 -1</clus>
<clus scale="   95.698">  1  3  2 -1</clus>
</clustering>
</event>
<event>
 6    0  0.2117869E+002  0.1429223E+03  0.7546771E-02  0.1209450E+00
          1   -1    0    0  505    0 -0.00000000000E+00  0.00000000000E+00  0.17910453218E+04  0.17910453218E+04  0.00000000000E+00 0.  1.
         21   -1    0    0  501  502  0.00000000000E+00 -0.00000000000E+00 -0.12767884524E+03  0.12767884524E+03  0.00000000000E+00 0.  1.
         21    1    1    2  503  504 -0.52964274351E+02  0.64881519571E+02  0.10108663192E+03  0.13127579020E+03  0.00000000000E+00 0. -1.
         21    1    1    2  504  502 -0.30852612047E+02 -0.50243891055E+01 -0.42210972255E+01  0.31542761734E+02  0.00000000000E+00 0.  1.
         21    1    1    2  505  503 -0.47007356435E+02  0.13189210489E+03  0.15106886001E+04  0.15171635592E+04  0.00000000000E+00 0.  1.
          1    1    1    2  501    0  0.13082424283E+03 -0.19174923536E+03  0.55812341776E+02  0.23874205593E+03  0.00000000000E+00 0.  1.
<scales pt_clust_3="85.98233" pt_clust_4="31.25905" pt_clust_5="142.92227" pt_clust_6="14000.00000"></scales>
<clustering>
<clus scale="   31.259">  2  4  1 -1</clus>
<clus scale="   85.982">  2  3  1 -1</clus>
<clus scale="  142.922">  1  5  2 -1</clus>
<clus scale="   31.259">  2  3  1 -1</clus>
</clustering>
</event>
<event>
 6    0  0.2117869E+002  0.9665994E+02  0.7546771E-02  0.1287481E+00
          1   -1    0    0  503    0 -0.00000000000E+00  0.00000000000E+00  0.35016895713E+03  0.35016895713E+03  0.00000000000E+00 0.  1.
         21   -1    0    0  504  502  0.00000000000E+00 -0.00000000000E+00 -0.67507534458E+03  0.67507534458E+03  0.00000000000E+00 0.  1.
         21    1    1    2  503  505  0.78460028981E+02  0.17626387241E+02  0.18455401038E+03  0.20131281237E+03  0.00000000000E+00 0.  1.
         21    1    1    2  504  501 -0.45357566911E+02  0.75609658516E+02  0.29789219469E+02  0.93067324736E+02  0.00000000000E+00 0.  1.
         21    1    1    2  505  502  0.20810785780E+02 -0.95205168269E+02 -0.62336390080E+03  0.63093554797E+03  0.00000000000E+00 0.  1.
          1    1    1    2  501    0 -0.53913247850E+02  0.19691225115E+01  0.84114283495E+02  0.99928616647E+02  0.00000000000E+00 0.  1.
<scales pt_clust_3="42.67810" pt_clust_4="14000.00000" pt_clust_5="96.65994" pt_clust_6="53.94920"></scales>
<clustering>
<clus scale="   53.949">  1  6  2 -1</clus>
<clus scale="   42.678">  1  3  2 -1</clus>
<clus scale="   96.660">  2  5  1 -1</clus>
<clus scale="   96.660">  2  3  1 -1</clus>
</clustering>
</event>
<event>
 6    0  0.2117869E+002  0.7954348E+02  0.7546771E-02  0.1330352E+00
         21   -1    0    0  501  502  0.00000000000E+00  0.00000000000E+00  0.38311391245E+02  0.38311391245E+02  0.00000000000E+00 0. -1.
          2   -1    0    0  505    0 -0.00000000000E+00 -0.00000000000E+00 -0.88874347630E+03  0.88874347630E+03  0.00000000000E+00 0. -1.
         21    1    1    2  503  502  0.45251934176E+02  0.41372878627E+02 -0.35201771285E+02  0.70700900518E+02  0.00000000000E+00 0. -1.
         21    1    1    2  504  503 -0.65783974809E+02  0.32749427058E+02 -0.12734473567E+03  0.14702631743E+03  0.00000000000E+00 0. -1.
         21    1    1    2  505  504 -0.91214538150E+00  0.33499369908E+02 -0.39731450592E+03  0.39872528940E+03  0.00000000000E+00 0. -1.
          2    1    1    2  501    0  0.21444186014E+02 -0.10762167559E+03 -0.29057107217E+03  0.31060236019E+03  0.00000000000E+00 0. -1.
<scales pt_clust_3="63.73951" pt_clust_4="79.54348" pt_clust_5="33.51179" pt_clust_6="14000.00000"></scales>
<clustering>
<clus scale="   33.512">  2  5  1 -1</clus>
<clus scale="   63.740">  1  3  2 -1</clus>
<clus scale="   79.543">  1  4  2 -1</clus>
<clus scale="   63.740">  1  3  2 -1</clus>
</clustering>
</event>
<event>
 6    0  0.2117869E+002  0.2986001E+03  0.7546771E-02  0.1085942E+00
         21   -1    0    0  504  502  0.00000000000E+00  0.00000000000E+00  0.39002119488E+03  0.39002119488E+03  0.00000000000E+00 0.  1.
          1   -1    0    0  503    0 -0.00000000000E+00 -0.00000000000E+00 -0.24234022869E+04  0.24234022869E+04  0.00000000000E+00 0. -1.
         21    1    1    2  503  502  0.42366268748E+02 -0.28229260585E+02  0.18631791651E+02  0.54211950167E+02  0.00000000000E+00 0.  1.
         21    1    1    2  504  505 -0.32198950668E+03  0.65421663544E+02  0.26566016251E+03  0.42253113307E+03  0.00000000000E+00 0.  1.
         21    1    1    2  505  501  0.11643866809E+03 -0.61740497256E+02 -0.11044914201E+04  0.11123269077E+04  0.00000000000E+00 0. -1.
          1    1    1    2  501    0  0.16318456984E+03  0.24548094297E+02 -0.12131816260E+04  0.12243534908E+04  0.00000000000E+00 0. -1.
<scales pt_clust_3="50.90964" pt_clust_4="283.31527" pt_clust_5="84.31022" pt_clust_6="84.31022"></scales>
<clustering>
<clus scale="   50.910">  1  3  2 -1</clus>
<clus scale="   84.310">  5  6 -1 -1</clus>
<clus scale="  283.315">  1  4  2 -1</clus>
<clus scale="   50.910">  1  3  2 -1</clus>
</clustering>
</event>
<event>
 6    0  0.2117869E+002  0.1464013E+03  0.7546771E-02  0.1204966E+00
          1   -1    0    0  503    0 -0.00000000000E+00  0.00000000000E+00  0.21543408272E+04  0.21543408272E+04  0.00000000000E+00 0. -1.
         21   -1    0    0  504  502  0.00000000000E+00 -0.00000000000E+00 -0.95802017802E+03  0.95802017802E+03  0.00000000000E+00 0.  1.
         21    1    1    2  503  505 -0.26971093546E+02 -0.28149455349E+02  0.48844615083E+03  0.48999946325E+03  0.00000000000E+00 0.  1.
         21    1    1    2  504  501 -0.90325351820E+00  0.14675155368E+03 -0.94364327682E+03  0.95498663251E+03  0.00000000000E+00 0.  1.
         21    1    1    2  505  502 -0.21461658756E+02 -0.65377840913E+02  0.16095930193E+03  0.17505074052E+03  0.00000000000E+00 0.  1.
          1    1    1    2  501    0  0.49336005820E+02 -0.53224257418E+02  0.14905584732E+04  0.14923241689E+04  0.00000000000E+00 0. -1.
<scales pt_clust_3="38.98502" pt_clust_4="14000.00000" pt_clust_5="72.37759" pt_clust_6="146.40127"></scales>
<clustering>
<clus scale="   38.985">  1  3  2 -1</clus>
<clus scale="   72.378">  1  5  2 -1</clus>
<clus scale="  146.401">  1  6  2 -1</clus>
<clus scale="  146.401">  2  3  1 -1</clus>
</clustering>
</event>
<event>
 6    0  0.2117869E+002  0.6861538E+02  0.7546771E-02  0.1364866E+00
          2   -1    0    0  504    0 -0.00000000000E+00  0.00000000000E+00  0.32310457442E+04  0.32310457442E+04  0.00000000000E+00 0.  1.
         21   -1    0    0  501  502  0.00000000000E+00 -0.00000000000E+00 -0.64335503649E+02  0.64335503649E+02  0.00000000000E+00 0.  1.
         21    1    1    2  503  502 -0.43945702993E+02 -0.52221428667E+02 -0.37766437470E+02  0.78003885947E+02  0.00000000000E+00 0.  1.
         21    1    1    2  504  505 -0.39533587899E+02 -0.33827403781E+02  0.33310027219E+03  0.33713942094E+03  0.00000000000E+00 0.  1.
         21    1    1    2  505  503  0.51272507116E+02 -0.36104111108E+02  0.34152013274E+03  0.34722957520E+03  0.00000000000E+00 0. -1.
          2    1    1    2  501    0  0.32206783776E+02  0.12215294356E+03  0.25298562730E+04  0.25330083657E+04  0.00000000000E+00 0.  1.
<scales pt_clust_3="14000.00000" pt_clust_4="52.03074" pt_clust_5="61.47392" pt_clust_6="68.61538"></scales>
<clustering>
<clus scale="   52.031">  1  4  2 -1</clus>
<clus scale="   61.474">  1  5  2 -1</clus>
<clus scale="   68.615">  1  6  2 -1</clus>
<clus scale="   68.615">  2  3  1 -1</clus>
</clustering>
</event>
<event>
 6    0  0.2117869E+002  0.1747814E+03  0.7546771E-02  0.1172951E+00
          1   -1    0    0  503    0 -0.00000000000E+00  0.00000000000E+00  0.26020876385E+04  0.26020876385E+04  0.00000000000E+00 0.  1.
         21   -1    0    0  505  502  0.00000000000E+00 -0.00000000000E+00 -0.91683996052E+02  0.91683996052E+02  0.00000000000E+00 0.  1.
         21    1    1    2  503  502 -0.92553514939E+02 -0.14927156959E+02  0.26002277219E+03  0.27640697386E+03  0.00000000000E+00 0. -1.
         21    1    1    2  504  501 -0.68666152174E+02  0.84819908663E+02  0.15839730752E+02  0.11027399707E+03  0.00000000000E+00 0.  1.
         21    1    1    2  505  504 -0.18024906914E+02 -0.38960965764E+02 -0.18481302530E+02  0.46737700689E+02  0.00000000000E+00 0. -1.
          1    1    1    2  501    0  0.17924457403E+03 -0.30931785941E+02  0.22530224420E+04  0.22603529629E+04  0.00000000000E+00 0.  1.
<scales pt_clust_3="97.20289" pt_clust_4="174.78140" pt_clust_5="42.92848" pt_clust_6="14000.00000"></scales>
<clustering>
<clus scale="   42.928">  2  5  1 -1</clus>
<clus scale="   97.203">  2  3  1 -1</clus>
<clus scale="  174.781">  2  4  1 -1</clus>
<clus scale="   42.928">  2  3  1 -1</clus>
</clustering>
</event>
<event>
 6    0  0.2117869E+002  0.1112662E+03  0.7546771E-02  0.1258243E+00
         21   -1    0    0  505  502  0.00000000000E+00  0.00000000000E+00  0.71563378352E+03  0.71563378352E+03  0.00000000000E+00 0.  1.
          2   -1    0    0  503    0 -0.00000000000E+00 -0.00000000000E+00 -0.82463214476E+03  0.82463214476E+03  0.00000000000E+00 0. -1.
         21    1    1    2  503  504  0.37559670368E+02  0.54834053977E+01 -0.24013786497E+02  0.44916127558E+02  0.00000000000E+00 0. -1.
         21    1    1    2  504  502  0.34349455170E+02 -0.60367551702E+02  0.55558414530E+03  0.55990880407E+03  0.00000000000E+00 0.  1.
         21    1    1    2  505  501 -0.37178182490E+01 -0.47762787129E+02  0.13856953950E+03  0.14661726803E+03  0.00000000000E+00 0.  1.
          2    1    1    2  501    0 -0.68191307289E+02  0.10264693343E+03 -0.77913825955E+03  0.78882372861E+03  0.00000000000E+00 0. -1.
<scales pt_clust_3="37.95783" pt_clust_4="14000.00000" pt_clust_5="47.86495" pt_clust_6="111.26618"></scales>
<clustering>
<clus scale="   37.958">  2  3  1 -1</clus>
<clus scale="   47.865">  1  5  2 -1</clus>
<clus scale="  111.266">  2  6  1 -1</clus>
<clus scale="   47.865">  1  3  2 -1</clus>
</clustering>
</event>
<event>
 6    0  0.2117869E+002  0.1313183E+03  0.7546771E-02  0.1225513E+00
         21   -1    0    0  504  502  0.00000000000E+00  0.00000000000E+00  0.15953595203E+03  0.15953595203E+03  0.00000000000E+00 0.  1.
          2   -1    0    0  505    0 -0.00000000000E+00 -0.00000000000E+00 -0.21883807503E+04  0.21883807503E+04  0.00000000000E+00 0.  1.
         21    1    1    2  503  501 -0.21289432125E+02 -0.33674002091E+02 -0.11042815791E+04  0.11049999929E+04  0.00000000000E+00 0. -1.
         21    1    1    2  504  503  0.12639341040E+03  0.14793511572E+01 -0.11263834523E+02  0.12690294181E+03  0.00000000000E+00 0.  1.
         21    1    1    2  505  502 -0.12762389933E+03  0.57039682838E+02  0.52728247707E+02  0.14940432793E+03  0.00000000000E+00 0.  1.
          2    1    1    2  501    0  0.22519921055E+02 -0.24845031904E+02 -0.96602763243E+03  0.96660943978E+03  0.00000000000E+00 0.  1.
<scales pt_clust_3="56.13957" pt_clust_4="131.31830" pt_clust_5="14000.00000" pt_clust_6="33.53241"></scales>
<clustering>
<clus scale="   33.532">  2  6  1 -1</clus>
<clus scale="   56.140">  2  3  1 -1</clus>
<clus scale="  131.318">  2  4  1 -1</clus>
<clus scale="  131.318">  1  3  2 -1</clus>
</clustering>
</event>
<event>
 6    0  0.2117869E+002  0.2096255E+03  0.7546771E-02  0.1141863E+00
         21   -1    0    0  505  502  0.00000000000E+00  0.00000000000E+00  0.10108526379E+04  0.10108526379E+04  0.00000000000E+00 0.  1.
          1   -1    0    0  504    0 -0.00000000000E+00 -0.00000000000E+00 -0.46411089575E+03  0.46411089575E+03  0.00000000000E+00 0.  1.
         21    1    1    2  503  502 -0.86621443705E+01 -0.45333019440E+02  0.64584635101E+02  0.79380668224E+02  0.00000000000E+00 0. -1.
         21    1    1    2  504  503  0.76245233471E+02 -0.18601648097E+03 -0.19546740033E+03  0.28039788054E+03  0.00000000000E+00 0. -1.
         21    1    1    2  505  501  0.45458696838E+02  0.39845559178E+02  0.83852526502E+03  0.84070136302E+03  0.00000000000E+00 0.  1.
          1    1    1    2  501    0 -0.11304178594E+03  0.19150394124E+03 -0.16090075762E+03  0.27448362188E+03  0.00000000000E+00 0.  1.
<scales pt_clust_3="46.15317" pt_clust_4="14000.00000" pt_clust_5="37.71871" pt_clust_6="209.62553"></scales>
<clustering>
<clus scale="   46.153">  1  3  2 -1</clus>
<clus scale="   37.719">  1  5  2 -1</clus>
<clus scale="  209.626">  1  6  2 -1</clus>
<clus scale="   46.153">  1  3  2 -1</clus>
</clustering>
</event>
<event>
 6    0  0.2117869E+002  0.1131085E+03  0.7546771E-02  0.1254919E+00
         21   -1    0    0  505  502  0.00000000000E+00  0.00000000000E+00  0.11346174942E+03  0.11346174942E+03  0.00000000000E+00 0.  1.
          1   -1    0    0  504    0 -0.00000000000E+00 -0.00000000000E+00 -0.19704820844E+04  0.19704820844E+04  0.00000000000E+00 0. -1.
         21    1    1    2  503  502 -0.18786601863E+02  0.26250890197E+02  0.38676718633E+02  0.50377913910E+02  0.00000000000E+00 0.  1.
         21    1    1    2  504  503 -0.47847925875E+02  0.25731846557E+02 -0.22357923739E+03  0.23008526100E+03  0.00000000000E+00 0.  1.
         21    1    1    2  505  501 -0.87624475512E+02 -0.63439206893E+02  0.15064492783E+02  0.10922234489E+03  0.00000000000E+00 0.  1.
          1    1    1    2  501    0  0.15425900325E+03  0.11456470139E+02 -0.16871823090E+04  0.16942583140E+04  0.00000000000E+00 0. -1.
<scales pt_clust_3="32.28073" pt_clust_4="55.69975" pt_clust_5="113.10853" pt_clust_6="14000.00000"></scales>
<clustering>
<clus scale="   32.281">  1  3  2 -1</clus>
<clus scale="   55.700">  2  4  1 -1</clus>
<clus scale="  113.109">  1  5  2 -1</clus>
<clus scale="   32.281">  1  3  2 -1</clus>
</clustering>
</event>
<event>
 6    0  0.2117869E+002  0.1379092E+03  0.7546771E-02  0.1216170E+00
          1   -1    0    0  503    0 -0.00000000000E+00  0.00000000000E+00  0.30789999323E+04  0.30789999323E+04  0.00000000000E+00 0. -1.
         21   -1    0    0  505  502  0.00000000000E+00 -0.00000000000E+00 -0.42307989672E+03  0.42307989672E+03  0.00000000000E+00 0.  1.
         21    1    1    2  503  502 -0.22599859513E+02  0.33618714712E+02  0.52088831038E+03  0.52246110240E+03  0.00000000000E+00 0. -1.
         21    1    1    2  504  501 -0.50032656557E+02 -0.57642966680E+02 -0.22372811997E+03  0.23639003785E+03  0.00000000000E+00 0.  1.
         21    1    1    2  505  504  0.19846088087E+02 -0.58389408964E+02 -0.18632354483E+03  0.19626424445E+03  0.00000000000E+00 0.  1.
          1    1    1    2  501    0  0.52786427984E+02  0.82413660932E+02  0.25450833900E+04  0.25469644443E+04  0.00000000000E+00 0. -1.
<scales pt_clust_3="40.50891" pt_clust_4="61.41600" pt_clust_5="61.41600" pt_clust_6="119.77615"></scales>
<clustering>
<clus scale="   40.509">  1  3  2 -1</clus>
<clus scale="   61.416">  4  5 -1 -1</clus>
<clus scale="  119.776">  1  6  2 -1</clus>
<clus scale="  137.909">  2  3  1 -1</clus>
</clustering>
</event>
<event>
 6    0  0.2117869E+002  0.1162156E+03  0.7546771E-02  0.1249474E+00
          2   -1    0    0  504    0 -0.00000000000E+00  0.00000000000E+00  0.14922001089E+04  0.14922001089E+04  0.00000000000E+00 0. -1.
         21   -1    0    0  501  502  0.00000000000E+00 -0.00000000000E+00 -0.47584669825E+02  0.47584669825E+02  0.00000000000E+00 0.  1.
         21    1    1    2  503  502 -0.67119362222E+02 -0.10080706358E+03  0.53991810799E+02  0.13259784495E+03  0.00000000000E+00 0.  1.
         21    1    1    2  504  505 -0.33898741481E+02  0.19947356235E+02  0.43994396295E+03  0.44169866677E+03  0.00000000000E+00 0. -1.
         21    1    1    2  505  503  0.26765547498E+02  0.44090160747E+02  0.11907430276E+03  0.12976527419E+03  0.00000000000E+00 0. -1.
          2    1    1    2  501    0  0.74252556205E+02  0.36769546598E+02  0.83160536255E+03  0.83572299280E+03  0.00000000000E+00 0. -1.
<scales pt_clust_3="116.21563" pt_clust_4="39.33220" pt_clust_5="51.72440" pt_clust_6="14000.00000"></scales>
<clustering>
<clus scale="   39.332">  1  4  2 -1</clus>
<clus scale="   51.724">  1  5  2 -1</clus>
<clus scale="  116.216">  2  3  1 -1</clus>
<clus scale="  116.216">  2  3  1 -1</clus>
</clustering>
</event>
<event>
 6    0  0.2117869E+002  0.1200198E+03  0.7546771E-02  0.1243064E+00
          1   -1    0    0  504    0 -0.00000000000E+00  0.00000000000E+00  0.71714944204E+03  0.71714944204E+03  0.00000000000E+00 0. -1.
         21   -1    0    0  503  502  0.00000000000E+00 -0.00000000000E+00 -0.13016859282E+03  0.13016859282E+03  0.00000000000E+00 0.  1.
         21    1    1    2  503  501 -0.30425449664E+02 -0.16231542542E+02 -0.12079629634E+02  0.36538861677E+02  0.00000000000E+00 0.  1.
         21    1    1    2  504  505  0.61431778003E+02 -0.67887085018E+02  0.25400182207E+03  0.26999897273E+03  0.00000000000E+00 0. -1.
         21    1    1    2  505  502  0.13279884373E+03  0.47141190914E+02 -0.16740997693E+02  0.14190872341E+03  0.00000000000E+00 0.  1.
          1    1    1    2  501    0 -0.16380517207E+03  0.36977436646E+02  0.36179965447E+03  0.39887147704E+03  0.00000000000E+00 0. -1.
<scales pt_clust_3="34.48436" pt_clust_4="90.95810" pt_clust_5="14000.00000" pt_clust_6="120.01976"></scales>
<clustering>
<clus scale="   34.484">  2  3  1 -1</clus>
<clus scale="   90.958">  1  4  2 -1</clus>
<clus scale="  120.020">  1  6  2 -1</clus>
<clus scale="   34.484">  2  3  1 -1</clus>
</clustering>
</event>
<event>
 6    0  0.2117869E+002  0.1155282E+03  0.7546771E-02  0.1250662E+00
          1   -1    0    0  504    0 -0.00000000000E+00  0.00000000000E+00  0.59842248447E+03  0.59842248447E+03  0.00000000000E+00 0.  1.
         21   -1    0    0  503  502  0.00000000000E+00 -0.00000000000E+00 -0.13903461083E+04  0.13903461083E+04  0.00000000000E+00 0.  1.
         21    1    1    2  503  501 -0.61308803979E+02  0.27366453807E+02 -0.12660210025E+04  0.12678000122E+04  0.00000000000E+00 0.  1.
         21    1    1    2  504  505 -0.70398383439E+02 -0.92530675780E+02  0.14194214529E+03  0.18348141857E+03  0.00000000000E+00 0.  1.
         21    1    1    2  505  502  0.46503210275E+01  0.52745607907E+02 -0.85604262234E+02  0.10065691408E+03  0.00000000000E+00 0. -1.
          1    1    1    2  501    0  0.12705686639E+03  0.12418614066E+02  0.41775949563E+03  0.43683024788E+03  0.00000000000E+00 0.  1.
<scales pt_clust_3="97.18300" pt_clust_4="14000.00000" pt_clust_5="52.95021" pt_clust_6="115.52818"></scales>
<clustering>
<clus scale="   52.950">  2  5  1 -1</clus>
<clus scale="   97.183">  2  3  1 -1</clus>
<clus scale="  115.528">  1  6  2 -1</clus>
<clus scale="   52.950">  2  3  1 -1</clus>
</clustering>
</event>
<event>
 6    0  0.2117869E+002  0.2007372E+03  0.7546771E-02  0.1149118E+00
          2   -1    0    0  504    0 -0.00000000000E+00  0.00000000000E+00  0.11493100942E+04  0.11493100942E+04  0.00000000000E+00 0.  1.
         21   -1    0    0  505  502  0.00000000000E+00 -0.00000000000E+00 -0.63812095732E+02  0.63812095732E+02  0.00000000000E+00 0.  1.
         21    1    1    2  503  502  0.18599389775E+03 -0.11198083919E+02  0.32823594469E+03  0.37743603758E+03  0.00000000000E+00 0.  1.
         21    1    1    2  504  503  0.46445032968E+02  0.59151220176E+02  0.20404247259E+03  0.21746111964E+03  0.00000000000E+00 0.  1.
         21    1    1    2  505  501 -0.65608523062E+01 -0.34650042187E+02  0.23983855931E+02  0.42648511719E+02  0.00000000000E+00 0.  1.
          2    1    1    2  501    0 -0.22587807841E+03 -0.13303094070E+02  0.52923572526E+03  0.57557652098E+03  0.00000000000E+00 0.  1.
<scales pt_clust_3="200.73724" pt_clust_4="71.37921" pt_clust_5="35.26571" pt_clust_6="14000.00000"></scales>
<clustering>
<clus scale="   35.266">  2  5  1 -1</clus>
<clus scale="   71.379">  1  4  2 -1</clus>
<clus scale="  200.737">  2  3  1 -1</clus>
<clus scale="   35.266">  2  3  1 -1</clus>
</clustering>
</event>
<event>
 6    0  0.2117869E+002  0.8516889E+02  0.7546771E-02  0.1314991E+00
         21   -1    0    0  504  502  0.00000000000E+00  0.00000000000E+00  0.45562505677E+02  0.45562505677E+02  0.00000000000E+00 0.  1.
          4   -1    0    0  505    0 -0.00000000000E+00 -0.00000000000E+00 -0.50198933036E+03  0.50198933036E+03  0.00000000000E+00 0. -1.
         21    1    1    2  503  502  0.71391964195E+02 -0.33216475744E+02 -0.12063482461E+03  0.14405869540E+03  0.00000000000E+00 0.  1.
         21    1    1    2  504  501  0.39251829884E+02  0.17071290397E+02  0.62817515113E+00  0.42808056591E+02  0.00000000000E+00 0. -1.
         21    1    1    2  505  503 -0.17029343240E+02  0.30897748287E+02 -0.89406910937E+02  0.96115894126E+02  0.00000000000E+00 0.  1.
          4    1    1    2  501    0 -0.93614450839E+02 -0.14752562940E+02 -0.24701326429E+03  0.26456918992E+03  0.00000000000E+00 0. -1.
<scales pt_clust_3="85.16889" pt_clust_4="42.67213" pt_clust_5="35.27987" pt_clust_6="14000.00000"></scales>
<clustering>
<clus scale="   35.280">  2  5  1 -1</clus>
<clus scale="   42.672">  1  4  2 -1</clus>
<clus scale="   85.169">  2  3  1 -1</clus>
<clus scale="   42.672">  1  3  2 -1</clus>
</clustering>
</event>
<event>
 6    0  0.2117869E+002  0.8058332E+02  0.7546771E-02  0.1327404E+00
          2   -1    0    0  503    0 -0.00000000000E+00  0.00000000000E+00  0.34119615963E+03  0.34119615963E+03  0.00000000000E+00 0. -1.
         21   -1    0    0  505  502  0.00000000000E+00 -0.00000000000E+00 -0.75568981528E+03  0.75568981528E+03  0.00000000000E+00 0. -1.
         21    1    1    2  503  504  0.18884200561E+02 -0.35147588293E+02  0.20769038020E+03  0.21148820303E+03  0.00000000000E+00 0. -1.
         21    1    1    2  504  502 -0.26200146132E+02 -0.73566540900E+02 -0.85708268106E+02  0.11594994963E+03  0.00000000000E+00 0.  1.
         21    1    1    2  505  501 -0.39831346238E+02  0.25509686468E+02 -0.63229982769E+03  0.63406652044E+03  0.00000000000E+00 0. -1.
          2    1    1    2  501    0  0.47147291809E+02  0.83204442725E+02  0.95824059955E+02  0.13538130181E+03  0.00000000000E+00 0. -1.
<scales pt_clust_3="39.89945" pt_clust_4="80.58332" pt_clust_5="47.06611" pt_clust_6="14000.00000"></scales>
<clustering>
<clus scale="   39.899">  1  3  2 -1</clus>
<clus scale="   47.066">  2  5  1 -1</clus>
<clus scale="   80.583">  2  4  1 -1</clus>
<clus scale="   47.066">  2  3  1 -1</clus>
</clustering>
</event>
<event>
 6    0  0.2117869E+002  0.8024833E+02  0.7546771E-02  0.1328348E+00
         -2   -1    0    0    0  501 -0.00000000000E+00  0.00000000000E+00  0.14864873161E+04  0.14864873161E+04  0.00000000000E+00 0.  1.
         21   -1    0    0  505  502  0.00000000000E+00 -0.00000000000E+00 -0.45699119348E+02  0.45699119348E+02  0.00000000000E+00 0. -1.
         21    1    1    2  503  501 -0.11943489349E+02 -0.67906154299E+02  0.25476791928E+03  0.26393291841E+03  0.00000000000E+00 0.  1.
         21    1    1    2  504  502  0.10171141944E+02  0.38013173505E+02  0.86982622091E+02  0.95469524112E+02  0.00000000000E+00 0.  1.
         21    1    1    2  505  503 -0.83025863337E+02  0.15941287366E+01  0.14172524175E+02  0.84241887863E+02  0.00000000000E+00 0. -1.
         -2    1    1    2    0  504  0.84798210742E+02  0.28298852058E+02  0.10848651312E+04  0.10885421051E+04  0.00000000000E+00 0.  1.
<scales pt_clust_3="64.61639" pt_clust_4="39.35039" pt_clust_5="80.24833" pt_clust_6="14000.00000"></scales>
<clustering>
<clus scale="   39.350">  2  4  1 -1</clus>
<clus scale="   64.616">  1  3  2 -1</clus>
<clus scale="   80.248">  2  5  1 -1</clus>
<clus scale="   39.350">  2  3  1 -1</clus>
</clustering>
</event>
<event>
 6    0  0.2117869E+002  0.6893968E+02  0.7546771E-02  0.1363736E+00
         21   -1    0    0  504  502  0.00000000000E+00  0.00000000000E+00  0.10141120284E+04  0.10141120284E+04  0.00000000000E+00 0.  1.
          4   -1    0    0  503    0 -0.00000000000E+00 -0.00000000000E+00 -0.18873123475E+03  0.18873123475E+03  0.00000000000E+00 0.  1.
         21    1    1    2  503  505 -0.44135768752E+01  0.38891612750E+02 -0.15130878075E+02  0.41964040254E+02  0.00000000000E+00 0.  1.
         21    1    1    2  504  501 -0.45954401210E+02 -0.71453801893E+01  0.11512488816E+03  0.12416361513E+03  0.00000000000E+00 0.  1.
         21    1    1    2  505  502  0.71404878318E+01  0.63269168608E+02  0.86224436152E+03  0.86459199235E+03  0.00000000000E+00 0.  1.
          4    1    1    2  501    0  0.43227490254E+02 -0.95015401169E+02 -0.13685757790E+03  0.17212361547E+03  0.00000000000E+00 0.  1.
<scales pt_clust_3="39.14125" pt_clust_4="46.47415" pt_clust_5="14000.00000" pt_clust_6="68.93968"></scales>
<clustering>
<clus scale="   39.141">  2  3  1 -1</clus>
<clus scale="   46.474">  1  4  2 -1</clus>
<clus scale="   68.940">  2  6  1 -1</clus>
<clus scale="   46.474">  1  3  2 -1</clus>
</clustering>
</event>
<event>
 6    0  0.2117869E+002  0.3333839E+03  0.7546771E-02  0.1069649E+00
          2   -1    0    0  504    0 -0.00000000000E+00  0.00000000000E+00  0.17520013707E+04  0.17520013707E+04  0.00000000000E+00 0.  1.
         21   -1    0    0  505  502  0.00000000000E+00 -0.00000000000E+00 -0.32019593406E+03  0.32019593406E+03  0.00000000000E+00 0.  1.
         21    1    1    2  503  501  0.30321919985E+02 -0.18236118488E+02  0.56832666527E+02  0.66947194367E+02  0.00000000000E+00 0.  1.
         21    1    1    2  504  502 -0.30935954553E+03  0.16841223354E+03  0.50452398611E+03  0.61531330343E+03  0.00000000000E+00 0.  1.
         21    1    1    2  505  503  0.25855889229E+02 -0.43240721258E+02 -0.24038518075E+03  0.24560806605E+03  0.00000000000E+00 0.  1.
          2    1    1    2  501    0  0.25318173632E+03 -0.10693539379E+03  0.11108339648E+04  0.11443287409E+04  0.00000000000E+00 0.  1.
<scales pt_clust_3="31.48881" pt_clust_4="321.62557" pt_clust_5="50.38142" pt_clust_6="31.48881"></scales>
<clustering>
<clus scale="   31.489">  3  6 -1 -1</clus>
<clus scale="   50.381">  2  5  1 -1</clus>
<clus scale="  321.626">  2  4  1 -1</clus>
<clus scale="   50.381">  2  3  1 -1</clus>
</clustering>
</event>
<event>
 6    0  0.2117869E+002  0.9386243E+02  0.7546771E-02  0.1293759E+00
          2   -1    0    0  505    0 -0.00000000000E+00  0.00000000000E+00  0.12262727203E+04  0.12262727203E+04  0.00000000000E+00 0. -1.
         21   -1    0    0  503  502  0.00000000000E+00 -0.00000000000E+00 -0.10996873309E+03  0.10996873309E+03  0.00000000000E+00 0. -1.
         21    1    1    2  503  504 -0.46356362677E+02 -0.52107489317E+01  0.10476509852E+02  0.47810265883E+02  0.00000000000E+00 0.  1.
         21    1    1    2  504  501  0.19839515653E+02 -0.50704926755E+02  0.74091629742E+02  0.91946536511E+02  0.00000000000E+00 0. -1.
         21    1    1    2  505  502  0.57222162932E+02 -0.44477343805E+02 -0.63421854424E+02  0.96306498541E+02  0.00000000000E+00 0. -1.
          2    1    1    2  501    0 -0.30705315908E+02  0.10039301949E+03  0.10951577021E+04  0.11001781525E+04  0.00000000000E+00 0. -1.
<scales pt_clust_3="46.64830" pt_clust_4="14000.00000" pt_clust_5="51.79240" pt_clust_6="93.86243"></scales>
<clustering>
<clus scale="   46.648">  2  3  1 -1</clus>
<clus scale="   51.792">  2  5  1 -1</clus>
<clus scale="   93.862">  1  6  2 -1</clus>
<clus scale="   46.648">  2  3  1 -1</clus>
</clustering>
</event>
<event>
 6    0  0.2117869E+002  0.1086984E+03  0.7546771E-02  0.1262999E+00
         21   -1    0    0  505  502  0.00000000000E+00  0.00000000000E+00  0.41214964556E+03  0.41214964556E+03  0.00000000000E+00 0. -1.
          2   -1    0    0  504    0 -0.00000000000E+00 -0.00000000000E+00 -0.15046825536E+04  0.15046825536E+04  0.00000000000E+00 0.  1.
         21    1    1    2  503  502  0.51275823231E+02  0.94940282825E+01  0.10999921209E+03  0.12173402681E+03  0.00000000000E+00 0. -1.
         21    1    1    2  504  503  0.97943422575E+02 -0.33790382248E+02 -0.17620301284E+03  0.20440696097E+03  0.00000000000E+00 0. -1.
         21    1    1    2  505  501 -0.71994943098E+02 -0.11474140295E+03  0.26074312420E+03  0.29382960742E+03  0.00000000000E+00 0. -1.
          2    1    1    2  501    0 -0.77224302707E+02  0.13903775692E+03 -0.12870722315E+04  0.12968616039E+04  0.00000000000E+00 0.  1.
<scales pt_clust_3="52.14735" pt_clust_4="105.77521" pt_clust_5="14000.00000" pt_clust_6="108.69844"></scales>
<clustering>
<clus scale="   52.147">  1  3  2 -1</clus>
<clus scale="  105.775">  2  4  1 -1</clus>
<clus scale="  108.698">  2  6  1 -1</clus>
<clus scale="   52.147">  1  3  2 -1</clus>
</clustering>
</event>
<event>
 6    0  0.2117869E+002  0.1084008E+03  0.7546771E-02  0.1263560E+00
         21   -1    0    0  504  502  0.00000000000E+00  0.00000000000E+00  0.19958677751E+03  0.19958677751E+03  0.00000000000E+00 0. -1.
          1   -1    0    0  505    0 -0.00000000000E+00 -0.00000000000E+00 -0.82876001326E+03  0.82876001326E+03  0.00000000000E+00 0. -1.
         21    1    1    2  503  501  0.71714323907E+02 -0.98957003123E+02 -0.19788427627E+03  0.23258035066E+03  0.00000000000E+00 0. -1.
         21    1    1    2  504  503 -0.90063794487E+01 -0.39769718428E+02  0.17176638179E+02  0.44246833488E+02  0.00000000000E+00 0. -1.
         21    1    1    2  505  502  0.17347302222E+02  0.70226045410E+02  0.13792251160E+03  0.15574095657E+03  0.00000000000E+00 0. -1.
          1    1    1    2  501    0 -0.80055246681E+02  0.68500676142E+02 -0.58638810927E+03  0.59577865004E+03  0.00000000000E+00 0. -1.
<scales pt_clust_3="108.40079" pt_clust_4="40.77677" pt_clust_5="36.89590" pt_clust_6="14000.00000"></scales>
<clustering>
<clus scale="   40.777">  1  4  2 -1</clus>
<clus scale="   36.896">  1  5  2 -1</clus>
<clus scale="  108.401">  1  3  2 -1</clus>
<clus scale="   40.777">  1  3  2 -1</clus>
</clustering>
</event>
<event>
 6    0  0.2117869E+002  0.7730609E+02  0.7546771E-02  0.1336875E+00
          2   -1    0    0  503    0 -0.00000000000E+00  0.00000000000E+00  0.67930940010E+03  0.67930940010E+03  0.00000000000E+00 0.  1.
         21   -1    0    0  501  502  0.00000000000E+00 -0.00000000000E+00 -0.23216444420E+03  0.23216444420E+03  0.00000000000E+00 0. -1.
         21    1    1    2  503  505  0.96253352976E+02 -0.51515373995E+02  0.37471496145E+03  0.39029456063E+03  0.00000000000E+00 0.  1.
         21    1    1    2  504  502 -0.36237612399E+02  0.67012811472E+02 -0.18553881052E+03  0.20057051544E+03  0.00000000000E+00 0. -1.
         21    1    1    2  505  504 -0.40475313477E+02 -0.87527389462E+02  0.72376597211E+02  0.12057224694E+03  0.00000000000E+00 0. -1.
          2    1    1    2  501    0 -0.19540427100E+02  0.72029951986E+02  0.18559220776E+03  0.20003652130E+03  0.00000000000E+00 0.  1.
<scales pt_clust_3="73.91554" pt_clust_4="77.30609" pt_clust_5="14000.00000" pt_clust_6="74.63339"></scales>
<clustering>
<clus scale="   74.633">  1  6  2 -1</clus>
<clus scale="   77.306">  2  4  1 -1</clus>
<clus scale="   73.916">  1  3  2 -1</clus>
<clus scale="   77.306">  2  3  1 -1</clus>
</clustering>
</event>
<event>
 6    0  0.2117869E+002  0.1823277E+03  0.7546771E-02  0.1165569E+00
         21   -1    0    0  505  502  0.00000000000E+00  0.00000000000E+00  0.13137508425E+04  0.13137508425E+04  0.00000000000E+00 0. -1.
          1   -1    0    0  503    0 -0.00000000000E+00 -0.00000000000E+00 -0.29178982097E+04  0.29178982097E+04  0.00000000000E+00 0. -1.
         21    1    1    2  503  502 -0.59932036360E+02 -0.88793600067E+01  0.59807841743E+03  0.60113932280E+03  0.00000000000E+00 0. -1.
         21    1    1    2  504  501  0.43644594804E+02  0.16730370124E+03 -0.97590619174E+03  0.99110457278E+03  0.00000000000E+00 0.  1.
         21    1    1    2  505  504  0.12440323825E+02  0.32298736132E+02  0.70140825266E+03  0.70226170828E+03  0.00000000000E+00 0. -1.
          1    1    1    2  501    0  0.38471177301E+01 -0.19072307737E+03 -0.19277278456E+04  0.19371434483E+04  0.00000000000E+00 0. -1.
<scales pt_clust_3="52.89379" pt_clust_4="14000.00000" pt_clust_5="34.61170" pt_clust_6="182.32766"></scales>
<clustering>
<clus scale="   34.612">  1  5  2 -1</clus>
<clus scale="   52.894">  1  3  2 -1</clus>
<clus scale="  182.328">  2  6  1 -1</clus>
<clus scale="   34.612">  1  3  2 -1</clus>
</clustering>
</event>
<event>
 6    0  0.2117869E+002  0.1700527E+03  0.7546771E-02  0.1177793E+00
         21   -1    0    0  505  502  0.00000000000E+00  0.00000000000E+00  0.15075593748E+04  0.15075593748E+04  0.00000000000E+00 0.  1.
          1   -1    0    0  503    0 -0.00000000000E+00 -0.00000000000E+00 -0.14271415599E+03  0.14271415599E+03  0.00000000000E+00 0.  1.
         21    1    1    2  503  504 -0.16043527201E+01 -0.36322915755E+02  0.23198585055E+01  0.36432264548E+02  0.00000000000E+00 0. -1.
         21    1    1    2  504  502  0.12688330214E+03 -0.11691742549E+03  0.10945994041E+04  0.11081141242E+04  0.00000000000E+00 0.  1.
         21    1    1    2  505  501 -0.21259823044E+02  0.19804793261E+03  0.32323945574E+03  0.37968237967E+03  0.00000000000E+00 0.  1.
          1    1    1    2  501    0 -0.10401912637E+03 -0.44807591367E+02 -0.55313499531E+02  0.12604476239E+03  0.00000000000E+00 0.  1.
<scales pt_clust_3="36.35833" pt_clust_4="14000.00000" pt_clust_5="170.05273" pt_clust_6="126.90918"></scales>
<clustering>
<clus scale="   36.358">  2  3  1 -1</clus>
<clus scale="  126.909">  2  6  1 -1</clus>
<clus scale="  170.053">  2  5  1 -1</clus>
<clus scale="  170.053">  1  3  2 -1</clus>
</clustering>
</event>
<event>
 6    0  0.2117869E+002  0.8742098E+02  0.7546771E-02  0.1309220E+00
          1   -1    0    0  503    0 -0.00000000000E+00  0.00000000000E+00  0.71052884507E+03  0.71052884507E+03  0.00000000000E+00 0. -1.
         21   -1    0    0  505  502  0.00000000000E+00 -0.00000000000E+00 -0.59225588295E+03  0.59225588295E+03  0.00000000000E+00 0.  1.
         21    1    1    2  503  504 -0.49501113598E+02  0.17960132598E+01  0.37253724007E+02  0.61979237357E+02  0.00000000000E+00 0.  1.
         21    1    1    2  504  502 -0.39334047037E+02  0.21217495805E+02 -0.14577096787E+02  0.47008947396E+02  0.00000000000E+00 0.  1.
         21    1    1    2  505  501 -0.10735685695E+02  0.50894316369E+02 -0.54188045713E+03  0.54437111992E+03  0.00000000000E+00 0.  1.
          1    1    1    2  501    0  0.99570846329E+02 -0.73907825435E+02  0.63747679203E+03  0.64942542334E+03  0.00000000000E+00 0. -1.
<scales pt_clust_3="50.41802" pt_clust_4="44.69171" pt_clust_5="14000.00000" pt_clust_6="87.42098"></scales>
<clustering>
<clus scale="   44.692">  2  4  1 -1</clus>
<clus scale="   50.418">  1  3  2 -1</clus>
<clus scale="   87.421">  1  6  2 -1</clus>
<clus scale="   44.692">  2  3  1 -1</clus>
</clustering>
</event>
<event>
 6    0  0.2117869E+002  0.1760546E+03  0.7546771E-02  0.1171677E+00
          2   -1    0    0  505    0 -0.00000000000E+00  0.00000000000E+00  0.36064215870E+04  0.36064215870E+04  0.00000000000E+00 0. -1.
         21   -1    0    0  501  502  0.00000000000E+00 -0.00000000000E+00 -0.19918895099E+02  0.19918895099E+02  0.00000000000E+00 0.  1.
         21    1    1    2  503  504  0.44823593339E+02  0.15479756361E+03  0.46284226475E+03  0.49009631936E+03  0.00000000000E+00 0.  1.
         21    1    1    2  504  502 -0.26707492844E+02  0.17104570168E+02  0.19433522369E+03  0.19690615953E+03  0.00000000000E+00 0.  1.
         21    1    1    2  505  503  0.21438087258E+02  0.28853233132E+02  0.32323444657E+03  0.32522701010E+03  0.00000000000E+00 0.  1.
          2    1    1    2  501    0 -0.39554187754E+02 -0.20075536691E+03  0.26060907569E+04  0.26141109931E+04  0.00000000000E+00 0. -1.
<scales pt_clust_3="14000.00000" pt_clust_4="31.71524" pt_clust_5="35.86815" pt_clust_6="176.05460"></scales>
<clustering>
<clus scale="   31.715">  2  4  1 -1</clus>
<clus scale="   35.868">  1  5  2 -1</clus>
<clus scale="  176.055">  1  6  2 -1</clus>
<clus scale="   31.715">  2  3  1 -1</clus>
</clustering>
</event>
<event>
 6    0  0.2117869E+002  0.3750267E+03  0.7546771E-02  0.1052787E+00
          2   -1    0    0  505    0 -0.00000000000E+00  0.00000000000E+00  0.14686368338E+04  0.14686368338E+04  0.00000000000E+00 0.  1.
         21   -1    0    0  501  502  0.00000000000E+00 -0.00000000000E+00 -0.44103640602E+03  0.44103640602E+03  0.00000000000E+00 0.  1.
         21    1    1    2  503  502  0.38279292966E+03  0.11723062736E+03 -0.26482044778E+03  0.48000345473E+03  0.00000000000E+00 0.  1.
         21    1    1    2  504  503 -0.10290037792E+03 -0.14587515035E+03  0.15281618159E+03  0.23499113306E+03  0.00000000000E+00 0.  1.
         21    1    1    2  505  504 -0.28627860039E+02  0.13920629590E+02  0.58233961130E+03  0.58320902016E+03  0.00000000000E+00 0.  1.
          2    1    1    2  501    0 -0.25126469171E+03  0.14723893396E+02  0.55726508271E+03  0.61146963190E+03  0.00000000000E+00 0.  1.
<scales pt_clust_3="14000.00000" pt_clust_4="179.76992" pt_clust_5="31.83298" pt_clust_6="375.02674"></scales>
<clustering>
<clus scale="   31.833">  1  5  2 -1</clus>
<clus scale="  179.770">  1  4  2 -1</clus>
<clus scale="  375.027">  1  6  2 -1</clus>
<clus scale="  375.027">  2  3  1 -1</clus>
</clustering>
</event>
<event>
 6    0  0.2117869E+002  0.8416666E+02  0.7546771E-02  0.1317626E+00
          2   -1    0    0  505    0 -0.00000000000E+00  0.00000000000E+00  0.15645077539E+04  0.15645077539E+04  0.00000000000E+00 0. -1.
         21   -1    0    0  501  502  0.00000000000E+00 -0.00000000000E+00 -0.91676548086E+03  0.91676548086E+03  0.00000000000E+00 0. -1.
         21    1    1    2  503  502 -0.27234814797E+02 -0.80871592440E+02 -0.89575546245E+03  0.89981097911E+03  0.00000000000E+00 0. -1.
         21    1    1    2  504  503  0.78472440804E+01  0.56187403058E+02  0.32973824289E+02  0.65619178525E+02  0.00000000000E+00 0. -1.
         21    1    1    2  505  504 -0.11847111007E+02  0.68463394647E+02  0.66777202004E+03  0.67137698887E+03  0.00000000000E+00 0. -1.
          2    1    1    2  501    0  0.31234681723E+02 -0.43779205265E+02  0.84275189114E+03  0.84446608824E+03  0.00000000000E+00 0. -1.
<scales pt_clust_3="84.16666" pt_clust_4="14000.00000" pt_clust_5="32.67254" pt_clust_6="53.77940"></scales>
<clustering>
<clus scale="   53.779">  1  6  2 -1</clus>
<clus scale="   32.673">  1  5  2 -1</clus>
<clus scale="   84.167">  2  3  1 -1</clus>
<clus scale="   84.167">  2  3  1 -1</clus>
</clustering>
</event>
<event>
 6    0  0.2117869E+002  0.1969942E+03  0.7546771E-02  0.1152300E+00
          1   -1    0    0  504    0 -0.00000000000E+00  0.00000000000E+00  0.10686052985E+04  0.10686052985E+04  0.00000000000E+00 0.  1.
         21   -1    0    0  505  502  0.00000000000E+00 -0.00000000000E+00 -0.12224486482E+04  0.12224486482E+04  0.00000000000E+00 0. -1.
         21    1    1    2  503  501  0.48682752542E+02 -0.13658479933E+03 -0.74139429339E+02  0.16285598787E+03  0.00000000000E+00 0. -1.
         21    1    1    2  504  502  0.88911374765E+02  0.12670469893E+03  0.20501005320E+03  0.25688214264E+03  0.00000000000E+00 0. -1.
         21    1    1    2  505  503  0.97843746491E+02 -0.32522293263E+02 -0.10574151186E+04  0.10624301537E+04  0.00000000000E+00 0. -1.
          1    1    1    2  501    0 -0.23543787380E+03  0.42402393662E+02  0.77270114507E+03  0.80888566250E+03  0.00000000000E+00 0.  1.
<scales pt_clust_3="196.99419" pt_clust_4="160.28534" pt_clust_5="103.10722" pt_clust_6="14000.00000"></scales>
<clustering>
<clus scale="  103.107">  2  5  1 -1</clus>
<clus scale="  160.285">  1  4  2 -1</clus>
<clus scale="  196.994">  2  3  1 -1</clus>
<clus scale="  103.107">  2  3  1 -1</clus>
</clustering>
</event>
<event>
 6    0  0.2117869E+002  0.8537151E+02  0.7546771E-02  0.1314464E+00
         21   -1    0    0  504  502  0.00000000000E+00  0.00000000000E+00  0.19902695767E+03  0.19902695767E+03  0.00000000000E+00 0.  1.
          1   -1    0    0  505    0 -0.00000000000E+00 -0.00000000000E+00 -0.13538027983E+04  0.13538027983E+04  0.00000000000E+00 0.  1.
         21    1    1    2  503  501  0.44492439192E+02 -0.45915278328E+02 -0.15916200586E+03  0.17152356700E+03  0.00000000000E+00 0.  1.
         21    1    1    2  504  503 -0.28294852203E+01 -0.40071580919E+02 -0.26603316425E+02  0.48181677313E+02  0.00000000000E+00 0. -1.
         21    1    1    2  505  502 -0.88520389426E+02  0.60113552538E+02  0.16564900660E+03  0.19720317424E+03  0.00000000000E+00 0.  1.
          1    1    1    2  501    0  0.46857435455E+02  0.25873306709E+02 -0.11346595249E+04  0.11359213374E+04  0.00000000000E+00 0.  1.
<scales pt_clust_3="14000.00000" pt_clust_4="40.17135" pt_clust_5="85.37151" pt_clust_6="53.45303"></scales>
<clustering>
<clus scale="   40.171">  1  4  2 -1</clus>
<clus scale="   53.453">  2  6  1 -1</clus>
<clus scale="   85.372">  1  5  2 -1</clus>
<clus scale="   40.171">  1  3  2 -1</clus>
</clustering>
</event>
<event>
 6    0  0.2117869E+002  0.3917036E+03  0.7546771E-02  0.1046691E+00
         21   -1    0    0  503  502  0.00000000000E+00  0.00000000000E+00  0.66748043666E+03  0.66748043666E+03  0.00000000000E+00 0. -1.
          3   -1    0    0  504    0 -0.00000000000E+00 -0.00000000000E+00 -0.49525333631E+03  0.49525333631E+03  0.00000000000E+00 0. -1.
         21    1    1    2  503  501  0.69381526308E+02 -0.12361056605E+02 -0.20216846786E+02  0.73316524790E+02  0.00000000000E+00 0. -1.
         21    1    1    2  504  505 -0.15013680257E+03  0.15497627117E+01  0.11530374352E+03  0.18931036559E+03  0.00000000000E+00 0. -1.
         21    1    1    2  505  502 -0.19348376309E+03  0.10938710387E+03  0.40467546510E+03  0.46169658557E+03  0.00000000000E+00 0. -1.
          3    1    1    2  501    0  0.27423903935E+03 -0.98575809978E+02 -0.32753526149E+03  0.43841029702E+03  0.00000000000E+00 0. -1.
<scales pt_clust_3="50.51239" pt_clust_4="124.78194" pt_clust_5="124.78194" pt_clust_6="375.41019"></scales>
<clustering>
<clus scale="   50.512">  3  6 -1 -1</clus>
<clus scale="  124.782">  4  5 -1 -1</clus>
<clus scale="  375.410">  2  3  1 -1</clus>
<clus scale="  391.704">  1  3  2 -1</clus>
</clustering>
</event>
<event>
 6    0  0.2117869E+002  0.2201706E+03  0.7546771E-02  0.1133756E+00
         21   -1    0    0  505  502  0.00000000000E+00  0.00000000000E+00  0.60392090902E+03  0.60392090902E+03  0.00000000000E+00 0. -1.
          2   -1    0    0  504    0 -0.00000000000E+00 -0.00000000000E+00 -0.17111120026E+04  0.17111120026E+04  0.00000000000E+00 0.  1.
         21    1    1    2  503  502  0.11069229311E+03 -0.21704218318E+03 -0.68703149914E+02  0.25314070364E+03  0.00000000000E+00 0.  1.
         21    1    1    2  504  503  0.77284230062E+00  0.30353921417E+02 -0.99476883466E+03  0.99523212983E+03  0.00000000000E+00 0.  1.
         21    1    1    2  505  501 -0.15488152138E+03  0.15382162098E+03  0.48672260492E+03  0.53343066175E+03  0.00000000000E+00 0. -1.
          2    1    1    2  501    0  0.43416385974E+02  0.32866640778E+02 -0.53044171392E+03  0.53322941640E+03  0.00000000000E+00 0.  1.
<scales pt_clust_3="220.17056" pt_clust_4="30.36376" pt_clust_5="14000.00000" pt_clust_6="70.74870"></scales>
<clustering>
<clus scale="   30.364">  2  4  1 -1</clus>
<clus scale="   70.749">  2  6  1 -1</clus>
<clus scale="  220.171">  2  3  1 -1</clus>
<clus scale="  220.171">  1  3  2 -1</clus>
</clustering>
</event>
<event>
 6    0  0.2117869E+002  0.1596157E+03  0.7546771E-02  0.1189131E+00
          2   -1    0    0  502    0 -0.00000000000E+00  0.00000000000E+00  0.22024750244E+04  0.22024750244E+04  0.00000000000E+00 0.  1.
         21   -1    0    0  504  502  0.00000000000E+00 -0.00000000000E+00 -0.41061772873E+02  0.41061772873E+02  0.00000000000E+00 0. -1.
         21    1    1    2  503  505  0.39786198090E+02 -0.10067952768E+03  0.74081862870E+02  0.13117709884E+03  0.00000000000E+00 0. -1.
         21    1    1    2  504  503  0.47950000341E+02 -0.12914995937E+02  0.55001579588E+02  0.74102452118E+02  0.00000000000E+00 0. -1.
         21    1    1    2  505  501 -0.22002868098E+02  0.34676613015E+02  0.28885951761E+03  0.29176431346E+03  0.00000000000E+00 0. -1.
          2    1    1    2  501    0 -0.65733330333E+02  0.78917910602E+02  0.17434702914E+04  0.17464929328E+04  0.00000000000E+00 0.  1.
<scales pt_clust_3="47.29289" pt_clust_4="47.29289" pt_clust_5="37.55266" pt_clust_6="155.33238"></scales>
<clustering>
<clus scale="   37.553">  5  6 -1 -1</clus>
<clus scale="   47.293">  3  4 -1 -1</clus>
<clus scale="  155.332">  1  5  2 -1</clus>
<clus scale="  159.616">  2  3  1 -1</clus>
</clustering>
</event>
<event>
 6    0  0.2117869E+002  0.1362399E+03  0.7546771E-02  0.1218480E+00
          1   -1    0    0  503    0 -0.00000000000E+00  0.00000000000E+00  0.13263862326E+04  0.13263862326E+04  0.00000000000E+00 0.  1.
         21   -1    0    0  501  502  0.00000000000E+00 -0.00000000000E+00 -0.44243816243E+03  0.44243816243E+03  0.00000000000E+00 0. -1.
         21    1    1    2  503  505 -0.19741414285E+02  0.36419122289E+02  0.59241001847E+03  0.59385663749E+03  0.00000000000E+00 0.  1.
         21    1    1    2  504  502 -0.17081928346E+02 -0.13663715068E+03 -0.42088549768E+03  0.44283869002E+03  0.00000000000E+00 0. -1.
         21    1    1    2  505  504  0.48236043762E+02  0.96489487555E+00  0.42716776342E+03  0.42988364128E+03  0.00000000000E+00 0.  1.
          1    1    1    2  501    0 -0.11412701131E+02  0.99253133513E+02  0.28525578595E+03  0.30224542623E+03  0.00000000000E+00 0.  1.
<scales pt_clust_3="41.42555" pt_clust_4="136.23990" pt_clust_5="42.91637" pt_clust_6="14000.00000"></scales>
<clustering>
<clus scale="   41.426">  1  3  2 -1</clus>
<clus scale="   42.916">  1  5  2 -1</clus>
<clus scale="  136.240">  2  4  1 -1</clus>
<clus scale="  136.240">  2  3  1 -1</clus>
</clustering>
</event>
<event>
 6    0  0.2117869E+002  0.7391859E+02  0.7546771E-02  0.1347253E+00
          4   -1    0    0  505    0 -0.00000000000E+00  0.00000000000E+00  0.12000741709E+03  0.12000741709E+03  0.00000000000E+00 0. -1.
         21   -1    0    0  503  502  0.00000000000E+00 -0.00000000000E+00 -0.11111868745E+04  0.11111868745E+04  0.00000000000E+00 0.  1.
         21    1    1    2  503  501  0.15978518218E+02  0.10471610906E+03 -0.70064815814E+03  0.70861034289E+03  0.00000000000E+00 0.  1.
         21    1    1    2  504  502 -0.25869631764E+02 -0.33351511627E+02 -0.37164274935E+03  0.37403194291E+03  0.00000000000E+00 0.  1.
         21    1    1    2  505  504  0.27113239653E+02  0.17450177215E+02  0.10905792307E+02  0.34037813607E+02  0.00000000000E+00 0. -1.
          4    1    1    2  501    0 -0.17222126108E+02 -0.88814774646E+02  0.70205657783E+02  0.11451419217E+03  0.00000000000E+00 0. -1.
<scales pt_clust_3="14000.00000" pt_clust_4="41.83634" pt_clust_5="32.24339" pt_clust_6="73.91859"></scales>
<clustering>
<clus scale="   32.243">  1  5  2 -1</clus>
<clus scale="   41.836">  2  4  1 -1</clus>
<clus scale="   73.919">  1  6  2 -1</clus>
<clus scale="   41.836">  2  3  1 -1</clus>
</clustering>
</event>
<event>
 6    0  0.2117869E+002  0.2670344E+03  0.7546771E-02  0.1102989E+00
         21   -1    0    0  503  502  0.00000000000E+00  0.00000000000E+00  0.88804035647E+03  0.88804035647E+03  0.00000000000E+00 0. -1.
          1   -1    0    0  505    0 -0.00000000000E+00 -0.00000000000E+00 -0.31339207313E+03  0.31339207313E+03  0.00000000000E+00 0.  1.
         21    1    1    2  503  501 -0.78771042224E+01  0.25898513340E+03  0.41541849365E+03  0.48959970686E+03  0.00000000000E+00 0. -1.
         21    1    1    2  504  502 -0.82494650474E+02 -0.27381075342E+03  0.35703057553E+03  0.45743691140E+03  0.00000000000E+00 0. -1.
         21    1    1    2  505  504 -0.12306632315E+02 -0.30288082060E+02 -0.10128849872E+03  0.10643392827E+03  0.00000000000E+00 0. -1.
          1    1    1    2  501    0  0.10267838701E+03  0.45113702082E+02 -0.96512287127E+02  0.14796188307E+03  0.00000000000E+00 0.  1.
<scales pt_clust_3="267.03444" pt_clust_4="14000.00000" pt_clust_5="32.69283" pt_clust_6="99.36406"></scales>
<clustering>
<clus scale="   32.693">  2  5  1 -1</clus>
<clus scale="   99.364">  2  6  1 -1</clus>
<clus scale="  267.034">  1  3  2 -1</clus>
<clus scale="  267.034">  1  3  2 -1</clus>
</clustering>
</event>
<event>
 6    0  0.2117869E+002  0.1466986E+03  0.7546771E-02  0.1204589E+00
          2   -1    0    0  505    0 -0.00000000000E+00  0.00000000000E+00  0.95142504816E+03  0.95142504816E+03  0.00000000000E+00 0. -1.
         21   -1    0    0  501  502  0.00000000000E+00 -0.00000000000E+00 -0.60548590375E+03  0.60548590375E+03  0.00000000000E+00 0.  1.
         21    1    1    2  503  504 -0.10542231589E+03  0.36385719923E+02 -0.63857751474E+02  0.12851302551E+03  0.00000000000E+00 0.  1.
         21    1    1    2  504  502  0.16129525038E+03 -0.14469879898E+02 -0.48904521832E+03  0.51516090766E+03  0.00000000000E+00 0.  1.
         21    1    1    2  505  503 -0.22361668823E+02  0.22711951231E+02  0.34027315591E+02  0.46623332866E+02  0.00000000000E+00 0. -1.
          2    1    1    2  501    0 -0.33511265669E+02 -0.44627791256E+02  0.86481479860E+03  0.86661368588E+03  0.00000000000E+00 0. -1.
<scales pt_clust_3="146.69860" pt_clust_4="14000.00000" pt_clust_5="31.87282" pt_clust_6="59.41147"></scales>
<clustering>
<clus scale="   31.873">  1  5  2 -1</clus>
<clus scale="   59.411">  1  6  2 -1</clus>
<clus scale="  146.699">  1  3  2 -1</clus>
<clus scale="  146.699">  2  3  1 -1</clus>
</clustering>
</event>
<event>
 6    0  0.2117869E+002  0.7174382E+02  0.7546771E-02  0.1354262E+00
         21   -1    0    0  503  502  0.00000000000E+00  0.00000000000E+00  0.14925698488E+03  0.14925698488E+03  0.00000000000E+00 0. -1.
         -2   -1    0    0    0  501 -0.00000000000E+00 -0.00000000000E+00 -0.30506887305E+03  0.30506887305E+03  0.00000000000E+00 0. -1.
         21    1    1    2  503  505  0.46482081697E+02 -0.50654738423E+02  0.10549861562E+03  0.12592237427E+03  0.00000000000E+00 0. -1.
         21    1    1    2  504  501  0.37408535875E+02 -0.78194676302E+01 -0.11216607658E+03  0.11849798043E+03  0.00000000000E+00 0. -1.
         21    1    1    2  505  504 -0.24654828347E+02 -0.29509717630E+02 -0.60440101077E+02  0.71635813764E+02  0.00000000000E+00 0. -1.
         -2    1    1    2    0  502 -0.59235789225E+02  0.87983923683E+02 -0.88704326134E+02  0.13826968947E+03  0.00000000000E+00 0. -1.
<scales pt_clust_3="71.74382" pt_clust_4="38.21705" pt_clust_5="34.26695" pt_clust_6="14000.00000"></scales>
<clustering>
<clus scale="   38.217">  2  4  1 -1</clus>
<clus scale="   34.267">  2  5  1 -1</clus>
<clus scale="   71.744">  1  3  2 -1</clus>
<clus scale="   71.744">  1  3  2 -1</clus>
</clustering>
</event>
<event>
 6    0  0.2117869E+002  0.1020851E+03  0.7546771E-02  0.1275971E+00
          2   -1    0    0  502    0 -0.00000000000E+00  0.00000000000E+00  0.21830515286E+04  0.21830515286E+04  0.00000000000E+00 0. -1.
         21   -1    0    0  504  502  0.00000000000E+00 -0.00000000000E+00 -0.21690324629E+02  0.21690324629E+02  0.00000000000E+00 0. -1.
         21    1    1    2  503  501  0.43835057261E+02 -0.18488003136E+02  0.31795334677E+03  0.32149284475E+03  0.00000000000E+00 0. -1.
         21    1    1    2  504  505  0.18069974622E+02  0.89970721737E+02  0.18970681583E+03  0.21073663831E+03  0.00000000000E+00 0. -1.
         21    1    1    2  505  503 -0.72413015723E+02 -0.11197020372E+03  0.48312790349E+03  0.50119212135E+03  0.00000000000E+00 0. -1.
          2    1    1    2  501    0  0.10507983840E+02  0.40487485117E+02  0.11705731378E+04  0.11713202488E+04  0.00000000000E+00 0. -1.
<scales pt_clust_3="47.49754" pt_clust_4="14000.00000" pt_clust_5="102.08507" pt_clust_6="41.82887"></scales>
<clustering>
<clus scale="   41.829">  1  6  2 -1</clus>
<clus scale="   47.498">  1  3  2 -1</clus>
<clus scale="  102.085">  1  5  2 -1</clus>
<clus scale="  102.085">  2  3  1 -1</clus>
</clustering>
</event>
<event>
 6    0  0.2117869E+002  0.1022152E+03  0.7546771E-02  0.1275705E+00
          1   -1    0    0  505    0 -0.00000000000E+00  0.00000000000E+00  0.14182561983E+04  0.14182561983E+04  0.00000000000E+00 0. -1.
         21   -1    0    0  503  502  0.00000000000E+00 -0.00000000000E+00 -0.10006418552E+03  0.10006418552E+03  0.00000000000E+00 0. -1.
         21    1    1    2  503  501  0.94110803005E+02 -0.23964172357E+02 -0.34239407286E+02  0.10297311207E+03  0.00000000000E+00 0. -1.
         21    1    1    2  504  502 -0.24020999714E+02  0.23583576402E+02 -0.13729520115E+02  0.36355099034E+02  0.00000000000E+00 0.  1.
         21    1    1    2  505  504  0.29163926685E+02 -0.24670358232E+02  0.78828886964E+02  0.87596544538E+02  0.00000000000E+00 0.  1.
          1    1    1    2  501    0 -0.99253729976E+02  0.25050954187E+02  0.12873320532E+04  0.12913956282E+04  0.00000000000E+00 0. -1.
<scales pt_clust_3="102.21519" pt_clust_4="33.66294" pt_clust_5="36.23760" pt_clust_6="14000.00000"></scales>
<clustering>
<clus scale="   33.663">  2  4  1 -1</clus>
<clus scale="   36.238">  2  5  1 -1</clus>
<clus scale="  102.215">  2  3  1 -1</clus>
<clus scale="   33.663">  2  3  1 -1</clus>
</clustering>
</event>
<event>
 6    0  0.2117869E+002  0.9723751E+02  0.7546771E-02  0.1286215E+00
         21   -1    0    0  501  502  0.00000000000E+00  0.00000000000E+00  0.29508368635E+03  0.29508368635E+03  0.00000000000E+00 0.  1.
          2   -1    0    0  505    0 -0.00000000000E+00 -0.00000000000E+00 -0.57330752482E+03  0.57330752482E+03  0.00000000000E+00 0.  1.
         21    1    1    2  503  504 -0.25120510975E+02 -0.46561470524E+02  0.50528604658E+02  0.73158393214E+02  0.00000000000E+00 0.  1.
         21    1    1    2  504  502 -0.99357158580E+01 -0.50329488825E+02  0.21828550804E+03  0.22423277841E+03  0.00000000000E+00 0.  1.
         21    1    1    2  505  503  0.21120867630E+02 -0.27569432433E+02 -0.17606224134E+03  0.17945494554E+03  0.00000000000E+00 0.  1.
          2    1    1    2  501    0  0.13935359203E+02  0.12446039178E+03 -0.37097570982E+03  0.39154509400E+03  0.00000000000E+00 0.  1.
<scales pt_clust_3="97.23751" pt_clust_4="51.47379" pt_clust_5="34.72988" pt_clust_6="14000.00000"></scales>
<clustering>
<clus scale="   34.730">  2  5  1 -1</clus>
<clus scale="   51.474">  1  4  2 -1</clus>
<clus scale="   97.238">  1  3  2 -1</clus>
<clus scale="   51.474">  1  3  2 -1</clus>
</clustering>
</event>
<event>
 6    0  0.2117869E+002  0.7862490E+02  0.7546771E-02  0.1333000E+00
          1   -1    0    0  505    0 -0.00000000000E+00  0.00000000000E+00  0.33926630251E+04  0.33926630251E+04  0.00000000000E+00 0.  1.
         21   -1    0    0  503  502  0.00000000000E+00 -0.00000000000E+00 -0.99929448551E+02  0.99929448551E+02  0.00000000000E+00 0. -1.
         21    1    1    2  503  501 -0.33537743495E+02  0.76404253254E+01  0.71980649930E+02  0.79777003592E+02  0.00000000000E+00 0.  1.
         21    1    1    2  504  502  0.21172571168E+02 -0.61164318286E+02  0.18711847493E+02  0.67375699164E+02  0.00000000000E+00 0.  1.
         21    1    1    2  505  504 -0.21665093780E+01  0.13045373956E+03 -0.11470196477E+02  0.13097494926E+03  0.00000000000E+00 0. -1.
          1    1    1    2  501    0  0.14531681705E+02 -0.76929846596E+02  0.32135112756E+04  0.32144648216E+04  0.00000000000E+00 0.  1.
<scales pt_clust_3="34.39704" pt_clust_4="60.56947" pt_clust_5="78.62490" pt_clust_6="14000.00000"></scales>
<clustering>
<clus scale="   34.397">  2  3  1 -1</clus>
<clus scale="   60.569">  2  4  1 -1</clus>
<clus scale="   78.625">  2  5  1 -1</clus>
<clus scale="   34.397">  2  3  1 -1</clus>
</clustering>
</event>
<event>
 6    0  0.2117869E+002  0.1021191E+03  0.7546771E-02  0.1275902E+00
          1   -1    0    0  505    0 -0.00000000000E+00  0.00000000000E+00  0.74684071792E+03  0.74684071792E+03  0.00000000000E+00 0.  1.
         21   -1    0    0  504  502  0.00000000000E+00 -0.00000000000E+00 -0.14442023396E+04  0.14442023396E+04  0.00000000000E+00 0.  1.
         21    1    1    2  503  501  0.56357273162E+02 -0.54122727784E+00 -0.52221304830E+02  0.76834236141E+02  0.00000000000E+00 0.  1.
         21    1    1    2  504  503 -0.37469274161E+02 -0.17757592024E+02 -0.13626761893E+04  0.13633068896E+04  0.00000000000E+00 0.  1.
         21    1    1    2  505  502  0.81749000935E+02 -0.25729312359E+02  0.14932789043E+03  0.17217350414E+03  0.00000000000E+00 0.  1.
          1    1    1    2  501    0 -0.10063699994E+03  0.44028131661E+02  0.56820798197E+03  0.57872842759E+03  0.00000000000E+00 0.  1.
<scales pt_clust_3="30.35498" pt_clust_4="41.46418" pt_clust_5="14000.00000" pt_clust_6="102.11906"></scales>
<clustering>
<clus scale="   41.464">  2  4  1 -1</clus>
<clus scale="   30.355">  2  3  1 -1</clus>
<clus scale="  102.119">  1  6  2 -1</clus>
<clus scale="   41.464">  2  3  1 -1</clus>
</clustering>
</event>
<event>
 6    0  0.2117869E+002  0.6958562E+02  0.7546771E-02  0.1361508E+00
          2   -1    0    0  505    0 -0.00000000000E+00  0.00000000000E+00  0.53436361559E+03  0.53436361559E+03  0.00000000000E+00 0.  1.
         21   -1    0    0  503  502  0.00000000000E+00 -0.00000000000E+00 -0.19116522667E+03  0.19116522667E+03  0.00000000000E+00 0.  1.
         21    1    1    2  503  501  0.33645921841E+02 -0.63916784996E+02 -0.11836322870E+03  0.13866238628E+03  0.00000000000E+00 0.  1.
         21    1    1    2  504  502 -0.65264895076E+00  0.68931643254E+02 -0.27156505151E+02  0.74090978967E+02  0.00000000000E+00 0.  1.
         21    1    1    2  505  504  0.43915149946E+02 -0.15313293462E+02  0.54358287694E+02  0.71539225551E+02  0.00000000000E+00 0. -1.
          2    1    1    2  501    0 -0.76908422835E+02  0.10298435205E+02  0.43435983508E+03  0.44123625146E+03  0.00000000000E+00 0.  1.
<scales pt_clust_3="14000.00000" pt_clust_4="69.58562" pt_clust_5="46.50847" pt_clust_6="36.33725"></scales>
<clustering>
<clus scale="   46.508">  1  5  2 -1</clus>
<clus scale="   36.337">  1  6  2 -1</clus>
<clus scale="   69.586">  1  4  2 -1</clus>
<clus scale="   69.586">  2  3  1 -1</clus>
</clustering>
</event>
<event>
 6    0  0.2117869E+002  0.7353452E+02  0.7546771E-02  0.1348470E+00
          1   -1    0    0  505    0 -0.00000000000E+00  0.00000000000E+00  0.31816151636E+03  0.31816151636E+03  0.00000000000E+00 0. -1.
         21   -1    0    0  501  502  0.00000000000E+00 -0.00000000000E+00 -0.19403687148E+03  0.19403687148E+03  0.00000000000E+00 0.  1.
         21    1    1    2  503  502 -0.62526659685E+02  0.21934792670E+02 -0.87137064850E+02  0.10946956824E+03  0.00000000000E+00 0. -1.
         21    1    1    2  504  503  0.73073239779E+02 -0.60944955122E+02 -0.55525628289E+02  0.11016842253E+03  0.00000000000E+00 0.  1.
         21    1    1    2  505  504  0.23770729824E+02 -0.19479352402E+02  0.20100191738E+02  0.36722070670E+02  0.00000000000E+00 0.  1.
          1    1    1    2  501    0 -0.34317309918E+02  0.58489514855E+02  0.24668714628E+03  0.25583832639E+03  0.00000000000E+00 0. -1.
<scales pt_clust_3="73.53452" pt_clust_4="14000.00000" pt_clust_5="30.73260" pt_clust_6="43.79683"></scales>
<clustering>
<clus scale="   30.733">  1  5  2 -1</clus>
<clus scale="   43.797">  1  6  2 -1</clus>
<clus scale="   73.535">  2  3  1 -1</clus>
<clus scale="   73.535">  2  3  1 -1</clus>
</clustering>
</event>
<event>
 6    0  0.2117869E+002  0.1752717E+03  0.7546771E-02  0.1172459E+00
          2   -1    0    0  504    0 -0.00000000000E+00  0.00000000000E+00  0.26695335297E+04  0.26695335297E+04  0.00000000000E+00 0. -1.
         21   -1    0    0  501  502  0.00000000000E+00 -0.00000000000E+00 -0.18913511085E+02  0.18913511085E+02  0.00000000000E+00 0.  1.
         21    1    1    2  503  505 -0.22379074830E+02 -0.80456302436E+02  0.46120063735E+03  0.46870040269E+03  0.00000000000E+00 0.  1.
         21    1    1    2  504  503  0.30712987343E+02 -0.58112240880E+02  0.36807640373E+03  0.37389912960E+03  0.00000000000E+00 0.  1.
         21    1    1    2  505  502  0.18935819011E+02 -0.47151734663E+02  0.82431843457E+02  0.96834188896E+02  0.00000000000E+00 0.  1.
          2    1    1    2  501    0 -0.27269731524E+02  0.18572027798E+03  0.17389111340E+04  0.17490133195E+04  0.00000000000E+00 0. -1.
<scales pt_clust_3="48.61562" pt_clust_4="48.61562" pt_clust_5="50.81192" pt_clust_6="166.48515"></scales>
<clustering>
<clus scale="   48.616">  3  4 -1 -1</clus>
<clus scale="   50.812">  2  5  1 -1</clus>
<clus scale="  166.485">  1  6  2 -1</clus>
<clus scale="   50.812">  2  3  1 -1</clus>
</clustering>
</event>
<event>
 6    0  0.2117869E+002  0.1183951E+03  0.7546771E-02  0.1245768E+00
         21   -1    0    0  505  502  0.00000000000E+00  0.00000000000E+00  0.47653115970E+03  0.47653115970E+03  0.00000000000E+00 0. -1.
          1   -1    0    0  503    0 -0.00000000000E+00 -0.00000000000E+00 -0.11926863708E+04  0.11926863708E+04  0.00000000000E+00 0.  1.
         21    1    1    2  503  502  0.29151910721E+02  0.52714480631E+02 -0.37536976207E+03  0.38017247223E+03  0.00000000000E+00 0.  1.
         21    1    1    2  504  501  0.21372009264E+02 -0.82005624280E+02  0.11697574297E+03  0.14444725555E+03  0.00000000000E+00 0. -1.
         21    1    1    2  505  504  0.46381776447E+02 -0.18629613103E+02  0.33792478293E+03  0.34160136210E+03  0.00000000000E+00 0. -1.
          1    1    1    2  501    0 -0.96905696433E+02  0.47920756752E+02 -0.79568597497E+03  0.80299644065E+03  0.00000000000E+00 0.  1.
<scales pt_clust_3="60.35243" pt_clust_4="118.39514" pt_clust_5="49.98331" pt_clust_6="14000.00000"></scales>
<clustering>
<clus scale="   49.983">  1  5  2 -1</clus>
<clus scale="   60.352">  2  3  1 -1</clus>
<clus scale="  118.395">  1  4  2 -1</clus>
<clus scale="   49.983">  1  3  2 -1</clus>
</clustering>
</event>
<event>
 6    0  0.2117869E+002  0.1134544E+03  0.7546771E-02  0.1254303E+00
         21   -1    0    0  505  502  0.00000000000E+00  0.00000000000E+00  0.78139897119E+03  0.78139897119E+03  0.00000000000E+00 0. -1.
          1   -1    0    0  504    0 -0.00000000000E+00 -0.00000000000E+00 -0.51708042369E+03  0.51708042369E+03  0.00000000000E+00 0. -1.
         21    1    1    2  503  502  0.26743984557E+02  0.23733096792E+02  0.69203913010E+03  0.69296223432E+03  0.00000000000E+00 0. -1.
         21    1    1    2  504  503  0.25775154110E+02  0.39240764746E+02  0.62383019461E+02  0.78075843283E+02  0.00000000000E+00 0.  1.
         21    1    1    2  505  501  0.45459909350E+02  0.86922265083E+01 -0.39736755059E+02  0.61001375906E+02  0.00000000000E+00 0.  1.
          1    1    1    2  501    0 -0.97979048017E+02 -0.71666088047E+02 -0.45036684701E+03  0.46643994138E+03  0.00000000000E+00 0. -1.
<scales pt_clust_3="35.75613" pt_clust_4="14000.00000" pt_clust_5="50.00608" pt_clust_6="113.45440"></scales>
<clustering>
<clus scale="   35.756">  1  3  2 -1</clus>
<clus scale="   50.006">  1  5  2 -1</clus>
<clus scale="  113.454">  2  6  1 -1</clus>
<clus scale="   35.756">  1  3  2 -1</clus>
</clustering>
</event>
<event>
 6    0  0.2117869E+002  0.4567736E+03  0.7546771E-02  0.1025721E+00
          1   -1    0    0  504    0 -0.00000000000E+00  0.00000000000E+00  0.15963089014E+04  0.15963089014E+04  0.00000000000E+00 0.  1.
         21   -1    0    0  503  502  0.00000000000E+00 -0.00000000000E+00 -0.11649962119E+04  0.11649962119E+04  0.00000000000E+00 0. -1.
         21    1    1    2  503  501  0.19573250985E+03 -0.41866836013E+03 -0.10569729685E+04  0.11535970992E+04  0.00000000000E+00 0. -1.
         21    1    1    2  504  505  0.39549536103E+02 -0.16990635756E+02  0.62737528037E+02  0.76084459212E+02  0.00000000000E+00 0.  1.
         21    1    1    2  505  502 -0.36903127750E+01  0.13531439261E+03  0.69958406885E+03  0.71255980286E+03  0.00000000000E+00 0. -1.
          1    1    1    2  501    0 -0.23159173318E+03  0.30034460328E+03  0.72596406118E+03  0.81906375193E+03  0.00000000000E+00 0.  1.
<scales pt_clust_3="456.77362" pt_clust_4="43.04472" pt_clust_5="128.29082" pt_clust_6="14000.00000"></scales>
<clustering>
<clus scale="   43.045">  1  4  2 -1</clus>
<clus scale="  128.291">  1  5  2 -1</clus>
<clus scale="  456.774">  2  3  1 -1</clus>
<clus scale="  456.774">  2  3  1 -1</clus>
</clustering>
</event>
<event>
 6    0  0.2117869E+002  0.1394112E+03  0.7546771E-02  0.1214123E+00
         21   -1    0    0  504  502  0.00000000000E+00  0.00000000000E+00  0.46670200514E+02  0.46670200514E+02  0.00000000000E+00 0.  1.
          2   -1    0    0  503    0 -0.00000000000E+00 -0.00000000000E+00 -0.28847774280E+04  0.28847774280E+04  0.00000000000E+00 0.  1.
         21    1    1    2  503  505  0.77514600616E+02  0.73465669882E+02 -0.85769236200E+03  0.86431585997E+03  0.00000000000E+00 0.  1.
         21    1    1    2  504  501 -0.36148491894E+01  0.31154667098E+02 -0.11184220535E+01  0.31383614906E+02  0.00000000000E+00 0.  1.
         21    1    1    2  505  502  0.60755899650E+02  0.14845093201E+02 -0.16457774278E+02  0.64672362479E+02  0.00000000000E+00 0.  1.
          2    1    1    2  501    0 -0.13465565108E+03 -0.11946543018E+03 -0.19628386691E+04  0.19710757911E+04  0.00000000000E+00 0.  1.
<scales pt_clust_3="14000.00000" pt_clust_4="31.36368" pt_clust_5="69.69738" pt_clust_6="139.41116"></scales>
<clustering>
<clus scale="   31.364">  1  4  2 -1</clus>
<clus scale="   69.697">  1  5  2 -1</clus>
<clus scale="  139.411">  1  6  2 -1</clus>
<clus scale="   31.364">  1  3  2 -1</clus>
</clustering>
</event>
<event>
 6    0  0.2117869E+002  0.1228473E+03  0.7546771E-02  0.1238472E+00
         21   -1    0    0  505  502  0.00000000000E+00  0.00000000000E+00  0.24803084663E+03  0.24803084663E+03  0.00000000000E+00 0. -1.
         -4   -1    0    0    0  501 -0.00000000000E+00 -0.00000000000E+00 -0.35111501493E+03  0.35111501493E+03  0.00000000000E+00 0.  1.
         21    1    1    2  503  504  0.57974914945E+02  0.64467444027E+02 -0.17971210604E+02  0.88544375953E+02  0.00000000000E+00 0.  1.
         21    1    1    2  504  501  0.76955758366E+01  0.33244661934E+02 -0.36189750858E+02  0.49740602145E+02  0.00000000000E+00 0.  1.
         21    1    1    2  505  503 -0.11169917114E+03 -0.32393808097E+02  0.18228916459E+03  0.21622997749E+03  0.00000000000E+00 0. -1.
         -4    1    1    2    0  502  0.46028680359E+02 -0.65318297864E+02 -0.23121237144E+03  0.24463090597E+03  0.00000000000E+00 0.  1.
<scales pt_clust_3="30.27646" pt_clust_4="30.27646" pt_clust_5="112.97082" pt_clust_6="79.90694"></scales>
<clustering>
<clus scale="   30.276">  3  4 -1 -1</clus>
<clus scale="   79.907">  2  6  1 -1</clus>
<clus scale="  112.971">  1  5  2 -1</clus>
<clus scale="  112.971">  1  3  2 -1</clus>
</clustering>
</event>
<event>
 6    0  0.2117869E+002  0.9920839E+02  0.7546771E-02  0.1281969E+00
         21   -1    0    0  501  502  0.00000000000E+00  0.00000000000E+00  0.14905371594E+03  0.14905371594E+03  0.00000000000E+00 0.  1.
          2   -1    0    0  503    0 -0.00000000000E+00 -0.00000000000E+00 -0.62171687770E+03  0.62171687770E+03  0.00000000000E+00 0. -1.
         21    1    1    2  503  504 -0.51505744905E+02  0.67781010772E+02 -0.11628420796E+03  0.14411496869E+03  0.00000000000E+00 0. -1.
         21    1    1    2  504  505  0.58159825148E+01  0.12022138015E+03  0.40703183685E+02  0.12705807750E+03  0.00000000000E+00 0.  1.
         21    1    1    2  505  502 -0.10520667002E+02 -0.34756006019E+02  0.26957515722E+02  0.45225789573E+02  0.00000000000E+00 0.  1.
          2    1    1    2  501    0  0.56210429392E+02 -0.15324638490E+03 -0.42403965321E+03  0.45437175787E+03  0.00000000000E+00 0. -1.
<scales pt_clust_3="82.58460" pt_clust_4="14000.00000" pt_clust_5="36.31342" pt_clust_6="99.20839"></scales>
<clustering>
<clus scale="   36.313">  1  5  2 -1</clus>
<clus scale="   82.585">  2  3  1 -1</clus>
<clus scale="   99.208">  2  6  1 -1</clus>
<clus scale="   36.313">  1  3  2 -1</clus>
</clustering>
</event>
<event>
 6    0  0.2117869E+002  0.1867139E+03  0.7546771E-02  0.1161459E+00
          1   -1    0    0  504    0 -0.00000000000E+00  0.00000000000E+00  0.43506295577E+03  0.43506295577E+03  0.00000000000E+00 0.  1.
         21   -1    0    0  505  502  0.00000000000E+00 -0.00000000000E+00 -0.44827915926E+03  0.44827915926E+03  0.00000000000E+00 0.  1.
         21    1    1    2  503  502 -0.38138979731E+02 -0.39362198608E+02 -0.16278898568E+03  0.17176791992E+03  0.00000000000E+00 0.  1.
         21    1    1    2  504  503  0.37042628574E+02  0.15294578209E+02  0.68873418441E+01  0.40663447123E+02  0.00000000000E+00 0. -1.
         21    1    1    2  505  501 -0.15429809309E+03  0.63430215994E+02 -0.21899371067E+03  0.27529899954E+03  0.00000000000E+00 0.  1.
          1    1    1    2  501    0  0.15539444424E+03 -0.39362595595E+02  0.36167915102E+03  0.39561174846E+03  0.00000000000E+00 0.  1.
<scales pt_clust_3="54.40745" pt_clust_4="40.07593" pt_clust_5="186.71388" pt_clust_6="14000.00000"></scales>
<clustering>
<clus scale="   40.076">  1  4  2 -1</clus>
<clus scale="   54.407">  2  3  1 -1</clus>
<clus scale="  186.714">  2  5  1 -1</clus>
<clus scale="   54.407">  2  3  1 -1</clus>
</clustering>
</event>
<event>
 6    0  0.2117869E+002  0.1689747E+03  0.7546771E-02  0.1178921E+00
          1   -1    0    0  504    0 -0.00000000000E+00  0.00000000000E+00  0.10766437819E+04  0.10766437819E+04  0.00000000000E+00 0. -1.
         21   -1    0    0  505  502  0.00000000000E+00 -0.00000000000E+00 -0.27879550237E+03  0.27879550237E+03  0.00000000000E+00 0. -1.
         21    1    1    2  503  502  0.66287525876E+00 -0.15700521560E+03 -0.13891825079E+03  0.20964102063E+03  0.00000000000E+00 0. -1.
         21    1    1    2  504  503 -0.34389536178E+02 -0.10333523392E+02  0.42617862171E+02  0.55728844239E+02  0.00000000000E+00 0.  1.
         21    1    1    2  505  501 -0.10177203938E+03  0.19864734515E+02 -0.56820978668E+02  0.11824034546E+03  0.00000000000E+00 0. -1.
          1    1    1    2  501    0  0.13549870030E+03  0.14747400447E+03  0.95096964687E+03  0.97182907398E+03  0.00000000000E+00 0. -1.
<scales pt_clust_3="14000.00000" pt_clust_4="35.90852" pt_clust_5="104.64345" pt_clust_6="168.97465"></scales>
<clustering>
<clus scale="   35.909">  1  4  2 -1</clus>
<clus scale="  104.643">  2  5  1 -1</clus>
<clus scale="  168.975">  1  6  2 -1</clus>
<clus scale="  104.643">  2  3  1 -1</clus>
</clustering>
</event>
<event>
 6    0  0.2117869E+002  0.1687724E+03  0.7546771E-02  0.1179134E+00
         21   -1    0    0  503  502  0.00000000000E+00  0.00000000000E+00  0.21322792119E+03  0.21322792119E+03  0.00000000000E+00 0.  1.
          2   -1    0    0  505    0 -0.00000000000E+00 -0.00000000000E+00 -0.81735789562E+03  0.81735789562E+03  0.00000000000E+00 0.  1.
         21    1    1    2  503  501  0.23734058377E+02 -0.15177728657E+03  0.52581745705E+02  0.16237145755E+03  0.00000000000E+00 0.  1.
         21    1    1    2  504  502 -0.11205095347E+03  0.17853667021E+03 -0.17531072264E+02  0.21151382290E+03  0.00000000000E+00 0.  1.
         21    1    1    2  505  504  0.27007291532E+02 -0.57982848359E+02 -0.15536003946E+03  0.16801233991E+03  0.00000000000E+00 0. -1.
          2    1    1    2  501    0  0.61309603566E+02  0.31223464719E+02 -0.48382060840E+03  0.48868819646E+03  0.00000000000E+00 0.  1.
<scales pt_clust_3="14000.00000" pt_clust_4="168.77239" pt_clust_5="63.96409" pt_clust_6="82.18677"></scales>
<clustering>
<clus scale="   63.964">  2  5  1 -1</clus>
<clus scale="   82.187">  2  6  1 -1</clus>
<clus scale="  168.772">  2  4  1 -1</clus>
<clus scale="  168.772">  1  3  2 -1</clus>
</clustering>
</event>
<event>
 6    0  0.2117869E+002  0.7132402E+02  0.7546771E-02  0.1355648E+00
         21   -1    0    0  503  502  0.00000000000E+00  0.00000000000E+00  0.80977359692E+03  0.80977359692E+03  0.00000000000E+00 0. -1.
          2   -1    0    0  504    0 -0.00000000000E+00 -0.00000000000E+00 -0.31934936746E+04  0.31934936746E+04  0.00000000000E+00 0.  1.
         21    1    1    2  503  501  0.23759164770E+02  0.19134146296E+02  0.70509656692E+03  0.70575617755E+03  0.00000000000E+00 0. -1.
         21    1    1    2  504  505 -0.21641976246E+02  0.23886566491E+02 -0.49251413866E+03  0.49356774608E+03  0.00000000000E+00 0.  1.
         21    1    1    2  505  502 -0.94578586066E+02 -0.15874572033E+02  0.80620299178E+02  0.12528664581E+03  0.00000000000E+00 0.  1.
          2    1    1    2  501    0  0.92461397542E+02 -0.27146140754E+02 -0.26769228051E+04  0.26786567021E+04  0.00000000000E+00 0.  1.
<scales pt_clust_3="30.50596" pt_clust_4="32.22406" pt_clust_5="71.32402" pt_clust_6="14000.00000"></scales>
<clustering>
<clus scale="   30.506">  1  3  2 -1</clus>
<clus scale="   32.224">  2  4  1 -1</clus>
<clus scale="   71.324">  1  5  2 -1</clus>
<clus scale="   30.506">  1  3  2 -1</clus>
</clustering>
</event>
<event>
 6    0  0.2117869E+002  0.1142969E+03  0.7546771E-02  0.1252813E+00
          2   -1    0    0  503    0 -0.00000000000E+00  0.00000000000E+00  0.18253742346E+04  0.18253742346E+04  0.00000000000E+00 0.  1.
         21   -1    0    0  505  502  0.00000000000E+00 -0.00000000000E+00 -0.67052218848E+03  0.67052218848E+03  0.00000000000E+00 0. -1.
         21    1    1    2  503  504  0.29281086641E+02 -0.39230658866E+02  0.32536641807E+03  0.32902846783E+03  0.00000000000E+00 0. -1.
         21    1    1    2  504  502  0.71064405083E+02 -0.47392826319E+02 -0.62112331507E+03  0.62696921948E+03  0.00000000000E+00 0. -1.
         21    1    1    2  505  501 -0.11258981714E+02 -0.49584916863E+02 -0.24076439745E+02  0.56259253464E+02  0.00000000000E+00 0.  1.
          2    1    1    2  501    0 -0.89086510010E+02  0.13620840205E+03  0.14746853828E+04  0.14836394823E+04  0.00000000000E+00 0.  1.
<scales pt_clust_3="48.95331" pt_clust_4="14000.00000" pt_clust_5="51.18994" pt_clust_6="114.29695"></scales>
<clustering>
<clus scale="   48.953">  1  3  2 -1</clus>
<clus scale="   51.190">  2  5  1 -1</clus>
<clus scale="  114.297">  1  6  2 -1</clus>
<clus scale="   51.190">  2  3  1 -1</clus>
</clustering>
</event>
<event>
 6    0  0.2117869E+002  0.5466645E+03  0.7546771E-02  0.1002269E+00
         21   -1    0    0  505  502  0.00000000000E+00  0.00000000000E+00  0.10662728538E+04  0.10662728538E+04  0.00000000000E+00 0.  1.
          1   -1    0    0  504    0 -0.00000000000E+00 -0.00000000000E+00 -0.14805708782E+04  0.14805708782E+04  0.00000000000E+00 0.  1.
         21    1    1    2  503  502 -0.27859667741E+00  0.33337749807E+02  0.64046372568E+03  0.64133085618E+03  0.00000000000E+00 0.  1.
         21    1    1    2  504  503  0.39338940095E+02  0.43068177906E+01 -0.17950050730E+03  0.18381113407E+03  0.00000000000E+00 0.  1.
         21    1    1    2  505  501  0.22390291928E+03  0.46773266789E+03  0.15773853696E+03  0.54202196627E+03  0.00000000000E+00 0.  1.
          1    1    1    2  501    0 -0.26296326270E+03 -0.50537723549E+03 -0.10329997797E+04  0.11796797755E+04  0.00000000000E+00 0.  1.
<scales pt_clust_3="33.33891" pt_clust_4="39.59133" pt_clust_5="546.66453" pt_clust_6="14000.00000"></scales>
<clustering>
<clus scale="   33.339">  1  3  2 -1</clus>
<clus scale="   39.591">  2  4  1 -1</clus>
<clus scale="  546.665">  1  5  2 -1</clus>
<clus scale="   33.339">  1  3  2 -1</clus>
</clustering>
</event>
<event>
 6    0  0.2117869E+002  0.1297686E+03  0.7546771E-02  0.1227799E+00
         -2   -1    0    0    0  501 -0.00000000000E+00  0.00000000000E+00  0.18642204630E+03  0.18642204630E+03  0.00000000000E+00 0.  1.
         21   -1    0    0  505  502  0.00000000000E+00 -0.00000000000E+00 -0.88964863397E+03  0.88964863397E+03  0.00000000000E+00 0.  1.
         21    1    1    2  503  504  0.48805938620E+02  0.91207238671E+02 -0.12460910259E+03  0.16195125340E+03  0.00000000000E+00 0.  1.
         21    1    1    2  504  502 -0.14904334287E+03 -0.38098275934E+02 -0.68689415293E+03  0.70390977690E+03  0.00000000000E+00 0.  1.
         21    1    1    2  505  501  0.18082834044E+02 -0.88754522242E+02  0.52066213354E+02  0.10447604835E+03  0.00000000000E+00 0.  1.
         -2    1    1    2    0  503  0.82154570206E+02  0.35645559505E+02  0.56210454489E+02  0.10573360162E+03  0.00000000000E+00 0.  1.
<scales pt_clust_3="14000.00000" pt_clust_4="129.76862" pt_clust_5="100.65658" pt_clust_6="89.55434"></scales>
<clustering>
<clus scale="   89.554">  1  6  2 -1</clus>
<clus scale="  100.657">  1  5  2 -1</clus>
<clus scale="  129.769">  2  4  1 -1</clus>
<clus scale="  129.769">  2  3  1 -1</clus>
</clustering>
</event>
<event>
 6    0  0.2117869E+002  0.6947514E+02  0.7546771E-02  0.1361887E+00
          2   -1    0    0  505    0 -0.00000000000E+00  0.00000000000E+00  0.45741838117E+03  0.45741838117E+03  0.00000000000E+00 0.  1.
         21   -1    0    0  504  502  0.00000000000E+00 -0.00000000000E+00 -0.30458774238E+03  0.30458774238E+03  0.00000000000E+00 0.  1.
         21    1    1    2  503  502 -0.30801781604E+02 -0.30791646689E+02 -0.61639553371E+02  0.75473901421E+02  0.00000000000E+00 0. -1.
         21    1    1    2  504  501  0.97077403364E+02  0.37404256171E+02 -0.20817602462E+03  0.23272378016E+03  0.00000000000E+00 0.  1.
         21    1    1    2  505  503  0.18428536144E+02  0.23726209163E+02  0.10298017129E+02  0.31758354845E+02  0.00000000000E+00 0. -1.
          2    1    1    2  501    0 -0.84704157904E+02 -0.30338818645E+02  0.41234819965E+03  0.42205008712E+03  0.00000000000E+00 0.  1.
<scales pt_clust_3="43.08070" pt_clust_4="14000.00000" pt_clust_5="30.04237" pt_clust_6="69.47514"></scales>
<clustering>
<clus scale="   30.042">  1  5  2 -1</clus>
<clus scale="   43.081">  2  3  1 -1</clus>
<clus scale="   69.475">  1  6  2 -1</clus>
<clus scale="   43.081">  2  3  1 -1</clus>
</clustering>
</event>
<event>
 6    0  0.2117869E+002  0.1065354E+03  0.7546771E-02  0.1267124E+00
         21   -1    0    0  503  502  0.00000000000E+00  0.00000000000E+00  0.92615880775E+02  0.92615880775E+02  0.00000000000E+00 0. -1.
          2   -1    0    0  505    0 -0.00000000000E+00 -0.00000000000E+00 -0.14216164976E+04  0.14216164976E+04  0.00000000000E+00 0. -1.
         21    1    1    2  503  501  0.43666711382E+02 -0.98483117270E+02  0.40738272576E+02  0.11517514021E+03  0.00000000000E+00 0. -1.
         21    1    1    2  504  502 -0.10171955399E+03  0.21671447679E+00 -0.25339501841E+03  0.27304935449E+03  0.00000000000E+00 0. -1.
         21    1    1    2  505  504 -0.22544807821E+02  0.25673918330E+02 -0.40535679978E+03  0.40679423984E+03  0.00000000000E+00 0. -1.
          2    1    1    2  501    0  0.80597650426E+02  0.72592484463E+02 -0.71098707120E+03  0.71921364382E+03  0.00000000000E+00 0. -1.
<scales pt_clust_3="106.53537" pt_clust_4="14000.00000" pt_clust_5="34.16751" pt_clust_6="98.83312"></scales>
<clustering>
<clus scale="   34.168">  2  5  1 -1</clus>
<clus scale="  106.535">  1  3  2 -1</clus>
<clus scale="   98.833">  2  6  1 -1</clus>
<clus scale="  106.535">  1  3  2 -1</clus>
</clustering>
</event>
<event>
 6    0  0.2117869E+002  0.7017277E+02  0.7546771E-02  0.1359507E+00
         21   -1    0    0  503  502  0.00000000000E+00  0.00000000000E+00  0.22832525531E+03  0.22832525531E+03  0.00000000000E+00 0.  1.
          1   -1    0    0  504    0 -0.00000000000E+00 -0.00000000000E+00 -0.31203540965E+03  0.31203540965E+03  0.00000000000E+00 0.  1.
         21    1    1    2  503  505  0.31093436272E+02  0.39461341541E+02  0.16237494644E+03  0.16996947516E+03  0.00000000000E+00 0.  1.
         21    1    1    2  504  502  0.29763964340E+02  0.48312544673E+02 -0.11897246817E+03  0.13181215319E+03  0.00000000000E+00 0.  1.
         21    1    1    2  505  501  0.43959879761E+02 -0.44379866977E+02  0.70722210774E+01  0.62865411256E+02  0.00000000000E+00 0.  1.
          1    1    1    2  501    0 -0.10481728037E+03 -0.43394019237E+02 -0.13418485369E+03  0.17571362534E+03  0.00000000000E+00 0.  1.
<scales pt_clust_3="50.23942" pt_clust_4="61.90276" pt_clust_5="70.17277" pt_clust_6="14000.00000"></scales>
<clustering>
<clus scale="   50.239">  1  3  2 -1</clus>
<clus scale="   61.903">  2  4  1 -1</clus>
<clus scale="   70.173">  1  5  2 -1</clus>
<clus scale="   50.239">  1  3  2 -1</clus>
</clustering>
</event>
<event>
 6    0  0.2117869E+002  0.1594095E+03  0.7546771E-02  0.1189365E+00
          2   -1    0    0  504    0 -0.00000000000E+00  0.00000000000E+00  0.84603716194E+03  0.84603716194E+03  0.00000000000E+00 0. -1.
         21   -1    0    0  503  502  0.00000000000E+00 -0.00000000000E+00 -0.11652018228E+04  0.11652018228E+04  0.00000000000E+00 0.  1.
         21    1    1    2  503  501  0.16546356112E+03 -0.10726944791E+03 -0.54570877955E+03  0.58024391129E+03  0.00000000000E+00 0. -1.
         21    1    1    2  504  505 -0.40580763666E+01  0.30354367365E+02  0.35746664861E+02  0.47071006475E+02  0.00000000000E+00 0. -1.
         21    1    1    2  505  502 -0.10618349455E+03 -0.41559843094E+02 -0.58560100148E+03  0.59659926919E+03  0.00000000000E+00 0.  1.
          2    1    1    2  501    0 -0.55221990204E+02  0.11847492364E+03  0.77639845533E+03  0.78732479776E+03  0.00000000000E+00 0. -1.
<scales pt_clust_3="159.40946" pt_clust_4="30.62443" pt_clust_5="113.97739" pt_clust_6="14000.00000"></scales>
<clustering>
<clus scale="   30.624">  1  4  2 -1</clus>
<clus scale="  113.977">  2  5  1 -1</clus>
<clus scale="  159.409">  2  3  1 -1</clus>
<clus scale="  113.977">  2  3  1 -1</clus>
</clustering>
</event>
<event>
 6    0  0.2117869E+002  0.9706635E+02  0.7546771E-02  0.1286589E+00
         21   -1    0    0  505  502  0.00000000000E+00  0.00000000000E+00  0.66288782459E+03  0.66288782459E+03  0.00000000000E+00 0.  1.
          2   -1    0    0  503    0 -0.00000000000E+00 -0.00000000000E+00 -0.11439178267E+03  0.11439178267E+03  0.00000000000E+00 0. -1.
         21    1    1    2  503  504  0.33778695792E+02  0.36177630337E+02  0.59426389399E+02  0.77338974541E+02  0.00000000000E+00 0.  1.
         21    1    1    2  504  502 -0.37296803092E+02  0.20103303816E+02  0.77344524726E+02  0.88189397607E+02  0.00000000000E+00 0.  1.
         21    1    1    2  505  501  0.98739821632E+02 -0.35576956023E+02  0.48091836970E+03  0.49223749400E+03  0.00000000000E+00 0.  1.
          2    1    1    2  501    0 -0.95221714332E+02 -0.20703978130E+02 -0.69193241904E+02  0.11951374112E+03  0.00000000000E+00 0. -1.
<scales pt_clust_3="48.46871" pt_clust_4="42.36973" pt_clust_5="14000.00000" pt_clust_6="97.06635"></scales>
<clustering>
<clus scale="   42.370">  1  4  2 -1</clus>
<clus scale="   48.469">  1  3  2 -1</clus>
<clus scale="   97.066">  2  6  1 -1</clus>
<clus scale="   42.370">  1  3  2 -1</clus>
</clustering>
</event>
<event>
 6    0  0.2117869E+002  0.1658314E+03  0.7546771E-02  0.1182266E+00
          1   -1    0    0  504    0 -0.00000000000E+00  0.00000000000E+00  0.67292490418E+03  0.67292490418E+03  0.00000000000E+00 0.  1.
         21   -1    0    0  501  502  0.00000000000E+00 -0.00000000000E+00 -0.13324565095E+03  0.13324565095E+03  0.00000000000E+00 0.  1.
         21    1    1    2  503  502 -0.10932676421E+03  0.13567939460E+03 -0.18273560142E+02  0.17520034958E+03  0.00000000000E+00 0.  1.
         21    1    1    2  504  505  0.51143208912E+01  0.45703475061E+02  0.55522971535E+02  0.72095521906E+02  0.00000000000E+00 0.  1.
         21    1    1    2  505  503  0.83841142222E+02 -0.41649787225E+02  0.12706821657E+03  0.15783020486E+03  0.00000000000E+00 0. -1.
          1    1    1    2  501    0  0.20371301097E+02 -0.13973308244E+03  0.37536162527E+03  0.40104447878E+03  0.00000000000E+00 0.  1.
<scales pt_clust_3="165.83136" pt_clust_4="45.98874" pt_clust_5="90.49826" pt_clust_6="14000.00000"></scales>
<clustering>
<clus scale="   45.989">  1  4  2 -1</clus>
<clus scale="   90.498">  1  5  2 -1</clus>
<clus scale="  165.831">  2  3  1 -1</clus>
<clus scale="  165.831">  2  3  1 -1</clus>
</clustering>
</event>
<event>
 6    0  0.2117869E+002  0.8361911E+02  0.7546771E-02  0.1319084E+00
          2   -1    0    0  505    0 -0.00000000000E+00  0.00000000000E+00  0.16754335468E+04  0.16754335468E+04  0.00000000000E+00 0.  1.
         21   -1    0    0  503  502  0.00000000000E+00 -0.00000000000E+00 -0.22309933831E+03  0.22309933831E+03  0.00000000000E+00 0.  1.
         21    1    1    2  503  501 -0.78291967238E+02  0.40679434711E+02 -0.16085214690E+03  0.18346079065E+03  0.00000000000E+00 0.  1.
         21    1    1    2  504  502  0.38932104222E+02 -0.70378634902E+02 -0.15070789569E+02  0.81829027172E+02  0.00000000000E+00 0.  1.
         21    1    1    2  505  504  0.23361340816E+02 -0.41318028207E+02  0.92778390729E+03  0.92899726067E+03  0.00000000000E+00 0. -1.
          2    1    1    2  501    0  0.15998522200E+02  0.71017228398E+02  0.70047323771E+03  0.70424580665E+03  0.00000000000E+00 0.  1.
<scales pt_clust_3="14000.00000" pt_clust_4="83.61911" pt_clust_5="47.46506" pt_clust_6="49.76043"></scales>
<clustering>
<clus scale="   47.465">  1  5  2 -1</clus>
<clus scale="   49.760">  1  6  2 -1</clus>
<clus scale="   83.619">  1  4  2 -1</clus>
<clus scale="   83.619">  2  3  1 -1</clus>
</clustering>
</event>
<event>
 6    0  0.2117869E+002  0.2547769E+03  0.7546771E-02  0.1110323E+00
          2   -1    0    0  503    0 -0.00000000000E+00  0.00000000000E+00  0.13405162838E+04  0.13405162838E+04  0.00000000000E+00 0. -1.
         21   -1    0    0  504  502  0.00000000000E+00 -0.00000000000E+00 -0.35877948154E+03  0.35877948154E+03  0.00000000000E+00 0. -1.
         21    1    1    2  503  505 -0.93728810716E+02  0.19341305146E+03  0.18997992415E+03  0.28685548629E+03  0.00000000000E+00 0. -1.
         21    1    1    2  504  501 -0.39251256671E+02 -0.25884275948E+02 -0.82433384704E+00  0.47024848941E+02  0.00000000000E+00 0. -1.
         21    1    1    2  505  502 -0.24784983171E+02  0.51030118040E+02 -0.26655075488E+03  0.27252095931E+03  0.00000000000E+00 0. -1.
          2    1    1    2  501    0  0.15776505056E+03 -0.21855889355E+03  0.10591319668E+04  0.10928944708E+04  0.00000000000E+00 0. -1.
<scales pt_clust_3="254.77689" pt_clust_4="47.01762" pt_clust_5="63.95624" pt_clust_6="14000.00000"></scales>
<clustering>
<clus scale="   47.018">  2  4  1 -1</clus>
<clus scale="   63.956">  2  5  1 -1</clus>
<clus scale="  254.777">  2  3  1 -1</clus>
<clus scale="   47.018">  2  3  1 -1</clus>
</clustering>
</event>
<event>
 6    0  0.2117869E+002  0.2100679E+03  0.7546771E-02  0.1141512E+00
          2   -1    0    0  503    0 -0.00000000000E+00  0.00000000000E+00  0.28439064551E+03  0.28439064551E+03  0.00000000000E+00 0.  1.
         21   -1    0    0  505  502  0.00000000000E+00 -0.00000000000E+00 -0.46995553885E+03  0.46995553885E+03  0.00000000000E+00 0. -1.
         21    1    1    2  503  502  0.40017398052E+02 -0.31565905989E+02 -0.41256764825E+01  0.51135308488E+02  0.00000000000E+00 0. -1.
         21    1    1    2  504  501  0.15107834621E+03  0.94017257585E+02 -0.84821007025E+02  0.19712563164E+03  0.00000000000E+00 0. -1.
         21    1    1    2  505  504  0.37367637799E+02 -0.31978963388E+02 -0.23309230316E+03  0.23822471796E+03  0.00000000000E+00 0. -1.
          2    1    1    2  501    0 -0.22846338206E+03 -0.30472388208E+02  0.13647409332E+03  0.26786052627E+03  0.00000000000E+00 0.  1.
<scales pt_clust_3="56.76460" pt_clust_4="14000.00000" pt_clust_5="49.18327" pt_clust_6="210.06788"></scales>
<clustering>
<clus scale="   49.183">  2  5  1 -1</clus>
<clus scale="   56.765">  2  3  1 -1</clus>
<clus scale="  210.068">  1  6  2 -1</clus>
<clus scale="   49.183">  2  3  1 -1</clus>
</clustering>
</event>
<event>
 6    0  0.2117869E+002  0.9888974E+02  0.7546771E-02  0.1282648E+00
         21   -1    0    0  505  502  0.00000000000E+00  0.00000000000E+00  0.41660998188E+03  0.41660998188E+03  0.00000000000E+00 0. -1.
          2   -1    0    0  502    0 -0.00000000000E+00 -0.00000000000E+00 -0.14416122202E+04  0.14416122202E+04  0.00000000000E+00 0. -1.
         21    1    1    2  503  501 -0.10387178313E+02 -0.83281263465E+02 -0.20862274337E+03  0.22487132181E+03  0.00000000000E+00 0.  1.
         21    1    1    2  504  503 -0.19612688433E+02 -0.67904011983E+02  0.18991182809E+01  0.70705155691E+02  0.00000000000E+00 0.  1.
         21    1    1    2  505  504 -0.22694787731E+01  0.10563951077E+03  0.36401223457E+03  0.37903794491E+03  0.00000000000E+00 0. -1.
          2    1    1    2  501    0  0.32269345520E+02  0.45545764675E+02 -0.11822908478E+04  0.11836077796E+04  0.00000000000E+00 0. -1.
<scales pt_clust_3="48.09142" pt_clust_4="98.88974" pt_clust_5="14000.00000" pt_clust_6="55.81870"></scales>
<clustering>
<clus scale="   55.819">  2  6  1 -1</clus>
<clus scale="   48.091">  2  3  1 -1</clus>
<clus scale="   98.890">  2  4  1 -1</clus>
<clus scale="   98.890">  1  3  2 -1</clus>
</clustering>
</event>
<event>
 6    0  0.2117869E+002  0.8843125E+02  0.7546771E-02  0.1306696E+00
         -3   -1    0    0    0  501 -0.00000000000E+00  0.00000000000E+00  0.35188626172E+03  0.35188626172E+03  0.00000000000E+00 0.  1.
         21   -1    0    0  505  502  0.00000000000E+00 -0.00000000000E+00 -0.22584659190E+03  0.22584659190E+03  0.00000000000E+00 0.  1.
         21    1    1    2  503  502  0.33956599124E+02  0.23332237281E+02 -0.14096297291E+03  0.14686049044E+03  0.00000000000E+00 0.  1.
         21    1    1    2  504  501  0.28856987240E+01 -0.72684764680E+02  0.13275407049E+03  0.15137716309E+03  0.00000000000E+00 0.  1.
         21    1    1    2  505  504 -0.13428674186E+02 -0.79873445854E+02 -0.13174438483E+02  0.82058896363E+02  0.00000000000E+00 0.  1.
         -3    1    1    2    0  503 -0.23413623662E+02  0.12922597325E+03  0.14742301073E+03  0.19743630373E+03  0.00000000000E+00 0.  1.
<scales pt_clust_3="41.20005" pt_clust_4="14000.00000" pt_clust_5="66.61294" pt_clust_6="88.43125"></scales>
<clustering>
<clus scale="   41.200">  2  3  1 -1</clus>
<clus scale="   66.613">  2  5  1 -1</clus>
<clus scale="   88.431">  2  6  1 -1</clus>
<clus scale="   41.200">  2  3  1 -1</clus>
</clustering>
</event>
<event>
 6    0  0.2117869E+002  0.6818797E+02  0.7546771E-02  0.1366366E+00
         21   -1    0    0  501  502  0.00000000000E+00  0.00000000000E+00  0.67684030640E+03  0.67684030640E+03  0.00000000000E+00 0. -1.
          1   -1    0    0  505    0 -0.00000000000E+00 -0.00000000000E+00 -0.33638991038E+02  0.33638991038E+02  0.00000000000E+00 0. -1.
         21    1    1    2  503  502 -0.22398684093E+02  0.54306885106E+02  0.28205556624E+03  0.28810810691E+03  0.00000000000E+00 0. -1.
         21    1    1    2  504  503  0.25316363677E+02  0.66768783646E+02  0.98166204724E+02  0.12139024874E+03  0.00000000000E+00 0. -1.
         21    1    1    2  505  504  0.16915447108E+02 -0.69249440683E+02  0.68961324591E+02  0.99183071515E+02  0.00000000000E+00 0. -1.
          1    1    1    2  501    0 -0.19833126692E+02 -0.51826228070E+02  0.19401821981E+03  0.20179787028E+03  0.00000000000E+00 0. -1.
<scales pt_clust_3="41.47517" pt_clust_4="14000.00000" pt_clust_5="68.18797" pt_clust_6="55.49154"></scales>
<clustering>
<clus scale="   55.492">  1  6  2 -1</clus>
<clus scale="   41.475">  1  3  2 -1</clus>
<clus scale="   68.188">  2  5  1 -1</clus>
<clus scale="   55.492">  1  3  2 -1</clus>
</clustering>
</event>
<event>
 6    0  0.2117869E+002  0.1428129E+03  0.7546771E-02  0.1209593E+00
          2   -1    0    0  505    0 -0.00000000000E+00  0.00000000000E+00  0.11943545960E+04  0.11943545960E+04  0.00000000000E+00 0.  1.
         21   -1    0    0  504  502  0.00000000000E+00 -0.00000000000E+00 -0.75245022090E+02  0.75245022090E+02  0.00000000000E+00 0. -1.
         21    1    1    2  503  502 -0.40446286247E+02 -0.16711314546E+03  0.67330700301E+02  0.18465137059E+03  0.00000000000E+00 0. -1.
         21    1    1    2  504  501 -0.19010462212E+02  0.35066334002E+02  0.29683394747E+02  0.49720713768E+02  0.00000000000E+00 0.  1.
         21    1    1    2  505  503  0.23262677894E+02  0.28710710628E+02  0.99183494664E+02  0.10584338761E+03  0.00000000000E+00 0.  1.
          2    1    1    2  501    0  0.36194070565E+02  0.10333610083E+03  0.92291198422E+03  0.92938414614E+03  0.00000000000E+00 0.  1.
<scales pt_clust_3="14000.00000" pt_clust_4="40.42162" pt_clust_5="36.95209" pt_clust_6="142.81285"></scales>
<clustering>
<clus scale="   36.952">  1  5  2 -1</clus>
<clus scale="   40.422">  2  4  1 -1</clus>
<clus scale="  142.813">  1  6  2 -1</clus>
<clus scale="   40.422">  2  3  1 -1</clus>
</clustering>
</event>
<event>
 6    0  0.2117869E+002  0.2881012E+03  0.7546771E-02  0.1091345E+00
          2   -1    0    0  504    0 -0.00000000000E+00  0.00000000000E+00  0.42278107496E+04  0.42278107496E+04  0.00000000000E+00 0.  1.
         21   -1    0    0  501  502  0.00000000000E+00 -0.00000000000E+00 -0.65039013821E+03  0.65039013821E+03  0.00000000000E+00 0.  1.
         21    1    1    2  503  505  0.99630814789E+02 -0.15748276665E+03 -0.27854944356E+02  0.18842244817E+03  0.00000000000E+00 0.  1.
         21    1    1    2  504  503  0.58208497137E+02 -0.21711206611E+03  0.12870894765E+04  0.13065700130E+04  0.00000000000E+00 0.  1.
         21    1    1    2  505  502 -0.19584104406E+02  0.36218192705E+02 -0.51997642479E+03  0.52160404232E+03  0.00000000000E+00 0.  1.
          2    1    1    2  501    0 -0.13825520752E+03  0.33837664006E+03  0.28381625041E+04  0.28616043843E+04  0.00000000000E+00 0.  1.
<scales pt_clust_3="152.09484" pt_clust_4="288.10116" pt_clust_5="41.17396" pt_clust_6="14000.00000"></scales>
<clustering>
<clus scale="   41.174">  2  5  1 -1</clus>
<clus scale="  152.095">  2  3  1 -1</clus>
<clus scale="  288.101">  1  4  2 -1</clus>
<clus scale="   41.174">  2  3  1 -1</clus>
</clustering>
</event>
<event>
 6    0  0.2117869E+002  0.6223603E+03  0.7546771E-02  0.9860072E-01
         -1   -1    0    0    0  501 -0.00000000000E+00  0.00000000000E+00  0.64129466230E+03  0.64129466230E+03  0.00000000000E+00 0. -1.
         21   -1    0    0  505  502  0.00000000000E+00 -0.00000000000E+00 -0.19229820172E+04  0.19229820172E+04  0.00000000000E+00 0.  1.
         21    1    1    2  503  502  0.64414383783E+03 -0.30380262953E+02 -0.10520377181E+04  0.12339479748E+04  0.00000000000E+00 0.  1.
         21    1    1    2  504  501 -0.47321288424E+02 -0.10464970347E+02  0.14747877918E+03  0.15523791499E+03  0.00000000000E+00 0. -1.
         21    1    1    2  505  504 -0.59033150469E+03  0.76103079029E+02 -0.66069334535E+03  0.88926860996E+03  0.00000000000E+00 0.  1.
         -1    1    1    2    0  503 -0.64910447187E+01 -0.35257845729E+02  0.28356492930E+03  0.28582217982E+03  0.00000000000E+00 0. -1.
<scales pt_clust_3="622.36030" pt_clust_4="56.16345" pt_clust_5="14000.00000" pt_clust_6="35.85037"></scales>
<clustering>
<clus scale="   35.850">  1  6  2 -1</clus>
<clus scale="   56.163">  1  4  2 -1</clus>
<clus scale="  622.360">  2  3  1 -1</clus>
<clus scale="  622.360">  2  3  1 -1</clus>
</clustering>
</event>
<event>
 6    0  0.2117869E+002  0.9412330E+02  0.7546771E-02  0.1293163E+00
         21   -1    0    0  503  502  0.00000000000E+00  0.00000000000E+00  0.43960237379E+03  0.43960237379E+03  0.00000000000E+00 0.  1.
         -1   -1    0    0    0  501 -0.00000000000E+00 -0.00000000000E+00 -0.60949519654E+03  0.60949519654E+03  0.00000000000E+00 0.  1.
         21    1    1    2  503  504 -0.22213932577E+02 -0.37052862050E+02  0.36325746025E+03  0.36581738041E+03  0.00000000000E+00 0.  1.
         21    1    1    2  504  501  0.54116202224E+02  0.31267782685E+02  0.21242051759E+01  0.62535988237E+02  0.00000000000E+00 0. -1.
         21    1    1    2  505  502 -0.77221278574E+02 -0.75442982186E+02 -0.37394745600E+02  0.11425032352E+03  0.00000000000E+00 0.  1.
         -1    1    1    2    0  505  0.45319008927E+02  0.81228061551E+02 -0.49787974257E+03  0.50649387816E+03  0.00000000000E+00 0.  1.
<scales pt_clust_3="43.20154" pt_clust_4="47.10592" pt_clust_5="14000.00000" pt_clust_6="94.12330"></scales>
<clustering>
<clus scale="   43.202">  1  3  2 -1</clus>
<clus scale="   47.106">  1  4  2 -1</clus>
<clus scale="   94.123">  2  6  1 -1</clus>
<clus scale="   43.202">  1  3  2 -1</clus>
</clustering>
</event>
<event>
 6    0  0.2117869E+002  0.3146370E+03  0.7546771E-02  0.1078144E+00
          4   -1    0    0  503    0 -0.00000000000E+00  0.00000000000E+00  0.39174755274E+03  0.39174755274E+03  0.00000000000E+00 0.  1.
         21   -1    0    0  501  502  0.00000000000E+00 -0.00000000000E+00 -0.73695646807E+03  0.73695646807E+03  0.00000000000E+00 0.  1.
         21    1    1    2  503  504  0.21966319708E+02  0.28837915980E+02  0.16948870922E+02  0.40017606439E+02  0.00000000000E+00 0. -1.
         21    1    1    2  504  505  0.34806568535E+02 -0.92830072533E+02 -0.30326330817E+03  0.31905728899E+03  0.00000000000E+00 0. -1.
         21    1    1    2  505  502  0.13519220927E+03 -0.15305644498E+03 -0.31998193577E+03  0.37959405688E+03  0.00000000000E+00 0.  1.
          4    1    1    2  501    0 -0.19196509752E+03  0.21704860153E+03  0.26108745769E+03  0.39003506849E+03  0.00000000000E+00 0.  1.
<scales pt_clust_3="36.25113" pt_clust_4="70.72768" pt_clust_5="70.72768" pt_clust_6="297.78710"></scales>
<clustering>
<clus scale="   36.251">  1  3  2 -1</clus>
<clus scale="   70.728">  4  5 -1 -1</clus>
<clus scale="  297.787">  1  6  2 -1</clus>
<clus scale="  314.637">  2  3  1 -1</clus>
</clustering>
</event>
<event>
 6    0  0.2117869E+002  0.1076363E+03  0.7546771E-02  0.1265011E+00
         21   -1    0    0  501  502  0.00000000000E+00  0.00000000000E+00  0.59802299730E+02  0.59802299730E+02  0.00000000000E+00 0. -1.
          1   -1    0    0  503    0 -0.00000000000E+00 -0.00000000000E+00 -0.18639681571E+04  0.18639681571E+04  0.00000000000E+00 0. -1.
         21    1    1    2  503  504  0.10971370795E+02 -0.27994188308E+02 -0.17114384297E+03  0.17376495775E+03  0.00000000000E+00 0. -1.
         21    1    1    2  504  505 -0.56367532659E+02 -0.58718211558E+02 -0.26620923515E+03  0.27837471865E+03  0.00000000000E+00 0. -1.
         21    1    1    2  505  502 -0.96042973424E+02  0.48267602813E+02 -0.11148623710E+02  0.10806621135E+03  0.00000000000E+00 0. -1.
          1    1    1    2  501    0  0.14143913529E+03  0.38444797053E+02 -0.13556641556E+04  0.13635645691E+04  0.00000000000E+00 0. -1.
<scales pt_clust_3="30.06735" pt_clust_4="83.53839" pt_clust_5="107.63632" pt_clust_6="14000.00000"></scales>
<clustering>
<clus scale="   30.067">  2  3  1 -1</clus>
<clus scale="   83.538">  2  4  1 -1</clus>
<clus scale="  107.636">  1  5  2 -1</clus>
<clus scale="  107.636">  1  3  2 -1</clus>
</clustering>
</event>
<event>
 6    0  0.2117869E+002  0.1459991E+03  0.7546771E-02  0.1205477E+00
          2   -1    0    0  503    0 -0.00000000000E+00  0.00000000000E+00  0.34531635264E+03  0.34531635264E+03  0.00000000000E+00 0.  1.
         21   -1    0    0  505  502  0.00000000000E+00 -0.00000000000E+00 -0.16280181221E+04  0.16280181221E+04  0.00000000000E+00 0. -1.
         21    1    1    2  503  502  0.34229768791E+01 -0.32339421021E+02  0.87355187861E+02  0.93212036610E+02  0.00000000000E+00 0. -1.
         21    1    1    2  504  501 -0.17951827129E+03  0.51550299192E+02 -0.17252182063E+03  0.25425975235E+03  0.00000000000E+00 0. -1.
         21    1    1    2  505  504  0.12843594768E+03 -0.61975460607E+02 -0.14032165101E+04  0.14104443713E+04  0.00000000000E+00 0. -1.
          2    1    1    2  501    0  0.47659346723E+02  0.42764582435E+02  0.20568137340E+03  0.21541831446E+03  0.00000000000E+00 0.  1.
<scales pt_clust_3="32.52007" pt_clust_4="14000.00000" pt_clust_5="145.99914" pt_clust_6="52.97994"></scales>
<clustering>
<clus scale="   32.520">  1  3  2 -1</clus>
<clus scale="   52.980">  1  6  2 -1</clus>
<clus scale="  145.999">  2  5  1 -1</clus>
<clus scale="  145.999">  2  3  1 -1</clus>
</clustering>
</event>
<event>
 6    0  0.2117869E+002  0.1175720E+03  0.7546771E-02  0.1247157E+00
         21   -1    0    0  501  502  0.00000000000E+00  0.00000000000E+00  0.91498774637E+02  0.91498774637E+02  0.00000000000E+00 0. -1.
          1   -1    0    0  504    0 -0.00000000000E+00 -0.00000000000E+00 -0.80272219223E+03  0.80272219223E+03  0.00000000000E+00 0. -1.
         21    1    1    2  503  502 -0.28707043846E+02  0.48006489291E+02  0.51924162694E+01  0.56175426720E+02  0.00000000000E+00 0. -1.
         21    1    1    2  504  505  0.26378630079E+02 -0.14289083471E+02 -0.20003892502E+03  0.20227600340E+03  0.00000000000E+00 0. -1.
         21    1    1    2  505  503  0.13707595342E+03 -0.33422938650E+02 -0.49003729914E+02  0.14935955068E+03  0.00000000000E+00 0. -1.
          1    1    1    2  501    0 -0.13474753966E+03 -0.29446717007E+00 -0.46737317894E+03  0.48640998606E+03  0.00000000000E+00 0. -1.
<scales pt_clust_3="54.84541" pt_clust_4="30.00017" pt_clust_5="117.57204" pt_clust_6="14000.00000"></scales>
<clustering>
<clus scale="   30.000">  2  4  1 -1</clus>
<clus scale="   54.845">  1  3  2 -1</clus>
<clus scale="  117.572">  1  5  2 -1</clus>
<clus scale="   54.845">  1  3  2 -1</clus>
</clustering>
</event>
<event>
 6    0  0.2117869E+002  0.7958212E+02  0.7546771E-02  0.1330242E+00
         21   -1    0    0  504  502  0.00000000000E+00  0.00000000000E+00  0.28457857631E+04  0.28457857631E+04  0.00000000000E+00 0.  1.
         -2   -1    0    0    0  501 -0.00000000000E+00 -0.00000000000E+00 -0.22035376393E+03  0.22035376393E+03  0.00000000000E+00 0. -1.
         21    1    1    2  503  502  0.44657360144E+02  0.68381859226E+02  0.20592704658E+04  0.20608894221E+04  0.00000000000E+00 0.  1.
         21    1    1    2  504  501  0.67136576545E+01  0.39189380963E+02  0.41806553237E+02  0.57694615632E+02  0.00000000000E+00 0.  1.
         21    1    1    2  505  503  0.96751689261E+01 -0.87635229142E+02  0.72836229408E+03  0.73367920354E+03  0.00000000000E+00 0.  1.
         -2    1    1    2    0  505 -0.61046186725E+02 -0.19936011047E+02 -0.20400731400E+03  0.21387628577E+03  0.00000000000E+00 0. -1.
<scales pt_clust_3="79.58212" pt_clust_4="39.76029" pt_clust_5="14000.00000" pt_clust_6="57.53617"></scales>
<clustering>
<clus scale="   39.760">  2  4  1 -1</clus>
<clus scale="   57.536">  2  6  1 -1</clus>
<clus scale="   79.582">  1  3  2 -1</clus>
<clus scale="   79.582">  1  3  2 -1</clus>
</clustering>
</event>
<event>
 6    0  0.2117869E+002  0.1177347E+03  0.7546771E-02  0.1246882E+00
         21   -1    0    0  501  502  0.00000000000E+00  0.00000000000E+00  0.65772499328E+02  0.65772499328E+02  0.00000000000E+00 0. -1.
          1   -1    0    0  504    0 -0.00000000000E+00 -0.00000000000E+00 -0.97298369759E+03  0.97298369759E+03  0.00000000000E+00 0. -1.
         21    1    1    2  503  502  0.26034915700E+02 -0.16158876820E+02  0.91965839129E+01  0.31992237985E+02  0.00000000000E+00 0. -1.
         21    1    1    2  504  505 -0.37518062352E+02 -0.80054671060E+01 -0.10431359492E+03  0.11114413431E+03  0.00000000000E+00 0.  1.
         21    1    1    2  505  503 -0.13165446707E+03 -0.57115451164E+01 -0.91720666546E+02  0.16055591274E+03  0.00000000000E+00 0. -1.
          1    1    1    2  501    0  0.14313761372E+03  0.29875889042E+02 -0.72037352071E+03  0.73506391188E+03  0.00000000000E+00 0. -1.
<scales pt_clust_3="30.64190" pt_clust_4="36.72786" pt_clust_5="14000.00000" pt_clust_6="117.73465"></scales>
<clustering>
<clus scale="   30.642">  1  3  2 -1</clus>
<clus scale="   36.728">  2  4  1 -1</clus>
<clus scale="  117.735">  2  6  1 -1</clus>
<clus scale="   30.642">  1  3  2 -1</clus>
</clustering>
</event>
<event>
 6    0  0.2117869E+002  0.2062487E+03  0.7546771E-02  0.1144571E+00
          3   -1    0    0  504    0 -0.00000000000E+00  0.00000000000E+00  0.10744035506E+04  0.10744035506E+04  0.00000000000E+00 0. -1.
         21   -1    0    0  505  502  0.00000000000E+00 -0.00000000000E+00 -0.64974785433E+03  0.64974785433E+03  0.00000000000E+00 0. -1.
         21    1    1    2  503  501 -0.50128000326E+02  0.17316588382E+03 -0.43289333172E+03  0.46893056670E+03  0.00000000000E+00 0. -1.
         21    1    1    2  504  502 -0.46252475012E+02  0.13486714179E+02  0.17195989021E+03  0.17858159689E+03  0.00000000000E+00 0.  1.
         21    1    1    2  505  503 -0.27325204689E+02  0.18292319853E+02 -0.17772962610E+03  0.18074594262E+03  0.00000000000E+00 0.  1.
          3    1    1    2  501    0  0.12370568003E+03 -0.20494491785E+03  0.86331876387E+03  0.89589329871E+03  0.00000000000E+00 0. -1.
<scales pt_clust_3="14000.00000" pt_clust_4="48.39933" pt_clust_5="32.88276" pt_clust_6="206.24873"></scales>
<clustering>
<clus scale="   32.883">  2  5  1 -1</clus>
<clus scale="   48.399">  1  4  2 -1</clus>
<clus scale="  206.249">  1  6  2 -1</clus>
<clus scale="   32.883">  2  3  1 -1</clus>
</clustering>
</event>
<event>
 6    0  0.2117869E+002  0.8879691E+02  0.7546771E-02  0.1305792E+00
          4   -1    0    0  502    0 -0.00000000000E+00  0.00000000000E+00  0.34259823706E+03  0.34259823706E+03  0.00000000000E+00 0. -1.
         21   -1    0    0  504  502  0.00000000000E+00 -0.00000000000E+00 -0.54433474000E+03  0.54433474000E+03  0.00000000000E+00 0. -1.
         21    1    1    2  503  501  0.60218075662E+02 -0.42922258955E+02  0.63928336793E+02  0.97751568762E+02  0.00000000000E+00 0. -1.
         21    1    1    2  504  505  0.12394493325E+02 -0.27559743826E+02 -0.22413339708E+03  0.22616131993E+03  0.00000000000E+00 0. -1.
         21    1    1    2  505  503  0.27655935969E+02  0.57336256485E+02 -0.28887309616E+03  0.29580392626E+03  0.00000000000E+00 0. -1.
          4    1    1    2  501    0 -0.10026850496E+03  0.13145746296E+02  0.24734165351E+03  0.26721616211E+03  0.00000000000E+00 0. -1.
<scales pt_clust_3="14000.00000" pt_clust_4="30.21859" pt_clust_5="50.51420" pt_clust_6="88.79691"></scales>
<clustering>
<clus scale="   30.219">  2  4  1 -1</clus>
<clus scale="   50.514">  2  5  1 -1</clus>
<clus scale="   88.797">  1  6  2 -1</clus>
<clus scale="   30.219">  2  3  1 -1</clus>
</clustering>
</event>
<event>
 6    0  0.2117869E+002  0.9300036E+02  0.7546771E-02  0.1295744E+00
          2   -1    0    0  505    0 -0.00000000000E+00  0.00000000000E+00  0.15672028941E+04  0.15672028941E+04  0.00000000000E+00 0.  1.
         21   -1    0    0  504  502  0.00000000000E+00 -0.00000000000E+00 -0.46767489971E+03  0.46767489971E+03  0.00000000000E+00 0.  1.
         21    1    1    2  503  502  0.12728735961E+03 -0.24278057120E+02 -0.37854537333E+03  0.40011010440E+03  0.00000000000E+00 0.  1.
         21    1    1    2  504  501 -0.49113616000E+02 -0.25110969782E+02 -0.63757872239E+02  0.84307617404E+02  0.00000000000E+00 0.  1.
         21    1    1    2  505  503 -0.15272894335E+01 -0.35925306336E+02  0.16562652574E+03  0.16948482609E+03  0.00000000000E+00 0. -1.
          2    1    1    2  501    0 -0.76646454174E+02  0.85314333238E+02  0.13762047142E+04  0.13809752459E+04  0.00000000000E+00 0.  1.
<scales pt_clust_3="93.00036" pt_clust_4="55.29127" pt_clust_5="35.95776" pt_clust_6="14000.00000"></scales>
<clustering>
<clus scale="   35.958">  1  5  2 -1</clus>
<clus scale="   55.291">  2  4  1 -1</clus>
<clus scale="   93.000">  2  3  1 -1</clus>
<clus scale="   55.291">  2  3  1 -1</clus>
</clustering>
</event>
<event>
 6    0  0.2117869E+002  0.1059424E+03  0.7546771E-02  0.1268274E+00
         21   -1    0    0  504  502  0.00000000000E+00  0.00000000000E+00  0.23340137435E+04  0.23340137435E+04  0.00000000000E+00 0.  1.
          3   -1    0    0  505    0 -0.00000000000E+00 -0.00000000000E+00 -0.57713180768E+03  0.57713180768E+03  0.00000000000E+00 0.  1.
         21    1    1    2  503  502  0.38686804892E+02 -0.18392236439E+02  0.21741473980E+03  0.22159447718E+03  0.00000000000E+00 0.  1.
         21    1    1    2  504  501 -0.65939108086E+02 -0.38394334308E+02  0.20784181940E+04  0.20798183286E+04  0.00000000000E+00 0.  1.
         21    1    1    2  505  503 -0.68388103396E+02 -0.77322181653E+01 -0.11458045796E+02  0.69771102165E+02  0.00000000000E+00 0.  1.
          3    1    1    2  501    0  0.95640406590E+02  0.64518788912E+02 -0.52749295221E+03  0.53996164320E+03  0.00000000000E+00 0.  1.
<scales pt_clust_3="42.83624" pt_clust_4="62.99402" pt_clust_5="14000.00000" pt_clust_6="105.94239"></scales>
<clustering>
<clus scale="   42.836">  1  3  2 -1</clus>
<clus scale="   62.994">  1  4  2 -1</clus>
<clus scale="  105.942">  2  6  1 -1</clus>
<clus scale="   42.836">  1  3  2 -1</clus>
</clustering>
</event>
<event>
 6    0  0.2117869E+002  0.1134634E+03  0.7546771E-02  0.1254287E+00
          1   -1    0    0  504    0 -0.00000000000E+00  0.00000000000E+00  0.70512693723E+03  0.70512693723E+03  0.00000000000E+00 0.  1.
         21   -1    0    0  505  502  0.00000000000E+00 -0.00000000000E+00 -0.55369651118E+03  0.55369651118E+03  0.00000000000E+00 0. -1.
         21    1    1    2  503  501  0.35824784033E+02  0.12801133037E+03 -0.18451667606E+03  0.22741310340E+03  0.00000000000E+00 0.  1.
         21    1    1    2  504  502  0.31575218716E+02 -0.34691318101E+01  0.30443256612E+03  0.30608530940E+03  0.00000000000E+00 0. -1.
         21    1    1    2  505  503  0.18703264988E+02 -0.30189926930E+02 -0.33516119607E+03  0.33703749222E+03  0.00000000000E+00 0. -1.
          1    1    1    2  501    0 -0.86103267738E+02 -0.94352271631E+02  0.36667573206E+03  0.38828754340E+03  0.00000000000E+00 0.  1.
<scales pt_clust_3="14000.00000" pt_clust_4="31.76522" pt_clust_5="35.55998" pt_clust_6="113.46343"></scales>
<clustering>
<clus scale="   31.765">  1  4  2 -1</clus>
<clus scale="   35.560">  2  5  1 -1</clus>
<clus scale="  113.463">  1  6  2 -1</clus>
<clus scale="   35.560">  2  3  1 -1</clus>
</clustering>
</event>
<event>
 6    0  0.2117869E+002  0.1364040E+03  0.7546771E-02  0.1218251E+00
         21   -1    0    0  503  502  0.00000000000E+00  0.00000000000E+00  0.12753929034E+03  0.12753929034E+03  0.00000000000E+00 0.  1.
          2   -1    0    0  505    0 -0.00000000000E+00 -0.00000000000E+00 -0.34561747492E+04  0.34561747492E+04  0.00000000000E+00 0. -1.
         21    1    1    2  503  504  0.10570468610E+02  0.35434903623E+02  0.49127128695E+02  0.61488551578E+02  0.00000000000E+00 0.  1.
         21    1    1    2  504  501  0.10389707645E+03 -0.11006346069E+03 -0.11350718512E+02  0.15178078496E+03  0.00000000000E+00 0.  1.
         21    1    1    2  505  502 -0.31612063414E+02 -0.78933096551E+01 -0.29247420759E+03  0.29428351805E+03  0.00000000000E+00 0.  1.
          2    1    1    2  501    0 -0.82855481645E+02  0.82521866721E+02 -0.30739376614E+04  0.30761611849E+04  0.00000000000E+00 0. -1.
<scales pt_clust_3="36.94553" pt_clust_4="14000.00000" pt_clust_5="32.58262" pt_clust_6="136.40398"></scales>
<clustering>
<clus scale="   32.583">  2  5  1 -1</clus>
<clus scale="   36.946">  1  3  2 -1</clus>
<clus scale="  136.404">  2  6  1 -1</clus>
<clus scale="   36.946">  1  3  2 -1</clus>
</clustering>
</event>
<event>
 6    0  0.2117869E+002  0.1363664E+03  0.7546771E-02  0.1218304E+00
         -1   -1    0    0    0  501 -0.00000000000E+00  0.00000000000E+00  0.44631570531E+03  0.44631570531E+03  0.00000000000E+00 0. -1.
         21   -1    0    0  505  502  0.00000000000E+00 -0.00000000000E+00 -0.33130129791E+03  0.33130129791E+03  0.00000000000E+00 0. -1.
         21    1    1    2  503  502 -0.10462714955E+02  0.28277014474E+02 -0.19178150111E+03  0.19413707045E+03  0.00000000000E+00 0. -1.
         21    1    1    2  504  501  0.10122875921E+03 -0.15227290780E+02  0.21717036569E+02  0.10464588742E+03  0.00000000000E+00 0. -1.
         21    1    1    2  505  504  0.57748620883E+02 -0.21250169851E+02 -0.70393546215E+02  0.93497188628E+02  0.00000000000E+00 0. -1.
         -1    1    1    2    0  503 -0.14851466514E+03  0.82004461571E+01  0.35547241816E+03  0.38533685673E+03  0.00000000000E+00 0. -1.
<scales pt_clust_3="30.15059" pt_clust_4="14000.00000" pt_clust_5="51.74723" pt_clust_6="136.36636"></scales>
<clustering>
<clus scale="   30.151">  2  3  1 -1</clus>
<clus scale="   51.747">  2  5  1 -1</clus>
<clus scale="  136.366">  1  6  2 -1</clus>
<clus scale="   30.151">  2  3  1 -1</clus>
</clustering>
</event>
<event>
 6    0  0.2117869E+002  0.1367363E+03  0.7546771E-02  0.1217789E+00
          2   -1    0    0  505    0 -0.00000000000E+00  0.00000000000E+00  0.51231849483E+03  0.51231849483E+03  0.00000000000E+00 0.  1.
         21   -1    0    0  503  502  0.00000000000E+00 -0.00000000000E+00 -0.38787191747E+03  0.38787191747E+03  0.00000000000E+00 0. -1.
         21    1    1    2  503  501 -0.78034006187E+02  0.12018638038E+02 -0.18186724699E+03  0.19826610731E+03  0.00000000000E+00 0. -1.
         21    1    1    2  504  502 -0.97589008742E+01 -0.28498625649E+02 -0.14268719017E+03  0.14583223940E+03  0.00000000000E+00 0. -1.
         21    1    1    2  505  504 -0.81058284858E+02  0.94026157830E+02  0.27416370889E+03  0.30096030166E+03  0.00000000000E+00 0.  1.
          2    1    1    2  501    0  0.16885119192E+03 -0.77546170218E+02  0.17483730562E+03  0.25513176393E+03  0.00000000000E+00 0.  1.
<scales pt_clust_3="86.25505" pt_clust_4="30.12321" pt_clust_5="14000.00000" pt_clust_6="136.73633"></scales>
<clustering>
<clus scale="   30.123">  2  4  1 -1</clus>
<clus scale="   86.255">  2  3  1 -1</clus>
<clus scale="  136.736">  2  6  1 -1</clus>
<clus scale="   30.123">  2  3  1 -1</clus>
</clustering>
</event>
<event>
 6    0  0.2117869E+002  0.7002943E+02  0.7546771E-02  0.1359993E+00
         21   -1    0    0  505  502  0.00000000000E+00  0.00000000000E+00  0.87382068066E+03  0.87382068066E+03  0.00000000000E+00 0. -1.
          1   -1    0    0  503    0 -0.00000000000E+00 -0.00000000000E+00 -0.16014032926E+04  0.16014032926E+04  0.00000000000E+00 0. -1.
         21    1    1    2  503  504  0.16898062606E+02 -0.25503281618E+02 -0.79001116784E+02  0.84717993049E+02  0.00000000000E+00 0.  1.
         21    1    1    2  504  502 -0.46892090272E+02 -0.90831277474E+02  0.12093108184E+03  0.15834618926E+03  0.00000000000E+00 0.  1.
         21    1    1    2  505  501  0.44928695657E+02  0.50479237247E+02  0.72900049740E+03  0.73212599072E+03  0.00000000000E+00 0. -1.
          1    1    1    2  501    0 -0.14934667991E+02  0.65855321845E+02 -0.14985130744E+04  0.15000338003E+04  0.00000000000E+00 0. -1.
<scales pt_clust_3="30.59349" pt_clust_4="70.02943" pt_clust_5="14000.00000" pt_clust_6="40.72934"></scales>
<clustering>
<clus scale="   30.593">  2  3  1 -1</clus>
<clus scale="   40.729">  2  6  1 -1</clus>
<clus scale="   70.029">  2  4  1 -1</clus>
<clus scale="   70.029">  1  3  2 -1</clus>
</clustering>
</event>
<event>
 6    0  0.2117869E+002  0.1174763E+03  0.7546771E-02  0.1247319E+00
         21   -1    0    0  501  502  0.00000000000E+00  0.00000000000E+00  0.37881535716E+03  0.37881535716E+03  0.00000000000E+00 0.  1.
          4   -1    0    0  503    0 -0.00000000000E+00 -0.00000000000E+00 -0.11070889672E+03  0.11070889672E+03  0.00000000000E+00 0.  1.
         21    1    1    2  503  504  0.28600766317E+02 -0.14966951786E+02 -0.21549064394E+02  0.38812055549E+02  0.00000000000E+00 0.  1.
         21    1    1    2  504  505  0.89502939564E+02 -0.33870161071E+02  0.14430562737E+03  0.17315333694E+03  0.00000000000E+00 0.  1.
         21    1    1    2  505  502  0.13670112282E+01 -0.41659738949E+02  0.11808110105E+03  0.12522199884E+03  0.00000000000E+00 0.  1.
          4    1    1    2  501    0 -0.11947071711E+03  0.90496851806E+02  0.27268796413E+02  0.15233686255E+03  0.00000000000E+00 0.  1.
<scales pt_clust_3="32.28023" pt_clust_4="117.47631" pt_clust_5="42.40529" pt_clust_6="14000.00000"></scales>
<clustering>
<clus scale="   32.280">  2  3  1 -1</clus>
<clus scale="   42.405">  1  5  2 -1</clus>
<clus scale="  117.476">  1  4  2 -1</clus>
<clus scale="   42.405">  1  3  2 -1</clus>
</clustering>
</event>
<event>
 6    0  0.2117869E+002  0.8775462E+02  0.7546771E-02  0.1308382E+00
          2   -1    0    0  504    0 -0.00000000000E+00  0.00000000000E+00  0.10330495100E+04  0.10330495100E+04  0.00000000000E+00 0.  1.
         21   -1    0    0  503  502  0.00000000000E+00 -0.00000000000E+00 -0.31256388007E+03  0.31256388007E+03  0.00000000000E+00 0. -1.
         21    1    1    2  503  505  0.56109741274E+02  0.15569578642E+02 -0.69937615476E+02  0.91005411396E+02  0.00000000000E+00 0.  1.
         21    1    1    2  504  502 -0.37396842700E+02  0.37914069617E+02  0.55826141597E+03  0.56079569282E+03  0.00000000000E+00 0. -1.
         21    1    1    2  505  501 -0.51134580480E+02  0.71116384033E+02 -0.21305253788E+03  0.23035552803E+03  0.00000000000E+00 0. -1.
          2    1    1    2  501    0  0.32421681906E+02 -0.12460003229E+03  0.44521436727E+03  0.46345675777E+03  0.00000000000E+00 0.  1.
<scales pt_clust_3="57.66302" pt_clust_4="53.25411" pt_clust_5="87.75462" pt_clust_6="14000.00000"></scales>
<clustering>
<clus scale="   53.254">  1  4  2 -1</clus>
<clus scale="   57.663">  2  3  1 -1</clus>
<clus scale="   87.755">  2  5  1 -1</clus>
<clus scale="   57.663">  2  3  1 -1</clus>
</clustering>
</event>
<event>
 6    0  0.2117869E+002  0.1105940E+03  0.7546771E-02  0.1259474E+00
          1   -1    0    0  504    0 -0.00000000000E+00  0.00000000000E+00  0.94186979910E+03  0.94186979910E+03  0.00000000000E+00 0.  1.
         21   -1    0    0  505  502  0.00000000000E+00 -0.00000000000E+00 -0.32542706681E+03  0.32542706681E+03  0.00000000000E+00 0. -1.
         21    1    1    2  503  502 -0.36312750009E+02 -0.41580096623E+02 -0.80588469180E+02  0.97683271921E+02  0.00000000000E+00 0. -1.
         21    1    1    2  504  503 -0.25385295815E+02  0.38243087329E+02  0.31089274076E+03  0.31426301601E+03  0.00000000000E+00 0.  1.
         21    1    1    2  505  501 -0.69151395224E+02  0.42746421443E+01 -0.22237962940E+03  0.23292249268E+03  0.00000000000E+00 0. -1.
          1    1    1    2  501    0  0.13084944105E+03 -0.93763285073E+00  0.60851809010E+03  0.62242808529E+03  0.00000000000E+00 0.  1.
<scales pt_clust_3="55.04320" pt_clust_4="45.90149" pt_clust_5="110.59405" pt_clust_6="14000.00000"></scales>
<clustering>
<clus scale="   45.901">  1  4  2 -1</clus>
<clus scale="   55.043">  2  3  1 -1</clus>
<clus scale="  110.594">  2  5  1 -1</clus>
<clus scale="   55.043">  2  3  1 -1</clus>
</clustering>
</event>
<event>
 6    0  0.2117869E+002  0.1076768E+03  0.7546771E-02  0.1264934E+00
          2   -1    0    0  503    0 -0.00000000000E+00  0.00000000000E+00  0.30221453870E+04  0.30221453870E+04  0.00000000000E+00 0. -1.
         21   -1    0    0  505  502  0.00000000000E+00 -0.00000000000E+00 -0.64549040925E+02  0.64549040925E+02  0.00000000000E+00 0. -1.
         21    1    1    2  503  502  0.34557833050E+02  0.98240892047E+02  0.13993395362E+04  0.14032094122E+04  0.00000000000E+00 0. -1.
         21    1    1    2  504  501  0.57103569689E+02  0.67004707281E+01  0.19372566684E+02  0.60671330290E+02  0.00000000000E+00 0. -1.
         21    1    1    2  505  504  0.10475520278E+02 -0.33650609909E+02 -0.31637383426E+02  0.47360575402E+02  0.00000000000E+00 0. -1.
          2    1    1    2  501    0 -0.10213692302E+03 -0.71290752866E+02  0.15705216265E+04  0.15754531100E+04  0.00000000000E+00 0. -1.
<scales pt_clust_3="107.67678" pt_clust_4="69.02326" pt_clust_5="35.24344" pt_clust_6="14000.00000"></scales>
<clustering>
<clus scale="   35.243">  2  5  1 -1</clus>
<clus scale="   69.023">  2  4  1 -1</clus>
<clus scale="  107.677">  1  3  2 -1</clus>
<clus scale="   35.243">  2  3  1 -1</clus>
</clustering>
</event>
<event>
 6    0  0.2117869E+002  0.1387318E+03  0.7546771E-02  0.1215046E+00
         21   -1    0    0  504  502  0.00000000000E+00  0.00000000000E+00  0.26264730285E+03  0.26264730285E+03  0.00000000000E+00 0. -1.
          1   -1    0    0  503    0 -0.00000000000E+00 -0.00000000000E+00 -0.19562339714E+04  0.19562339714E+04  0.00000000000E+00 0.  1.
         21    1    1    2  503  505  0.21037358076E+02 -0.28933904057E+02 -0.17405614307E+03  0.17769435044E+03  0.00000000000E+00 0.  1.
         21    1    1    2  504  501 -0.83716329999E+01  0.71953912795E+02  0.15156384827E+03  0.16798526694E+03  0.00000000000E+00 0. -1.
         21    1    1    2  505  502  0.13787833466E+03 -0.11303427846E+03  0.15030716524E+02  0.17892206604E+03  0.00000000000E+00 0. -1.
          1    1    1    2  501    0 -0.15054405973E+03  0.70014269722E+02 -0.16861250902E+04  0.16942795908E+04  0.00000000000E+00 0.  1.
<scales pt_clust_3="35.77347" pt_clust_4="72.29557" pt_clust_5="138.73184" pt_clust_6="14000.00000"></scales>
<clustering>
<clus scale="   35.773">  2  3  1 -1</clus>
<clus scale="   72.296">  1  4  2 -1</clus>
<clus scale="  138.732">  1  5  2 -1</clus>
<clus scale="   72.296">  1  3  2 -1</clus>
</clustering>
</event>
<event>
 6    0  0.2117869E+002  0.2514761E+03  0.7546771E-02  0.1112375E+00
          2   -1    0    0  505    0 -0.00000000000E+00  0.00000000000E+00  0.14088415346E+04  0.14088415346E+04  0.00000000000E+00 0. -1.
         21   -1    0    0  501  502  0.00000000000E+00 -0.00000000000E+00 -0.20296797036E+03  0.20296797036E+03  0.00000000000E+00 0. -1.
         21    1    1    2  503  502 -0.10931776869E+03 -0.69777840076E+02 -0.97564228662E+02  0.16229017293E+03  0.00000000000E+00 0. -1.
         21    1    1    2  504  503 -0.16912451996E+03  0.74936549850E+02  0.15032971748E+03  0.23836445564E+03  0.00000000000E+00 0. -1.
         21    1    1    2  505  504 -0.37592958772E+02  0.16657382410E+02  0.26646531868E+03  0.26961911096E+03  0.00000000000E+00 0. -1.
          2    1    1    2  501    0  0.31603524742E+03 -0.21816092184E+02  0.88664275677E+03  0.94153576545E+03  0.00000000000E+00 0. -1.
<scales pt_clust_3="130.33765" pt_clust_4="14000.00000" pt_clust_5="41.11811" pt_clust_6="251.47612"></scales>
<clustering>
<clus scale="   41.118">  1  5  2 -1</clus>
<clus scale="  130.338">  2  3  1 -1</clus>
<clus scale="  251.476">  1  6  2 -1</clus>
<clus scale="  130.338">  2  3  1 -1</clus>
</clustering>
</event>
<event>
 6    0  0.2117869E+002  0.1583539E+03  0.7546771E-02  0.1190568E+00
         21   -1    0    0  505  502  0.00000000000E+00  0.00000000000E+00  0.53186489471E+02  0.53186489471E+02  0.00000000000E+00 0.  1.
          2   -1    0    0  503    0 -0.00000000000E+00 -0.00000000000E+00 -0.13915752469E+04  0.13915752469E+04  0.00000000000E+00 0. -1.
         21    1    1    2  503  504  0.67244862259E+02 -0.13377256889E+02 -0.20559133138E+03  0.21672244471E+03  0.00000000000E+00 0.  1.
         21    1    1    2  504  502 -0.15822247863E+03  0.65528596792E+02 -0.17868223881E+03  0.24749887314E+03  0.00000000000E+00 0.  1.
         21    1    1    2  505  501 -0.11769142947E+02 -0.32560622882E+02 -0.18804951117E+02  0.39399658307E+02  0.00000000000E+00 0.  1.
          2    1    1    2  501    0  0.10274675932E+03 -0.19590717021E+02 -0.93531023613E+03  0.94114076022E+03  0.00000000000E+00 0. -1.
<scales pt_clust_3="68.03422" pt_clust_4="158.35389" pt_clust_5="34.62235" pt_clust_6="14000.00000"></scales>
<clustering>
<clus scale="   34.622">  1  5  2 -1</clus>
<clus scale="   68.034">  2  3  1 -1</clus>
<clus scale="  158.354">  1  4  2 -1</clus>
<clus scale="   34.622">  1  3  2 -1</clus>
</clustering>
</event>
<event>
 6    0  0.2117869E+002  0.7242896E+02  0.7546771E-02  0.1352023E+00
          2   -1    0    0  505    0 -0.00000000000E+00  0.00000000000E+00  0.25204858544E+03  0.25204858544E+03  0.00000000000E+00 0. -1.
         21   -1    0    0  503  502  0.00000000000E+00 -0.00000000000E+00 -0.19129262526E+03  0.19129262526E+03  0.00000000000E+00 0. -1.
         21    1    1    2  503  501  0.76889024358E+02  0.91996703178E+02 -0.12376763024E+03  0.17231872143E+03  0.00000000000E+00 0. -1.
         21    1    1    2  504  502 -0.25157871325E+02 -0.38522405793E+02 -0.18271305785E+02  0.49504897260E+02  0.00000000000E+00 0. -1.
         21    1    1    2  505  504 -0.36033496523E+02 -0.80669545153E+01  0.56153710853E+02  0.67206605846E+02  0.00000000000E+00 0. -1.
          2    1    1    2  501    0 -0.15697656510E+02 -0.45407342870E+02  0.14664118536E+03  0.15431098616E+03  0.00000000000E+00 0. -1.
<scales pt_clust_3="14000.00000" pt_clust_4="48.22643" pt_clust_5="36.92545" pt_clust_6="72.42896"></scales>
<clustering>
<clus scale="   36.925">  1  5  2 -1</clus>
<clus scale="   48.226">  2  4  1 -1</clus>
<clus scale="   72.429">  1  6  2 -1</clus>
<clus scale="   48.226">  2  3  1 -1</clus>
</clustering>
</event>
<event>
 6    0  0.2117869E+002  0.2366626E+03  0.7546771E-02  0.1122036E+00
         21   -1    0    0  504  502  0.00000000000E+00  0.00000000000E+00  0.65890861907E+03  0.65890861907E+03  0.00000000000E+00 0. -1.
          1   -1    0    0  503    0 -0.00000000000E+00 -0.00000000000E+00 -0.91601240397E+03  0.91601240397E+03  0.00000000000E+00 0.  1.
         21    1    1    2  503  502 -0.13491350255E+03 -0.12367530631E+03  0.54932780391E+03  0.57901491406E+03  0.00000000000E+00 0. -1.
         21    1    1    2  504  505 -0.79394401094E+00  0.52758484926E+02  0.39440800475E+01  0.52911660777E+02  0.00000000000E+00 0. -1.
         21    1    1    2  505  501 -0.87897432911E+02 -0.12551494018E+02  0.93016207655E+01  0.89274962130E+02  0.00000000000E+00 0.  1.
          1    1    1    2  501    0  0.22360487947E+03  0.83468315403E+02 -0.81967728962E+03  0.85371948608E+03  0.00000000000E+00 0.  1.
<scales pt_clust_3="14000.00000" pt_clust_4="52.76446" pt_clust_5="88.36226" pt_clust_6="236.66262"></scales>
<clustering>
<clus scale="   52.764">  1  4  2 -1</clus>
<clus scale="   88.362">  1  5  2 -1</clus>
<clus scale="  236.663">  2  6  1 -1</clus>
<clus scale="   52.764">  1  3  2 -1</clus>
</clustering>
</event>
<event>
 6    0  0.2117869E+002  0.1404975E+03  0.7546771E-02  0.1212661E+00
         21   -1    0    0  504  502  0.00000000000E+00  0.00000000000E+00  0.22971757395E+03  0.22971757395E+03  0.00000000000E+00 0. -1.
         -4   -1    0    0    0  501 -0.00000000000E+00 -0.00000000000E+00 -0.60480072929E+03  0.60480072929E+03  0.00000000000E+00 0.  1.
         21    1    1    2  503  502  0.42174607426E+02  0.12997639916E+02  0.15950385874E+03  0.16549657733E+03  0.00000000000E+00 0. -1.
         21    1    1    2  504  505 -0.53072371503E+02  0.11603599824E+03 -0.75864416040E+02  0.14844675519E+03  0.00000000000E+00 0.  1.
         21    1    1    2  505  501  0.31058023910E+00  0.45225138180E+02 -0.22130892505E+03  0.22588282336E+03  0.00000000000E+00 0.  1.
         -4    1    1    2    0  503  0.10587183838E+02 -0.17425877634E+03 -0.23741367300E+03  0.29469214736E+03  0.00000000000E+00 0.  1.
<scales pt_clust_3="44.13203" pt_clust_4="140.49748" pt_clust_5="45.70071" pt_clust_6="14000.00000"></scales>
<clustering>
<clus scale="   44.132">  1  3  2 -1</clus>
<clus scale="   45.701">  2  5  1 -1</clus>
<clus scale="  140.497">  1  4  2 -1</clus>
<clus scale="   44.132">  1  3  2 -1</clus>
</clustering>
</event>
<event>
 6    0  0.2117869E+002  0.1124415E+03  0.7546771E-02  0.1256114E+00
         21   -1    0    0  501  502  0.00000000000E+00  0.00000000000E+00  0.26505942195E+03  0.26505942195E+03  0.00000000000E+00 0.  1.
          2   -1    0    0  505    0 -0.00000000000E+00 -0.00000000000E+00 -0.31382172685E+04  0.31382172685E+04  0.00000000000E+00 0.  1.
         21    1    1    2  503  504 -0.43082208195E+02  0.61608760203E+02 -0.20780977579E+03  0.22099008781E+03  0.00000000000E+00 0. -1.
         21    1    1    2  504  502 -0.68149727437E+02  0.88861246570E+02  0.23901770208E+03  0.26395107198E+03  0.00000000000E+00 0.  1.
         21    1    1    2  505  503 -0.51752161746E+02 -0.11765121683E+02 -0.26226726287E+03  0.26758329826E+03  0.00000000000E+00 0.  1.
          2    1    1    2  501    0  0.16298409738E+03 -0.13870488509E+03 -0.26420985100E+04  0.26507522324E+04  0.00000000000E+00 0.  1.
<scales pt_clust_3="76.75913" pt_clust_4="14000.00000" pt_clust_5="53.07263" pt_clust_6="112.44153"></scales>
<clustering>
<clus scale="   53.073">  2  5  1 -1</clus>
<clus scale="   76.759">  2  3  1 -1</clus>
<clus scale="  112.442">  2  6  1 -1</clus>
<clus scale="  112.442">  1  3  2 -1</clus>
</clustering>
</event>
<event>
 6    0  0.2117869E+002  0.1229072E+03  0.7546771E-02  0.1238377E+00
         21   -1    0    0  505  502  0.00000000000E+00  0.00000000000E+00  0.90181626137E+02  0.90181626137E+02  0.00000000000E+00 0.  1.
          2   -1    0    0  502    0 -0.00000000000E+00 -0.00000000000E+00 -0.10364679098E+04  0.10364679098E+04  0.00000000000E+00 0. -1.
         21    1    1    2  503  504 -0.76312846928E+02  0.14434826407E+02 -0.15408451667E+03  0.17255159546E+03  0.00000000000E+00 0. -1.
         21    1    1    2  504  501 -0.64561288402E+02 -0.56414108738E+02 -0.42612937877E+02  0.95742227357E+02  0.00000000000E+00 0. -1.
         21    1    1    2  505  503  0.38827216094E+02 -0.39326649098E+02  0.33397882322E+02  0.64572103748E+02  0.00000000000E+00 0.  1.
          2    1    1    2  501    0  0.10204691924E+03  0.81305931428E+02 -0.78298671141E+03  0.79378360934E+03  0.00000000000E+00 0. -1.
<scales pt_clust_3="67.84358" pt_clust_4="122.90723" pt_clust_5="55.26426" pt_clust_6="14000.00000"></scales>
<clustering>
<clus scale="   55.264">  1  5  2 -1</clus>
<clus scale="   67.844">  1  3  2 -1</clus>
<clus scale="  122.907">  1  4  2 -1</clus>
<clus scale="   55.264">  1  3  2 -1</clus>
</clustering>
</event>
<event>
 6    0  0.2117869E+002  0.8692525E+02  0.7546771E-02  0.1310473E+00
          1   -1    0    0  505    0 -0.00000000000E+00  0.00000000000E+00  0.14320018731E+04  0.14320018731E+04  0.00000000000E+00 0. -1.
         21   -1    0    0  503  502  0.00000000000E+00 -0.00000000000E+00 -0.23879023572E+02  0.23879023572E+02  0.00000000000E+00 0. -1.
         21    1    1    2  503  501 -0.17237788612E+02  0.26542188026E+02  0.11689296372E+03  0.12110158574E+03  0.00000000000E+00 0. -1.
         21    1    1    2  504  502  0.36914435522E+02 -0.53978061843E+02  0.84091960493E+02  0.10652588666E+03  0.00000000000E+00 0. -1.
         21    1    1    2  505  504  0.64074492970E+02  0.56082309317E+02  0.20184421038E+03  0.21907042551E+03  0.00000000000E+00 0. -1.
          1    1    1    2  501    0 -0.83751139880E+02 -0.28646435501E+02  0.10052937150E+04  0.10091829988E+04  0.00000000000E+00 0. -1.
<scales pt_clust_3="31.64852" pt_clust_4="49.09631" pt_clust_5="14000.00000" pt_clust_6="86.92525"></scales>
<clustering>
<clus scale="   31.649">  2  3  1 -1</clus>
<clus scale="   49.096">  2  4  1 -1</clus>
<clus scale="   86.925">  1  6  2 -1</clus>
<clus scale="   31.649">  2  3  1 -1</clus>
</clustering>
</event>
<event>
 6    0  0.2117869E+002  0.7207717E+02  0.7546771E-02  0.1353169E+00
          2   -1    0    0  505    0 -0.00000000000E+00  0.00000000000E+00  0.11817859372E+04  0.11817859372E+04  0.00000000000E+00 0.  1.
         21   -1    0    0  503  502  0.00000000000E+00 -0.00000000000E+00 -0.20293704941E+03  0.20293704941E+03  0.00000000000E+00 0. -1.
         21    1    1    2  503  501  0.40187881652E+02  0.11453759283E+02 -0.23805459908E+02  0.48093184079E+02  0.00000000000E+00 0. -1.
         21    1    1    2  504  502 -0.56657481054E+02  0.39262792505E+02 -0.15115020106E+03  0.16612651900E+03  0.00000000000E+00 0. -1.
         21    1    1    2  505  504  0.48214440868E+02 -0.10505063273E+03  0.47805794561E+03  0.49183296668E+03  0.00000000000E+00 0.  1.
          2    1    1    2  501    0 -0.31744841466E+02  0.54334080938E+02  0.67574660319E+03  0.67867031690E+03  0.00000000000E+00 0.  1.
<scales pt_clust_3="41.78821" pt_clust_4="53.44044" pt_clust_5="72.07717" pt_clust_6="14000.00000"></scales>
<clustering>
<clus scale="   41.788">  2  3  1 -1</clus>
<clus scale="   53.440">  2  4  1 -1</clus>
<clus scale="   72.077">  2  5  1 -1</clus>
<clus scale="   41.788">  2  3  1 -1</clus>
</clustering>
</event>
<event>
 6    0  0.2117869E+002  0.7437739E+02  0.7546771E-02  0.1345810E+00
          1   -1    0    0  503    0 -0.00000000000E+00  0.00000000000E+00  0.24878816504E+04  0.24878816504E+04  0.00000000000E+00 0.  1.
         21   -1    0    0  501  502  0.00000000000E+00 -0.00000000000E+00 -0.89295484546E+03  0.89295484546E+03  0.00000000000E+00 0.  1.
         21    1    1    2  503  505  0.46443094780E+01  0.35275764002E+02  0.28551473419E+03  0.28772315266E+03  0.00000000000E+00 0. -1.
         21    1    1    2  504  502 -0.11284993124E+02  0.68548732217E+02 -0.84290881471E+03  0.84576684121E+03  0.00000000000E+00 0.  1.
         21    1    1    2  505  504 -0.47246472785E+02 -0.11388399795E+03  0.33430831522E+02  0.12774746446E+03  0.00000000000E+00 0.  1.
          1    1    1    2  501    0  0.53887156430E+02  0.10059501729E+02  0.21188900539E+04  0.21195990375E+04  0.00000000000E+00 0.  1.
<scales pt_clust_3="35.58018" pt_clust_4="69.49354" pt_clust_5="74.37739" pt_clust_6="14000.00000"></scales>
<clustering>
<clus scale="   35.580">  1  3  2 -1</clus>
<clus scale="   69.494">  2  4  1 -1</clus>
<clus scale="   74.377">  2  5  1 -1</clus>
<clus scale="   69.494">  2  3  1 -1</clus>
</clustering>
</event>
<event>
 6    0  0.2117869E+002  0.1234192E+03  0.7546771E-02  0.1237561E+00
          2   -1    0    0  505    0 -0.00000000000E+00  0.00000000000E+00  0.66790309331E+03  0.66790309331E+03  0.00000000000E+00 0. -1.
         21   -1    0    0  503  502  0.00000000000E+00 -0.00000000000E+00 -0.10001483154E+04  0.10001483154E+04  0.00000000000E+00 0.  1.
         21    1    1    2  503  501  0.10169890038E+03  0.39432946618E+02 -0.40265603611E+03  0.41716843964E+03  0.00000000000E+00 0.  1.
         21    1    1    2  504  502 -0.97602759695E+02 -0.11864895677E+03 -0.56761309532E+03  0.58803783860E+03  0.00000000000E+00 0.  1.
         21    1    1    2  505  504  0.63724608785E+02 -0.13122675689E+02  0.23944816861E+03  0.24812991724E+03  0.00000000000E+00 0. -1.
          2    1    1    2  501    0 -0.67820749472E+02  0.92338685844E+02  0.39857574075E+03  0.41471521322E+03  0.00000000000E+00 0. -1.
<scales pt_clust_3="14000.00000" pt_clust_4="123.41919" pt_clust_5="65.06174" pt_clust_6="80.03918"></scales>
<clustering>
<clus scale="   65.062">  1  5  2 -1</clus>
<clus scale="   80.039">  1  6  2 -1</clus>
<clus scale="  123.419">  1  4  2 -1</clus>
<clus scale="  123.419">  2  3  1 -1</clus>
</clustering>
</event>
<event>
 6    0  0.2117869E+002  0.1024879E+03  0.7546771E-02  0.1275150E+00
         21   -1    0    0  503  502  0.00000000000E+00  0.00000000000E+00  0.61147778421E+03  0.61147778421E+03  0.00000000000E+00 0. -1.
          2   -1    0    0  505    0 -0.00000000000E+00 -0.00000000000E+00 -0.15201821104E+04  0.15201821104E+04  0.00000000000E+00 0.  1.
         21    1    1    2  503  504  0.24527941251E+02  0.17711771876E+02  0.50735524943E+03  0.50825650599E+03  0.00000000000E+00 0. -1.
         21    1    1    2  504  501 -0.59353025928E+02 -0.36058748049E+01  0.82295097815E+02  0.10152963678E+03  0.00000000000E+00 0. -1.
         21    1    1    2  505  502 -0.66162904316E+02 -0.51066149581E+02 -0.17266314937E+03  0.19182764318E+03  0.00000000000E+00 0. -1.
          2    1    1    2  501    0  0.10098798899E+03  0.36960252510E+02 -0.13256915241E+04  0.13300461087E+04  0.00000000000E+00 0.  1.
<scales pt_clust_3="30.25437" pt_clust_4="39.50497" pt_clust_5="14000.00000" pt_clust_6="102.48790"></scales>
<clustering>
<clus scale="   30.254">  1  3  2 -1</clus>
<clus scale="   39.505">  1  4  2 -1</clus>
<clus scale="  102.488">  2  6  1 -1</clus>
<clus scale="   30.254">  1  3  2 -1</clus>
</clustering>
</event>
<event>
 6    0  0.2117869E+002  0.8775139E+02  0.7546771E-02  0.1308390E+00
         21   -1    0    0  501  502  0.00000000000E+00  0.00000000000E+00  0.10660202674E+03  0.10660202674E+03  0.00000000000E+00 0.  1.
          2   -1    0    0  503    0 -0.00000000000E+00 -0.00000000000E+00 -0.11539580231E+04  0.11539580231E+04  0.00000000000E+00 0. -1.
         21    1    1    2  503  505 -0.47098661404E+02  0.68286395794E+02 -0.69301602856E+03  0.69796313054E+03  0.00000000000E+00 0. -1.
         21    1    1    2  504  502  0.26414611864E+02 -0.16979264230E+02  0.76628996401E+02  0.82813224929E+02  0.00000000000E+00 0.  1.
         21    1    1    2  505  504 -0.53304473421E+02  0.18066403693E+02 -0.25442941974E+02  0.61766537262E+02  0.00000000000E+00 0. -1.
          2    1    1    2  501    0  0.73988522961E+02 -0.69373535257E+02 -0.40552602220E+03  0.41801715707E+03  0.00000000000E+00 0. -1.
<scales pt_clust_3="14000.00000" pt_clust_4="31.40107" pt_clust_5="36.06575" pt_clust_6="87.75139"></scales>
<clustering>
<clus scale="   31.401">  1  4  2 -1</clus>
<clus scale="   36.066">  1  5  2 -1</clus>
<clus scale="   87.751">  1  6  2 -1</clus>
<clus scale="   31.401">  1  3  2 -1</clus>
</clustering>
</event>
<event>
 6    0  0.2117869E+002  0.7994639E+02  0.7546771E-02  0.1329204E+00
         21   -1    0    0  504  502  0.00000000000E+00  0.00000000000E+00  0.51516506968E+03  0.51516506968E+03  0.00000000000E+00 0.  1.
         -1   -1    0    0    0  501 -0.00000000000E+00 -0.00000000000E+00 -0.60078785744E+02  0.60078785744E+02  0.00000000000E+00 0.  1.
         21    1    1    2  503  501  0.17668369360E+02 -0.28330255094E+02  0.27054463393E+02  0.42973464126E+02  0.00000000000E+00 0.  1.
         21    1    1    2  504  503  0.68225813446E+02  0.26248212956E+02  0.23379018640E+03  0.24495220260E+03  0.00000000000E+00 0.  1.
         21    1    1    2  505  502 -0.77642274597E+02 -0.51995941168E+02  0.21045034948E+03  0.23026343674E+03  0.00000000000E+00 0.  1.
         -1    1    1    2    0  505 -0.82519082084E+01  0.54077983306E+02 -0.16208715338E+02  0.57054751953E+02  0.00000000000E+00 0.  1.
<scales pt_clust_3="33.38824" pt_clust_4="79.94639" pt_clust_5="14000.00000" pt_clust_6="34.41930"></scales>
<clustering>
<clus scale="   33.388">  2  3  1 -1</clus>
<clus scale="   34.419">  2  6  1 -1</clus>
<clus scale="   79.946">  1  4  2 -1</clus>
<clus scale="   79.946">  1  3  2 -1</clus>
</clustering>
</event>
<event>
 6    0  0.2117869E+002  0.1158371E+03  0.7546771E-02  0.1250127E+00
          1   -1    0    0  502    0 -0.00000000000E+00  0.00000000000E+00  0.67801575448E+03  0.67801575448E+03  0.00000000000E+00 0. -1.
         21   -1    0    0  504  502  0.00000000000E+00 -0.00000000000E+00 -0.54150322127E+03  0.54150322127E+03  0.00000000000E+00 0.  1.
         21    1    1    2  503  505  0.67695501033E+02  0.35533376160E+02  0.54964625430E+02  0.94161625571E+02  0.00000000000E+00 0. -1.
         21    1    1    2  504  503  0.91536060380E+01 -0.79860447568E+02 -0.50735682337E+03  0.51368514267E+03  0.00000000000E+00 0.  1.
         21    1    1    2  505  501  0.30992479935E+02  0.32176725508E+02  0.83012402239E+02  0.94270538359E+02  0.00000000000E+00 0. -1.
          1    1    1    2  501    0 -0.10784158701E+03  0.12150345900E+02  0.50589232891E+03  0.51740166915E+03  0.00000000000E+00 0. -1.
<scales pt_clust_3="35.40379" pt_clust_4="80.38333" pt_clust_5="35.40379" pt_clust_6="106.17529"></scales>
<clustering>
<clus scale="   35.404">  3  5 -1 -1</clus>
<clus scale="   80.383">  2  4  1 -1</clus>
<clus scale="  106.175">  1  6  2 -1</clus>
<clus scale="   80.383">  2  3  1 -1</clus>
</clustering>
</event>
<event>
 6    0  0.2117869E+002  0.8672255E+02  0.7546771E-02  0.1310988E+00
          2   -1    0    0  504    0 -0.00000000000E+00  0.00000000000E+00  0.15588374967E+04  0.15588374967E+04  0.00000000000E+00 0.  1.
         21   -1    0    0  503  502  0.00000000000E+00 -0.00000000000E+00 -0.28692897005E+02  0.28692897005E+02  0.00000000000E+00 0.  1.
         21    1    1    2  503  501 -0.19224541568E+02  0.93932815862E+02  0.13097304488E+03  0.16231726766E+03  0.00000000000E+00 0.  1.
         21    1    1    2  504  505  0.53715428961E+02 -0.38467481288E+02  0.60755186709E+03  0.61113367247E+03  0.00000000000E+00 0.  1.
         21    1    1    2  505  502 -0.27577329241E+01 -0.78769062327E+02  0.13532327856E+03  0.15660319279E+03  0.00000000000E+00 0.  1.
          2    1    1    2  501    0 -0.31733154469E+02  0.23303727753E+02  0.65629640912E+03  0.65747626074E+03  0.00000000000E+00 0.  1.
<scales pt_clust_3="86.72255" pt_clust_4="39.47383" pt_clust_5="14000.00000" pt_clust_6="39.37076"></scales>
<clustering>
<clus scale="   39.371">  1  6  2 -1</clus>
<clus scale="   39.474">  1  4  2 -1</clus>
<clus scale="   86.723">  1  3  2 -1</clus>
<clus scale="   86.723">  2  3  1 -1</clus>
</clustering>
</event>
<event>
 6    0  0.2117869E+002  0.1387125E+03  0.7546771E-02  0.1215072E+00
         21   -1    0    0  504  502  0.00000000000E+00  0.00000000000E+00  0.51047512216E+03  0.51047512216E+03  0.00000000000E+00 0.  1.
          1   -1    0    0  503    0 -0.00000000000E+00 -0.00000000000E+00 -0.10930348930E+04  0.10930348930E+04  0.00000000000E+00 0.  1.
         21    1    1    2  503  505 -0.14393208789E+02  0.39876773544E+02 -0.75908326072E+03  0.76026621537E+03  0.00000000000E+00 0.  1.
         21    1    1    2  504  501  0.43544474554E+02 -0.59518822855E+02  0.43268234212E+03  0.43892211237E+03  0.00000000000E+00 0.  1.
         21    1    1    2  505  502 -0.16039501637E+03  0.54563319882E+02 -0.97496022307E+02  0.19547171539E+03  0.00000000000E+00 0.  1.
          1    1    1    2  501    0  0.13124375060E+03 -0.34921270571E+02 -0.15866282991E+03  0.20884997200E+03  0.00000000000E+00 0.  1.
<scales pt_clust_3="42.39483" pt_clust_4="73.36629" pt_clust_5="14000.00000" pt_clust_6="138.71249"></scales>
<clustering>
<clus scale="   42.395">  2  3  1 -1</clus>
<clus scale="   73.366">  1  4  2 -1</clus>
<clus scale="  138.712">  2  6  1 -1</clus>
<clus scale="   73.366">  1  3  2 -1</clus>
</clustering>
</event>
<event>
 6    0  0.2117869E+002  0.6347925E+02  0.7546771E-02  0.1383785E+00
          3   -1    0    0  505    0 -0.00000000000E+00  0.00000000000E+00  0.11191535620E+04  0.11191535620E+04  0.00000000000E+00 0.  1.
         21   -1    0    0  504  502  0.00000000000E+00 -0.00000000000E+00 -0.13673905418E+04  0.13673905418E+04  0.00000000000E+00 0.  1.
         21    1    1    2  503  502 -0.28294240891E+02 -0.99690483401E+02  0.55514143902E+02  0.11756094897E+03  0.00000000000E+00 0.  1.
         21    1    1    2  504  501  0.70485481829E+01  0.62749890842E+02 -0.13332792501E+04  0.13347736848E+04  0.00000000000E+00 0.  1.
         21    1    1    2  505  503  0.16987993899E+02 -0.26002342917E+02  0.21364560638E+03  0.21589154430E+03  0.00000000000E+00 0.  1.
          3    1    1    2  501    0  0.42576988093E+01  0.62942935477E+02  0.81588252003E+03  0.81831792575E+03  0.00000000000E+00 0.  1.
<scales pt_clust_3="14000.00000" pt_clust_4="63.47925" pt_clust_5="31.05984" pt_clust_6="44.05355"></scales>
<clustering>
<clus scale="   31.060">  1  5  2 -1</clus>
<clus scale="   44.054">  1  6  2 -1</clus>
<clus scale="   63.479">  2  4  1 -1</clus>
<clus scale="   63.479">  2  3  1 -1</clus>
</clustering>
</event>
<event>
 6    0  0.2117869E+002  0.1183146E+03  0.7546771E-02  0.1245904E+00
          1   -1    0    0  502    0 -0.00000000000E+00  0.00000000000E+00  0.10818379957E+04  0.10818379957E+04  0.00000000000E+00 0. -1.
         21   -1    0    0  503  502  0.00000000000E+00 -0.00000000000E+00 -0.53837425125E+02  0.53837425125E+02  0.00000000000E+00 0. -1.
         21    1    1    2  503  504 -0.54920248836E+02  0.37262398808E+02 -0.93031761249E+01  0.67016932063E+02  0.00000000000E+00 0. -1.
         21    1    1    2  504  505  0.84647954588E+02 -0.62930143391E+02  0.25962062058E+03  0.28022909520E+03  0.00000000000E+00 0. -1.
         21    1    1    2  505  501  0.46822465533E+02 -0.51244013592E+01  0.26671563802E+03  0.27084282219E+03  0.00000000000E+00 0. -1.
          1    1    1    2  501    0 -0.76550171285E+02  0.30792145943E+02  0.51096748811E+03  0.51758657139E+03  0.00000000000E+00 0. -1.
<scales pt_clust_3="66.36807" pt_clust_4="45.98092" pt_clust_5="45.98092" pt_clust_6="96.24881"></scales>
<clustering>
<clus scale="   45.981">  4  5 -1 -1</clus>
<clus scale="   66.368">  2  3  1 -1</clus>
<clus scale="   96.249">  1  6  2 -1</clus>
<clus scale="   66.368">  2  3  1 -1</clus>
</clustering>
</event>
<event>
 6    0  0.2117869E+002  0.1426595E+03  0.7546771E-02  0.1209795E+00
         21   -1    0    0  504  502  0.00000000000E+00  0.00000000000E+00  0.43153360622E+03  0.43153360622E+03  0.00000000000E+00 0. -1.
          2   -1    0    0  505    0 -0.00000000000E+00 -0.00000000000E+00 -0.15066103212E+04  0.15066103212E+04  0.00000000000E+00 0.  1.
         21    1    1    2  503  502  0.11149103644E+02  0.33087964354E+02  0.23579200745E+03  0.23836314035E+03  0.00000000000E+00 0. -1.
         21    1    1    2  504  501 -0.10264137546E+03  0.77600984569E+02  0.16545554158E+03  0.20960129055E+03  0.00000000000E+00 0. -1.
         21    1    1    2  505  503  0.29705956086E+02  0.57729610084E+01 -0.55180908130E+02  0.62934120538E+02  0.00000000000E+00 0.  1.
          2    1    1    2  501    0  0.61786315726E+02 -0.11646190993E+03 -0.14211433559E+04  0.14272453760E+04  0.00000000000E+00 0.  1.
<scales pt_clust_3="34.92913" pt_clust_4="142.65946" pt_clust_5="30.26171" pt_clust_6="14000.00000"></scales>
<clustering>
<clus scale="   30.262">  2  5  1 -1</clus>
<clus scale="   34.929">  1  3  2 -1</clus>
<clus scale="  142.659">  1  4  2 -1</clus>
<clus scale="   34.929">  1  3  2 -1</clus>
</clustering>
</event>
<event>
 6    0  0.2117869E+002  0.1259013E+03  0.7546771E-02  0.1233667E+00
          2   -1    0    0  505    0 -0.00000000000E+00  0.00000000000E+00  0.27239635911E+04  0.27239635911E+04  0.00000000000E+00 0.  1.
         21   -1    0    0  504  502  0.00000000000E+00 -0.00000000000E+00 -0.48681514004E+03  0.48681514004E+03  0.00000000000E+00 0.  1.
         21    1    1    2  503  502  0.61893235794E+02  0.11592929835E+02 -0.34850834878E+03  0.35415143347E+03  0.00000000000E+00 0.  1.
         21    1    1    2  504  501  0.76123748160E+02  0.90185434114E+02  0.22116432344E+03  0.25068285845E+03  0.00000000000E+00 0.  1.
         21    1    1    2  505  503 -0.18564301992E+03 -0.20873975025E+02 -0.46992517452E+02  0.19263268252E+03  0.00000000000E+00 0.  1.
          2    1    1    2  501    0  0.47626035965E+02 -0.80904388924E+02  0.24114849939E+04  0.24133117567E+04  0.00000000000E+00 0.  1.
<scales pt_clust_3="62.96959" pt_clust_4="14000.00000" pt_clust_5="125.90128" pt_clust_6="94.02679"></scales>
<clustering>
<clus scale="   62.970">  2  3  1 -1</clus>
<clus scale="   94.027">  1  6  2 -1</clus>
<clus scale="  125.901">  2  5  1 -1</clus>
<clus scale="   62.970">  2  3  1 -1</clus>
</clustering>
</event>
<event>
 6    0  0.2117869E+002  0.7872720E+02  0.7546771E-02  0.1332703E+00
         21   -1    0    0  505  502  0.00000000000E+00  0.00000000000E+00  0.26902107226E+03  0.26902107226E+03  0.00000000000E+00 0.  1.
          1   -1    0    0  503    0 -0.00000000000E+00 -0.00000000000E+00 -0.58754105373E+03  0.58754105373E+03  0.00000000000E+00 0. -1.
         21    1    1    2  503  504  0.31487467933E+02 -0.23386137219E+02 -0.10239175505E+03  0.10964690398E+03  0.00000000000E+00 0.  1.
         21    1    1    2  504  502  0.71973404428E+02 -0.33222257044E+02  0.23690029247E+01  0.79306377315E+02  0.00000000000E+00 0.  1.
         21    1    1    2  505  501 -0.13451990207E+02  0.84015642820E+02  0.21121892218E+03  0.22771257621E+03  0.00000000000E+00 0.  1.
          1    1    1    2  501    0 -0.90008882154E+02 -0.27407248557E+02 -0.42971615153E+03  0.43989626849E+03  0.00000000000E+00 0. -1.
<scales pt_clust_3="39.22209" pt_clust_4="78.72720" pt_clust_5="14000.00000" pt_clust_6="78.39810"></scales>
<clustering>
<clus scale="   39.222">  2  3  1 -1</clus>
<clus scale="   78.398">  2  6  1 -1</clus>
<clus scale="   78.727">  2  4  1 -1</clus>
<clus scale="   78.727">  1  3  2 -1</clus>
</clustering>
</event>
<event>
 6    0  0.2117869E+002  0.1018908E+03  0.7546771E-02  0.1276369E+00
         21   -1    0    0  503  502  0.00000000000E+00  0.00000000000E+00  0.26952093654E+03  0.26952093654E+03  0.00000000000E+00 0. -1.
          1   -1    0    0  504    0 -0.00000000000E+00 -0.00000000000E+00 -0.27312670617E+04  0.27312670617E+04  0.00000000000E+00 0.  1.
         21    1    1    2  503  501 -0.58988857696E+02  0.19048423294E+02  0.27145091069E+01  0.62047532763E+02  0.00000000000E+00 0.  1.
         21    1    1    2  504  505 -0.30156978709E+02  0.26081176983E+02 -0.23714813462E+03  0.24047642070E+03  0.00000000000E+00 0.  1.
         21    1    1    2  505  502  0.75792211078E+02 -0.11982942899E+03  0.21348898389E+03  0.25628323697E+03  0.00000000000E+00 0. -1.
          1    1    1    2  501    0  0.13353625328E+02  0.74699828711E+02 -0.24408014835E+04  0.24419808078E+04  0.00000000000E+00 0.  1.
<scales pt_clust_3="62.42537" pt_clust_4="39.87068" pt_clust_5="14000.00000" pt_clust_6="101.89075"></scales>
<clustering>
<clus scale="   39.871">  2  4  1 -1</clus>
<clus scale="   62.425">  1  3  2 -1</clus>
<clus scale="  101.891">  2  6  1 -1</clus>
<clus scale="   62.425">  1  3  2 -1</clus>
</clustering>
</event>
<event>
 6    0  0.2117869E+002  0.8431507E+02  0.7546771E-02  0.1317233E+00
         21   -1    0    0  503  502  0.00000000000E+00  0.00000000000E+00  0.59237492493E+03  0.59237492493E+03  0.00000000000E+00 0. -1.
          4   -1    0    0  505    0 -0.00000000000E+00 -0.00000000000E+00 -0.94737275229E+02  0.94737275229E+02  0.00000000000E+00 0.  1.
         21    1    1    2  503  501 -0.71624731772E+02  0.32121098001E+02  0.26623027545E+03  0.27756157281E+03  0.00000000000E+00 0. -1.
         21    1    1    2  504  502  0.99299653420E+02  0.45037973201E+01  0.26919685662E+03  0.28696280765E+03  0.00000000000E+00 0. -1.
         21    1    1    2  505  504  0.30863292462E+02  0.80990793386E+01  0.11538024174E+02  0.33930280128E+02  0.00000000000E+00 0.  1.
          4    1    1    2  501    0 -0.58538214111E+02 -0.44723974659E+02 -0.49327506540E+02  0.88657539567E+02  0.00000000000E+00 0.  1.
<scales pt_clust_3="14000.00000" pt_clust_4="84.31507" pt_clust_5="31.90827" pt_clust_6="50.38822"></scales>
<clustering>
<clus scale="   31.908">  2  5  1 -1</clus>
<clus scale="   50.388">  2  6  1 -1</clus>
<clus scale="   84.315">  2  4  1 -1</clus>
<clus scale="   84.315">  1  3  2 -1</clus>
</clustering>
</event>
<event>
 6    0  0.2117869E+002  0.1278456E+03  0.7546771E-02  0.1230688E+00
         -3   -1    0    0    0  501 -0.00000000000E+00  0.00000000000E+00  0.50581801035E+03  0.50581801035E+03  0.00000000000E+00 0.  1.
         21   -1    0    0  505  502  0.00000000000E+00 -0.00000000000E+00 -0.38337551626E+03  0.38337551626E+03  0.00000000000E+00 0. -1.
         21    1    1    2  503  502  0.88929305734E+01 -0.49542925300E+02 -0.24146980929E+03  0.24666020040E+03  0.00000000000E+00 0. -1.
         21    1    1    2  504  501  0.26934813000E+02 -0.39156496138E+02  0.24665630386E+03  0.25119324747E+03  0.00000000000E+00 0.  1.
         21    1    1    2  505  504 -0.13657976715E+03  0.19780410814E+02 -0.79891130767E+02  0.15946124991E+03  0.00000000000E+00 0. -1.
         -3    1    1    2    0  503  0.10075202358E+03  0.68919010625E+02  0.19714713029E+03  0.23187882883E+03  0.00000000000E+00 0.  1.
<scales pt_clust_3="50.77254" pt_clust_4="47.52594" pt_clust_5="127.84565" pt_clust_6="14000.00000"></scales>
<clustering>
<clus scale="   47.526">  1  4  2 -1</clus>
<clus scale="   50.773">  2  3  1 -1</clus>
<clus scale="  127.846">  2  5  1 -1</clus>
<clus scale="   50.773">  2  3  1 -1</clus>
</clustering>
</event>
<event>
 6    0  0.2117869E+002  0.9664025E+02  0.7546771E-02  0.1287524E+00
         -1   -1    0    0    0  501 -0.00000000000E+00  0.00000000000E+00  0.53551803102E+03  0.53551803102E+03  0.00000000000E+00 0. -1.
         21   -1    0    0  505  502  0.00000000000E+00 -0.00000000000E+00 -0.46567934983E+03  0.46567934983E+03  0.00000000000E+00 0.  1.
         21    1    1    2  503  501  0.82445538187E+02  0.87894881623E+02  0.44123553430E+02  0.12833419244E+03  0.00000000000E+00 0.  1.
         21    1    1    2  504  503  0.27321459610E+02 -0.74661594635E+02 -0.20443357881E+03  0.21934881813E+03  0.00000000000E+00 0.  1.
         21    1    1    2  505  504 -0.22180561767E+02 -0.29643195526E+02 -0.20551885865E+03  0.20882695617E+03  0.00000000000E+00 0.  1.
         -1    1    1    2    0  502 -0.87586436030E+02  0.16409908538E+02  0.43566756523E+03  0.44468741411E+03  0.00000000000E+00 0. -1.
<scales pt_clust_3="96.64025" pt_clust_4="14000.00000" pt_clust_5="37.02292" pt_clust_6="89.39742"></scales>
<clustering>
<clus scale="   37.023">  2  5  1 -1</clus>
<clus scale="   89.397">  1  6  2 -1</clus>
<clus scale="   96.640">  1  3  2 -1</clus>
<clus scale="   37.023">  2  3  1 -1</clus>
</clustering>
</event>
<event>
 6    0  0.2117869E+002  0.1187831E+03  0.7546771E-02  0.1245118E+00
          1   -1    0    0  505    0 -0.00000000000E+00  0.00000000000E+00  0.24463148342E+04  0.24463148342E+04  0.00000000000E+00 0. -1.
         21   -1    0    0  503  502  0.00000000000E+00 -0.00000000000E+00 -0.14977973136E+03  0.14977973136E+03  0.00000000000E+00 0.  1.
         21    1    1    2  503  504 -0.42263562056E+02 -0.11311853304E+03 -0.11793998629E+03  0.16879529484E+03  0.00000000000E+00 0.  1.
         21    1    1    2  504  501  0.45358918129E+02  0.53232933011E+02  0.68071985873E+03  0.68430307808E+03  0.00000000000E+00 0. -1.
         21    1    1    2  505  502  0.39220132590E+02 -0.12280787385E+02  0.11574765836E+03  0.12282734613E+03  0.00000000000E+00 0.  1.
          1    1    1    2  501    0 -0.42315488663E+02  0.72166387416E+02  0.16180075721E+04  0.16201688465E+04  0.00000000000E+00 0. -1.
<scales pt_clust_3="14000.00000" pt_clust_4="118.78308" pt_clust_5="41.09789" pt_clust_6="65.37229"></scales>
<clustering>
<clus scale="   41.098">  1  5  2 -1</clus>
<clus scale="   65.372">  1  6  2 -1</clus>
<clus scale="  118.783">  1  4  2 -1</clus>
<clus scale="  118.783">  2  3  1 -1</clus>
</clustering>
</event>
<event>
 6    0  0.2117869E+002  0.1234183E+03  0.7546771E-02  0.1237562E+00
          1   -1    0    0  504    0 -0.00000000000E+00  0.00000000000E+00  0.66906443485E+03  0.66906443485E+03  0.00000000000E+00 0.  1.
         21   -1    0    0  505  502  0.00000000000E+00 -0.00000000000E+00 -0.65520968981E+03  0.65520968981E+03  0.00000000000E+00 0.  1.
         21    1    1    2  503  501  0.69320872566E+02 -0.52456353978E+02 -0.10727916080E+03  0.13807921924E+03  0.00000000000E+00 0. -1.
         21    1    1    2  504  502 -0.62018080119E+01  0.37470638514E+02  0.42499322729E+02  0.56997399991E+02  0.00000000000E+00 0.  1.
         21    1    1    2  505  503 -0.14146789370E+03  0.53230287892E+02 -0.51113652027E+03  0.53301704556E+03  0.00000000000E+00 0.  1.
          1    1    1    2  501    0  0.78348829142E+02 -0.38244572428E+02  0.58977110338E+03  0.59618045987E+03  0.00000000000E+00 0.  1.
<scales pt_clust_3="123.41826" pt_clust_4="37.98041" pt_clust_5="14000.00000" pt_clust_6="72.44949"></scales>
<clustering>
<clus scale="   37.980">  1  4  2 -1</clus>
<clus scale="   72.449">  1  6  2 -1</clus>
<clus scale="  123.418">  1  3  2 -1</clus>
<clus scale="  123.418">  2  3  1 -1</clus>
</clustering>
</event>
<event>
 6    0  0.2117869E+002  0.7562961E+02  0.7546771E-02  0.1341932E+00
         -4   -1    0    0    0  501 -0.00000000000E+00  0.00000000000E+00  0.29909291298E+03  0.29909291298E+03  0.00000000000E+00 0.  1.
         21   -1    0    0  505  502  0.00000000000E+00 -0.00000000000E+00 -0.23202710817E+03  0.23202710817E+03  0.00000000000E+00 0.  1.
         21    1    1    2  503  502 -0.50249793017E+02 -0.65867121289E+02 -0.14261359894E+03  0.16493076720E+03  0.00000000000E+00 0.  1.
         21    1    1    2  504  501 -0.64769227090E+02  0.17983136542E+02  0.35413164891E+02  0.75977221753E+02  0.00000000000E+00 0. -1.
         21    1    1    2  505  504 -0.11366362319E+02  0.29237350326E+02 -0.33763251033E+02  0.46086592050E+02  0.00000000000E+00 0.  1.
         -4    1    1    2    0  503  0.12638538243E+03  0.18646634421E+02  0.20802948989E+03  0.24412544015E+03  0.00000000000E+00 0.  1.
<scales pt_clust_3="14000.00000" pt_clust_4="69.25237" pt_clust_5="31.36904" pt_clust_6="75.62961"></scales>
<clustering>
<clus scale="   31.369">  2  5  1 -1</clus>
<clus scale="   69.252">  1  4  2 -1</clus>
<clus scale="   75.630">  1  6  2 -1</clus>
<clus scale="   31.369">  2  3  1 -1</clus>
</clustering>
</event>
<event>
 6    0  0.2117869E+002  0.1162230E+03  0.7546771E-02  0.1249461E+00
         21   -1    0    0  505  502  0.00000000000E+00  0.00000000000E+00  0.10319741451E+03  0.10319741451E+03  0.00000000000E+00 0.  1.
          2   -1    0    0  503    0 -0.00000000000E+00 -0.00000000000E+00 -0.81376086455E+03  0.81376086455E+03  0.00000000000E+00 0. -1.
         21    1    1    2  503  502  0.34746038024E+02  0.25129354234E+02 -0.22857867812E+03  0.23256608457E+03  0.00000000000E+00 0. -1.
         21    1    1    2  504  501  0.34407489573E+02 -0.89994109480E+02 -0.81306664432E+02  0.12606977735E+03  0.00000000000E+00 0. -1.
         21    1    1    2  505  504 -0.37163397044E+02  0.12071652590E+03  0.24192971901E+02  0.12860364534E+03  0.00000000000E+00 0.  1.
          2    1    1    2  501    0 -0.31990130553E+02 -0.55851770658E+02 -0.42487107938E+03  0.42971877180E+03  0.00000000000E+00 0. -1.
<scales pt_clust_3="42.88090" pt_clust_4="14000.00000" pt_clust_5="116.22295" pt_clust_6="38.00537"></scales>
<clustering>
<clus scale="   42.881">  2  3  1 -1</clus>
<clus scale="   38.005">  2  6  1 -1</clus>
<clus scale="  116.223">  1  5  2 -1</clus>
<clus scale="  116.223">  1  3  2 -1</clus>
</clustering>
</event>
<event>
 6    0  0.2117869E+002  0.1235568E+03  0.7546771E-02  0.1237342E+00
          3   -1    0    0  505    0 -0.00000000000E+00  0.00000000000E+00  0.10404779283E+04  0.10404779283E+04  0.00000000000E+00 0.  1.
         21   -1    0    0  504  502  0.00000000000E+00 -0.00000000000E+00 -0.99048227230E+02  0.99048227230E+02  0.00000000000E+00 0.  1.
         21    1    1    2  503  502 -0.34895520577E+02 -0.23497997342E+02  0.71182026780E+01  0.42667576036E+02  0.00000000000E+00 0.  1.
         21    1    1    2  504  501 -0.10784403627E+01  0.53999293043E+02 -0.54181983999E+02  0.76503425236E+02  0.00000000000E+00 0.  1.
         21    1    1    2  505  503 -0.10215391970E+03 -0.49579639898E+02  0.44637544464E+03  0.46059157784E+03  0.00000000000E+00 0.  1.
          3    1    1    2  501    0  0.13812788064E+03  0.19078344197E+02  0.54211803777E+03  0.55976357644E+03  0.00000000000E+00 0.  1.
<scales pt_clust_3="42.06962" pt_clust_4="45.62132" pt_clust_5="123.55675" pt_clust_6="14000.00000"></scales>
<clustering>
<clus scale="   42.070">  2  3  1 -1</clus>
<clus scale="   45.621">  2  4  1 -1</clus>
<clus scale="  123.557">  1  5  2 -1</clus>
<clus scale="   42.070">  2  3  1 -1</clus>
</clustering>
</event>
<event>
 6    0  0.2117869E+002  0.8937396E+02  0.7546771E-02  0.1304375E+00
          2   -1    0    0  503    0 -0.00000000000E+00  0.00000000000E+00  0.26210089503E+03  0.26210089503E+03  0.00000000000E+00 0.  1.
         21   -1    0    0  504  502  0.00000000000E+00 -0.00000000000E+00 -0.26893920840E+03  0.26893920840E+03  0.00000000000E+00 0.  1.
         21    1    1    2  503  505 -0.10594924531E+02  0.57154761584E+02  0.68428884094E+01  0.58529858357E+02  0.00000000000E+00 0.  1.
         21    1    1    2  504  501  0.58162082371E+02 -0.11878701752E+03 -0.10419204180E+03  0.16837210260E+03  0.00000000000E+00 0.  1.
         21    1    1    2  505  502 -0.14514151661E+02  0.29054062354E+02 -0.10151497032E+03  0.10658371516E+03  0.00000000000E+00 0.  1.
          2    1    1    2  501    0 -0.33053006178E+02  0.32578193585E+02  0.19202581034E+03  0.19755442732E+03  0.00000000000E+00 0.  1.
<scales pt_clust_3="89.37396" pt_clust_4="14000.00000" pt_clust_5="32.47767" pt_clust_6="46.92502"></scales>
<clustering>
<clus scale="   32.478">  2  5  1 -1</clus>
<clus scale="   46.925">  1  6  2 -1</clus>
<clus scale="   89.374">  1  3  2 -1</clus>
<clus scale="   32.478">  2  3  1 -1</clus>
</clustering>
</event>
<event>
 6    0  0.2117869E+002  0.1036289E+03  0.7546771E-02  0.1272845E+00
         21   -1    0    0  503  502  0.00000000000E+00  0.00000000000E+00  0.32469620121E+03  0.32469620121E+03  0.00000000000E+00 0. -1.
          1   -1    0    0  505    0 -0.00000000000E+00 -0.00000000000E+00 -0.16809950272E+04  0.16809950272E+04  0.00000000000E+00 0.  1.
         21    1    1    2  503  501 -0.92108600410E+01  0.78774961473E+02  0.25128459251E+03  0.26350385373E+03  0.00000000000E+00 0. -1.
         21    1    1    2  504  502  0.41854680463E+02  0.20255631396E+02  0.55422687541E+02  0.72344862804E+02  0.00000000000E+00 0. -1.
         21    1    1    2  505  504 -0.48260651858E+02  0.18229230427E+01 -0.46729385713E+03  0.46978288866E+03  0.00000000000E+00 0.  1.
          1    1    1    2  501    0  0.15616831436E+02 -0.10085351591E+03 -0.11957122489E+04  0.12000596232E+04  0.00000000000E+00 0.  1.
<scales pt_clust_3="103.62891" pt_clust_4="46.49844" pt_clust_5="48.09925" pt_clust_6="14000.00000"></scales>
<clustering>
<clus scale="   46.498">  1  4  2 -1</clus>
<clus scale="   48.099">  2  5  1 -1</clus>
<clus scale="  103.629">  1  3  2 -1</clus>
<clus scale="   46.498">  1  3  2 -1</clus>
</clustering>
</event>
<event>
 6    0  0.2117869E+002  0.1488377E+03  0.7546771E-02  0.1201908E+00
         -3   -1    0    0    0  501 -0.00000000000E+00  0.00000000000E+00  0.10070233704E+04  0.10070233704E+04  0.00000000000E+00 0. -1.
         21   -1    0    0  504  502  0.00000000000E+00 -0.00000000000E+00 -0.12594249004E+04  0.12594249004E+04  0.00000000000E+00 0.  1.
         21    1    1    2  503  502  0.10846373383E+02 -0.89961058358E+02 -0.93715111872E+03  0.94152156383E+03  0.00000000000E+00 0.  1.
         21    1    1    2  504  501 -0.37393660461E+02  0.37591122328E+01  0.23021819217E+03  0.23326558420E+03  0.00000000000E+00 0. -1.
         21    1    1    2  505  503 -0.39423667204E+00 -0.52905237465E+02 -0.30981118997E+03  0.31429618675E+03  0.00000000000E+00 0. -1.
         -3    1    1    2    0  505  0.26941523750E+02  0.13910718359E+03  0.76434258651E+03  0.77736493604E+03  0.00000000000E+00 0. -1.
<scales pt_clust_3="30.97463" pt_clust_4="37.58213" pt_clust_5="30.97463" pt_clust_6="143.21129"></scales>
<clustering>
<clus scale="   30.975">  3  5 -1 -1</clus>
<clus scale="   37.582">  1  4  2 -1</clus>
<clus scale="  143.211">  1  6  2 -1</clus>
<clus scale="  148.838">  2  3  1 -1</clus>
</clustering>
</event>
<event>
 6    0  0.2117869E+002  0.9577916E+02  0.7546771E-02  0.1289431E+00
          2   -1    0    0  503    0 -0.00000000000E+00  0.00000000000E+00  0.16840418285E+04  0.16840418285E+04  0.00000000000E+00 0.  1.
         21   -1    0    0  505  502  0.00000000000E+00 -0.00000000000E+00 -0.78658298401E+02  0.78658298401E+02  0.00000000000E+00 0.  1.
         21    1    1    2  503  504  0.30582896754E+02  0.15956537909E+02  0.48335301638E+03  0.48458235948E+03  0.00000000000E+00 0.  1.
         21    1    1    2  504  502  0.47858195034E+02 -0.74583218013E+02 -0.39330335253E+02  0.96953280049E+02  0.00000000000E+00 0.  1.
         21    1    1    2  505  501 -0.28130227198E+02 -0.20185692398E+02  0.29610353825E+02  0.45558148705E+02  0.00000000000E+00 0.  1.
          2    1    1    2  501    0 -0.50310864590E+02  0.78812372502E+02  0.11317504952E+04  0.11356063387E+04  0.00000000000E+00 0.  1.
<scales pt_clust_3="34.49528" pt_clust_4="95.77916" pt_clust_5="33.55410" pt_clust_6="14000.00000"></scales>
<clustering>
<clus scale="   34.495">  1  3  2 -1</clus>
<clus scale="   33.554">  2  5  1 -1</clus>
<clus scale="   95.779">  2  4  1 -1</clus>
<clus scale="   33.554">  2  3  1 -1</clus>
</clustering>
</event>
<event>
 6    0  0.2117869E+002  0.1157438E+03  0.7546771E-02  0.1250288E+00
         21   -1    0    0  503  502  0.00000000000E+00  0.00000000000E+00  0.26171815499E+02  0.26171815499E+02  0.00000000000E+00 0.  1.
          1   -1    0    0  505    0 -0.00000000000E+00 -0.00000000000E+00 -0.94760475195E+03  0.94760475195E+03  0.00000000000E+00 0. -1.
         21    1    1    2  503  501  0.33054371356E+02  0.19694949880E+02 -0.16790159316E+03  0.17225396223E+03  0.00000000000E+00 0. -1.
         21    1    1    2  504  502 -0.49933323469E+02  0.88205281037E+01 -0.38935026533E+02  0.63930233848E+02  0.00000000000E+00 0.  1.
         21    1    1    2  505  504 -0.75446779268E+02  0.14507662388E+02 -0.23291472605E+03  0.24525896187E+03  0.00000000000E+00 0.  1.
          1    1    1    2  501    0  0.92325731381E+02 -0.43023140372E+02 -0.48168159071E+03  0.49233340950E+03  0.00000000000E+00 0. -1.
<scales pt_clust_3="36.11977" pt_clust_4="50.70640" pt_clust_5="99.71424" pt_clust_6="36.11977"></scales>
<clustering>
<clus scale="   36.120">  3  6 -1 -1</clus>
<clus scale="   50.706">  1  4  2 -1</clus>
<clus scale="   99.714">  2  5  1 -1</clus>
<clus scale="   50.706">  1  3  2 -1</clus>
</clustering>
</event>
<event>
 6    0  0.2117869E+002  0.1279571E+03  0.7546771E-02  0.1230519E+00
          1   -1    0    0  504    0 -0.00000000000E+00  0.00000000000E+00  0.14306542362E+04  0.14306542362E+04  0.00000000000E+00 0.  1.
         21   -1    0    0  505  502  0.00000000000E+00 -0.00000000000E+00 -0.12515362312E+03  0.12515362312E+03  0.00000000000E+00 0. -1.
         21    1    1    2  503  502  0.56158545471E+01 -0.30866920678E+02 -0.80450936771E+02  0.86351941737E+02  0.00000000000E+00 0. -1.
         21    1    1    2  504  503 -0.32060929491E+02  0.57858838800E+02  0.28117616366E+03  0.28885218268E+03  0.00000000000E+00 0. -1.
         21    1    1    2  505  501  0.86197747576E+02 -0.72448926153E+02  0.50072623398E+02  0.12323216383E+03  0.00000000000E+00 0. -1.
          1    1    1    2  501    0 -0.59752672632E+02  0.45457008031E+02  0.10547027628E+04  0.10573715711E+04  0.00000000000E+00 0.  1.
<scales pt_clust_3="31.37363" pt_clust_4="63.42261" pt_clust_5="127.95706" pt_clust_6="14000.00000"></scales>
<clustering>
<clus scale="   31.374">  2  3  1 -1</clus>
<clus scale="   63.423">  1  4  2 -1</clus>
<clus scale="  127.957">  2  5  1 -1</clus>
<clus scale="   31.374">  2  3  1 -1</clus>
</clustering>
</event>
<event>
 6    0  0.2117869E+002  0.1302662E+03  0.7546771E-02  0.1227061E+00
          1   -1    0    0  503    0 -0.00000000000E+00  0.00000000000E+00  0.93430836739E+03  0.93430836739E+03  0.00000000000E+00 0.  1.
         21   -1    0    0  504  502  0.00000000000E+00 -0.00000000000E+00 -0.10348015836E+03  0.10348015836E+03  0.00000000000E+00 0. -1.
         21    1    1    2  503  505 -0.41785293090E+02 -0.12284492658E+01  0.34420647874E+03  0.34673566273E+03  0.00000000000E+00 0. -1.
         21    1    1    2  504  501  0.89569437412E+02 -0.63757618223E+02 -0.59283753498E+01  0.11010387656E+03  0.00000000000E+00 0. -1.
         21    1    1    2  505  502  0.37712853167E+01 -0.37652570524E+02 -0.28510455365E+02  0.47379159186E+02  0.00000000000E+00 0. -1.
          1    1    1    2  501    0 -0.51555429638E+02  0.10263863801E+03  0.52106056100E+03  0.53356982727E+03  0.00000000000E+00 0.  1.
<scales pt_clust_3="41.75831" pt_clust_4="14000.00000" pt_clust_5="37.84097" pt_clust_6="130.26624"></scales>
<clustering>
<clus scale="   37.841">  2  5  1 -1</clus>
<clus scale="   41.758">  1  3  2 -1</clus>
<clus scale="  130.266">  1  6  2 -1</clus>
<clus scale="   37.841">  2  3  1 -1</clus>
</clustering>
</event>
<event>
 6    0  0.2117869E+002  0.1922510E+03  0.7546771E-02  0.1156447E+00
         21   -1    0    0  503  502  0.00000000000E+00  0.00000000000E+00  0.45023588444E+03  0.45023588444E+03  0.00000000000E+00 0. -1.
          4   -1    0    0  505    0 -0.00000000000E+00 -0.00000000000E+00 -0.14519781669E+04  0.14519781669E+04  0.00000000000E+00 0.  1.
         21    1    1    2  503  501  0.59786707087E+02 -0.54874103679E+02  0.15417087353E+03  0.17422478539E+03  0.00000000000E+00 0. -1.
         21    1    1    2  504  502 -0.22530271007E+03 -0.41945309426E+02  0.22433137438E+03  0.32069500414E+03  0.00000000000E+00 0. -1.
         21    1    1    2  505  504 -0.10874249755E+02  0.56070715448E+02 -0.10742582080E+03  0.12166544872E+03  0.00000000000E+00 0.  1.
          4    1    1    2  501    0  0.17639025274E+03  0.40748697657E+02 -0.12728187096E+04  0.12856288131E+04  0.00000000000E+00 0.  1.
<scales pt_clust_3="80.80791" pt_clust_4="14000.00000" pt_clust_5="57.11545" pt_clust_6="192.25097"></scales>
<clustering>
<clus scale="   57.115">  2  5  1 -1</clus>
<clus scale="   80.808">  1  3  2 -1</clus>
<clus scale="  192.251">  2  6  1 -1</clus>
<clus scale="   80.808">  1  3  2 -1</clus>
</clustering>
</event>
<event>
 6    0  0.2117869E+002  0.7853984E+02  0.7546771E-02  0.1333247E+00
          1   -1    0    0  503    0 -0.00000000000E+00  0.00000000000E+00  0.36274456547E+03  0.36274456547E+03  0.00000000000E+00 0.  1.
         21   -1    0    0  504  502  0.00000000000E+00 -0.00000000000E+00 -0.47556629592E+03  0.47556629592E+03  0.00000000000E+00 0.  1.
         21    1    1    2  503  502 -0.14610331103E+02 -0.28292698081E+02  0.72438442944E+01  0.32655961475E+02  0.00000000000E+00 0. -1.
         21    1    1    2  504  505 -0.40910904241E+02  0.11778527980E+02 -0.14450991077E+03  0.15065042356E+03  0.00000000000E+00 0. -1.
         21    1    1    2  505  501 -0.14824621272E+02 -0.67790885373E+02 -0.30237420325E+03  0.31023464075E+03  0.00000000000E+00 0.  1.
          1    1    1    2  501    0  0.70345856617E+02  0.84305055474E+02  0.32681853928E+03  0.34476983560E+03  0.00000000000E+00 0.  1.
<scales pt_clust_3="31.84240" pt_clust_4="42.62927" pt_clust_5="78.53984" pt_clust_6="14000.00000"></scales>
<clustering>
<clus scale="   31.842">  1  3  2 -1</clus>
<clus scale="   42.629">  2  4  1 -1</clus>
<clus scale="   78.540">  2  5  1 -1</clus>
<clus scale="   42.629">  2  3  1 -1</clus>
</clustering>
</event>
<event>
 6    0  0.2117869E+002  0.9457362E+02  0.7546771E-02  0.1292139E+00
         21   -1    0    0  504  502  0.00000000000E+00  0.00000000000E+00  0.21003706714E+03  0.21003706714E+03  0.00000000000E+00 0.  1.
          2   -1    0    0  505    0 -0.00000000000E+00 -0.00000000000E+00 -0.88280925046E+03  0.88280925046E+03  0.00000000000E+00 0. -1.
         21    1    1    2  503  502  0.33322866218E+02  0.42378275796E+02  0.29074740183E+02  0.61250895415E+02  0.00000000000E+00 0.  1.
         21    1    1    2  504  501  0.87309087670E+01  0.48192623427E+02  0.15121168921E+03  0.15894569096E+03  0.00000000000E+00 0.  1.
         21    1    1    2  505  503 -0.72487001936E+01  0.42598835833E+02 -0.14352637547E+03  0.14989004278E+03  0.00000000000E+00 0.  1.
          2    1    1    2  501    0 -0.34805074792E+02 -0.13316973506E+03 -0.70953223724E+03  0.72275968845E+03  0.00000000000E+00 0. -1.
<scales pt_clust_3="14000.00000" pt_clust_4="49.19059" pt_clust_5="43.21116" pt_clust_6="94.57362"></scales>
<clustering>
<clus scale="   43.211">  2  5  1 -1</clus>
<clus scale="   49.191">  1  4  2 -1</clus>
<clus scale="   94.574">  2  6  1 -1</clus>
<clus scale="   49.191">  1  3  2 -1</clus>
</clustering>
</event>
<event>
 6    0  0.2117869E+002  0.9939937E+02  0.7546771E-02  0.1281564E+00
         21   -1    0    0  503  502  0.00000000000E+00  0.00000000000E+00  0.25631393957E+03  0.25631393957E+03  0.00000000000E+00 0. -1.
          1   -1    0    0  505    0 -0.00000000000E+00 -0.00000000000E+00 -0.76925782270E+03  0.76925782270E+03  0.00000000000E+00 0.  1.
         21    1    1    2  503  504 -0.43984463360E+00 -0.31650080618E+02  0.16378575613E+03  0.16681635105E+03  0.00000000000E+00 0. -1.
         21    1    1    2  504  501 -0.23781335814E+02 -0.70491607019E+02 -0.14109633849E+03  0.15950797888E+03  0.00000000000E+00 0. -1.
         21    1    1    2  505  502  0.28528432714E+02 -0.14301892444E+02  0.72941855609E+02  0.79617396970E+02  0.00000000000E+00 0. -1.
          1    1    1    2  501    0 -0.43072522658E+01  0.11644358008E+03 -0.60857515638E+03  0.61963003537E+03  0.00000000000E+00 0.  1.
<scales pt_clust_3="31.65314" pt_clust_4="14000.00000" pt_clust_5="49.59772" pt_clust_6="99.39937"></scales>
<clustering>
<clus scale="   31.653">  1  3  2 -1</clus>
<clus scale="   49.598">  1  5  2 -1</clus>
<clus scale="   99.399">  2  6  1 -1</clus>
<clus scale="   31.653">  1  3  2 -1</clus>
</clustering>
</event>
<event>
 6    0  0.2117869E+002  0.6104123E+02  0.7546771E-02  0.1393513E+00
          2   -1    0    0  504    0 -0.00000000000E+00  0.00000000000E+00  0.29215153317E+03  0.29215153317E+03  0.00000000000E+00 0. -1.
         21   -1    0    0  505  502  0.00000000000E+00 -0.00000000000E+00 -0.17269116825E+03  0.17269116825E+03  0.00000000000E+00 0.  1.
         21    1    1    2  503  502 -0.38823763979E+02 -0.71449894717E+02 -0.80749932269E+02  0.11459896887E+03  0.00000000000E+00 0.  1.
         21    1    1    2  504  503  0.32647592710E+01 -0.49620980796E+02  0.67094346211E+02  0.83513781388E+02  0.00000000000E+00 0. -1.
         21    1    1    2  505  501 -0.84358997759E+01  0.41705712391E+02 -0.48005188288E+02  0.64148491437E+02  0.00000000000E+00 0.  1.
          2    1    1    2  501    0  0.43994904484E+02  0.79365163123E+02  0.18112113926E+03  0.20258145973E+03  0.00000000000E+00 0. -1.
<scales pt_clust_3="61.04123" pt_clust_4="46.76121" pt_clust_5="42.55033" pt_clust_6="14000.00000"></scales>
<clustering>
<clus scale="   42.550">  2  5  1 -1</clus>
<clus scale="   46.761">  1  4  2 -1</clus>
<clus scale="   61.041">  2  3  1 -1</clus>
<clus scale="   42.550">  2  3  1 -1</clus>
</clustering>
</event>
<event>
 6    0  0.2117869E+002  0.1076826E+03  0.7546771E-02  0.1264923E+00
         21   -1    0    0  505  502  0.00000000000E+00  0.00000000000E+00  0.49824389438E+03  0.49824389438E+03  0.00000000000E+00 0. -1.
          2   -1    0    0  503    0 -0.00000000000E+00 -0.00000000000E+00 -0.69139907355E+03  0.69139907355E+03  0.00000000000E+00 0. -1.
         21    1    1    2  503  504  0.16507686148E+02 -0.31318926695E+02 -0.57665079418E+03  0.57773654662E+03  0.00000000000E+00 0. -1.
         21    1    1    2  504  502  0.11838709703E+02  0.10891811721E+03  0.40625119539E+03  0.42076518994E+03  0.00000000000E+00 0. -1.
         21    1    1    2  505  501 -0.35660966679E+02  0.14025582827E+00  0.64714440798E+02  0.73889668181E+02  0.00000000000E+00 0. -1.
          2    1    1    2  501    0  0.73145708274E+01 -0.77739446342E+02 -0.87470021194E+02  0.11725156320E+03  0.00000000000E+00 0. -1.
<scales pt_clust_3="35.40309" pt_clust_4="107.68256" pt_clust_5="35.01570" pt_clust_6="14000.00000"></scales>
<clustering>
<clus scale="   35.403">  2  3  1 -1</clus>
<clus scale="   35.016">  1  5  2 -1</clus>
<clus scale="  107.683">  1  4  2 -1</clus>
<clus scale="   35.016">  1  3  2 -1</clus>
</clustering>
</event>
<event>
 6    0  0.2117869E+002  0.1576107E+03  0.7546771E-02  0.1191421E+00
         21   -1    0    0  504  502  0.00000000000E+00  0.00000000000E+00  0.61313577965E+03  0.61313577965E+03  0.00000000000E+00 0. -1.
          1   -1    0    0  505    0 -0.00000000000E+00 -0.00000000000E+00 -0.25078800064E+04  0.25078800064E+04  0.00000000000E+00 0. -1.
         21    1    1    2  503  502 -0.10409768365E+02  0.28992755990E+02  0.46864506755E+03  0.46965640900E+03  0.00000000000E+00 0. -1.
         21    1    1    2  504  501 -0.22397266876E+02 -0.31562952544E+02  0.74499373202E+02  0.83952451687E+02  0.00000000000E+00 0. -1.
         21    1    1    2  505  503  0.12284955945E+03  0.13090243838E+03 -0.67424189701E+02  0.19176413634E+03  0.00000000000E+00 0. -1.
          1    1    1    2  501    0 -0.90042524205E+02 -0.12833224183E+03 -0.23704644778E+04  0.23756427890E+04  0.00000000000E+00 0. -1.
<scales pt_clust_3="30.80492" pt_clust_4="32.16669" pt_clust_5="157.61072" pt_clust_6="14000.00000"></scales>
<clustering>
<clus scale="   30.805">  1  3  2 -1</clus>
<clus scale="   32.167">  1  4  2 -1</clus>
<clus scale="  157.611">  1  5  2 -1</clus>
<clus scale="   30.805">  1  3  2 -1</clus>
</clustering>
</event>
<event>
 6    0  0.2117869E+002  0.7830812E+02  0.7546771E-02  0.1333922E+00
          2   -1    0    0  505    0 -0.00000000000E+00  0.00000000000E+00  0.74154654234E+03  0.74154654234E+03  0.00000000000E+00 0. -1.
         21   -1    0    0  504  502  0.00000000000E+00 -0.00000000000E+00 -0.48399633568E+02  0.48399633568E+02  0.00000000000E+00 0.  1.
         21    1    1    2  503  502 -0.98737023715E+02  0.78229931501E+02  0.98802871413E+02  0.16009662531E+03  0.00000000000E+00 0.  1.
         21    1    1    2  504  501  0.22194691099E+02 -0.58310671779E+02  0.62809733626E+02  0.88531358255E+02  0.00000000000E+00 0.  1.
         21    1    1    2  505  503  0.10462904974E+02 -0.31066411502E+02  0.23701701646E+03  0.23927319197E+03  0.00000000000E+00 0.  1.
          2    1    1    2  501    0  0.66079427642E+02  0.11147151780E+02  0.29451728728E+03  0.30204500038E+03  0.00000000000E+00 0. -1.
<scales pt_clust_3="78.30812" pt_clust_4="67.31596" pt_clust_5="32.78101" pt_clust_6="14000.00000"></scales>
<clustering>
<clus scale="   32.781">  1  5  2 -1</clus>
<clus scale="   67.316">  2  4  1 -1</clus>
<clus scale="   78.308">  2  3  1 -1</clus>
<clus scale="   67.316">  2  3  1 -1</clus>
</clustering>
</event>
<event>
 6    0  0.2117869E+002  0.8689714E+02  0.7546771E-02  0.1310545E+00
          2   -1    0    0  503    0 -0.00000000000E+00  0.00000000000E+00  0.16403353840E+04  0.16403353840E+04  0.00000000000E+00 0.  1.
         21   -1    0    0  504  502  0.00000000000E+00 -0.00000000000E+00 -0.11340854710E+03  0.11340854710E+03  0.00000000000E+00 0. -1.
         21    1    1    2  503  505  0.32338778384E+02 -0.40106378829E+02  0.45540250548E+03  0.45830749525E+03  0.00000000000E+00 0. -1.
         21    1    1    2  504  501  0.34333970275E+02 -0.15965961398E+02  0.56786462300E+02  0.68252734295E+02  0.00000000000E+00 0. -1.
         21    1    1    2  505  502 -0.13602235254E+01  0.98183343701E+02 -0.81857842725E+02  0.12783788798E+03  0.00000000000E+00 0. -1.
          2    1    1    2  501    0 -0.65312525133E+02 -0.42111003474E+02  0.10965957119E+04  0.10993458136E+04  0.00000000000E+00 0.  1.
<scales pt_clust_3="51.97894" pt_clust_4="37.86467" pt_clust_5="14000.00000" pt_clust_6="86.89714"></scales>
<clustering>
<clus scale="   37.865">  2  4  1 -1</clus>
<clus scale="   51.979">  1  3  2 -1</clus>
<clus scale="   86.897">  1  6  2 -1</clus>
<clus scale="   37.865">  2  3  1 -1</clus>
</clustering>
</event>
<event>
 6    0  0.2117869E+002  0.6979363E+02  0.7546771E-02  0.1360796E+00
         21   -1    0    0  501  502  0.00000000000E+00  0.00000000000E+00  0.10564811564E+03  0.10564811564E+03  0.00000000000E+00 0.  1.
          1   -1    0    0  504    0 -0.00000000000E+00 -0.00000000000E+00 -0.54329627258E+03  0.54329627258E+03  0.00000000000E+00 0.  1.
         21    1    1    2  503  502  0.10279284392E+02  0.37467863501E+02  0.21949612807E+02  0.44623872370E+02  0.00000000000E+00 0.  1.
         21    1    1    2  504  505  0.33254723448E+02  0.14084702633E+01 -0.11859846926E+03  0.12318058829E+03  0.00000000000E+00 0.  1.
         21    1    1    2  505  503  0.41585599767E+01 -0.10218777348E+03  0.26124811369E+02  0.10555633775E+03  0.00000000000E+00 0.  1.
          1    1    1    2  501    0 -0.47692567817E+02  0.63311439716E+02 -0.36712411186E+03  0.37558358981E+03  0.00000000000E+00 0.  1.
<scales pt_clust_3="39.13419" pt_clust_4="33.28454" pt_clust_5="14000.00000" pt_clust_6="69.79363"></scales>
<clustering>
<clus scale="   33.285">  2  4  1 -1</clus>
<clus scale="   39.134">  1  3  2 -1</clus>
<clus scale="   69.794">  2  6  1 -1</clus>
<clus scale="   39.134">  1  3  2 -1</clus>
</clustering>
</event>
<event>
 6    0  0.2117869E+002  0.1348720E+03  0.7546771E-02  0.1220401E+00
          1   -1    0    0  504    0 -0.00000000000E+00  0.00000000000E+00  0.76624717072E+02  0.76624717072E+02  0.00000000000E+00 0. -1.
         21   -1    0    0  505  502  0.00000000000E+00 -0.00000000000E+00 -0.12213754286E+04  0.12213754286E+04  0.00000000000E+00 0.  1.
         21    1    1    2  503  502 -0.22323343385E+01  0.47956124167E+02 -0.16254268073E+03  0.16948420640E+03  0.00000000000E+00 0.  1.
         21    1    1    2  504  503 -0.29892357730E+02  0.10522028378E+03 -0.13817033674E+03  0.17622685132E+03  0.00000000000E+00 0.  1.
         21    1    1    2  505  501 -0.63318685051E+01 -0.11091651049E+03 -0.87854336331E+03  0.88553995171E+03  0.00000000000E+00 0.  1.
          1    1    1    2  501    0  0.38456560573E+02 -0.42259897459E+02  0.34505669223E+02  0.66749136271E+02  0.00000000000E+00 0. -1.
<scales pt_clust_3="44.89721" pt_clust_4="44.89721" pt_clust_5="116.60890" pt_clust_6="57.13848"></scales>
<clustering>
<clus scale="   44.897">  3  4 -1 -1</clus>
<clus scale="   57.138">  1  6  2 -1</clus>
<clus scale="  116.609">  2  5  1 -1</clus>
<clus scale="  116.609">  2  3  1 -1</clus>
</clustering>
</event>
<event>
 6    0  0.2117869E+002  0.1557792E+03  0.7546771E-02  0.1193546E+00
         21   -1    0    0  501  502  0.00000000000E+00  0.00000000000E+00  0.12904036843E+03  0.12904036843E+03  0.00000000000E+00 0. -1.
          1   -1    0    0  504    0 -0.00000000000E+00 -0.00000000000E+00 -0.21509073270E+04  0.21509073270E+04  0.00000000000E+00 0. -1.
         21    1    1    2  503  502 -0.74899652846E+02 -0.12750985827E+02  0.38072335760E+02  0.84982635793E+02  0.00000000000E+00 0.  1.
         21    1    1    2  504  505  0.30991801168E+02 -0.52100673791E+02 -0.14510772325E+03  0.15726163962E+03  0.00000000000E+00 0.  1.
         21    1    1    2  505  503  0.39531946419E+02 -0.14007337754E+03 -0.38963393162E+02  0.15067007629E+03  0.00000000000E+00 0. -1.
          1    1    1    2  501    0  0.43759052592E+01  0.20492503715E+03 -0.18758681779E+04  0.18870333437E+04  0.00000000000E+00 0. -1.
<scales pt_clust_3="75.72438" pt_clust_4="60.62155" pt_clust_5="155.77923" pt_clust_6="14000.00000"></scales>
<clustering>
<clus scale="   60.622">  2  4  1 -1</clus>
<clus scale="   75.724">  1  3  2 -1</clus>
<clus scale="  155.779">  1  5  2 -1</clus>
<clus scale="   75.724">  1  3  2 -1</clus>
</clustering>
</event>
<event>
 6    0  0.2117869E+002  0.9101775E+02  0.7546771E-02  0.1300406E+00
          2   -1    0    0  503    0 -0.00000000000E+00  0.00000000000E+00  0.56442720929E+03  0.56442720929E+03  0.00000000000E+00 0.  1.
         21   -1    0    0  505  502  0.00000000000E+00 -0.00000000000E+00 -0.24141181755E+03  0.24141181755E+03  0.00000000000E+00 0.  1.
         21    1    1    2  503  504  0.34451446912E+02 -0.40680114579E+01  0.94469774821E+02  0.10063791168E+03  0.00000000000E+00 0.  1.
         21    1    1    2  504  502  0.74107837702E+02  0.81443556845E+02 -0.72650622088E+02  0.13192095152E+03  0.00000000000E+00 0.  1.
         21    1    1    2  505  501 -0.25848543227E+02 -0.81087036442E+02 -0.11827686440E+03  0.14571434836E+03  0.00000000000E+00 0.  1.
          2    1    1    2  501    0 -0.82710741387E+02  0.37114910548E+01  0.41947310341E+03  0.42756581528E+03  0.00000000000E+00 0.  1.
<scales pt_clust_3="34.69079" pt_clust_4="14000.00000" pt_clust_5="91.01775" pt_clust_6="51.45846"></scales>
<clustering>
<clus scale="   34.691">  1  3  2 -1</clus>
<clus scale="   51.458">  1  6  2 -1</clus>
<clus scale="   91.018">  2  5  1 -1</clus>
<clus scale="   91.018">  2  3  1 -1</clus>
</clustering>
</event>
<event>
 6    0  0.2117869E+002  0.9449001E+02  0.7546771E-02  0.1292329E+00
         -4   -1    0    0    0  501 -0.00000000000E+00  0.00000000000E+00  0.22265797869E+03  0.22265797869E+03  0.00000000000E+00 0. -1.
         21   -1    0    0  505  502  0.00000000000E+00 -0.00000000000E+00 -0.27649901228E+04  0.27649901228E+04  0.00000000000E+00 0.  1.
         21    1    1    2  503  501 -0.31237827990E+01 -0.37920122619E+02  0.20802870697E+02  0.43364191998E+02  0.00000000000E+00 0. -1.
         21    1    1    2  504  502  0.13772575974E+02 -0.91827582297E+02 -0.44396681093E+03  0.45357305688E+03  0.00000000000E+00 0. -1.
         21    1    1    2  505  503  0.53427029197E+02  0.24956379228E+02 -0.22842142466E+04  0.22849752718E+04  0.00000000000E+00 0.  1.
         -4    1    1    2    0  504 -0.64075822372E+02  0.10479132569E+03  0.16504604279E+03  0.20573558077E+03  0.00000000000E+00 0. -1.
<scales pt_clust_3="38.04857" pt_clust_4="94.49001" pt_clust_5="58.93071" pt_clust_6="14000.00000"></scales>
<clustering>
<clus scale="   38.049">  1  3  2 -1</clus>
<clus scale="   58.931">  2  5  1 -1</clus>
<clus scale="   94.490">  2  4  1 -1</clus>
<clus scale="   58.931">  2  3  1 -1</clus>
</clustering>
</event>
<event>
 6    0  0.2117869E+002  0.8696302E+02  0.7546771E-02  0.1310377E+00
         21   -1    0    0  503  502  0.00000000000E+00  0.00000000000E+00  0.30955425834E+03  0.30955425834E+03  0.00000000000E+00 0. -1.
         -2   -1    0    0    0  501 -0.00000000000E+00 -0.00000000000E+00 -0.93862022447E+02  0.93862022447E+02  0.00000000000E+00 0. -1.
         21    1    1    2  503  504 -0.75105927710E+01 -0.30708973325E+02  0.16560983994E+03  0.16860032364E+03  0.00000000000E+00 0. -1.
         21    1    1    2  504  505 -0.20038812830E+02  0.84032847172E+02  0.27186225016E+02  0.90565800687E+02  0.00000000000E+00 0. -1.
         21    1    1    2  505  501 -0.39106306482E+01 -0.88679688223E+02 -0.57115598802E+01  0.88949435365E+02  0.00000000000E+00 0. -1.
         -2    1    1    2    0  502  0.31460036249E+02  0.35355814377E+02  0.28607730814E+02  0.55300721093E+02  0.00000000000E+00 0. -1.
<scales pt_clust_3="31.61408" pt_clust_4="86.96302" pt_clust_5="14000.00000" pt_clust_6="39.34127"></scales>
<clustering>
<clus scale="   31.614">  1  3  2 -1</clus>
<clus scale="   39.341">  1  6  2 -1</clus>
<clus scale="   86.963">  1  4  2 -1</clus>
<clus scale="   31.614">  1  3  2 -1</clus>
</clustering>
</event>
<event>
 6    0  0.2117869E+002  0.1409421E+03  0.7546771E-02  0.1212067E+00
         21   -1    0    0  505  502  0.00000000000E+00  0.00000000000E+00  0.55327562644E+03  0.55327562644E+03  0.00000000000E+00 0. -1.
          2   -1    0    0  504    0 -0.00000000000E+00 -0.00000000000E+00 -0.10543121123E+04  0.10543121123E+04  0.00000000000E+00 0.  1.
         21    1    1    2  503  502 -0.52386346750E+02  0.28741501398E+02  0.72893520236E+02  0.94254275875E+02  0.00000000000E+00 0. -1.
         21    1    1    2  504  503 -0.27969222568E+02  0.43164339196E+02 -0.11254259341E+03  0.12373872845E+03  0.00000000000E+00 0. -1.
         21    1    1    2  505  501 -0.85286660844E+02  0.52236800478E+01  0.45103467391E+03  0.45905705356E+03  0.00000000000E+00 0. -1.
          2    1    1    2  501    0  0.16564223016E+03 -0.77129520641E+02 -0.91242208664E+03  0.93053768089E+03  0.00000000000E+00 0.  1.
<scales pt_clust_3="60.27011" pt_clust_4="51.43382" pt_clust_5="140.94214" pt_clust_6="14000.00000"></scales>
<clustering>
<clus scale="   51.434">  2  4  1 -1</clus>
<clus scale="   60.270">  1  3  2 -1</clus>
<clus scale="  140.942">  1  5  2 -1</clus>
<clus scale="   60.270">  1  3  2 -1</clus>
</clustering>
</event>
<event>
 6    0  0.2117869E+002  0.1018130E+03  0.7546771E-02  0.1276529E+00
          2   -1    0    0  503    0 -0.00000000000E+00  0.00000000000E+00  0.47486114569E+03  0.47486114569E+03  0.00000000000E+00 0.  1.
         21   -1    0    0  504  502  0.00000000000E+00 -0.00000000000E+00 -0.36796470859E+03  0.36796470859E+03  0.00000000000E+00 0. -1.
         21    1    1    2  503  505  0.82147120578E+02 -0.10876218048E+02  0.65998200760E+02  0.10593490474E+03  0.00000000000E+00 0. -1.
         21    1    1    2  504  501 -0.30628388931E+02  0.34663251484E+02 -0.28447715737E+03  0.28821327568E+03  0.00000000000E+00 0. -1.
         21    1    1    2  505  502  0.58075462083E+02 -0.96049329764E+01 -0.37201228710E+02  0.69634369755E+02  0.00000000000E+00 0. -1.
          2    1    1    2  501    0 -0.10959419373E+03 -0.14182100459E+02  0.36257662242E+03  0.37904330412E+03  0.00000000000E+00 0.  1.
<scales pt_clust_3="14000.00000" pt_clust_4="46.25623" pt_clust_5="40.21690" pt_clust_6="101.81297"></scales>
<clustering>
<clus scale="   46.256">  2  4  1 -1</clus>
<clus scale="   40.217">  2  5  1 -1</clus>
<clus scale="  101.813">  1  6  2 -1</clus>
<clus scale="   46.256">  2  3  1 -1</clus>
</clustering>
</event>
<event>
 6    0  0.2117869E+002  0.1712397E+03  0.7546771E-02  0.1176561E+00
         -4   -1    0    0    0  501 -0.00000000000E+00  0.00000000000E+00  0.45891517263E+02  0.45891517263E+02  0.00000000000E+00 0.  1.
         21   -1    0    0  503  502  0.00000000000E+00 -0.00000000000E+00 -0.19832917962E+04  0.19832917962E+04  0.00000000000E+00 0. -1.
         21    1    1    2  503  505  0.15293750281E+03 -0.43991751855E+02 -0.60237694989E+03  0.62304345254E+03  0.00000000000E+00 0. -1.
         21    1    1    2  504  501  0.59592967679E+01  0.32336567216E+02 -0.60512657831E+02  0.68869068202E+02  0.00000000000E+00 0.  1.
         21    1    1    2  505  504 -0.32611171653E+02 -0.13709296350E+03 -0.19686894106E+03  0.24210606996E+03  0.00000000000E+00 0.  1.
         -4    1    1    2    0  502 -0.12628562792E+03  0.14874814814E+03 -0.10776417302E+04  0.10951647228E+04  0.00000000000E+00 0.  1.
<scales pt_clust_3="171.23975" pt_clust_4="32.88110" pt_clust_5="123.11575" pt_clust_6="14000.00000"></scales>
<clustering>
<clus scale="   32.881">  1  4  2 -1</clus>
<clus scale="  123.116">  1  5  2 -1</clus>
<clus scale="  171.240">  1  3  2 -1</clus>
<clus scale="  171.240">  2  3  1 -1</clus>
</clustering>
</event>
<event>
 6    0  0.2117869E+002  0.8436789E+02  0.7546771E-02  0.1317094E+00
         21   -1    0    0  503  502  0.00000000000E+00  0.00000000000E+00  0.10287143525E+03  0.10287143525E+03  0.00000000000E+00 0.  1.
          2   -1    0    0  504    0 -0.00000000000E+00 -0.00000000000E+00 -0.14973435024E+04  0.14973435024E+04  0.00000000000E+00 0.  1.
         21    1    1    2  503  501 -0.45048387920E+02  0.91613747974E+02  0.52989145359E+02  0.11502297856E+03  0.00000000000E+00 0.  1.
         21    1    1    2  504  505 -0.67750924209E+02  0.28174802076E+02 -0.51086017401E+03  0.51610282367E+03  0.00000000000E+00 0.  1.
         21    1    1    2  505  502 -0.22956365944E+02 -0.63374412974E+02 -0.10626510017E+03  0.12583951077E+03  0.00000000000E+00 0.  1.
          2    1    1    2  501    0  0.13575567807E+03 -0.56414137075E+02 -0.83033593832E+03  0.84324962464E+03  0.00000000000E+00 0.  1.
<scales pt_clust_3="14000.00000" pt_clust_4="73.31195" pt_clust_5="67.40409" pt_clust_6="84.36789"></scales>
<clustering>
<clus scale="   67.404">  1  5  2 -1</clus>
<clus scale="   73.312">  2  4  1 -1</clus>
<clus scale="   84.368">  2  6  1 -1</clus>
<clus scale="   67.404">  1  3  2 -1</clus>
</clustering>
</event>
<event>
 6    0  0.2117869E+002  0.9835400E+02  0.7546771E-02  0.1283796E+00
         21   -1    0    0  501  502  0.00000000000E+00  0.00000000000E+00  0.14491319977E+03  0.14491319977E+03  0.00000000000E+00 0.  1.
          1   -1    0    0  505    0 -0.00000000000E+00 -0.00000000000E+00 -0.35462300772E+03  0.35462300772E+03  0.00000000000E+00 0. -1.
         21    1    1    2  503  502 -0.16042362099E+02 -0.26435707818E+02 -0.65830216842E+01  0.31615505754E+02  0.00000000000E+00 0.  1.
         21    1    1    2  504  503  0.10055918895E+03 -0.27370829707E+02  0.96555223572E+02  0.14207119342E+03  0.00000000000E+00 0.  1.
         21    1    1    2  505  504  0.27113975857E+01  0.33135880678E+02 -0.45717498876E+02  0.56528116621E+02  0.00000000000E+00 0.  1.
          1    1    1    2  501    0 -0.87228224440E+02  0.20670656847E+02 -0.25396451096E+03  0.26932139169E+03  0.00000000000E+00 0. -1.
<scales pt_clust_3="30.92255" pt_clust_4="14000.00000" pt_clust_5="32.12250" pt_clust_6="98.35400"></scales>
<clustering>
<clus scale="   30.923">  1  3  2 -1</clus>
<clus scale="   32.122">  2  5  1 -1</clus>
<clus scale="   98.354">  2  6  1 -1</clus>
<clus scale="   30.923">  1  3  2 -1</clus>
</clustering>
</event>
<event>
 6    0  0.2117869E+002  0.1113635E+03  0.7546771E-02  0.1258066E+00
         21   -1    0    0  504  502  0.00000000000E+00  0.00000000000E+00  0.78489152931E+02  0.78489152931E+02  0.00000000000E+00 0. -1.
          1   -1    0    0  505    0 -0.00000000000E+00 -0.00000000000E+00 -0.78620885597E+03  0.78620885597E+03  0.00000000000E+00 0. -1.
         21    1    1    2  503  502 -0.60130015744E+02 -0.11023693762E+03 -0.47718714724E+02  0.13433122103E+03  0.00000000000E+00 0. -1.
         21    1    1    2  504  501  0.24938358453E+02  0.21681736708E+02 -0.11299903287E-01  0.33045719188E+02  0.00000000000E+00 0.  1.
         21    1    1    2  505  503 -0.21612438979E+02 -0.23424374272E+02 -0.46051956334E+03  0.46162112934E+03  0.00000000000E+00 0. -1.
          1    1    1    2  501    0  0.56804096270E+02  0.11197957518E+03 -0.19947012507E+03  0.23569993935E+03  0.00000000000E+00 0. -1.
<scales pt_clust_3="111.36345" pt_clust_4="31.43580" pt_clust_5="31.87160" pt_clust_6="14000.00000"></scales>
<clustering>
<clus scale="   31.872">  2  5  1 -1</clus>
<clus scale="   31.436">  1  4  2 -1</clus>
<clus scale="  111.363">  1  3  2 -1</clus>
<clus scale="   31.436">  1  3  2 -1</clus>
</clustering>
</event>
<event>
 6    0  0.2117869E+002  0.1029429E+03  0.7546771E-02  0.1274226E+00
          2   -1    0    0  503    0 -0.00000000000E+00  0.00000000000E+00  0.15486489394E+03  0.15486489394E+03  0.00000000000E+00 0.  1.
         21   -1    0    0  501  502  0.00000000000E+00 -0.00000000000E+00 -0.28324533835E+04  0.28324533835E+04  0.00000000000E+00 0.  1.
         21    1    1    2  503  504 -0.22614278739E+02  0.41116590961E+02  0.13370233966E+03  0.14169790149E+03  0.00000000000E+00 0.  1.
         21    1    1    2  504  505  0.11642083753E+03 -0.42430840003E+01 -0.12543937994E+04  0.12597918952E+04  0.00000000000E+00 0.  1.
         21    1    1    2  505  502 -0.77911006889E+02 -0.75170038013E+02 -0.15352335013E+04  0.15390459912E+04  0.00000000000E+00 0.  1.
          2    1    1    2  501    0 -0.15895551902E+02  0.38296531052E+02 -0.21663528518E+02  0.46782489553E+02  0.00000000000E+00 0.  1.
<scales pt_clust_3="86.91829" pt_clust_4="14000.00000" pt_clust_5="102.94293" pt_clust_6="41.46436"></scales>
<clustering>
<clus scale="   41.464">  1  6  2 -1</clus>
<clus scale="   86.918">  1  3  2 -1</clus>
<clus scale="  102.943">  2  5  1 -1</clus>
<clus scale="  102.943">  2  3  1 -1</clus>
</clustering>
</event>
<event>
 6    0  0.2117869E+002  0.1160870E+03  0.7546771E-02  0.1249696E+00
          2   -1    0    0  505    0 -0.00000000000E+00  0.00000000000E+00  0.70404619102E+02  0.70404619102E+02  0.00000000000E+00 0.  1.
         21   -1    0    0  501  502  0.00000000000E+00 -0.00000000000E+00 -0.18527450144E+04  0.18527450144E+04  0.00000000000E+00 0.  1.
         21    1    1    2  503  502  0.64016323935E+02 -0.18125803837E+02 -0.12786601790E+04  0.12803899749E+04  0.00000000000E+00 0.  1.
         21    1    1    2  504  503 -0.17201573987E+03  0.58386739461E+02 -0.45314335454E+03  0.48819803960E+03  0.00000000000E+00 0.  1.
         21    1    1    2  505  504  0.24456576259E+02 -0.43790988554E+02  0.10237302501E+02  0.51191573167E+02  0.00000000000E+00 0.  1.
          2    1    1    2  501    0  0.83542839677E+02  0.35300529296E+01 -0.60774164301E+02  0.10337004586E+03  0.00000000000E+00 0.  1.
<scales pt_clust_3="67.31015" pt_clust_4="14000.00000" pt_clust_5="50.15750" pt_clust_6="116.08696"></scales>
<clustering>
<clus scale="   50.157">  1  5  2 -1</clus>
<clus scale="   67.310">  2  3  1 -1</clus>
<clus scale="  116.087">  1  6  2 -1</clus>
<clus scale="   67.310">  2  3  1 -1</clus>
</clustering>
</event>
<event>
 6    0  0.2117869E+002  0.1961419E+03  0.7546771E-02  0.1153036E+00
         21   -1    0    0  505  502  0.00000000000E+00  0.00000000000E+00  0.81618270378E+03  0.81618270378E+03  0.00000000000E+00 0.  1.
          2   -1    0    0  504    0 -0.00000000000E+00 -0.00000000000E+00 -0.36080290603E+04  0.36080290603E+04  0.00000000000E+00 0. -1.
         21    1    1    2  503  502  0.16103170771E+01  0.43733748008E+02  0.26259396344E+02  0.51037140714E+02  0.00000000000E+00 0.  1.
         21    1    1    2  504  503 -0.33880000673E+01  0.32528343440E+02 -0.23533219142E+04  0.23535491504E+04  0.00000000000E+00 0. -1.
         21    1    1    2  505  501  0.71019157174E+02  0.13843020331E+03  0.75922519528E+03  0.77500292840E+03  0.00000000000E+00 0.  1.
          2    1    1    2  501    0 -0.69241474184E+02 -0.21469229475E+03 -0.12240090340E+04  0.12446225445E+04  0.00000000000E+00 0. -1.
<scales pt_clust_3="44.08317" pt_clust_4="32.70431" pt_clust_5="14000.00000" pt_clust_6="196.14191"></scales>
<clustering>
<clus scale="   32.704">  2  4  1 -1</clus>
<clus scale="   44.083">  1  3  2 -1</clus>
<clus scale="  196.142">  2  6  1 -1</clus>
<clus scale="   44.083">  1  3  2 -1</clus>
</clustering>
</event>
<event>
 6    0  0.2117869E+002  0.1373195E+03  0.7546771E-02  0.1216982E+00
         21   -1    0    0  504  502  0.00000000000E+00  0.00000000000E+00  0.47975633377E+03  0.47975633377E+03  0.00000000000E+00 0.  1.
         -4   -1    0    0    0  501 -0.00000000000E+00 -0.00000000000E+00 -0.66449407137E+03  0.66449407137E+03  0.00000000000E+00 0.  1.
         21    1    1    2  503  502  0.37734164316E+02  0.14991111373E+02  0.18553382890E+01  0.40645330076E+02  0.00000000000E+00 0.  1.
         21    1    1    2  504  505 -0.33364210522E+01  0.44431710130E+02  0.23272629006E+03  0.23695323306E+03  0.00000000000E+00 0.  1.
         21    1    1    2  505  501  0.34613073572E+02  0.52551773110E+02  0.21232718891E+03  0.22145561377E+03  0.00000000000E+00 0.  1.
         -4    1    1    2    0  503 -0.69010816836E+02 -0.11197459461E+03 -0.63164655486E+03  0.64519622824E+03  0.00000000000E+00 0.  1.
<scales pt_clust_3="40.60296" pt_clust_4="34.51111" pt_clust_5="34.51111" pt_clust_6="131.05190"></scales>
<clustering>
<clus scale="   34.511">  4  5 -1 -1</clus>
<clus scale="   40.603">  1  3  2 -1</clus>
<clus scale="  131.052">  2  6  1 -1</clus>
<clus scale="   40.603">  1  3  2 -1</clus>
</clustering>
</event>
<event>
 6    0  0.2117869E+002  0.1202067E+03  0.7546771E-02  0.1242756E+00
          2   -1    0    0  505    0 -0.00000000000E+00  0.00000000000E+00  0.12010643274E+04  0.12010643274E+04  0.00000000000E+00 0. -1.
         21   -1    0    0  504  502  0.00000000000E+00 -0.00000000000E+00 -0.18256509330E+03  0.18256509330E+03  0.00000000000E+00 0.  1.
         21    1    1    2  503  501  0.34666346980E+02  0.35998609235E+02 -0.38847277610E+02  0.63299024143E+02  0.00000000000E+00 0.  1.
         21    1    1    2  504  503  0.10240501211E+02  0.63083628916E+02 -0.69021168002E+02  0.94065582094E+02  0.00000000000E+00 0.  1.
         21    1    1    2  505  502 -0.21048083213E+02  0.41944574097E+02  0.10723457242E+04  0.10733721262E+04  0.00000000000E+00 0. -1.
          2    1    1    2  501    0 -0.23858764979E+02 -0.14102681225E+03  0.54021955481E+02  0.15289268823E+03  0.00000000000E+00 0. -1.
<scales pt_clust_3="31.81157" pt_clust_4="31.81157" pt_clust_5="46.92941" pt_clust_6="114.69767"></scales>
<clustering>
<clus scale="   31.812">  3  4 -1 -1</clus>
<clus scale="   46.929">  1  5  2 -1</clus>
<clus scale="  114.698">  1  6  2 -1</clus>
<clus scale="  120.207">  2  3  1 -1</clus>
</clustering>
</event>
<event>
 6    0  0.2537849E+002  0.1336637E+03  0.7546771E-02  0.1222119E+00
          2   -1    0    0  505    0 -0.00000000000E+00  0.00000000000E+00  0.15793959805E+04  0.15793959805E+04  0.00000000000E+00 0.  1.
         21   -1    0    0  503  502  0.00000000000E+00 -0.00000000000E+00 -0.32978986449E+03  0.32978986449E+03  0.00000000000E+00 0. -1.
         21    1    1    2  503  501  0.57787326024E+02 -0.74658155325E+02 -0.27685094174E+03  0.29250582755E+03  0.00000000000E+00 0. -1.
         21    1    1    2  504  502  0.17570341635E+02  0.24706525671E+02  0.11223604658E+02  0.32327985051E+02  0.00000000000E+00 0.  1.
         21    1    1    2  505  504 -0.26096680403E+01 -0.62671174624E+02 -0.47290254739E+00  0.62727267857E+02  0.00000000000E+00 0.  1.
          2    1    1    2  501    0 -0.72747999619E+02  0.11262280428E+03  0.15157063557E+04  0.15216247646E+04  0.00000000000E+00 0.  1.
<scales pt_clust_3="133.66366" pt_clust_4="30.31715" pt_clust_5="60.23186" pt_clust_6="14000.00000"></scales>
<clustering>
<clus scale="   30.317">  2  4  1 -1</clus>
<clus scale="   60.232">  2  5  1 -1</clus>
<clus scale="  133.664">  2  3  1 -1</clus>
<clus scale="   30.317">  2  3  1 -1</clus>
</clustering>
</event>
<event>
 6    0  0.2117869E+002  0.1207647E+03  0.7546771E-02  0.1241841E+00
          1   -1    0    0  505    0 -0.00000000000E+00  0.00000000000E+00  0.56355811644E+03  0.56355811644E+03  0.00000000000E+00 0.  1.
         21   -1    0    0  504  502  0.00000000000E+00 -0.00000000000E+00 -0.10481963720E+04  0.10481963720E+04  0.00000000000E+00 0.  1.
         21    1    1    2  503  502  0.23744778397E+02  0.34196576165E+02 -0.19408170925E+02  0.45933619727E+02  0.00000000000E+00 0.  1.
         21    1    1    2  504  501  0.93906555887E+02 -0.13927345540E+02 -0.97746648640E+03  0.98206575352E+03  0.00000000000E+00 0.  1.
         21    1    1    2  505  503  0.65827777601E+02  0.25195747478E+02  0.56376794578E+02  0.90257769537E+02  0.00000000000E+00 0. -1.
          1    1    1    2  501    0 -0.18347911188E+03 -0.45464978104E+02  0.45585960717E+03  0.49349734567E+03  0.00000000000E+00 0.  1.
<scales pt_clust_3="41.63196" pt_clust_4="14000.00000" pt_clust_5="71.05982" pt_clust_6="120.76474"></scales>
<clustering>
<clus scale="   41.632">  2  3  1 -1</clus>
<clus scale="   71.060">  1  5  2 -1</clus>
<clus scale="  120.765">  1  6  2 -1</clus>
<clus scale="   41.632">  2  3  1 -1</clus>
</clustering>
</event>
<event>
 6    0  0.2117869E+002  0.1541257E+03  0.7546771E-02  0.1195493E+00
         21   -1    0    0  503  502  0.00000000000E+00  0.00000000000E+00  0.37495164256E+03  0.37495164256E+03  0.00000000000E+00 0.  1.
         -2   -1    0    0    0  501 -0.00000000000E+00 -0.00000000000E+00 -0.74384082683E+03  0.74384082683E+03  0.00000000000E+00 0. -1.
         21    1    1    2  503  501  0.15510892012E+02 -0.56834731694E+02 -0.34706058420E+02  0.68376055669E+02  0.00000000000E+00 0. -1.
         21    1    1    2  504  505 -0.12000035198E+03 -0.31488905114E+02  0.83338451490E+02  0.14945545529E+03  0.00000000000E+00 0.  1.
         21    1    1    2  505  502  0.74643931945E+01 -0.37127626509E+02  0.23061470853E+03  0.23370349079E+03  0.00000000000E+00 0.  1.
         -2    1    1    2    0  504  0.97025066770E+02  0.12545126332E+03 -0.64813628587E+03  0.66725746764E+03  0.00000000000E+00 0. -1.
<scales pt_clust_3="63.36855" pt_clust_4="154.12574" pt_clust_5="37.87054" pt_clust_6="14000.00000"></scales>
<clustering>
<clus scale="   37.871">  1  5  2 -1</clus>
<clus scale="   63.369">  1  3  2 -1</clus>
<clus scale="  154.126">  1  4  2 -1</clus>
<clus scale="   37.871">  1  3  2 -1</clus>
</clustering>
</event>
<event>
 6    0  0.2117869E+002  0.1958161E+03  0.7546771E-02  0.1153318E+00
         21   -1    0    0  501  502  0.00000000000E+00  0.00000000000E+00  0.13061257410E+04  0.13061257410E+04  0.00000000000E+00 0. -1.
          2   -1    0    0  503    0 -0.00000000000E+00 -0.00000000000E+00 -0.50452482499E+03  0.50452482499E+03  0.00000000000E+00 0.  1.
         21    1    1    2  503  504 -0.62895317610E+01  0.34229239035E+02 -0.18827636986E+02  0.39568660947E+02  0.00000000000E+00 0. -1.
         21    1    1    2  504  505  0.27051171496E+02 -0.73793581446E+02 -0.63576726531E+02  0.10109034919E+03  0.00000000000E+00 0. -1.
         21    1    1    2  505  502 -0.16308579811E+03 -0.10821856066E+03  0.12420231958E+04  0.12573503304E+04  0.00000000000E+00 0. -1.
          2    1    1    2  501    0  0.14232415838E+03  0.14778290307E+03 -0.35801791633E+03  0.41264122541E+03  0.00000000000E+00 0.  1.
<scales pt_clust_3="34.80228" pt_clust_4="72.66094" pt_clust_5="195.81605" pt_clust_6="14000.00000"></scales>
<clustering>
<clus scale="   34.802">  2  3  1 -1</clus>
<clus scale="   72.661">  2  4  1 -1</clus>
<clus scale="  195.816">  1  5  2 -1</clus>
<clus scale="  195.816">  1  3  2 -1</clus>
</clustering>
</event>
<event>
 6    0  0.2117869E+002  0.1642321E+03  0.7546771E-02  0.1184000E+00
         21   -1    0    0  501  502  0.00000000000E+00  0.00000000000E+00  0.19783060236E+03  0.19783060236E+03  0.00000000000E+00 0. -1.
          2   -1    0    0  503    0 -0.00000000000E+00 -0.00000000000E+00 -0.34399766234E+04  0.34399766234E+04  0.00000000000E+00 0.  1.
         21    1    1    2  503  504 -0.44233176040E+02  0.19373036230E+02 -0.21498518785E+03  0.22034182397E+03  0.00000000000E+00 0.  1.
         21    1    1    2  504  505  0.17433048759E+03  0.31052136631E+02 -0.60952894468E+02  0.18727148591E+03  0.00000000000E+00 0. -1.
         21    1    1    2  505  502 -0.91244656098E+01 -0.40604359046E+02  0.12749279069E+03  0.13411331598E+03  0.00000000000E+00 0. -1.
          2    1    1    2  501    0 -0.12097284594E+03 -0.98208138151E+01 -0.30937007294E+04  0.30960805999E+04  0.00000000000E+00 0.  1.
<scales pt_clust_3="48.00045" pt_clust_4="14000.00000" pt_clust_5="41.61694" pt_clust_6="164.23208"></scales>
<clustering>
<clus scale="   41.617">  1  5  2 -1</clus>
<clus scale="   48.000">  2  3  1 -1</clus>
<clus scale="  164.232">  2  6  1 -1</clus>
<clus scale="   41.617">  1  3  2 -1</clus>
</clustering>
</event>
<event>
 6    0  0.2117869E+002  0.1942875E+03  0.7546771E-02  0.1154650E+00
         21   -1    0    0  501  502  0.00000000000E+00  0.00000000000E+00  0.57950654451E+02  0.57950654451E+02  0.00000000000E+00 0.  1.
          2   -1    0    0  505    0 -0.00000000000E+00 -0.00000000000E+00 -0.25176887539E+04  0.25176887539E+04  0.00000000000E+00 0. -1.
         21    1    1    2  503  504 -0.87816382450E+02  0.11004716141E+03 -0.32114693563E+03  0.35065288966E+03  0.00000000000E+00 0.  1.
         21    1    1    2  504  502 -0.75939464684E+02  0.28158927519E+02 -0.20797883960E+02  0.83619850949E+02  0.00000000000E+00 0.  1.
         21    1    1    2  505  503 -0.57301289785E+02 -0.76735324426E+01 -0.29816011652E+03  0.30371331218E+03  0.00000000000E+00 0.  1.
          2    1    1    2  501    0  0.22105713692E+03 -0.13053255649E+03 -0.18196331633E+04  0.18376533555E+04  0.00000000000E+00 0. -1.
<scales pt_clust_3="14000.00000" pt_clust_4="82.19716" pt_clust_5="57.81281" pt_clust_6="194.28752"></scales>
<clustering>
<clus scale="   57.813">  2  5  1 -1</clus>
<clus scale="   82.197">  1  4  2 -1</clus>
<clus scale="  194.288">  2  6  1 -1</clus>
<clus scale="   82.197">  1  3  2 -1</clus>
</clustering>
</event>
<event>
 6    0  0.2117869E+002  0.9885019E+02  0.7546771E-02  0.1282733E+00
          1   -1    0    0  503    0 -0.00000000000E+00  0.00000000000E+00  0.16369332239E+03  0.16369332239E+03  0.00000000000E+00 0.  1.
         21   -1    0    0  504  502  0.00000000000E+00 -0.00000000000E+00 -0.32873342419E+03  0.32873342419E+03  0.00000000000E+00 0.  1.
         21    1    1    2  503  505 -0.28403130781E+02 -0.35394364253E+02  0.11927957185E+02  0.46923075578E+02  0.00000000000E+00 0.  1.
         21    1    1    2  504  501 -0.78118071668E+02  0.90403365493E+02 -0.10866588657E+03  0.16150379722E+03  0.00000000000E+00 0.  1.
         21    1    1    2  505  502  0.89053506207E+02 -0.29982736804E+02 -0.16099581255E+03  0.18641122051E+03  0.00000000000E+00 0.  1.
          1    1    1    2  501    0  0.17467696242E+02 -0.25026264437E+02  0.92693640138E+02  0.97588653263E+02  0.00000000000E+00 0.  1.
<scales pt_clust_3="50.65200" pt_clust_4="14000.00000" pt_clust_5="98.85019" pt_clust_6="30.51941"></scales>
<clustering>
<clus scale="   30.519">  1  6  2 -1</clus>
<clus scale="   50.652">  1  3  2 -1</clus>
<clus scale="   98.850">  2  5  1 -1</clus>
<clus scale="   98.850">  2  3  1 -1</clus>
</clustering>
</event>
<event>
 6    0  0.2117869E+002  0.1008684E+03  0.7546771E-02  0.1278480E+00
          2   -1    0    0  504    0 -0.00000000000E+00  0.00000000000E+00  0.17768162088E+04  0.17768162088E+04  0.00000000000E+00 0.  1.
         21   -1    0    0  503  502  0.00000000000E+00 -0.00000000000E+00 -0.19510854484E+03  0.19510854484E+03  0.00000000000E+00 0.  1.
         21    1    1    2  503  505  0.12849188444E+02  0.38943867045E+02  0.78286095268E+01  0.41749413783E+02  0.00000000000E+00 0. -1.
         21    1    1    2  504  502  0.17691492089E+02  0.59653596983E+02 -0.16828221505E+03  0.17941695691E+03  0.00000000000E+00 0.  1.
         21    1    1    2  505  501 -0.84822675603E+02 -0.49154841387E+02  0.86794681451E+03  0.87346594527E+03  0.00000000000E+00 0. -1.
          2    1    1    2  501    0  0.54281995070E+02 -0.49442622642E+02  0.87421445500E+03  0.87729243771E+03  0.00000000000E+00 0.  1.
<scales pt_clust_3="41.00886" pt_clust_4="14000.00000" pt_clust_5="100.86835" pt_clust_6="73.28040"></scales>
<clustering>
<clus scale="   41.009">  2  3  1 -1</clus>
<clus scale="   73.280">  1  6  2 -1</clus>
<clus scale="  100.868">  1  5  2 -1</clus>
<clus scale="   41.009">  2  3  1 -1</clus>
</clustering>
</event>
<event>
 6    0  0.2117869E+002  0.6487505E+02  0.7546771E-02  0.1378442E+00
         21   -1    0    0  505  502  0.00000000000E+00  0.00000000000E+00  0.13795952508E+03  0.13795952508E+03  0.00000000000E+00 0. -1.
          1   -1    0    0  504    0 -0.00000000000E+00 -0.00000000000E+00 -0.47579963093E+03  0.47579963093E+03  0.00000000000E+00 0. -1.
         21    1    1    2  503  502 -0.99050705829E+01  0.12451935006E+03 -0.10850343582E+03  0.16545747051E+03  0.00000000000E+00 0. -1.
         21    1    1    2  504  503 -0.13021478629E+02 -0.34573579486E+02 -0.90137610747E+02  0.97414989479E+02  0.00000000000E+00 0.  1.
         21    1    1    2  505  501 -0.16619452802E+02 -0.59040065731E+02  0.94059046154E+02  0.11228998057E+03  0.00000000000E+00 0. -1.
          1    1    1    2  501    0  0.39546002015E+02 -0.30905704849E+02 -0.23325810544E+03  0.23859671544E+03  0.00000000000E+00 0. -1.
<scales pt_clust_3="64.87505" pt_clust_4="36.94444" pt_clust_5="14000.00000" pt_clust_6="61.01933"></scales>
<clustering>
<clus scale="   36.944">  2  4  1 -1</clus>
<clus scale="   61.019">  2  6  1 -1</clus>
<clus scale="   64.875">  2  3  1 -1</clus>
<clus scale="   64.875">  1  3  2 -1</clus>
</clustering>
</event>
<event>
 6    0  0.2117869E+002  0.1138277E+03  0.7546771E-02  0.1253641E+00
         -4   -1    0    0    0  501 -0.00000000000E+00  0.00000000000E+00  0.46521328777E+03  0.46521328777E+03  0.00000000000E+00 0. -1.
         21   -1    0    0  504  502  0.00000000000E+00 -0.00000000000E+00 -0.17956178989E+03  0.17956178989E+03  0.00000000000E+00 0. -1.
         21    1    1    2  503  501  0.17412508621E+02  0.48775476105E+02  0.27564179962E+02  0.58668786784E+02  0.00000000000E+00 0.  1.
         21    1    1    2  504  503  0.26321997587E+02  0.44590604136E+02 -0.11702495639E+03  0.12796878507E+03  0.00000000000E+00 0. -1.
         21    1    1    2  505  502 -0.79346260999E+02  0.39721707616E+02  0.43041062832E+02  0.98621378413E+02  0.00000000000E+00 0. -1.
         -4    1    1    2    0  505  0.35611754790E+02 -0.13308778786E+03  0.33207121148E+03  0.35951612739E+03  0.00000000000E+00 0. -1.
<scales pt_clust_3="65.70169" pt_clust_4="51.78001" pt_clust_5="113.82768" pt_clust_6="14000.00000"></scales>
<clustering>
<clus scale="   51.780">  2  4  1 -1</clus>
<clus scale="   65.702">  2  3  1 -1</clus>
<clus scale="  113.828">  2  5  1 -1</clus>
<clus scale="   51.780">  2  3  1 -1</clus>
</clustering>
</event>
<event>
 6    0  0.2117869E+002  0.1311646E+03  0.7546771E-02  0.1225738E+00
         21   -1    0    0  503  502  0.00000000000E+00  0.00000000000E+00  0.23580861476E+04  0.23580861476E+04  0.00000000000E+00 0. -1.
          1   -1    0    0  502    0 -0.00000000000E+00 -0.00000000000E+00 -0.40355589520E+03  0.40355589520E+03  0.00000000000E+00 0.  1.
         21    1    1    2  503  504  0.22644906229E+02  0.33891834447E+02  0.68648267018E+03  0.68769172213E+03  0.00000000000E+00 0. -1.
         21    1    1    2  504  505 -0.14022358906E+03 -0.24531003211E+02  0.16572111698E+04  0.16633139470E+04  0.00000000000E+00 0. -1.
         21    1    1    2  505  501  0.30553995948E+02  0.21782169842E+02 -0.89673095504E+02  0.97207374456E+02  0.00000000000E+00 0.  1.
          1    1    1    2  501    0  0.87024686887E+02 -0.31143001079E+02 -0.29949049212E+03  0.31342899916E+03  0.00000000000E+00 0.  1.
<scales pt_clust_3="40.76087" pt_clust_4="118.07869" pt_clust_5="36.38809" pt_clust_6="36.38809"></scales>
<clustering>
<clus scale="   36.388">  5  6 -1 -1</clus>
<clus scale="   40.761">  1  3  2 -1</clus>
<clus scale="  118.079">  1  4  2 -1</clus>
<clus scale="   40.761">  1  3  2 -1</clus>
</clustering>
</event>
<event>
 6    0  0.2117869E+002  0.1146265E+03  0.7546771E-02  0.1252235E+00
         21   -1    0    0  501  502  0.00000000000E+00  0.00000000000E+00  0.15269379926E+03  0.15269379926E+03  0.00000000000E+00 0.  1.
          2   -1    0    0  504    0 -0.00000000000E+00 -0.00000000000E+00 -0.62208153809E+03  0.62208153809E+03  0.00000000000E+00 0.  1.
         21    1    1    2  503  505 -0.13821981467E+03 -0.26701600480E+02 -0.23289758445E+01  0.14079459068E+03  0.00000000000E+00 0.  1.
         21    1    1    2  504  503  0.39273998519E+02 -0.22225731073E+02 -0.17279925444E+03  0.17859454756E+03  0.00000000000E+00 0.  1.
         21    1    1    2  505  502  0.36972209433E+02 -0.29795843194E+02  0.66083351006E+02  0.81374110269E+02  0.00000000000E+00 0.  1.
          2    1    1    2  501    0  0.61973606717E+02  0.78723174747E+02 -0.36034285956E+03  0.37401208885E+03  0.00000000000E+00 0.  1.
<scales pt_clust_3="114.62647" pt_clust_4="45.12682" pt_clust_5="48.24684" pt_clust_6="14000.00000"></scales>
<clustering>
<clus scale="   45.127">  2  4  1 -1</clus>
<clus scale="   48.247">  1  5  2 -1</clus>
<clus scale="  114.626">  1  3  2 -1</clus>
<clus scale="   48.247">  1  3  2 -1</clus>
</clustering>
</event>
<event>
 6    0  0.2117869E+002  0.6463753E+02  0.7546771E-02  0.1379340E+00
          2   -1    0    0  504    0 -0.00000000000E+00  0.00000000000E+00  0.97180950409E+03  0.97180950409E+03  0.00000000000E+00 0. -1.
         21   -1    0    0  505  502  0.00000000000E+00 -0.00000000000E+00 -0.51023843385E+02  0.51023843385E+02  0.00000000000E+00 0. -1.
         21    1    1    2  503  501 -0.77149783133E+02  0.47776897585E+02  0.67126063818E+02  0.11287439667E+03  0.00000000000E+00 0. -1.
         21    1    1    2  504  502 -0.44122775298E+02 -0.29274565716E+02  0.13255507542E+03  0.14273985960E+03  0.00000000000E+00 0. -1.
         21    1    1    2  505  503  0.43455159292E+02 -0.32767684891E+02  0.14668675119E+02  0.56367030008E+02  0.00000000000E+00 0. -1.
          2    1    1    2  501    0  0.77817399140E+02  0.14265353021E+02  0.70643584635E+03  0.71085206120E+03  0.00000000000E+00 0. -1.
<scales pt_clust_3="64.63753" pt_clust_4="52.95110" pt_clust_5="14000.00000" pt_clust_6="41.70456"></scales>
<clustering>
<clus scale="   52.951">  1  4  2 -1</clus>
<clus scale="   41.705">  1  6  2 -1</clus>
<clus scale="   64.638">  1  3  2 -1</clus>
<clus scale="   64.638">  2  3  1 -1</clus>
</clustering>
</event>
<event>
 6    0  0.2117869E+002  0.1918350E+03  0.7546771E-02  0.1156817E+00
         21   -1    0    0  505  502  0.00000000000E+00  0.00000000000E+00  0.17679466779E+04  0.17679466779E+04  0.00000000000E+00 0.  1.
          1   -1    0    0  503    0 -0.00000000000E+00 -0.00000000000E+00 -0.10560085674E+04  0.10560085674E+04  0.00000000000E+00 0.  1.
         21    1    1    2  503  504  0.36098747406E+02  0.41532488888E+00 -0.47745126583E+02  0.59857239926E+02  0.00000000000E+00 0. -1.
         21    1    1    2  504  502 -0.16073007398E+03  0.13315313767E+03  0.15000527052E+04  0.15145038901E+04  0.00000000000E+00 0.  1.
         21    1    1    2  505  501  0.14886087848E+03 -0.31878314319E+02  0.22879158014E+03  0.27481152671E+03  0.00000000000E+00 0.  1.
          1    1    1    2  501    0 -0.24229551913E+02 -0.10169014824E+03 -0.96916104825E+03  0.97478258852E+03  0.00000000000E+00 0.  1.
<scales pt_clust_3="36.10114" pt_clust_4="14000.00000" pt_clust_5="191.83502" pt_clust_6="101.85941"></scales>
<clustering>
<clus scale="   36.101">  2  3  1 -1</clus>
<clus scale="  101.859">  2  6  1 -1</clus>
<clus scale="  191.835">  2  5  1 -1</clus>
<clus scale="  191.835">  1  3  2 -1</clus>
</clustering>
</event>
<event>
 6    0  0.2117869E+002  0.7227351E+02  0.7546771E-02  0.1352528E+00
         21   -1    0    0  504  502  0.00000000000E+00  0.00000000000E+00  0.22051777854E+02  0.22051777854E+02  0.00000000000E+00 0.  1.
          2   -1    0    0  503    0 -0.00000000000E+00 -0.00000000000E+00 -0.23407631649E+04  0.23407631649E+04  0.00000000000E+00 0.  1.
         21    1    1    2  503  505 -0.20437817545E+02  0.58897176870E+02 -0.11318050680E+04  0.11335207513E+04  0.00000000000E+00 0.  1.
         21    1    1    2  504  501 -0.51328940362E+02  0.31154961191E+01 -0.23563812023E+03  0.24118393425E+03  0.00000000000E+00 0. -1.
         21    1    1    2  505  502 -0.82675839965E+01  0.37121143749E+02 -0.11481047784E+02  0.39725894787E+02  0.00000000000E+00 0.  1.
          2    1    1    2  501    0  0.80034341904E+02 -0.99133816738E+02 -0.93978715101E+03  0.94838436233E+03  0.00000000000E+00 0.  1.
<scales pt_clust_3="14000.00000" pt_clust_4="56.55908" pt_clust_5="38.03068" pt_clust_6="72.27351"></scales>
<clustering>
<clus scale="   38.031">  1  5  2 -1</clus>
<clus scale="   56.559">  1  4  2 -1</clus>
<clus scale="   72.274">  1  6  2 -1</clus>
<clus scale="   38.031">  1  3  2 -1</clus>
</clustering>
</event>
<event>
 6    0  0.2117869E+002  0.1272483E+03  0.7546771E-02  0.1231597E+00
         21   -1    0    0  504  502  0.00000000000E+00  0.00000000000E+00  0.32152862078E+03  0.32152862078E+03  0.00000000000E+00 0.  1.
          2   -1    0    0  505    0 -0.00000000000E+00 -0.00000000000E+00 -0.15008646195E+04  0.15008646195E+04  0.00000000000E+00 0. -1.
         21    1    1    2  503  502  0.52019608256E+02 -0.15530537764E+03  0.50227885695E+02  0.17131444910E+03  0.00000000000E+00 0.  1.
         21    1    1    2  504  501 -0.27368925662E+01  0.35412681085E+02  0.20247407480E+03  0.20556580340E+03  0.00000000000E+00 0.  1.
         21    1    1    2  505  503  0.33684849407E+00  0.42506761958E+02 -0.11045420853E+04  0.11053597408E+04  0.00000000000E+00 0. -1.
          2    1    1    2  501    0 -0.49619564184E+02  0.77385934602E+02 -0.32749587393E+03  0.34015324703E+03  0.00000000000E+00 0. -1.
<scales pt_clust_3="127.24834" pt_clust_4="35.51828" pt_clust_5="42.63122" pt_clust_6="14000.00000"></scales>
<clustering>
<clus scale="   35.518">  1  4  2 -1</clus>
<clus scale="   42.631">  2  5  1 -1</clus>
<clus scale="  127.248">  1  3  2 -1</clus>
<clus scale="   35.518">  1  3  2 -1</clus>
</clustering>
</event>
<event>
 6    0  0.2117869E+002  0.1089984E+03  0.7546771E-02  0.1262436E+00
          3   -1    0    0  505    0 -0.00000000000E+00  0.00000000000E+00  0.93821172357E+03  0.93821172357E+03  0.00000000000E+00 0. -1.
         21   -1    0    0  504  502  0.00000000000E+00 -0.00000000000E+00 -0.13682182365E+03  0.13682182365E+03  0.00000000000E+00 0.  1.
         21    1    1    2  503  502  0.40619786875E+02  0.20178589628E+02 -0.47325312472E+02  0.65550192721E+02  0.00000000000E+00 0.  1.
         21    1    1    2  504  501  0.35786413252E+02 -0.96921987050E+02 -0.31852376229E+02  0.10811620054E+03  0.00000000000E+00 0.  1.
         21    1    1    2  505  503  0.17608320493E+02 -0.33571256173E+02  0.90573275462E+02  0.98186559261E+02  0.00000000000E+00 0.  1.
          3    1    1    2  501    0 -0.94014520621E+02  0.11031465360E+03  0.78999431316E+03  0.80318059470E+03  0.00000000000E+00 0. -1.
<scales pt_clust_3="45.36659" pt_clust_4="14000.00000" pt_clust_5="37.90887" pt_clust_6="108.99840"></scales>
<clustering>
<clus scale="   37.909">  1  5  2 -1</clus>
<clus scale="   45.367">  2  3  1 -1</clus>
<clus scale="  108.998">  1  6  2 -1</clus>
<clus scale="   45.367">  2  3  1 -1</clus>
</clustering>
</event>
<event>
 6    0  0.2117869E+002  0.8276316E+02  0.7546771E-02  0.1321388E+00
         21   -1    0    0  501  502  0.00000000000E+00  0.00000000000E+00  0.15371742195E+03  0.15371742195E+03  0.00000000000E+00 0.  1.
          1   -1    0    0  504    0 -0.00000000000E+00 -0.00000000000E+00 -0.34216548238E+03  0.34216548238E+03  0.00000000000E+00 0.  1.
         21    1    1    2  503  505 -0.33377922060E+02 -0.36117144732E+02 -0.10849266889E+02  0.50361100233E+02  0.00000000000E+00 0. -1.
         21    1    1    2  504  503  0.34356630901E+02  0.24237766792E+02 -0.14558632862E+03  0.15153622176E+03  0.00000000000E+00 0.  1.
         21    1    1    2  505  502  0.71115518186E+02 -0.41144091755E+02  0.10315556471E+03  0.13187616822E+03  0.00000000000E+00 0.  1.
          1    1    1    2  501    0 -0.72094227027E+02  0.53023469695E+02 -0.13516802963E+03  0.16210941411E+03  0.00000000000E+00 0.  1.
<scales pt_clust_3="42.70109" pt_clust_4="42.04578" pt_clust_5="14000.00000" pt_clust_6="82.76316"></scales>
<clustering>
<clus scale="   42.046">  2  4  1 -1</clus>
<clus scale="   42.701">  2  3  1 -1</clus>
<clus scale="   82.763">  2  6  1 -1</clus>
<clus scale="   82.763">  1  3  2 -1</clus>
</clustering>
</event>
<event>
 6    0  0.2117869E+002  0.8647472E+02  0.7546771E-02  0.1311620E+00
         21   -1    0    0  503  502  0.00000000000E+00  0.00000000000E+00  0.32296005036E+03  0.32296005036E+03  0.00000000000E+00 0. -1.
          4   -1    0    0  504    0 -0.00000000000E+00 -0.00000000000E+00 -0.19972368628E+03  0.19972368628E+03  0.00000000000E+00 0.  1.
         21    1    1    2  503  501  0.75945506619E+02 -0.69540040709E+01  0.15727901791E+03  0.17479349994E+03  0.00000000000E+00 0. -1.
         21    1    1    2  504  505  0.62459403674E+01  0.36257476184E+02 -0.14339220081E+03  0.14803695350E+03  0.00000000000E+00 0.  1.
         21    1    1    2  505  502 -0.11906667851E+03 -0.21582138156E+02  0.10793782712E+03  0.16215189528E+03  0.00000000000E+00 0. -1.
          4    1    1    2  501    0  0.36875231525E+02 -0.77213339565E+01  0.14117198655E+01  0.37701387919E+02  0.00000000000E+00 0.  1.
<scales pt_clust_3="86.47472" pt_clust_4="36.79153" pt_clust_5="14000.00000" pt_clust_6="39.22794"></scales>
<clustering>
<clus scale="   36.792">  2  4  1 -1</clus>
<clus scale="   39.228">  2  6  1 -1</clus>
<clus scale="   86.475">  1  3  2 -1</clus>
<clus scale="   86.475">  1  3  2 -1</clus>
</clustering>
</event>
<event>
 6    0  0.2117869E+002  0.1508706E+03  0.7546771E-02  0.1199407E+00
         21   -1    0    0  505  502  0.00000000000E+00  0.00000000000E+00  0.23251060245E+03  0.23251060245E+03  0.00000000000E+00 0. -1.
          2   -1    0    0  504    0 -0.00000000000E+00 -0.00000000000E+00 -0.14294739518E+04  0.14294739518E+04  0.00000000000E+00 0.  1.
         21    1    1    2  503  502 -0.50079462800E+02  0.34809367359E+02  0.48860108076E+02  0.78147007693E+02  0.00000000000E+00 0. -1.
         21    1    1    2  504  503 -0.11823456839E+02 -0.34429826902E+02 -0.71182107730E+02  0.79950607084E+02  0.00000000000E+00 0. -1.
         21    1    1    2  505  501 -0.64229256429E+02 -0.13272304754E+03  0.12386693881E+03  0.19257160554E+03  0.00000000000E+00 0. -1.
          2    1    1    2  501    0  0.12613217607E+03  0.13234350708E+03 -0.12985082885E+04  0.13113153340E+04  0.00000000000E+00 0.  1.
<scales pt_clust_3="60.88254" pt_clust_4="36.40339" pt_clust_5="150.87062" pt_clust_6="14000.00000"></scales>
<clustering>
<clus scale="   36.403">  2  4  1 -1</clus>
<clus scale="   60.883">  1  3  2 -1</clus>
<clus scale="  150.871">  1  5  2 -1</clus>
<clus scale="   60.883">  1  3  2 -1</clus>
</clustering>
</event>
<event>
 6    0  0.2117869E+002  0.1227454E+03  0.7546771E-02  0.1238635E+00
          1   -1    0    0  505    0 -0.00000000000E+00  0.00000000000E+00  0.75402757217E+03  0.75402757217E+03  0.00000000000E+00 0. -1.
         21   -1    0    0  504  502  0.00000000000E+00 -0.00000000000E+00 -0.25686662940E+03  0.25686662940E+03  0.00000000000E+00 0.  1.
         21    1    1    2  503  502 -0.96071817233E+02  0.14287348301E+02 -0.66569719331E+02  0.11775164508E+03  0.00000000000E+00 0.  1.
         21    1    1    2  504  501  0.30866525092E+02 -0.21526509533E+02 -0.13309507277E+03  0.13831280266E+03  0.00000000000E+00 0.  1.
         21    1    1    2  505  503 -0.56072133607E+02 -0.58428965054E+02  0.53902252882E+02  0.97280424496E+02  0.00000000000E+00 0.  1.
          1    1    1    2  501    0  0.12127742575E+03  0.65668126286E+02  0.64292348200E+03  0.65754932933E+03  0.00000000000E+00 0. -1.
<scales pt_clust_3="72.62361" pt_clust_4="37.63154" pt_clust_5="14000.00000" pt_clust_6="122.74540"></scales>
<clustering>
<clus scale="   37.632">  2  4  1 -1</clus>
<clus scale="   72.624">  2  3  1 -1</clus>
<clus scale="  122.745">  1  6  2 -1</clus>
<clus scale="   37.632">  2  3  1 -1</clus>
</clustering>
</event>
<event>
 6    0  0.2117869E+002  0.1424802E+03  0.7546771E-02  0.1210030E+00
         21   -1    0    0  501  502  0.00000000000E+00  0.00000000000E+00  0.63293396964E+03  0.63293396964E+03  0.00000000000E+00 0. -1.
          2   -1    0    0  505    0 -0.00000000000E+00 -0.00000000000E+00 -0.11839516787E+04  0.11839516787E+04  0.00000000000E+00 0. -1.
         21    1    1    2  503  504  0.65871309244E+02 -0.49200034220E+02  0.14680541503E+03  0.16826022296E+03  0.00000000000E+00 0. -1.
         21    1    1    2  504  502  0.56234447808E+02 -0.33200684016E+02  0.46044099846E+03  0.46504893463E+03  0.00000000000E+00 0. -1.
         21    1    1    2  505  503 -0.33627167472E+02 -0.45037908133E+02 -0.10640721803E+03  0.12033991695E+03  0.00000000000E+00 0.  1.
          2    1    1    2  501    0 -0.88478589581E+02  0.12743862637E+03 -0.10518569045E+04  0.10632365738E+04  0.00000000000E+00 0. -1.
<scales pt_clust_3="14000.00000" pt_clust_4="65.29096" pt_clust_5="56.20676" pt_clust_6="142.48022"></scales>
<clustering>
<clus scale="   56.207">  2  5  1 -1</clus>
<clus scale="   65.291">  1  4  2 -1</clus>
<clus scale="  142.480">  2  6  1 -1</clus>
<clus scale="   65.291">  1  3  2 -1</clus>
</clustering>
</event>
<event>
 6    0  0.2117869E+002  0.7061036E+02  0.7546771E-02  0.1358030E+00
          1   -1    0    0  505    0 -0.00000000000E+00  0.00000000000E+00  0.69013521300E+03  0.69013521300E+03  0.00000000000E+00 0. -1.
         21   -1    0    0  503  502  0.00000000000E+00 -0.00000000000E+00 -0.54770228209E+02  0.54770228209E+02  0.00000000000E+00 0. -1.
         21    1    1    2  503  501 -0.31430882629E+02  0.15584831657E+02  0.40922841785E+02  0.53902377873E+02  0.00000000000E+00 0.  1.
         21    1    1    2  504  502 -0.73292192390E+01 -0.67549262292E+02 -0.76940657363E+01  0.68379960064E+02  0.00000000000E+00 0. -1.
         21    1    1    2  505  504  0.77237436129E+02 -0.13372048916E+02  0.37694489524E+03  0.38500894442E+03  0.00000000000E+00 0. -1.
          1    1    1    2  501    0 -0.38477334261E+02  0.65336479551E+02  0.22519131350E+03  0.23761415886E+03  0.00000000000E+00 0. -1.
<scales pt_clust_3="35.08258" pt_clust_4="63.91205" pt_clust_5="70.61036" pt_clust_6="14000.00000"></scales>
<clustering>
<clus scale="   35.083">  2  3  1 -1</clus>
<clus scale="   63.912">  2  4  1 -1</clus>
<clus scale="   70.610">  1  5  2 -1</clus>
<clus scale="   35.083">  2  3  1 -1</clus>
</clustering>
</event>
<event>
 6    0  0.2117869E+002  0.1366187E+03  0.7546771E-02  0.1217953E+00
          1   -1    0    0  504    0 -0.00000000000E+00  0.00000000000E+00  0.67503563040E+03  0.67503563040E+03  0.00000000000E+00 0.  1.
         21   -1    0    0  503  502  0.00000000000E+00 -0.00000000000E+00 -0.91477572828E+03  0.91477572828E+03  0.00000000000E+00 0.  1.
         21    1    1    2  503  501 -0.57674229352E+02  0.11621552681E+03 -0.79955084593E+03  0.81000859293E+03  0.00000000000E+00 0.  1.
         21    1    1    2  504  505 -0.28672416105E+02  0.10319117880E+02  0.68123053425E+01  0.31224976272E+02  0.00000000000E+00 0.  1.
         21    1    1    2  505  502  0.35630695397E+02  0.18690473605E+02 -0.84069411612E+02  0.93201642834E+02  0.00000000000E+00 0.  1.
          1    1    1    2  501    0  0.50715950060E+02 -0.14522511830E+03  0.63706785432E+03  0.65537614664E+03  0.00000000000E+00 0.  1.
<scales pt_clust_3="14000.00000" pt_clust_4="30.47280" pt_clust_5="40.09225" pt_clust_6="136.61872"></scales>
<clustering>
<clus scale="   30.473">  1  4  2 -1</clus>
<clus scale="   40.092">  2  5  1 -1</clus>
<clus scale="  136.619">  1  6  2 -1</clus>
<clus scale="   40.092">  2  3  1 -1</clus>
</clustering>
</event>
<event>
 6    0  0.2117869E+002  0.8702371E+02  0.7546771E-02  0.1310224E+00
         21   -1    0    0  504  502  0.00000000000E+00  0.00000000000E+00  0.26514081676E+02  0.26514081676E+02  0.00000000000E+00 0. -1.
          1   -1    0    0  505    0 -0.00000000000E+00 -0.00000000000E+00 -0.25943950521E+04  0.25943950521E+04  0.00000000000E+00 0. -1.
         21    1    1    2  503  502  0.10922913824E+01 -0.40453209539E+02 -0.91036838252E+02  0.99626106926E+02  0.00000000000E+00 0. -1.
         21    1    1    2  504  501 -0.82025289289E+02  0.76091904634E+02 -0.12873190782E+03  0.17055799637E+03  0.00000000000E+00 0. -1.
         21    1    1    2  505  503  0.32203505454E+02  0.18756005607E+02 -0.90295908029E+03  0.90372780979E+03  0.00000000000E+00 0. -1.
          1    1    1    2  501    0  0.48729492453E+02 -0.54394700702E+02 -0.14451531440E+04  0.14469972206E+04  0.00000000000E+00 0. -1.
<scales pt_clust_3="39.50302" pt_clust_4="87.02371" pt_clust_5="37.26732" pt_clust_6="14000.00000"></scales>
<clustering>
<clus scale="   37.267">  2  5  1 -1</clus>
<clus scale="   39.503">  1  3  2 -1</clus>
<clus scale="   87.024">  1  4  2 -1</clus>
<clus scale="   39.503">  1  3  2 -1</clus>
</clustering>
</event>
<event>
 6    0  0.2117869E+002  0.1383432E+03  0.7546771E-02  0.1215576E+00
         21   -1    0    0  504  502  0.00000000000E+00  0.00000000000E+00  0.21071159026E+02  0.21071159026E+02  0.00000000000E+00 0. -1.
          1   -1    0    0  503    0 -0.00000000000E+00 -0.00000000000E+00 -0.26599887293E+04  0.26599887293E+04  0.00000000000E+00 0.  1.
         21    1    1    2  503  505 -0.36662925215E+02  0.15197790868E+02 -0.17111183762E+03  0.17565421687E+03  0.00000000000E+00 0. -1.
         21    1    1    2  504  501  0.26014803489E+02  0.30240786429E+02 -0.79178992471E+02  0.88659957214E+02  0.00000000000E+00 0. -1.
         21    1    1    2  505  502 -0.10999346660E+03 -0.28027291624E+02 -0.24901824387E+03  0.27366800607E+03  0.00000000000E+00 0. -1.
          1    1    1    2  501    0  0.12064158833E+03 -0.17411285674E+02 -0.21396084963E+04  0.21430777081E+04  0.00000000000E+00 0.  1.
<scales pt_clust_3="36.00929" pt_clust_4="39.89079" pt_clust_5="36.00929" pt_clust_6="124.21902"></scales>
<clustering>
<clus scale="   36.009">  3  5 -1 -1</clus>
<clus scale="   39.891">  1  4  2 -1</clus>
<clus scale="  124.219">  2  6  1 -1</clus>
<clus scale="   39.891">  1  3  2 -1</clus>
</clustering>
</event>
<event>
 6    0  0.2117869E+002  0.7130215E+02  0.7546771E-02  0.1355720E+00
         -1   -1    0    0    0  501 -0.00000000000E+00  0.00000000000E+00  0.65609908954E+03  0.65609908954E+03  0.00000000000E+00 0. -1.
         21   -1    0    0  503  502  0.00000000000E+00 -0.00000000000E+00 -0.15163722792E+03  0.15163722792E+03  0.00000000000E+00 0. -1.
         21    1    1    2  503  504 -0.60753298505E+02  0.44384083928E+02 -0.11358881369E+03  0.13624730743E+03  0.00000000000E+00 0. -1.
         21    1    1    2  504  501 -0.19047222423E+02 -0.79795696111E+02  0.47572803092E+03  0.48274973766E+03  0.00000000000E+00 0. -1.
         21    1    1    2  505  502  0.42289565629E+02 -0.82768572684E+01  0.97212927414E+01  0.44174848725E+02  0.00000000000E+00 0. -1.
         -1    1    1    2    0  505  0.37510955298E+02  0.43688469452E+02  0.13260135164E+03  0.14456442366E+03  0.00000000000E+00 0. -1.
<scales pt_clust_3="42.50178" pt_clust_4="71.30215" pt_clust_5="43.09192" pt_clust_6="14000.00000"></scales>
<clustering>
<clus scale="   43.092">  2  5  1 -1</clus>
<clus scale="   42.502">  2  3  1 -1</clus>
<clus scale="   71.302">  1  4  2 -1</clus>
<clus scale="   43.092">  2  3  1 -1</clus>
</clustering>
</event>
<event>
 6    0  0.2117869E+002  0.1010761E+03  0.7546771E-02  0.1278049E+00
         21   -1    0    0  505  502  0.00000000000E+00  0.00000000000E+00  0.68859326989E+02  0.68859326989E+02  0.00000000000E+00 0.  1.
          2   -1    0    0  504    0 -0.00000000000E+00 -0.00000000000E+00 -0.16822307723E+04  0.16822307723E+04  0.00000000000E+00 0. -1.
         21    1    1    2  503  502 -0.40098618143E+02  0.11181248221E+02  0.21062419055E+02  0.46653456305E+02  0.00000000000E+00 0.  1.
         21    1    1    2  504  503 -0.85282539146E+01  0.94905873849E+02 -0.39686604365E+03  0.40814521020E+03  0.00000000000E+00 0. -1.
         21    1    1    2  505  501 -0.58268737037E+02 -0.48810327336E+02 -0.28533738024E+02  0.81190319473E+02  0.00000000000E+00 0.  1.
          2    1    1    2  501    0  0.10689560909E+03 -0.57276794734E+02 -0.12090340827E+04  0.12151011133E+04  0.00000000000E+00 0. -1.
<scales pt_clust_3="41.62835" pt_clust_4="101.07613" pt_clust_5="97.22250" pt_clust_6="14000.00000"></scales>
<clustering>
<clus scale="   41.628">  1  3  2 -1</clus>
<clus scale="   97.222">  1  5  2 -1</clus>
<clus scale="  101.076">  1  4  2 -1</clus>
<clus scale="   41.628">  1  3  2 -1</clus>
</clustering>
</event>
<event>
 6    0  0.2117869E+002  0.1184609E+03  0.7546771E-02  0.1245658E+00
          3   -1    0    0  505    0 -0.00000000000E+00  0.00000000000E+00  0.10075673482E+04  0.10075673482E+04  0.00000000000E+00 0. -1.
         21   -1    0    0  503  502  0.00000000000E+00 -0.00000000000E+00 -0.10147258535E+03  0.10147258535E+03  0.00000000000E+00 0. -1.
         21    1    1    2  503  501  0.52863142652E+01  0.75998873207E+02  0.28679537812E+03  0.29674123873E+03  0.00000000000E+00 0. -1.
         21    1    1    2  504  502 -0.22903077749E+02 -0.29710119493E+02 -0.31689894963E+02  0.49106940582E+02  0.00000000000E+00 0.  1.
         21    1    1    2  505  504  0.21215508277E+02 -0.10680815094E+03 -0.49172121903E+00  0.10889591676E+03  0.00000000000E+00 0. -1.
          3    1    1    2  501    0 -0.35987447934E+01  0.60519397224E+02  0.65148100095E+03  0.65429583753E+03  0.00000000000E+00 0. -1.
<scales pt_clust_3="14000.00000" pt_clust_4="37.51323" pt_clust_5="118.46090" pt_clust_6="59.97687"></scales>
<clustering>
<clus scale="   37.513">  2  4  1 -1</clus>
<clus scale="   59.977">  1  6  2 -1</clus>
<clus scale="  118.461">  2  5  1 -1</clus>
<clus scale="   37.513">  2  3  1 -1</clus>
</clustering>
</event>
<event>
 6    0  0.2117869E+002  0.1686340E+03  0.7546771E-02  0.1179280E+00
         21   -1    0    0  504  502  0.00000000000E+00  0.00000000000E+00  0.11012124543E+04  0.11012124543E+04  0.00000000000E+00 0. -1.
          1   -1    0    0  503    0 -0.00000000000E+00 -0.00000000000E+00 -0.13525615809E+04  0.13525615809E+04  0.00000000000E+00 0. -1.
         21    1    1    2  503  502 -0.38191984429E+02 -0.43330744245E+01  0.72360036672E+03  0.72462051718E+03  0.00000000000E+00 0. -1.
         21    1    1    2  504  505  0.19505422034E+03  0.30355146662E+02  0.34556855835E+03  0.39797639669E+03  0.00000000000E+00 0.  1.
         21    1    1    2  505  501 -0.62419244903E+02 -0.26399985276E+02 -0.38656122936E+03  0.39245726570E+03  0.00000000000E+00 0.  1.
          1    1    1    2  501    0 -0.94442991004E+02  0.37791303845E+00 -0.93395682233E+03  0.93871985563E+03  0.00000000000E+00 0. -1.
<scales pt_clust_3="38.43700" pt_clust_4="159.54851" pt_clust_5="46.29562" pt_clust_6="46.29562"></scales>
<clustering>
<clus scale="   38.437">  1  3  2 -1</clus>
<clus scale="   46.296">  5  6 -1 -1</clus>
<clus scale="  159.549">  1  4  2 -1</clus>
<clus scale="   38.437">  1  3  2 -1</clus>
</clustering>
</event>
<event>
 6    0  0.2117869E+002  0.1047227E+03  0.7546771E-02  0.1270667E+00
         21   -1    0    0  504  502  0.00000000000E+00  0.00000000000E+00  0.22253765387E+03  0.22253765387E+03  0.00000000000E+00 0. -1.
          3   -1    0    0  503    0 -0.00000000000E+00 -0.00000000000E+00 -0.38260005924E+03  0.38260005924E+03  0.00000000000E+00 0. -1.
         21    1    1    2  503  502 -0.88363593076E+02 -0.25944497106E+02  0.39303640037E+02  0.10013000365E+03  0.00000000000E+00 0. -1.
         21    1    1    2  504  505  0.28957432686E+02 -0.10222191593E+02  0.12384629832E+03  0.12759675434E+03  0.00000000000E+00 0. -1.
         21    1    1    2  505  501 -0.45764026195E+02  0.19790599692E+02 -0.16127733476E+02  0.52403413217E+02  0.00000000000E+00 0. -1.
          3    1    1    2  501    0  0.10517018658E+03  0.16376089007E+02 -0.30708461026E+03  0.32500754191E+03  0.00000000000E+00 0. -1.
<scales pt_clust_3="14000.00000" pt_clust_4="30.70873" pt_clust_5="44.12226" pt_clust_6="104.72269"></scales>
<clustering>
<clus scale="   30.709">  1  4  2 -1</clus>
<clus scale="   44.122">  1  5  2 -1</clus>
<clus scale="  104.723">  2  6  1 -1</clus>
<clus scale="   30.709">  1  3  2 -1</clus>
</clustering>
</event>
<event>
 6    0  0.2117869E+002  0.8667770E+02  0.7546771E-02  0.1311103E+00
          1   -1    0    0  505    0 -0.00000000000E+00  0.00000000000E+00  0.20653895358E+04  0.20653895358E+04  0.00000000000E+00 0. -1.
         21   -1    0    0  503  502  0.00000000000E+00 -0.00000000000E+00 -0.39434376682E+03  0.39434376682E+03  0.00000000000E+00 0.  1.
         21    1    1    2  503  501  0.73416772792E+02 -0.11454793559E+02 -0.12794168261E+03  0.14795373929E+03  0.00000000000E+00 0. -1.
         21    1    1    2  504  502 -0.11687546286E+02 -0.50882693783E+02 -0.24700306160E+03  0.25246021410E+03  0.00000000000E+00 0.  1.
         21    1    1    2  505  504 -0.13598876979E+02 -0.41563904288E+02  0.90841139622E+02  0.10081964215E+03  0.00000000000E+00 0.  1.
          1    1    1    2  501    0 -0.48130349527E+02  0.10390139163E+03  0.19551493736E+04  0.19584997071E+04  0.00000000000E+00 0. -1.
<scales pt_clust_3="14000.00000" pt_clust_4="52.26807" pt_clust_5="43.73200" pt_clust_6="86.67770"></scales>
<clustering>
<clus scale="   43.732">  1  5  2 -1</clus>
<clus scale="   52.268">  2  4  1 -1</clus>
<clus scale="   86.678">  1  6  2 -1</clus>
<clus scale="   52.268">  2  3  1 -1</clus>
</clustering>
</event>
<event>
 6    0  0.2117869E+002  0.1496128E+03  0.7546771E-02  0.1200950E+00
         21   -1    0    0  505  502  0.00000000000E+00  0.00000000000E+00  0.64026029775E+03  0.64026029775E+03  0.00000000000E+00 0. -1.
          4   -1    0    0  503    0 -0.00000000000E+00 -0.00000000000E+00 -0.46555267743E+03  0.46555267743E+03  0.00000000000E+00 0.  1.
         21    1    1    2  503  504 -0.50345813901E+02 -0.37450922363E+02 -0.10773986501E+03  0.12468019520E+03  0.00000000000E+00 0. -1.
         21    1    1    2  504  502 -0.56780017836E+02 -0.20645377568E+02  0.33686365785E+03  0.34223869743E+03  0.00000000000E+00 0. -1.
         21    1    1    2  505  501  0.51652650586E+02  0.17160362063E+03  0.25098209253E+03  0.30839554098E+03  0.00000000000E+00 0. -1.
          4    1    1    2  501    0  0.55473181152E+02 -0.11350732070E+03 -0.30539826505E+03  0.33049854156E+03  0.00000000000E+00 0.  1.
<scales pt_clust_3="64.37986" pt_clust_4="60.41690" pt_clust_5="149.61275" pt_clust_6="14000.00000"></scales>
<clustering>
<clus scale="   60.417">  1  4  2 -1</clus>
<clus scale="   64.380">  2  3  1 -1</clus>
<clus scale="  149.613">  1  5  2 -1</clus>
<clus scale="   60.417">  1  3  2 -1</clus>
</clustering>
</event>
<event>
 6    0  0.2117869E+002  0.1976842E+03  0.7546771E-02  0.1151708E+00
         -1   -1    0    0    0  501 -0.00000000000E+00  0.00000000000E+00  0.28245653654E+04  0.28245653654E+04  0.00000000000E+00 0.  1.
         21   -1    0    0  503  502  0.00000000000E+00 -0.00000000000E+00 -0.23717927305E+02  0.23717927305E+02  0.00000000000E+00 0.  1.
         21    1    1    2  503  501 -0.42973564969E+02  0.86729719336E+01  0.38074791114E+03  0.38326351191E+03  0.00000000000E+00 0.  1.
         21    1    1    2  504  502 -0.27055091705E+02  0.54416015419E+02  0.88838880960E+02  0.10763562371E+03  0.00000000000E+00 0.  1.
         21    1    1    2  505  504 -0.37742802991E+02  0.11022882259E+03  0.44078181181E+03  0.45592051734E+03  0.00000000000E+00 0.  1.
         -1    1    1    2    0  505  0.10777145967E+03 -0.17331780994E+03  0.18904788342E+04  0.19014636397E+04  0.00000000000E+00 0.  1.
<scales pt_clust_3="43.84002" pt_clust_4="54.46490" pt_clust_5="54.46490" pt_clust_6="182.45076"></scales>
<clustering>
<clus scale="   43.840">  1  3  2 -1</clus>
<clus scale="   54.465">  4  5 -1 -1</clus>
<clus scale="  182.451">  1  6  2 -1</clus>
<clus scale="  197.684">  2  3  1 -1</clus>
</clustering>
</event>
<event>
 6    0  0.2117869E+002  0.1074358E+03  0.7546771E-02  0.1265393E+00
         21   -1    0    0  503  502  0.00000000000E+00  0.00000000000E+00  0.63405378251E+03  0.63405378251E+03  0.00000000000E+00 0. -1.
          1   -1    0    0  504    0 -0.00000000000E+00 -0.00000000000E+00 -0.11520023721E+04  0.11520023721E+04  0.00000000000E+00 0. -1.
         21    1    1    2  503  501 -0.10818902583E+02 -0.54584623862E+02  0.10519681769E+03  0.11900798405E+03  0.00000000000E+00 0. -1.
         21    1    1    2  504  505  0.80552727202E+02  0.87789040995E+02 -0.83078962885E+03  0.83928961925E+03  0.00000000000E+00 0. -1.
         21    1    1    2  505  502  0.43413896409E+02 -0.46267478346E+02  0.50518955157E+03  0.50915805893E+03  0.00000000000E+00 0. -1.
          1    1    1    2  501    0 -0.11314772103E+03  0.13063061213E+02 -0.29754533001E+03  0.31860049240E+03  0.00000000000E+00 0. -1.
<scales pt_clust_3="55.64647" pt_clust_4="14000.00000" pt_clust_5="104.61508" pt_clust_6="107.43577"></scales>
<clustering>
<clus scale="   55.646">  1  3  2 -1</clus>
<clus scale="  104.615">  1  5  2 -1</clus>
<clus scale="  107.436">  1  6  2 -1</clus>
<clus scale="   55.646">  1  3  2 -1</clus>
</clustering>
</event>
<event>
 6    0  0.2117869E+002  0.1905920E+03  0.7546771E-02  0.1157928E+00
         21   -1    0    0  503  502  0.00000000000E+00  0.00000000000E+00  0.26134367132E+03  0.26134367132E+03  0.00000000000E+00 0. -1.
          3   -1    0    0  505    0 -0.00000000000E+00 -0.00000000000E+00 -0.73401003940E+03  0.73401003940E+03  0.00000000000E+00 0. -1.
         21    1    1    2  503  501  0.17943938864E+02 -0.10149744461E+03  0.26691020824E+02  0.10647124869E+03  0.00000000000E+00 0.  1.
         21    1    1    2  504  502 -0.91593301637E+02 -0.17130523327E+02 -0.48448992831E+02  0.10502424787E+03  0.00000000000E+00 0. -1.
         21    1    1    2  505  504 -0.89715015159E+02  0.21621344476E+03  0.57464647580E+02  0.24103780484E+03  0.00000000000E+00 0. -1.
          3    1    1    2  501    0  0.16336437793E+03 -0.97585476821E+02 -0.50837304366E+03  0.54282040933E+03  0.00000000000E+00 0. -1.
<scales pt_clust_3="106.70873" pt_clust_4="93.18148" pt_clust_5="14000.00000" pt_clust_6="190.59205"></scales>
<clustering>
<clus scale="   93.181">  1  4  2 -1</clus>
<clus scale="  106.709">  1  3  2 -1</clus>
<clus scale="  190.592">  2  6  1 -1</clus>
<clus scale="   93.181">  1  3  2 -1</clus>
</clustering>
</event>
<event>
 6    0  0.2117869E+002  0.9766897E+02  0.7546771E-02  0.1285276E+00
         21   -1    0    0  505  502  0.00000000000E+00  0.00000000000E+00  0.69944975993E+02  0.69944975993E+02  0.00000000000E+00 0.  1.
          2   -1    0    0  504    0 -0.00000000000E+00 -0.00000000000E+00 -0.92949927022E+03  0.92949927022E+03  0.00000000000E+00 0.  1.
         21    1    1    2  503  502 -0.12909646026E+02 -0.10925956046E+03 -0.10575992468E+03  0.15260888631E+03  0.00000000000E+00 0.  1.
         21    1    1    2  504  503 -0.42786807109E+02  0.63180758063E+01 -0.11504738666E+03  0.12290862509E+03  0.00000000000E+00 0.  1.
         21    1    1    2  505  501  0.10347319742E+03  0.44383359640E+02 -0.38575130136E+02  0.11901523374E+03  0.00000000000E+00 0.  1.
          2    1    1    2  501    0 -0.47776744285E+02  0.58558125011E+02 -0.60017185274E+03  0.60491150107E+03  0.00000000000E+00 0.  1.
<scales pt_clust_3="97.66897" pt_clust_4="43.25077" pt_clust_5="14000.00000" pt_clust_6="101.66061"></scales>
<clustering>
<clus scale="   43.251">  2  4  1 -1</clus>
<clus scale="  101.661">  2  6  1 -1</clus>
<clus scale="   97.669">  2  3  1 -1</clus>
<clus scale="   97.669">  1  3  2 -1</clus>
</clustering>
</event>
<event>
 6    0  0.2117869E+002  0.1165188E+03  0.7546771E-02  0.1248953E+00
         21   -1    0    0  503  502  0.00000000000E+00  0.00000000000E+00  0.62657220445E+02  0.62657220445E+02  0.00000000000E+00 0. -1.
         -2   -1    0    0    0  501 -0.00000000000E+00 -0.00000000000E+00 -0.90367521001E+03  0.90367521001E+03  0.00000000000E+00 0.  1.
         21    1    1    2  503  501  0.45556146259E+02  0.15877365489E+01  0.36666900298E+02  0.58500811505E+02  0.00000000000E+00 0. -1.
         21    1    1    2  504  502  0.31173929903E+02  0.14862737852E+02 -0.10346194090E+03  0.10907377364E+03  0.00000000000E+00 0. -1.
         21    1    1    2  505  504  0.11473484288E+02  0.65765451954E+02 -0.17034861313E+03  0.18296279815E+03  0.00000000000E+00 0. -1.
         -2    1    1    2    0  505 -0.88203560450E+02 -0.82215926355E+02 -0.60387433584E+03  0.61579504716E+03  0.00000000000E+00 0.  1.
<scales pt_clust_3="45.58381" pt_clust_4="32.11299" pt_clust_5="32.11299" pt_clust_6="107.62527"></scales>
<clustering>
<clus scale="   32.113">  4  5 -1 -1</clus>
<clus scale="   45.584">  1  3  2 -1</clus>
<clus scale="  107.625">  2  6  1 -1</clus>
<clus scale="   45.584">  1  3  2 -1</clus>
</clustering>
</event>
<event>
 6    0  0.2117869E+002  0.1504350E+03  0.7546771E-02  0.1199940E+00
          4   -1    0    0  504    0 -0.00000000000E+00  0.00000000000E+00  0.79895977398E+03  0.79895977398E+03  0.00000000000E+00 0. -1.
         21   -1    0    0  501  502  0.00000000000E+00 -0.00000000000E+00 -0.21780733183E+03  0.21780733183E+03  0.00000000000E+00 0.  1.
         21    1    1    2  503  505  0.47518770584E+02  0.12744628917E+02  0.56645686582E+02  0.75027947675E+02  0.00000000000E+00 0. -1.
         21    1    1    2  504  503 -0.33174080965E+02  0.50535439298E+01  0.18976260967E+03  0.19270678758E+03  0.00000000000E+00 0. -1.
         21    1    1    2  505  502 -0.53888116902E+02 -0.14169161576E+03 -0.17001769481E+03  0.22778599533E+03  0.00000000000E+00 0.  1.
          4    1    1    2  501    0  0.39543427283E+02  0.12389344291E+03  0.50476184071E+03  0.52124637522E+03  0.00000000000E+00 0. -1.
<scales pt_clust_3="45.89203" pt_clust_4="33.55679" pt_clust_5="150.43496" pt_clust_6="14000.00000"></scales>
<clustering>
<clus scale="   33.557">  1  4  2 -1</clus>
<clus scale="   45.892">  1  3  2 -1</clus>
<clus scale="  150.435">  2  5  1 -1</clus>
<clus scale="  150.435">  2  3  1 -1</clus>
</clustering>
</event>
<event>
 6    0  0.2117869E+002  0.1312409E+03  0.7546771E-02  0.1225626E+00
         21   -1    0    0  504  502  0.00000000000E+00  0.00000000000E+00  0.34032605174E+03  0.34032605174E+03  0.00000000000E+00 0.  1.
          2   -1    0    0  503    0 -0.00000000000E+00 -0.00000000000E+00 -0.86643153789E+03  0.86643153789E+03  0.00000000000E+00 0. -1.
         21    1    1    2  503  505 -0.30609814948E+02  0.63653194654E+02 -0.28007388794E+03  0.28884264344E+03  0.00000000000E+00 0.  1.
         21    1    1    2  504  501 -0.49096125040E+02 -0.47214199229E+02  0.24926025015E+03  0.25839946286E+03  0.00000000000E+00 0.  1.
         21    1    1    2  505  502 -0.51928857319E+02 -0.43012127226E+02  0.58748994947E+02  0.89432062026E+02  0.00000000000E+00 0.  1.
          2    1    1    2  501    0  0.13163479731E+03  0.26573131801E+02 -0.55404084331E+03  0.57008342131E+03  0.00000000000E+00 0. -1.
<scales pt_clust_3="70.37117" pt_clust_4="14000.00000" pt_clust_5="67.42885" pt_clust_6="131.24086"></scales>
<clustering>
<clus scale="   67.429">  1  5  2 -1</clus>
<clus scale="   70.371">  2  3  1 -1</clus>
<clus scale="  131.241">  2  6  1 -1</clus>
<clus scale="   67.429">  1  3  2 -1</clus>
</clustering>
</event>
<event>
 6    0  0.2117869E+002  0.1240182E+03  0.7546771E-02  0.1236612E+00
         21   -1    0    0  503  502  0.00000000000E+00  0.00000000000E+00  0.15442852119E+03  0.15442852119E+03  0.00000000000E+00 0. -1.
          1   -1    0    0  505    0 -0.00000000000E+00 -0.00000000000E+00 -0.11793558092E+04  0.11793558092E+04  0.00000000000E+00 0.  1.
         21    1    1    2  503  501 -0.51383218962E+01 -0.12835978407E+03 -0.16165244903E+03  0.20648038840E+03  0.00000000000E+00 0.  1.
         21    1    1    2  504  502  0.16319516519E+02  0.12229393587E+03  0.98639263623E+02  0.15796150701E+03  0.00000000000E+00 0. -1.
         21    1    1    2  505  504 -0.30465446681E+02  0.31514439732E+02 -0.13765730489E+03  0.14446742520E+03  0.00000000000E+00 0. -1.
          1    1    1    2  501    0  0.19284252059E+02 -0.25448591528E+02 -0.82425679774E+03  0.82487500981E+03  0.00000000000E+00 0.  1.
<scales pt_clust_3="124.01815" pt_clust_4="14000.00000" pt_clust_5="31.26586" pt_clust_6="31.92982"></scales>
<clustering>
<clus scale="   31.930">  2  6  1 -1</clus>
<clus scale="   31.266">  2  5  1 -1</clus>
<clus scale="  124.018">  2  3  1 -1</clus>
<clus scale="  124.018">  1  3  2 -1</clus>
</clustering>
</event>
<event>
 6    0  0.2117869E+002  0.1363355E+03  0.7546771E-02  0.1218347E+00
         -1   -1    0    0    0  501 -0.00000000000E+00  0.00000000000E+00  0.25695753460E+03  0.25695753460E+03  0.00000000000E+00 0.  1.
         21   -1    0    0  503  502  0.00000000000E+00 -0.00000000000E+00 -0.33752602962E+03  0.33752602962E+03  0.00000000000E+00 0. -1.
         21    1    1    2  503  505  0.47024850442E+02 -0.22424802056E+02 -0.11120400995E+03  0.12280285068E+03  0.00000000000E+00 0. -1.
         21    1    1    2  504  502  0.81721878296E+02  0.93392220846E+02 -0.13711442610E+03  0.18493495654E+03  0.00000000000E+00 0. -1.
         21    1    1    2  505  501  0.22130039374E+02 -0.64012258973E+02  0.10102143973E+03  0.12162499426E+03  0.00000000000E+00 0.  1.
         -1    1    1    2    0  504 -0.15087676811E+03 -0.69551598165E+01  0.66728501291E+02  0.16512076274E+03  0.00000000000E+00 0.  1.
<scales pt_clust_3="52.09806" pt_clust_4="14000.00000" pt_clust_5="69.45917" pt_clust_6="136.33551"></scales>
<clustering>
<clus scale="   52.098">  2  3  1 -1</clus>
<clus scale="   69.459">  1  5  2 -1</clus>
<clus scale="  136.336">  1  6  2 -1</clus>
<clus scale="   52.098">  2  3  1 -1</clus>
</clustering>
</event>
<event>
 6    0  0.2117869E+002  0.7932534E+02  0.7546771E-02  0.1330977E+00
          2   -1    0    0  504    0 -0.00000000000E+00  0.00000000000E+00  0.18968267606E+04  0.18968267606E+04  0.00000000000E+00 0.  1.
         21   -1    0    0  505  502  0.00000000000E+00 -0.00000000000E+00 -0.12708680731E+03  0.12708680731E+03  0.00000000000E+00 0.  1.
         21    1    1    2  503  502  0.43448465349E+02  0.73258702460E+02 -0.17260181355E+02  0.86905238552E+02  0.00000000000E+00 0.  1.
         21    1    1    2  504  503 -0.42359981080E+02  0.21595120903E+02  0.40688143126E+03  0.40965011454E+03  0.00000000000E+00 0.  1.
         21    1    1    2  505  501  0.39143973135E+02 -0.84455051201E+02 -0.43770459696E+02  0.10286281859E+03  0.00000000000E+00 0.  1.
          2    1    1    2  501    0 -0.40232457404E+02 -0.10398772161E+02  0.14238891630E+04  0.14244953962E+04  0.00000000000E+00 0.  1.
<scales pt_clust_3="79.32534" pt_clust_4="78.13777" pt_clust_5="14000.00000" pt_clust_6="41.55460"></scales>
<clustering>
<clus scale="   41.555">  1  6  2 -1</clus>
<clus scale="   78.138">  1  4  2 -1</clus>
<clus scale="   79.325">  1  3  2 -1</clus>
<clus scale="   79.325">  2  3  1 -1</clus>
</clustering>
</event>
<event>
 6    0  0.2117869E+002  0.1085766E+03  0.7546771E-02  0.1263229E+00
          2   -1    0    0  504    0 -0.00000000000E+00  0.00000000000E+00  0.66791297987E+03  0.66791297987E+03  0.00000000000E+00 0. -1.
         21   -1    0    0  505  502  0.00000000000E+00 -0.00000000000E+00 -0.17434018971E+03  0.17434018971E+03  0.00000000000E+00 0.  1.
         21    1    1    2  503  501  0.45067490373E+01 -0.38395476314E+02  0.25710162050E+03  0.25999185882E+03  0.00000000000E+00 0.  1.
         21    1    1    2  504  502  0.39594212466E+02  0.16317710305E+02 -0.28973903099E+00  0.42825848259E+02  0.00000000000E+00 0.  1.
         21    1    1    2  505  503 -0.98932428398E+02  0.63853648298E+02 -0.12467209185E+03  0.17148773798E+03  0.00000000000E+00 0.  1.
          2    1    1    2  501    0  0.54831466895E+02 -0.41775882289E+02  0.36143300054E+03  0.36794772453E+03  0.00000000000E+00 0. -1.
<scales pt_clust_3="31.54714" pt_clust_4="42.82487" pt_clust_5="100.07150" pt_clust_6="31.54714"></scales>
<clustering>
<clus scale="   31.547">  3  6 -1 -1</clus>
<clus scale="   42.825">  2  4  1 -1</clus>
<clus scale="  100.071">  2  5  1 -1</clus>
<clus scale="   42.825">  2  3  1 -1</clus>
</clustering>
</event>
<event>
 6    0  0.2117869E+002  0.2544747E+03  0.7546771E-02  0.1110509E+00
          2   -1    0    0  505    0 -0.00000000000E+00  0.00000000000E+00  0.31329757653E+04  0.31329757653E+04  0.00000000000E+00 0. -1.
         21   -1    0    0  501  502  0.00000000000E+00 -0.00000000000E+00 -0.54075844355E+02  0.54075844355E+02  0.00000000000E+00 0. -1.
         21    1    1    2  503  504  0.10142166001E+03 -0.15532199777E+03  0.88125817875E+03  0.90057051568E+03  0.00000000000E+00 0. -1.
         21    1    1    2  504  502 -0.10613134564E+03 -0.27965138439E+02  0.57180572624E+02  0.12375592665E+03  0.00000000000E+00 0. -1.
         21    1    1    2  505  503  0.17072855402E+02 -0.57753084489E+02  0.65740690125E+03  0.66015962840E+03  0.00000000000E+00 0. -1.
          2    1    1    2  501    0 -0.12363169767E+02  0.24104022070E+03  0.14830542683E+04  0.15025655389E+04  0.00000000000E+00 0. -1.
<scales pt_clust_3="53.89311" pt_clust_4="109.75387" pt_clust_5="53.89311" pt_clust_6="236.24344"></scales>
<clustering>
<clus scale="   53.893">  3  5 -1 -1</clus>
<clus scale="  109.754">  2  4  1 -1</clus>
<clus scale="  236.243">  1  6  2 -1</clus>
<clus scale="  109.754">  2  3  1 -1</clus>
</clustering>
</event>
<event>
 6    0  0.2117869E+002  0.6059310E+03  0.7546771E-02  0.9893177E-01
          1   -1    0    0  504    0 -0.00000000000E+00  0.00000000000E+00  0.24524947728E+04  0.24524947728E+04  0.00000000000E+00 0. -1.
         21   -1    0    0  505  502  0.00000000000E+00 -0.00000000000E+00 -0.33740586087E+03  0.33740586087E+03  0.00000000000E+00 0. -1.
         21    1    1    2  503  502  0.30202756337E+02 -0.95149815112E+01  0.55596851843E+01  0.32150450430E+02  0.00000000000E+00 0. -1.
         21    1    1    2  504  503  0.36208980927E+02 -0.59091727353E+01  0.54274639203E+02  0.65511411852E+02  0.00000000000E+00 0. -1.
         21    1    1    2  505  501  0.29656885414E+03  0.51880801135E+03  0.57549613993E+02  0.60035555795E+03  0.00000000000E+00 0. -1.
          1    1    1    2  501    0 -0.36298059141E+03 -0.50338385710E+03  0.19977049735E+04  0.20918832134E+04  0.00000000000E+00 0. -1.
<scales pt_clust_3="31.66609" pt_clust_4="37.23136" pt_clust_5="605.93105" pt_clust_6="14000.00000"></scales>
<clustering>
<clus scale="   31.666">  2  3  1 -1</clus>
<clus scale="   37.231">  1  4  2 -1</clus>
<clus scale="  605.931">  2  5  1 -1</clus>
<clus scale="   31.666">  2  3  1 -1</clus>
</clustering>
</event>
<event>
 6    0  0.2117869E+002  0.8832352E+02  0.7546771E-02  0.1306963E+00
          1   -1    0    0  503    0 -0.00000000000E+00  0.00000000000E+00  0.64616099526E+03  0.64616099526E+03  0.00000000000E+00 0.  1.
         21   -1    0    0  504  502  0.00000000000E+00 -0.00000000000E+00 -0.45548866599E+03  0.45548866599E+03  0.00000000000E+00 0. -1.
         21    1    1    2  503  505  0.46924778751E+02  0.53519527874E+01  0.35771793083E+03  0.36082225027E+03  0.00000000000E+00 0.  1.
         21    1    1    2  504  501 -0.46565348009E+02 -0.18324096443E+01 -0.32542426235E+02  0.56839237025E+02  0.00000000000E+00 0. -1.
         21    1    1    2  505  502  0.12994160434E+03  0.49892147969E+01 -0.38234429016E+03  0.40385253375E+03  0.00000000000E+00 0. -1.
          1    1    1    2  501    0 -0.13030103508E+03 -0.85087579400E+01  0.24784111483E+03  0.28013564019E+03  0.00000000000E+00 0.  1.
<scales pt_clust_3="47.05341" pt_clust_4="46.60139" pt_clust_5="14000.00000" pt_clust_6="88.32352"></scales>
<clustering>
<clus scale="   46.601">  2  4  1 -1</clus>
<clus scale="   47.053">  1  3  2 -1</clus>
<clus scale="   88.324">  1  6  2 -1</clus>
<clus scale="   46.601">  2  3  1 -1</clus>
</clustering>
</event>
<event>
 6    0  0.2117869E+002  0.6995329E+02  0.7546771E-02  0.1360252E+00
         -3   -1    0    0    0  501 -0.00000000000E+00  0.00000000000E+00  0.66475107795E+03  0.66475107795E+03  0.00000000000E+00 0. -1.
         21   -1    0    0  503  502  0.00000000000E+00 -0.00000000000E+00 -0.25958820879E+03  0.25958820879E+03  0.00000000000E+00 0.  1.
         21    1    1    2  503  504 -0.40950140208E+02  0.42271099306E+02 -0.13659771388E+03  0.14873700030E+03  0.00000000000E+00 0.  1.
         21    1    1    2  504  501 -0.19414214365E+02  0.72643251425E+02  0.27055865286E+03  0.28081299531E+03  0.00000000000E+00 0. -1.
         21    1    1    2  505  502  0.97708866737E+01 -0.65563749101E+02 -0.98314719908E+02  0.11857427872E+03  0.00000000000E+00 0.  1.
         -3    1    1    2    0  505  0.50593467899E+02 -0.49350601630E+02  0.36951665008E+03  0.37621501241E+03  0.00000000000E+00 0. -1.
<scales pt_clust_3="58.85372" pt_clust_4="69.95329" pt_clust_5="38.60742" pt_clust_6="14000.00000"></scales>
<clustering>
<clus scale="   58.854">  2  3  1 -1</clus>
<clus scale="   38.607">  2  5  1 -1</clus>
<clus scale="   69.953">  2  4  1 -1</clus>
<clus scale="   58.854">  2  3  1 -1</clus>
</clustering>
</event>
<event>
 6    0  0.2117869E+002  0.1408990E+03  0.7546771E-02  0.1212124E+00
          2   -1    0    0  504    0 -0.00000000000E+00  0.00000000000E+00  0.23186854331E+04  0.23186854331E+04  0.00000000000E+00 0. -1.
         21   -1    0    0  503  502  0.00000000000E+00 -0.00000000000E+00 -0.69009355802E+02  0.69009355802E+02  0.00000000000E+00 0.  1.
         21    1    1    2  503  505  0.38476994395E+02  0.80183806502E+01  0.22120791747E+02  0.45101030514E+02  0.00000000000E+00 0.  1.
         21    1    1    2  504  502  0.65669166299E+01 -0.36939051949E+02  0.14481494725E+04  0.14486353967E+04  0.00000000000E+00 0. -1.
         21    1    1    2  505  501 -0.13003317583E+03  0.10364506555E+03  0.78336340651E+02  0.18381378810E+03  0.00000000000E+00 0.  1.
          2    1    1    2  501    0  0.84989264805E+02 -0.74724394247E+02  0.70106947243E+03  0.71014457359E+03  0.00000000000E+00 0. -1.
<scales pt_clust_3="39.28755" pt_clust_4="37.51823" pt_clust_5="140.89905" pt_clust_6="14000.00000"></scales>
<clustering>
<clus scale="   37.518">  1  4  2 -1</clus>
<clus scale="   39.288">  2  3  1 -1</clus>
<clus scale="  140.899">  2  5  1 -1</clus>
<clus scale="   39.288">  2  3  1 -1</clus>
</clustering>
</event>
<event>
 6    0  0.2117869E+002  0.4624556E+03  0.7546771E-02  0.1024071E+00
         21   -1    0    0  501  502  0.00000000000E+00  0.00000000000E+00  0.33030183650E+03  0.33030183650E+03  0.00000000000E+00 0. -1.
          2   -1    0    0  503    0 -0.00000000000E+00 -0.00000000000E+00 -0.22668157656E+04  0.22668157656E+04  0.00000000000E+00 0.  1.
         21    1    1    2  503  505 -0.11938568496E+03  0.39820314587E+02 -0.21761166732E+03  0.25138304832E+03  0.00000000000E+00 0. -1.
         21    1    1    2  504  502 -0.44575000471E+03  0.31693996332E+02  0.50077444556E+02  0.44967246587E+03  0.00000000000E+00 0. -1.
         21    1    1    2  505  504 -0.29813218900E+02  0.37776516523E+02 -0.34736377372E+02  0.59350729858E+02  0.00000000000E+00 0.  1.
          2    1    1    2  501    0  0.59494890857E+03 -0.10929082744E+03 -0.17342433290E+04  0.18367113581E+04  0.00000000000E+00 0.  1.
<scales pt_clust_3="181.31725" pt_clust_4="462.45563" pt_clust_5="41.91439" pt_clust_6="14000.00000"></scales>
<clustering>
<clus scale="   41.914">  3  5 -1 -1</clus>
<clus scale="  181.317">  2  3  1 -1</clus>
<clus scale="  462.456">  1  4  2 -1</clus>
<clus scale="  462.456">  1  3  2 -1</clus>
</clustering>
</event>
<event>
 6    0  0.2117869E+002  0.3491566E+03  0.7546771E-02  0.1062962E+00
          1   -1    0    0  503    0 -0.00000000000E+00  0.00000000000E+00  0.19698062567E+04  0.19698062567E+04  0.00000000000E+00 0. -1.
         21   -1    0    0  501  502  0.00000000000E+00 -0.00000000000E+00 -0.21494541749E+03  0.21494541749E+03  0.00000000000E+00 0. -1.
         21    1    1    2  503  505  0.20422888930E+02  0.25440007303E+02  0.17585360099E+03  0.17885406717E+03  0.00000000000E+00 0.  1.
         21    1    1    2  504  502  0.45288362167E+02  0.21947429552E+03  0.22001828809E+02  0.22517567056E+03  0.00000000000E+00 0. -1.
         21    1    1    2  505  504  0.30505646675E+03 -0.11345164281E+03  0.23503541185E+03  0.40146278531E+03  0.00000000000E+00 0. -1.
          1    1    1    2  501    0 -0.37076771785E+03 -0.13146266002E+03  0.13219699976E+04  0.13792591512E+04  0.00000000000E+00 0. -1.
<scales pt_clust_3="32.62343" pt_clust_4="226.10298" pt_clust_5="349.15658" pt_clust_6="14000.00000"></scales>
<clustering>
<clus scale="   32.623">  1  3  2 -1</clus>
<clus scale="  226.103">  2  4  1 -1</clus>
<clus scale="  349.157">  2  5  1 -1</clus>
<clus scale="  226.103">  2  3  1 -1</clus>
</clustering>
</event>
<event>
 6    0  0.2117869E+002  0.1395066E+03  0.7546771E-02  0.1213994E+00
          1   -1    0    0  502    0 -0.00000000000E+00  0.00000000000E+00  0.12690926771E+04  0.12690926771E+04  0.00000000000E+00 0. -1.
         21   -1    0    0  504  502  0.00000000000E+00 -0.00000000000E+00 -0.48709382083E+02  0.48709382083E+02  0.00000000000E+00 0. -1.
         21    1    1    2  503  505  0.29781036060E+02  0.90006344823E+02  0.65630033146E+02  0.11530547892E+03  0.00000000000E+00 0. -1.
         21    1    1    2  504  503 -0.25819361172E+02  0.39853459695E+02  0.12364697269E+02  0.49069577128E+02  0.00000000000E+00 0. -1.
         21    1    1    2  505  501  0.39900778251E+02 -0.92252812792E+02  0.66456279704E+03  0.67212079627E+03  0.00000000000E+00 0. -1.
          1    1    1    2  501    0 -0.43862453140E+02 -0.37606991727E+02  0.47782576755E+03  0.48130620686E+03  0.00000000000E+00 0. -1.
<scales pt_clust_3="45.07696" pt_clust_4="45.07696" pt_clust_5="124.11842" pt_clust_6="57.77716"></scales>
<clustering>
<clus scale="   45.077">  3  4 -1 -1</clus>
<clus scale="   57.777">  1  6  2 -1</clus>
<clus scale="  124.118">  1  5  2 -1</clus>
<clus scale="  139.507">  2  3  1 -1</clus>
</clustering>
</event>
<event>
 6    0  0.2117869E+002  0.1780547E+03  0.7546771E-02  0.1169699E+00
          2   -1    0    0  503    0 -0.00000000000E+00  0.00000000000E+00  0.10599001318E+04  0.10599001318E+04  0.00000000000E+00 0. -1.
         21   -1    0    0  504  502  0.00000000000E+00 -0.00000000000E+00 -0.14450305537E+03  0.14450305537E+03  0.00000000000E+00 0. -1.
         21    1    1    2  503  505 -0.12212418961E+02  0.31730376194E+02  0.66232234962E+03  0.66319443209E+03  0.00000000000E+00 0. -1.
         21    1    1    2  504  501 -0.12766532978E+03  0.10596885871E+03 -0.12494014124E+02  0.16638490266E+03  0.00000000000E+00 0. -1.
         21    1    1    2  505  502  0.18547036255E+02  0.28444419082E+02 -0.56312144985E+01  0.34420751117E+02  0.00000000000E+00 0.  1.
          2    1    1    2  501    0  0.12133071248E+03 -0.16614365399E+03  0.27119995541E+03  0.34040310129E+03  0.00000000000E+00 0. -1.
<scales pt_clust_3="34.06920" pt_clust_4="178.05471" pt_clust_5="33.95700" pt_clust_6="14000.00000"></scales>
<clustering>
<clus scale="   33.957">  2  5  1 -1</clus>
<clus scale="   34.069">  1  3  2 -1</clus>
<clus scale="  178.055">  2  4  1 -1</clus>
<clus scale="   33.957">  2  3  1 -1</clus>
</clustering>
</event>
<event>
 6    0  0.2117869E+002  0.1515584E+03  0.7546771E-02  0.1198571E+00
         -3   -1    0    0    0  501 -0.00000000000E+00  0.00000000000E+00  0.10574614079E+03  0.10574614079E+03  0.00000000000E+00 0. -1.
         21   -1    0    0  505  502  0.00000000000E+00 -0.00000000000E+00 -0.84928639387E+03  0.84928639387E+03  0.00000000000E+00 0. -1.
         21    1    1    2  503  502 -0.20691721857E+02  0.52732390133E+02 -0.26367900101E+03  0.26969513881E+03  0.00000000000E+00 0. -1.
         21    1    1    2  504  501 -0.33951527518E+02 -0.16296887298E+02 -0.24418716070E+02  0.44883944244E+02  0.00000000000E+00 0.  1.
         21    1    1    2  505  504  0.16955104905E+03 -0.83223545352E+02 -0.47834990809E+03  0.51428819869E+03  0.00000000000E+00 0. -1.
         -3    1    1    2    0  503 -0.11490779967E+03  0.46788042517E+02  0.22907372093E+02  0.12616525292E+03  0.00000000000E+00 0. -1.
<scales pt_clust_3="56.57189" pt_clust_4="37.66025" pt_clust_5="151.55843" pt_clust_6="14000.00000"></scales>
<clustering>
<clus scale="   37.660">  1  4  2 -1</clus>
<clus scale="   56.572">  2  3  1 -1</clus>
<clus scale="  151.558">  2  5  1 -1</clus>
<clus scale="   56.572">  2  3  1 -1</clus>
</clustering>
</event>
<event>
 6    0  0.2117869E+002  0.1155991E+03  0.7546771E-02  0.1250539E+00
         21   -1    0    0  505  502  0.00000000000E+00  0.00000000000E+00  0.19033717948E+03  0.19033717948E+03  0.00000000000E+00 0.  1.
          2   -1    0    0  503    0 -0.00000000000E+00 -0.00000000000E+00 -0.16039133982E+04  0.16039133982E+04  0.00000000000E+00 0.  1.
         21    1    1    2  503  504 -0.38464632247E+02  0.46000946466E+02 -0.29847770502E+03  0.30444138255E+03  0.00000000000E+00 0.  1.
         21    1    1    2  504  502  0.52650601827E+02  0.51357031015E+02 -0.10986330005E+02  0.74366188247E+02  0.00000000000E+00 0. -1.
         21    1    1    2  505  501  0.53889284587E+02  0.13248189920E+02  0.14724956216E+03  0.15735947092E+03  0.00000000000E+00 0.  1.
          2    1    1    2  501    0 -0.68075254167E+02 -0.11060616740E+03 -0.12513617458E+04  0.12580835360E+04  0.00000000000E+00 0.  1.
<scales pt_clust_3="58.18142" pt_clust_4="115.59911" pt_clust_5="55.49387" pt_clust_6="14000.00000"></scales>
<clustering>
<clus scale="   55.494">  1  5  2 -1</clus>
<clus scale="   58.181">  2  3  1 -1</clus>
<clus scale="  115.599">  1  4  2 -1</clus>
<clus scale="   55.494">  1  3  2 -1</clus>
</clustering>
</event>
<event>
 6    0  0.2117869E+002  0.1045167E+03  0.7546771E-02  0.1271075E+00
         -2   -1    0    0    0  501 -0.00000000000E+00  0.00000000000E+00  0.41861910752E+03  0.41861910752E+03  0.00000000000E+00 0. -1.
         21   -1    0    0  505  502  0.00000000000E+00 -0.00000000000E+00 -0.49976559615E+02  0.49976559615E+02  0.00000000000E+00 0. -1.
         21    1    1    2  503  502  0.28658032513E+02 -0.53810416150E+02  0.38382197241E+02  0.72041909878E+02  0.00000000000E+00 0. -1.
         21    1    1    2  504  503 -0.22848597268E+02 -0.43166475627E+02  0.20670847580E+02  0.53034771187E+02  0.00000000000E+00 0. -1.
         21    1    1    2  505  501  0.51240148905E+02  0.29808250714E+02  0.10159029970E+03  0.11762088957E+03  0.00000000000E+00 0. -1.
         -2    1    1    2    0  504 -0.57049584150E+02  0.67168641062E+02  0.20799920339E+03  0.22589809650E+03  0.00000000000E+00 0. -1.
<scales pt_clust_3="46.66844" pt_clust_4="46.66844" pt_clust_5="59.27972" pt_clust_6="90.58198"></scales>
<clustering>
<clus scale="   46.668">  3  4 -1 -1</clus>
<clus scale="   59.280">  1  5  2 -1</clus>
<clus scale="   90.582">  1  6  2 -1</clus>
<clus scale="  104.517">  2  3  1 -1</clus>
</clustering>
</event>
<event>
 6    0  0.2117869E+002  0.7952161E+02  0.7546771E-02  0.1330415E+00
         -4   -1    0    0    0  501 -0.00000000000E+00  0.00000000000E+00  0.77078695822E+03  0.77078695822E+03  0.00000000000E+00 0.  1.
         21   -1    0    0  505  502  0.00000000000E+00 -0.00000000000E+00 -0.60838909978E+03  0.60838909978E+03  0.00000000000E+00 0.  1.
         21    1    1    2  503  502  0.64366586828E+01  0.52423767083E+02  0.21337617775E+02  0.56964689611E+02  0.00000000000E+00 0. -1.
         21    1    1    2  504  501 -0.30620914699E+02 -0.89329045832E+02 -0.39925990980E+02  0.10252513644E+03  0.00000000000E+00 0. -1.
         21    1    1    2  505  504  0.40444910930E+02  0.67039773287E+02 -0.51597642718E+03  0.52188293269E+03  0.00000000000E+00 0.  1.
         -4    1    1    2    0  503 -0.16260654913E+02 -0.30134494538E+02  0.69696265883E+03  0.69780329926E+03  0.00000000000E+00 0.  1.
<scales pt_clust_3="36.41978" pt_clust_4="14000.00000" pt_clust_5="79.52161" pt_clust_6="34.24174"></scales>
<clustering>
<clus scale="   34.242">  1  6  2 -1</clus>
<clus scale="   36.420">  1  3  2 -1</clus>
<clus scale="   79.522">  2  5  1 -1</clus>
<clus scale="   79.522">  2  3  1 -1</clus>
</clustering>
</event>
<event>
 6    0  0.2117869E+002  0.1701693E+03  0.7546771E-02  0.1177671E+00
          2   -1    0    0  504    0 -0.00000000000E+00  0.00000000000E+00  0.12938625948E+04  0.12938625948E+04  0.00000000000E+00 0. -1.
         21   -1    0    0  503  502  0.00000000000E+00 -0.00000000000E+00 -0.97057395123E+02  0.97057395123E+02  0.00000000000E+00 0.  1.
         21    1    1    2  503  501 -0.30738127490E+02 -0.40910957724E+02  0.49834859030E+02  0.71428650541E+02  0.00000000000E+00 0.  1.
         21    1    1    2  504  505 -0.55252862656E+02 -0.46655012705E+02  0.23041513034E+03  0.24149679363E+03  0.00000000000E+00 0. -1.
         21    1    1    2  505  502 -0.80209599128E+02  0.16731503834E+03  0.50164299009E+02  0.19220915364E+03  0.00000000000E+00 0.  1.
          2    1    1    2  501    0  0.16620058927E+03 -0.79749067912E+02  0.86639091132E+03  0.88578539214E+03  0.00000000000E+00 0. -1.
<scales pt_clust_3="51.17166" pt_clust_4="75.52327" pt_clust_5="14000.00000" pt_clust_6="170.16934"></scales>
<clustering>
<clus scale="   51.172">  2  3  1 -1</clus>
<clus scale="   75.523">  1  4  2 -1</clus>
<clus scale="  170.169">  1  6  2 -1</clus>
<clus scale="   51.172">  2  3  1 -1</clus>
</clustering>
</event>
<event>
 6    0  0.2117869E+002  0.1889858E+03  0.7546771E-02  0.1159379E+00
         21   -1    0    0  505  502  0.00000000000E+00  0.00000000000E+00  0.49064631338E+03  0.49064631338E+03  0.00000000000E+00 0. -1.
          2   -1    0    0  504    0 -0.00000000000E+00 -0.00000000000E+00 -0.14698486525E+03  0.14698486525E+03  0.00000000000E+00 0. -1.
         21    1    1    2  503  502  0.15543529308E+03 -0.15120250393E+03  0.10011088692E+03  0.23883994057E+03  0.00000000000E+00 0. -1.
         21    1    1    2  504  503 -0.41427782487E+02 -0.18459016373E+02 -0.19256911555E+02  0.49272965101E+02  0.00000000000E+00 0. -1.
         21    1    1    2  505  501  0.72333805147E+01  0.62602416171E+02  0.11127566222E+03  0.12788141892E+03  0.00000000000E+00 0.  1.
          2    1    1    2  501    0 -0.12124089111E+03  0.10705910414E+03  0.15153181055E+03  0.22163685403E+03  0.00000000000E+00 0. -1.
<scales pt_clust_3="14000.00000" pt_clust_4="45.35412" pt_clust_5="61.38534" pt_clust_6="188.98577"></scales>
<clustering>
<clus scale="   45.354">  2  4  1 -1</clus>
<clus scale="   61.385">  1  5  2 -1</clus>
<clus scale="  188.986">  1  6  2 -1</clus>
<clus scale="   61.385">  1  3  2 -1</clus>
</clustering>
</event>
<event>
 6    0  0.2117869E+002  0.1323908E+03  0.7546771E-02  0.1223951E+00
          1   -1    0    0  505    0 -0.00000000000E+00  0.00000000000E+00  0.20407495535E+04  0.20407495535E+04  0.00000000000E+00 0.  1.
         21   -1    0    0  504  502  0.00000000000E+00 -0.00000000000E+00 -0.27050154526E+03  0.27050154526E+03  0.00000000000E+00 0.  1.
         21    1    1    2  503  502 -0.30312814545E+02 -0.61568465619E+02 -0.36271530427E+02  0.77621946663E+02  0.00000000000E+00 0.  1.
         21    1    1    2  504  501  0.16167473860E+02  0.29117818611E+02 -0.20174124210E+03  0.20447191332E+03  0.00000000000E+00 0.  1.
         21    1    1    2  505  503 -0.10518479420E+03 -0.42851632573E+02  0.43506266383E+03  0.44964388666E+03  0.00000000000E+00 0.  1.
          1    1    1    2  501    0  0.11933013489E+03  0.75302279581E+02  0.15731981169E+04  0.15795133521E+04  0.00000000000E+00 0.  1.
<scales pt_clust_3="40.54228" pt_clust_4="33.30517" pt_clust_5="14000.00000" pt_clust_6="132.39077"></scales>
<clustering>
<clus scale="   33.305">  2  4  1 -1</clus>
<clus scale="   40.542">  2  3  1 -1</clus>
<clus scale="  132.391">  1  6  2 -1</clus>
<clus scale="   33.305">  2  3  1 -1</clus>
</clustering>
</event>
<event>
 6    0  0.2117869E+002  0.1057197E+03  0.7546771E-02  0.1268708E+00
          2   -1    0    0  505    0 -0.00000000000E+00  0.00000000000E+00  0.32372265212E+03  0.32372265212E+03  0.00000000000E+00 0. -1.
         21   -1    0    0  503  502  0.00000000000E+00 -0.00000000000E+00 -0.94370479950E+03  0.94370479950E+03  0.00000000000E+00 0.  1.
         21    1    1    2  503  501  0.84834751082E+02 -0.18587526629E+02 -0.10228429753E+03  0.13418088038E+03  0.00000000000E+00 0.  1.
         21    1    1    2  504  502  0.55767677261E+02  0.36415541523E+02 -0.76516969644E+03  0.76806301163E+03  0.00000000000E+00 0.  1.
         21    1    1    2  505  504 -0.35333755525E+02 -0.27461892361E+02  0.25529346348E+03  0.25918599944E+03  0.00000000000E+00 0. -1.
          2    1    1    2  501    0 -0.10526867282E+03  0.96338774668E+01 -0.78216168894E+01  0.10599756017E+03  0.00000000000E+00 0. -1.
<scales pt_clust_3="14000.00000" pt_clust_4="65.63381" pt_clust_5="44.75075" pt_clust_6="105.71972"></scales>
<clustering>
<clus scale="   44.751">  1  5  2 -1</clus>
<clus scale="   65.634">  2  4  1 -1</clus>
<clus scale="  105.720">  1  6  2 -1</clus>
<clus scale="   65.634">  2  3  1 -1</clus>
</clustering>
</event>
<event>
 6    0  0.2117869E+002  0.1031856E+03  0.7546771E-02  0.1273736E+00
         21   -1    0    0  504  502  0.00000000000E+00  0.00000000000E+00  0.15098779530E+03  0.15098779530E+03  0.00000000000E+00 0.  1.
          1   -1    0    0  505    0 -0.00000000000E+00 -0.00000000000E+00 -0.12639194545E+04  0.12639194545E+04  0.00000000000E+00 0. -1.
         21    1    1    2  503  501  0.41791127339E+01  0.77869438126E+02 -0.97163809471E+02  0.12458699871E+03  0.00000000000E+00 0. -1.
         21    1    1    2  504  503  0.61391054654E+02 -0.40297403368E+02 -0.86955964242E+02  0.11381600075E+03  0.00000000000E+00 0.  1.
         21    1    1    2  505  502  0.38246589291E+02  0.17034097500E+02  0.11693217163E+03  0.12420183104E+03  0.00000000000E+00 0.  1.
          1    1    1    2  501    0 -0.10381675668E+03 -0.54606132258E+02 -0.10457440571E+04  0.10523024193E+04  0.00000000000E+00 0. -1.
<scales pt_clust_3="14000.00000" pt_clust_4="84.86151" pt_clust_5="41.86839" pt_clust_6="103.18562"></scales>
<clustering>
<clus scale="   41.868">  1  5  2 -1</clus>
<clus scale="   84.862">  1  4  2 -1</clus>
<clus scale="  103.186">  2  6  1 -1</clus>
<clus scale="   41.868">  1  3  2 -1</clus>
</clustering>
</event>
<event>
 6    0  0.2117869E+002  0.1136905E+03  0.7546771E-02  0.1253884E+00
          2   -1    0    0  504    0 -0.00000000000E+00  0.00000000000E+00  0.32072048510E+04  0.32072048510E+04  0.00000000000E+00 0. -1.
         21   -1    0    0  503  502  0.00000000000E+00 -0.00000000000E+00 -0.11301824521E+02  0.11301824521E+02  0.00000000000E+00 0.  1.
         21    1    1    2  503  501 -0.77746042194E+02  0.10554367079E+03  0.55693357854E+03  0.57215288554E+03  0.00000000000E+00 0.  1.
         21    1    1    2  504  505  0.48432616704E+02  0.16630679560E+02  0.91299534361E+03  0.91443031190E+03  0.00000000000E+00 0. -1.
         21    1    1    2  505  502 -0.50536270194E+01 -0.56633016867E+02  0.41692284302E+03  0.42078200386E+03  0.00000000000E+00 0. -1.
          2    1    1    2  501    0  0.34367052510E+02 -0.65541333485E+02  0.13090512613E+04  0.13111414742E+04  0.00000000000E+00 0. -1.
<scales pt_clust_3="14000.00000" pt_clust_4="51.20838" pt_clust_5="53.72975" pt_clust_6="113.69052"></scales>
<clustering>
<clus scale="   51.208">  1  4  2 -1</clus>
<clus scale="   53.730">  1  5  2 -1</clus>
<clus scale="  113.691">  1  6  2 -1</clus>
<clus scale="  113.691">  2  3  1 -1</clus>
</clustering>
</event>
<event>
 6    0  0.2117869E+002  0.1085169E+03  0.7546771E-02  0.1263341E+00
         21   -1    0    0  503  502  0.00000000000E+00  0.00000000000E+00  0.52640298539E+02  0.52640298539E+02  0.00000000000E+00 0.  1.
          1   -1    0    0  504    0 -0.00000000000E+00 -0.00000000000E+00 -0.98990101395E+03  0.98990101395E+03  0.00000000000E+00 0.  1.
         21    1    1    2  503  505 -0.37649364675E+02 -0.19372066906E+02 -0.79112951289E+02  0.89730767846E+02  0.00000000000E+00 0.  1.
         21    1    1    2  504  502 -0.44179549965E+02  0.18207691344E+02 -0.23356094039E+02  0.53187026500E+02  0.00000000000E+00 0.  1.
         21    1    1    2  505  501 -0.55375486211E+01 -0.75529201941E+02 -0.22427087808E+02  0.78982903582E+02  0.00000000000E+00 0.  1.
          1    1    1    2  501    0  0.87366463261E+02  0.76693577504E+02 -0.81236458227E+03  0.82064061456E+03  0.00000000000E+00 0.  1.
<scales pt_clust_3="42.34090" pt_clust_4="57.33590" pt_clust_5="14000.00000" pt_clust_6="108.51691"></scales>
<clustering>
<clus scale="   42.341">  1  3  2 -1</clus>
<clus scale="   57.336">  1  4  2 -1</clus>
<clus scale="  108.517">  2  6  1 -1</clus>
<clus scale="   42.341">  1  3  2 -1</clus>
</clustering>
</event>
<event>
 6    0  0.2117869E+002  0.7959010E+02  0.7546771E-02  0.1330219E+00
         21   -1    0    0  503  502  0.00000000000E+00  0.00000000000E+00  0.40343026701E+02  0.40343026701E+02  0.00000000000E+00 0.  1.
          1   -1    0    0  504    0 -0.00000000000E+00 -0.00000000000E+00 -0.59950621701E+03  0.59950621701E+03  0.00000000000E+00 0. -1.
         21    1    1    2  503  501  0.70741279415E+02  0.19960122703E+02 -0.74791596082E+02  0.10486428351E+03  0.00000000000E+00 0.  1.
         21    1    1    2  504  505 -0.43296102795E+02  0.16975027120E+02 -0.14947731338E+03  0.15654447061E+03  0.00000000000E+00 0. -1.
         21    1    1    2  505  502 -0.57886617644E+02 -0.91016820952E+02 -0.16090790155E+03  0.19371699714E+03  0.00000000000E+00 0.  1.
          1    1    1    2  501    0  0.30441441024E+02  0.54081671129E+02 -0.17398637929E+03  0.18472349245E+03  0.00000000000E+00 0. -1.
<scales pt_clust_3="79.59010" pt_clust_4="46.50488" pt_clust_5="14000.00000" pt_clust_6="62.28289"></scales>
<clustering>
<clus scale="   46.505">  2  4  1 -1</clus>
<clus scale="   62.283">  2  6  1 -1</clus>
<clus scale="   79.590">  1  3  2 -1</clus>
<clus scale="   79.590">  1  3  2 -1</clus>
</clustering>
</event>
<event>
 6    0  0.2117869E+002  0.7406191E+02  0.7546771E-02  0.1346801E+00
          2   -1    0    0  505    0 -0.00000000000E+00  0.00000000000E+00  0.11902912709E+04  0.11902912709E+04  0.00000000000E+00 0. -1.
         21   -1    0    0  504  502  0.00000000000E+00 -0.00000000000E+00 -0.12558713818E+03  0.12558713818E+03  0.00000000000E+00 0.  1.
         21    1    1    2  503  501 -0.18802023295E+02 -0.50085326030E+02 -0.65337509190E+02  0.84445521317E+02  0.00000000000E+00 0.  1.
         21    1    1    2  504  503  0.28074403292E+02 -0.25714014518E+02 -0.31993896648E+02  0.49729187461E+02  0.00000000000E+00 0.  1.
         21    1    1    2  505  502  0.25193559932E+02  0.11316753325E+03  0.10724579920E+04  0.10787065174E+04  0.00000000000E+00 0. -1.
          2    1    1    2  501    0 -0.34465939929E+02 -0.37368192701E+02  0.89577546471E+02  0.10299718284E+03  0.00000000000E+00 0. -1.
<scales pt_clust_3="14000.00000" pt_clust_4="38.07076" pt_clust_5="74.06191" pt_clust_6="50.91471"></scales>
<clustering>
<clus scale="   38.071">  2  4  1 -1</clus>
<clus scale="   50.915">  1  6  2 -1</clus>
<clus scale="   74.062">  1  5  2 -1</clus>
<clus scale="   38.071">  2  3  1 -1</clus>
</clustering>
</event>
<event>
 6    0  0.2117869E+002  0.5387275E+02  0.7546771E-02  0.1425506E+00
         -2   -1    0    0    0  501 -0.00000000000E+00  0.00000000000E+00  0.21010776036E+03  0.21010776036E+03  0.00000000000E+00 0.  1.
         21   -1    0    0  504  502  0.00000000000E+00 -0.00000000000E+00 -0.44295505077E+03  0.44295505077E+03  0.00000000000E+00 0.  1.
         21    1    1    2  503  501 -0.19885994449E+02 -0.33323221114E+02  0.26398422514E+02  0.46933639874E+02  0.00000000000E+00 0. -1.
         21    1    1    2  504  503 -0.42599498768E+02  0.27862932440E+02 -0.30678538405E+03  0.31097963305E+03  0.00000000000E+00 0.  1.
         21    1    1    2  505  502  0.40741925462E+02 -0.73142086325E+02 -0.97646737789E+02  0.12862563774E+03  0.00000000000E+00 0.  1.
         -2    1    1    2    0  505  0.21743567755E+02  0.78602374999E+02  0.14518640891E+03  0.16652390047E+03  0.00000000000E+00 0.  1.
<scales pt_clust_3="38.80580" pt_clust_4="53.87275" pt_clust_5="14000.00000" pt_clust_6="48.81202"></scales>
<clustering>
<clus scale="   38.806">  1  3  2 -1</clus>
<clus scale="   48.812">  1  6  2 -1</clus>
<clus scale="   53.873">  2  4  1 -1</clus>
<clus scale="   53.873">  2  3  1 -1</clus>
</clustering>
</event>
<event>
 6    0  0.2117869E+002  0.1310611E+03  0.7546771E-02  0.1225890E+00
         21   -1    0    0  505  502  0.00000000000E+00  0.00000000000E+00  0.11411298533E+03  0.11411298533E+03  0.00000000000E+00 0.  1.
         -1   -1    0    0    0  501 -0.00000000000E+00 -0.00000000000E+00 -0.10646658778E+04  0.10646658778E+04  0.00000000000E+00 0. -1.
         21    1    1    2  503  501  0.35119287295E+02 -0.24207000659E+02 -0.21787590149E+03  0.22201182778E+03  0.00000000000E+00 0. -1.
         21    1    1    2  504  502 -0.74374480311E+02 -0.84254571474E+02  0.24901272782E+02  0.11511068379E+03  0.00000000000E+00 0.  1.
         21    1    1    2  505  503 -0.32500837449E+02  0.29932436688E+01  0.29688890063E+02  0.44121356911E+02  0.00000000000E+00 0.  1.
         -1    1    1    2    0  504  0.71756030464E+02  0.10546832846E+03 -0.78726715379E+03  0.79753499463E+03  0.00000000000E+00 0. -1.
<scales pt_clust_3="41.89370" pt_clust_4="131.06111" pt_clust_5="32.63838" pt_clust_6="14000.00000"></scales>
<clustering>
<clus scale="   32.638">  1  5  2 -1</clus>
<clus scale="   41.894">  2  3  1 -1</clus>
<clus scale="  131.061">  1  4  2 -1</clus>
<clus scale="   32.638">  1  3  2 -1</clus>
</clustering>
</event>
<event>
 6    0  0.2117869E+002  0.2039851E+03  0.7546771E-02  0.1146420E+00
         21   -1    0    0  504  502  0.00000000000E+00  0.00000000000E+00  0.12769697647E+04  0.12769697647E+04  0.00000000000E+00 0. -1.
          2   -1    0    0  502    0 -0.00000000000E+00 -0.00000000000E+00 -0.20310046117E+04  0.20310046117E+04  0.00000000000E+00 0. -1.
         21    1    1    2  503  505 -0.88744897972E+02 -0.60391055901E+02  0.47057627281E+03  0.48266423638E+03  0.00000000000E+00 0. -1.
         21    1    1    2  504  503  0.41508906108E+01  0.37479724714E+02  0.68407633297E+03  0.68511487284E+03  0.00000000000E+00 0. -1.
         21    1    1    2  505  501  0.19955592963E+03 -0.14388869014E+03 -0.26846418474E+02  0.24748182637E+03  0.00000000000E+00 0.  1.
          2    1    1    2  501    0 -0.11496192227E+03  0.16680002133E+03 -0.18818410343E+04  0.18927134408E+04  0.00000000000E+00 0. -1.
<scales pt_clust_3="90.59910" pt_clust_4="37.70888" pt_clust_5="203.98512" pt_clust_6="14000.00000"></scales>
<clustering>
<clus scale="   37.709">  1  4  2 -1</clus>
<clus scale="   90.599">  1  3  2 -1</clus>
<clus scale="  203.985">  1  5  2 -1</clus>
<clus scale="   37.709">  1  3  2 -1</clus>
</clustering>
</event>
<event>
 6    0  0.2117869E+002  0.8492412E+02  0.7546771E-02  0.1315631E+00
          1   -1    0    0  503    0 -0.00000000000E+00  0.00000000000E+00  0.98590938144E+03  0.98590938144E+03  0.00000000000E+00 0.  1.
         21   -1    0    0  505  502  0.00000000000E+00 -0.00000000000E+00 -0.23443287684E+02  0.23443287684E+02  0.00000000000E+00 0.  1.
         21    1    1    2  503  504 -0.58404728755E+02 -0.66523779350E+02  0.55478945965E+03  0.56180768071E+03  0.00000000000E+00 0.  1.
         21    1    1    2  504  502  0.29120776374E+02 -0.20736211376E+02  0.54388811677E+02  0.65085735108E+02  0.00000000000E+00 0. -1.
         21    1    1    2  505  501 -0.42364164511E+02  0.50460828583E+02  0.16484228568E+03  0.17752182064E+03  0.00000000000E+00 0.  1.
          1    1    1    2  501    0  0.71648116892E+02  0.36799162142E+02  0.18844553675E+03  0.20493743267E+03  0.00000000000E+00 0.  1.
<scales pt_clust_3="84.92412" pt_clust_4="35.74927" pt_clust_5="53.85361" pt_clust_6="14000.00000"></scales>
<clustering>
<clus scale="   35.749">  2  4  1 -1</clus>
<clus scale="   53.854">  2  5  1 -1</clus>
<clus scale="   84.924">  1  3  2 -1</clus>
<clus scale="   35.749">  2  3  1 -1</clus>
</clustering>
</event>
<event>
 6    0  0.2117869E+002  0.1078538E+03  0.7546771E-02  0.1264597E+00
         21   -1    0    0  503  502  0.00000000000E+00  0.00000000000E+00  0.19459392659E+04  0.19459392659E+04  0.00000000000E+00 0. -1.
          1   -1    0    0  505    0 -0.00000000000E+00 -0.00000000000E+00 -0.10195616983E+03  0.10195616983E+03  0.00000000000E+00 0.  1.
         21    1    1    2  503  501  0.40834679180E+02  0.14225171299E+02  0.28596050329E+03  0.28921140359E+03  0.00000000000E+00 0.  1.
         21    1    1    2  504  502  0.10619820297E+02 -0.11008313874E+03  0.15447393919E+04  0.15486932772E+04  0.00000000000E+00 0. -1.
         21    1    1    2  505  504 -0.73979213645E+02 -0.23058457705E+02  0.38243509342E+02  0.86412860906E+02  0.00000000000E+00 0.  1.
          1    1    1    2  501    0  0.22524714168E+02  0.11891642514E+03 -0.24960308367E+02  0.12357789410E+03  0.00000000000E+00 0.  1.
<scales pt_clust_3="43.24149" pt_clust_4="107.85381" pt_clust_5="75.86516" pt_clust_6="14000.00000"></scales>
<clustering>
<clus scale="   43.241">  1  3  2 -1</clus>
<clus scale="   75.865">  2  5  1 -1</clus>
<clus scale="  107.854">  1  4  2 -1</clus>
<clus scale="   43.241">  1  3  2 -1</clus>
</clustering>
</event>
<event>
 6    0  0.2117869E+002  0.1481228E+03  0.7546771E-02  0.1202799E+00
          2   -1    0    0  505    0 -0.00000000000E+00  0.00000000000E+00  0.84280831850E+03  0.84280831850E+03  0.00000000000E+00 0.  1.
         21   -1    0    0  503  502  0.00000000000E+00 -0.00000000000E+00 -0.30739321283E+03  0.30739321283E+03  0.00000000000E+00 0.  1.
         21    1    1    2  503  501  0.57310680609E+02 -0.11189440532E+02 -0.21811950187E+02  0.62333609411E+02  0.00000000000E+00 0.  1.
         21    1    1    2  504  502  0.58064228157E+02 -0.38766840268E+02 -0.21032752090E+03  0.22161224818E+03  0.00000000000E+00 0.  1.
         21    1    1    2  505  504 -0.21280744585E+03 -0.47775217355E+02  0.25550148498E+03  0.33593226881E+03  0.00000000000E+00 0.  1.
          2    1    1    2  501    0  0.97432537081E+02  0.97731498155E+02  0.51205309178E+03  0.53032340493E+03  0.00000000000E+00 0.  1.
<scales pt_clust_3="58.39279" pt_clust_4="115.14005" pt_clust_5="148.12277" pt_clust_6="14000.00000"></scales>
<clustering>
<clus scale="   58.393">  2  3  1 -1</clus>
<clus scale="  115.140">  2  4  1 -1</clus>
<clus scale="  148.123">  2  5  1 -1</clus>
<clus scale="   58.393">  2  3  1 -1</clus>
</clustering>
</event>
<event>
 6    0  0.2117869E+002  0.1942938E+03  0.7546771E-02  0.1154645E+00
          1   -1    0    0  503    0 -0.00000000000E+00  0.00000000000E+00  0.67804027047E+03  0.67804027047E+03  0.00000000000E+00 0. -1.
         21   -1    0    0  505  502  0.00000000000E+00 -0.00000000000E+00 -0.86819609521E+03  0.86819609521E+03  0.00000000000E+00 0. -1.
         21    1    1    2  503  504  0.52071039334E+02 -0.72900173533E+01  0.12131986456E+03  0.13222347381E+03  0.00000000000E+00 0. -1.
         21    1    1    2  504  502 -0.13148293440E+03  0.15746561496E+03 -0.38234149589E+02  0.20867446449E+03  0.00000000000E+00 0. -1.
         21    1    1    2  505  501  0.43569352150E+02  0.20819347980E+02 -0.72208139520E+03  0.72369418610E+03  0.00000000000E+00 0. -1.
          1    1    1    2  501    0  0.35842542919E+02 -0.17099494559E+03  0.44883985549E+03  0.48164424129E+03  0.00000000000E+00 0. -1.
<scales pt_clust_3="54.09870" pt_clust_4="14000.00000" pt_clust_5="48.28803" pt_clust_6="194.29381"></scales>
<clustering>
<clus scale="   48.288">  2  5  1 -1</clus>
<clus scale="   54.099">  1  3  2 -1</clus>
<clus scale="  194.294">  1  6  2 -1</clus>
<clus scale="   48.288">  2  3  1 -1</clus>
</clustering>
</event>
<event>
 6    0  0.2117869E+002  0.8743736E+02  0.7546771E-02  0.1309179E+00
          2   -1    0    0  505    0 -0.00000000000E+00  0.00000000000E+00  0.11355754340E+04  0.11355754340E+04  0.00000000000E+00 0. -1.
         21   -1    0    0  504  502  0.00000000000E+00 -0.00000000000E+00 -0.86201479489E+02  0.86201479489E+02  0.00000000000E+00 0. -1.
         21    1    1    2  503  502  0.33497296836E+02 -0.42436544542E+02  0.91151004158E+02  0.10597846369E+03  0.00000000000E+00 0. -1.
         21    1    1    2  504  501 -0.34526533482E+02  0.35803267634E+02 -0.52290620543E+02  0.72168306647E+02  0.00000000000E+00 0. -1.
         21    1    1    2  505  503  0.56722776881E+02 -0.65798313357E+02  0.88020185705E+03  0.88447849076E+03  0.00000000000E+00 0. -1.
          2    1    1    2  501    0 -0.55693540235E+02  0.72431590264E+02  0.13031171382E+03  0.15915165237E+03  0.00000000000E+00 0. -1.
<scales pt_clust_3="38.78678" pt_clust_4="49.73887" pt_clust_5="14000.00000" pt_clust_6="87.43736"></scales>
<clustering>
<clus scale="   49.739">  2  4  1 -1</clus>
<clus scale="   38.787">  2  3  1 -1</clus>
<clus scale="   87.437">  2  6  1 -1</clus>
<clus scale="   49.739">  2  3  1 -1</clus>
</clustering>
</event>
<event>
 6    0  0.2117869E+002  0.8413579E+02  0.7546771E-02  0.1317708E+00
          2   -1    0    0  504    0 -0.00000000000E+00  0.00000000000E+00  0.10847703698E+04  0.10847703698E+04  0.00000000000E+00 0. -1.
         21   -1    0    0  503  502  0.00000000000E+00 -0.00000000000E+00 -0.43355113140E+03  0.43355113140E+03  0.00000000000E+00 0. -1.
         21    1    1    2  503  505 -0.23308743978E+02  0.29347197631E+02 -0.10338895008E+03  0.10997195348E+03  0.00000000000E+00 0.  1.
         21    1    1    2  504  502  0.34735851673E+01 -0.10987418233E+03 -0.30824811084E+03  0.32726334896E+03  0.00000000000E+00 0. -1.
         21    1    1    2  505  501  0.78571309013E+02  0.10656850548E+03  0.66158001326E+03  0.67469875567E+03  0.00000000000E+00 0. -1.
          2    1    1    2  501    0 -0.58736150202E+02 -0.26041520789E+02  0.40127628603E+03  0.40638744306E+03  0.00000000000E+00 0. -1.
<scales pt_clust_3="37.47740" pt_clust_4="84.13579" pt_clust_5="14000.00000" pt_clust_6="64.32448"></scales>
<clustering>
<clus scale="   37.477">  2  3  1 -1</clus>
<clus scale="   64.324">  1  6  2 -1</clus>
<clus scale="   84.136">  2  4  1 -1</clus>
<clus scale="   37.477">  2  3  1 -1</clus>
</clustering>
</event>
<event>
 6    0  0.2117869E+002  0.7090532E+02  0.7546771E-02  0.1357041E+00
          1   -1    0    0  503    0 -0.00000000000E+00  0.00000000000E+00  0.96085283743E+03  0.96085283743E+03  0.00000000000E+00 0.  1.
         21   -1    0    0  504  502  0.00000000000E+00 -0.00000000000E+00 -0.17929417776E+03  0.17929417776E+03  0.00000000000E+00 0. -1.
         21    1    1    2  503  505  0.36057121421E+02  0.13725093096E+02  0.17886441109E+03  0.18297806355E+03  0.00000000000E+00 0.  1.
         21    1    1    2  504  501  0.57638758290E+01 -0.11306335222E+03  0.23985619415E+03  0.26523110254E+03  0.00000000000E+00 0.  1.
         21    1    1    2  505  502  0.11970677602E+02  0.55923082862E+02 -0.15722372873E+03  0.16730208963E+03  0.00000000000E+00 0. -1.
          1    1    1    2  501    0 -0.53791674853E+02  0.43415176264E+02  0.52006178316E+03  0.52463575947E+03  0.00000000000E+00 0.  1.
<scales pt_clust_3="38.58101" pt_clust_4="70.90532" pt_clust_5="57.32579" pt_clust_6="14000.00000"></scales>
<clustering>
<clus scale="   38.581">  1  3  2 -1</clus>
<clus scale="   57.326">  2  5  1 -1</clus>
<clus scale="   70.905">  2  4  1 -1</clus>
<clus scale="   57.326">  2  3  1 -1</clus>
</clustering>
</event>
<event>
 6    0  0.2117869E+002  0.1446151E+03  0.7546771E-02  0.1207250E+00
          1   -1    0    0  503    0 -0.00000000000E+00  0.00000000000E+00  0.11886735430E+04  0.11886735430E+04  0.00000000000E+00 0.  1.
         21   -1    0    0  505  502  0.00000000000E+00 -0.00000000000E+00 -0.10315313118E+04  0.10315313118E+04  0.00000000000E+00 0.  1.
         21    1    1    2  503  504  0.75024256183E+02 -0.44694276158E+02  0.50750935202E+03  0.51496792107E+03  0.00000000000E+00 0. -1.
         21    1    1    2  504  502  0.44954577398E+02 -0.86553068060E+01 -0.24328886792E+02  0.51843255082E+02  0.00000000000E+00 0.  1.
         21    1    1    2  505  501  0.34659070585E+02  0.12954731046E+03 -0.97384810878E+03  0.98303809478E+03  0.00000000000E+00 0.  1.
          1    1    1    2  501    0 -0.15463790417E+03 -0.76197727497E+02  0.64780987475E+03  0.67035558393E+03  0.00000000000E+00 0.  1.
<scales pt_clust_3="87.48984" pt_clust_4="45.78022" pt_clust_5="144.61514" pt_clust_6="14000.00000"></scales>
<clustering>
<clus scale="   45.780">  2  4  1 -1</clus>
<clus scale="   87.490">  1  3  2 -1</clus>
<clus scale="  144.615">  2  5  1 -1</clus>
<clus scale="   45.780">  2  3  1 -1</clus>
</clustering>
</event>
<event>
 6    0  0.2117869E+002  0.7095662E+03  0.7546771E-02  0.9701011E-01
         21   -1    0    0  504  502  0.00000000000E+00  0.00000000000E+00  0.74129232626E+03  0.74129232626E+03  0.00000000000E+00 0. -1.
          2   -1    0    0  503    0 -0.00000000000E+00 -0.00000000000E+00 -0.30136750057E+04  0.30136750057E+04  0.00000000000E+00 0.  1.
         21    1    1    2  503  505  0.20391614854E+02 -0.83152806352E+02 -0.73582619523E+02  0.11289202388E+03  0.00000000000E+00 0.  1.
         21    1    1    2  504  501  0.39147048335E+02  0.10016772018E+02  0.13545157848E+02  0.42618052702E+02  0.00000000000E+00 0.  1.
         21    1    1    2  505  502 -0.11358821606E+03 -0.70839942843E+03  0.43473639383E+03  0.83888483426E+03  0.00000000000E+00 0. -1.
          2    1    1    2  501    0  0.54049552872E+02  0.78153546277E+03 -0.26470816116E+04  0.27605724211E+04  0.00000000000E+00 0.  1.
<scales pt_clust_3="85.61272" pt_clust_4="40.40826" pt_clust_5="14000.00000" pt_clust_6="709.56616"></scales>
<clustering>
<clus scale="   40.408">  1  4  2 -1</clus>
<clus scale="   85.613">  2  3  1 -1</clus>
<clus scale="  709.566">  2  6  1 -1</clus>
<clus scale="   40.408">  1  3  2 -1</clus>
</clustering>
</event>
<event>
 6    0  0.2117869E+002  0.7062314E+02  0.7546771E-02  0.1357987E+00
          2   -1    0    0  505    0 -0.00000000000E+00  0.00000000000E+00  0.24927497728E+04  0.24927497728E+04  0.00000000000E+00 0. -1.
         21   -1    0    0  503  502  0.00000000000E+00 -0.00000000000E+00 -0.13529770297E+04  0.13529770297E+04  0.00000000000E+00 0. -1.
         21    1    1    2  503  501  0.67442081768E+02  0.17281840538E+02 -0.10971193543E+04  0.10993261454E+04  0.00000000000E+00 0. -1.
         21    1    1    2  504  502 -0.41693620083E+01 -0.48715066304E+02 -0.24553455953E+03  0.25035526995E+03  0.00000000000E+00 0.  1.
         21    1    1    2  505  504  0.31477933261E+02 -0.44120719774E+02  0.13472698628E+03  0.14522003659E+03  0.00000000000E+00 0.  1.
          2    1    1    2  501    0 -0.94750653021E+02  0.75553945540E+02  0.23476996707E+04  0.23508253505E+04  0.00000000000E+00 0. -1.
<scales pt_clust_3="70.62314" pt_clust_4="48.89316" pt_clust_5="54.37569" pt_clust_6="14000.00000"></scales>
<clustering>
<clus scale="   48.893">  2  4  1 -1</clus>
<clus scale="   54.376">  1  5  2 -1</clus>
<clus scale="   70.623">  2  3  1 -1</clus>
<clus scale="   48.893">  2  3  1 -1</clus>
</clustering>
</event>
<event>
 6    0  0.2117869E+002  0.1110129E+03  0.7546771E-02  0.1258706E+00
         -3   -1    0    0    0  501 -0.00000000000E+00  0.00000000000E+00  0.13656022118E+04  0.13656022118E+04  0.00000000000E+00 0.  1.
         21   -1    0    0  503  502  0.00000000000E+00 -0.00000000000E+00 -0.34922157651E+03  0.34922157651E+03  0.00000000000E+00 0. -1.
         21    1    1    2  503  504 -0.82511527118E+02  0.73985732790E+02 -0.31879065694E+03  0.33750484991E+03  0.00000000000E+00 0. -1.
         21    1    1    2  504  501  0.35283874194E+02  0.47889521116E+02  0.91843453090E+02  0.10942384515E+03  0.00000000000E+00 0.  1.
         21    1    1    2  505  502  0.10958929525E+03 -0.76412899656E+02  0.10681334647E+04  0.10764561502E+04  0.00000000000E+00 0.  1.
         -3    1    1    2    0  505 -0.62361642326E+02 -0.45462354250E+02  0.17519437448E+03  0.19143894310E+03  0.00000000000E+00 0.  1.
<scales pt_clust_3="14000.00000" pt_clust_4="59.48410" pt_clust_5="111.01288" pt_clust_6="69.00249"></scales>
<clustering>
<clus scale="   59.484">  1  4  2 -1</clus>
<clus scale="   69.002">  1  6  2 -1</clus>
<clus scale="  111.013">  1  5  2 -1</clus>
<clus scale="  111.013">  2  3  1 -1</clus>
</clustering>
</event>
<event>
 6    0  0.2117869E+002  0.1032364E+03  0.7546771E-02  0.1273634E+00
         21   -1    0    0  505  502  0.00000000000E+00  0.00000000000E+00  0.20568022060E+03  0.20568022060E+03  0.00000000000E+00 0.  1.
         -1   -1    0    0    0  501 -0.00000000000E+00 -0.00000000000E+00 -0.58472581896E+03  0.58472581896E+03  0.00000000000E+00 0. -1.
         21    1    1    2  503  502  0.40550706677E+02 -0.66864551459E+02  0.13805262131E+03  0.15866239095E+03  0.00000000000E+00 0.  1.
         21    1    1    2  504  503 -0.98190055463E+02 -0.29388941850E+02 -0.14808791703E+02  0.10355818271E+03  0.00000000000E+00 0.  1.
         21    1    1    2  505  501 -0.30478884763E+02  0.44467957657E+02 -0.10592093916E+03  0.11885119700E+03  0.00000000000E+00 0. -1.
         -1    1    1    2    0  504  0.88118233549E+02  0.51785535653E+02 -0.39636848880E+03  0.40933426891E+03  0.00000000000E+00 0. -1.
<scales pt_clust_3="77.02562" pt_clust_4="14000.00000" pt_clust_5="53.91068" pt_clust_6="103.23637"></scales>
<clustering>
<clus scale="   53.911">  2  5  1 -1</clus>
<clus scale="   77.026">  1  3  2 -1</clus>
<clus scale="  103.236">  2  6  1 -1</clus>
<clus scale="   77.026">  1  3  2 -1</clus>
</clustering>
</event>
