<event>
 4    0  0.2219362E-002  0.2496841E+03  0.7546771E-02  0.1113505E+00
         21   -1    0    0  502  501  0.00000000000E+00  0.00000000000E+00  0.23870958079E+03  0.23870958079E+03  0.00000000000E+00 0.  1.
         21   -1    0    0  501  502 -0.00000000000E+00 -0.00000000000E+00 -0.26116320136E+03  0.26116320136E+03  0.00000000000E+00 0.  1.
         25    1    1    2    0    0  0.84129022680E+02  0.15081440890E+03  0.11888328391E+03  0.24409201868E+03  0.12500000000E+03 0.  0.
         25    1    1    2    0    0 -0.84129022680E+02 -0.15081440890E+03 -0.14133690449E+03  0.25578076347E+03  0.12500000000E+03 0.  0.
</event>
<event>
 4    0  0.2219362E-002  0.1947727E+03  0.7546771E-02  0.1154226E+00
         21   -1    0    0  502  501  0.00000000000E+00  0.00000000000E+00  0.14150943639E+03  0.14150943639E+03  0.00000000000E+00 0.  1.
         21   -1    0    0  501  502 -0.00000000000E+00 -0.00000000000E+00 -0.26808401956E+03  0.26808401956E+03  0.00000000000E+00 0.  1.
         25    1    1    2    0    0  0.42451123067E+02  0.44644205076E+02  0.79790083681E+02  0.16058225416E+03  0.12500000000E+03 0.  0.
         25    1    1    2    0    0 -0.42451123067E+02 -0.44644205076E+02 -0.20636466685E+03  0.24901120179E+03  0.12500000000E+03 0.  0.
</event>
<event>
 4    0  0.2219362E-002  0.2418630E+03  0.7546771E-02  0.1118558E+00
         21   -1    0    0  502  501  0.00000000000E+00  0.00000000000E+00  0.16896083310E+04  0.16896083310E+04  0.00000000000E+00 0.  1.
         21   -1    0    0  501  502 -0.00000000000E+00 -0.00000000000E+00 -0.34622064356E+02  0.34622064356E+02  0.00000000000E+00 0.  1.
         25    1    1    2    0    0  0.88570728707E+02  0.17079736288E+03  0.55471829012E+03  0.60029483968E+03  0.12500000000E+03 0.  0.
         25    1    1    2    0    0 -0.88570728707E+02 -0.17079736288E+03  0.11002679765E+04  0.11239355556E+04  0.12500000000E+03 0.  0.
</event>
<event>
 4    0  0.2219362E-002  0.1932271E+03  0.7546771E-02  0.1155582E+00
         21   -1    0    0  502  501  0.00000000000E+00  0.00000000000E+00  0.97961603768E+02  0.97961603768E+02  0.00000000000E+00 0.  1.
         21   -1    0    0  501  502 -0.00000000000E+00 -0.00000000000E+00 -0.38113617636E+03  0.38113617636E+03  0.00000000000E+00 0.  1.
         25    1    1    2    0    0  0.68781029080E+02  0.74238767624E+02 -0.27435672547E+03  0.31802332838E+03  0.12500000000E+03 0.  0.
         25    1    1    2    0    0 -0.68781029080E+02 -0.74238767624E+02 -0.88178471203E+01  0.16107445175E+03  0.12500000000E+03 0.  0.
</event>
<event>
 4    0  0.2219362E-002  0.2122288E+03  0.7546771E-02  0.1139813E+00
         21   -1    0    0  502  501  0.00000000000E+00  0.00000000000E+00  0.21657959926E+03  0.21657959926E+03  0.00000000000E+00 0.  1.
         21   -1    0    0  501  502 -0.00000000000E+00 -0.00000000000E+00 -0.20796544694E+03  0.20796544694E+03  0.00000000000E+00 0.  1.
         25    1    1    2    0    0 -0.10518704096E+03 -0.15966224059E+01  0.13979422607E+03  0.21502159992E+03  0.12500000000E+03 0.  0.
         25    1    1    2    0    0  0.10518704096E+03  0.15966224059E+01 -0.13118007375E+03  0.20952344627E+03  0.12500000000E+03 0.  0.
</event>
<event>
 4    0  0.2219362E-002  0.2287242E+03  0.7546771E-02  0.1127541E+00
         21   -1    0    0  502  501  0.00000000000E+00  0.00000000000E+00  0.52387053366E+03  0.52387053366E+03  0.00000000000E+00 0.  1.
         21   -1    0    0  501  502 -0.00000000000E+00 -0.00000000000E+00 -0.99862031414E+02  0.99862031414E+02  0.00000000000E+00 0.  1.
         25    1    1    2    0    0  0.84818715675E+02 -0.60746768014E+01  0.44602950754E+03  0.47095481506E+03  0.12500000000E+03 0.  0.
         25    1    1    2    0    0 -0.84818715675E+02  0.60746768014E+01 -0.22021005294E+02  0.15277775002E+03  0.12500000000E+03 0.  0.
</event>
<event>
 4    0  0.2219362E-002  0.1894752E+03  0.7546771E-02  0.1158935E+00
         21   -1    0    0  502  501  0.00000000000E+00  0.00000000000E+00  0.46476916496E+03  0.46476916496E+03  0.00000000000E+00 0. -1.
         21   -1    0    0  501  502 -0.00000000000E+00 -0.00000000000E+00 -0.77244502370E+02  0.77244502370E+02  0.00000000000E+00 0. -1.
         25    1    1    2    0    0 -0.43022927789E+01 -0.10190429266E+03  0.33588045663E+03  0.37261733150E+03  0.12500000000E+03 0.  0.
         25    1    1    2    0    0  0.43022927789E+01  0.10190429266E+03  0.51644205963E+02  0.16939633584E+03  0.12500000000E+03 0.  0.
</event>
<event>
 4    0  0.2219362E-002  0.1908945E+03  0.7546771E-02  0.1157657E+00
         21   -1    0    0  502  501  0.00000000000E+00  0.00000000000E+00  0.69582104639E+03  0.69582104639E+03  0.00000000000E+00 0.  1.
         21   -1    0    0  501  502 -0.00000000000E+00 -0.00000000000E+00 -0.52370801822E+02  0.52370801822E+02  0.00000000000E+00 0.  1.
         25    1    1    2    0    0 -0.32839616934E+02  0.20317858839E+01  0.46436884410E+02  0.13734610598E+03  0.12500000000E+03 0.  0.
         25    1    1    2    0    0  0.32839616934E+02 -0.20317858839E+01  0.59701336015E+03  0.61084574223E+03  0.12500000000E+03 0.  0.
</event>
<event>
 4    0  0.2219362E-002  0.2097326E+03  0.7546771E-02  0.1141778E+00
         21   -1    0    0  502  501  0.00000000000E+00  0.00000000000E+00  0.49299317231E+03  0.49299317231E+03  0.00000000000E+00 0.  1.
         21   -1    0    0  501  502 -0.00000000000E+00 -0.00000000000E+00 -0.89225949698E+02  0.89225949698E+02  0.00000000000E+00 0.  1.
         25    1    1    2    0    0  0.74850356511E+02 -0.11353982412E+03  0.63996026764E+02  0.19548493286E+03  0.12500000000E+03 0.  0.
         25    1    1    2    0    0 -0.74850356511E+02  0.11353982412E+03  0.33977119585E+03  0.38673418916E+03  0.12500000000E+03 0.  0.
</event>
<event>
 4    0  0.2219362E-002  0.2424206E+03  0.7546771E-02  0.1118191E+00
         21   -1    0    0  502  501  0.00000000000E+00  0.00000000000E+00  0.18209640874E+03  0.18209640874E+03  0.00000000000E+00 0. -1.
         21   -1    0    0  501  502 -0.00000000000E+00 -0.00000000000E+00 -0.32272868129E+03  0.32272868129E+03  0.00000000000E+00 0. -1.
         25    1    1    2    0    0 -0.12306657468E+03  0.13743101558E+03 -0.16969688704E+03  0.28009766032E+03  0.12500000000E+03 0.  0.
         25    1    1    2    0    0  0.12306657468E+03 -0.13743101558E+03  0.29064614492E+02  0.22472742971E+03  0.12500000000E+03 0.  0.
</event>
<event>
 4    0  0.2219362E-002  0.2403778E+03  0.7546771E-02  0.1119541E+00
         21   -1    0    0  502  501  0.00000000000E+00  0.00000000000E+00  0.13799446789E+03  0.13799446789E+03  0.00000000000E+00 0.  1.
         21   -1    0    0  501  502 -0.00000000000E+00 -0.00000000000E+00 -0.41872337003E+03  0.41872337003E+03  0.00000000000E+00 0.  1.
         25    1    1    2    0    0  0.13182354218E+03 -0.49169097119E+02  0.32800822171E+02  0.19103910678E+03  0.12500000000E+03 0.  0.
         25    1    1    2    0    0 -0.13182354218E+03  0.49169097119E+02 -0.31352972430E+03  0.36567873114E+03  0.12500000000E+03 0.  0.
</event>
<event>
 4    0  0.2219362E-002  0.3014887E+03  0.7546771E-02  0.1084499E+00
         21   -1    0    0  502  501  0.00000000000E+00  0.00000000000E+00  0.10628476727E+03  0.10628476727E+03  0.00000000000E+00 0.  1.
         21   -1    0    0  501  502 -0.00000000000E+00 -0.00000000000E+00 -0.85520684998E+03  0.85520684998E+03  0.00000000000E+00 0.  1.
         25    1    1    2    0    0  0.49244354885E+02  0.10111812852E+03 -0.77348865074E+03  0.79155516246E+03  0.12500000000E+03 0.  0.
         25    1    1    2    0    0 -0.49244354885E+02 -0.10111812852E+03  0.24566568031E+02  0.16993645479E+03  0.12500000000E+03 0.  0.
</event>
<event>
 4    0  0.2219362E-002  0.1784415E+03  0.7546771E-02  0.1169320E+00
         21   -1    0    0  502  501  0.00000000000E+00  0.00000000000E+00  0.98897241110E+02  0.98897241110E+02  0.00000000000E+00 0. -1.
         21   -1    0    0  501  502 -0.00000000000E+00 -0.00000000000E+00 -0.32196423085E+03  0.32196423085E+03  0.00000000000E+00 0. -1.
         25    1    1    2    0    0  0.10689372986E+03  0.32172135757E+02 -0.18379743190E+03  0.24873240998E+03  0.12500000000E+03 0.  0.
         25    1    1    2    0    0 -0.10689372986E+03 -0.32172135757E+02 -0.39269557834E+02  0.17212906197E+03  0.12500000000E+03 0.  0.
</event>
<event>
 4    0  0.2219362E-002  0.3338213E+03  0.7546771E-02  0.1069458E+00
         21   -1    0    0  502  501  0.00000000000E+00  0.00000000000E+00  0.34713696705E+03  0.34713696705E+03  0.00000000000E+00 0.  1.
         21   -1    0    0  501  502 -0.00000000000E+00 -0.00000000000E+00 -0.32101646624E+03  0.32101646624E+03  0.00000000000E+00 0.  1.
         25    1    1    2    0    0 -0.18999929475E+03  0.55656313644E+02  0.25117992979E+03  0.34338566421E+03  0.12500000000E+03 0.  0.
         25    1    1    2    0    0  0.18999929475E+03 -0.55656313644E+02 -0.22505942899E+03  0.32476776908E+03  0.12500000000E+03 0.  0.
</event>
<event>
 4    0  0.2219362E-002  0.2340865E+03  0.7546771E-02  0.1123796E+00
         21   -1    0    0  502  501  0.00000000000E+00  0.00000000000E+00  0.13362838869E+03  0.13362838869E+03  0.00000000000E+00 0. -1.
         21   -1    0    0  501  502 -0.00000000000E+00 -0.00000000000E+00 -0.41006616512E+03  0.41006616512E+03  0.00000000000E+00 0. -1.
         25    1    1    2    0    0 -0.61231380683E+02  0.98513700430E+02 -0.32445372130E+03  0.36653710374E+03  0.12500000000E+03 0.  0.
         25    1    1    2    0    0  0.61231380683E+02 -0.98513700430E+02  0.48015944873E+02  0.17715745007E+03  0.12500000000E+03 0.  0.
</event>
<event>
 4    0  0.2219362E-002  0.3253836E+03  0.7546771E-02  0.1073198E+00
         21   -1    0    0  502  501  0.00000000000E+00  0.00000000000E+00  0.63165244584E+03  0.63165244584E+03  0.00000000000E+00 0. -1.
         21   -1    0    0  501  502 -0.00000000000E+00 -0.00000000000E+00 -0.16761512983E+03  0.16761512983E+03  0.00000000000E+00 0. -1.
         25    1    1    2    0    0  0.14778793816E+03 -0.10986089596E+03 -0.59502684797E+02  0.23038285662E+03  0.12500000000E+03 0.  0.
         25    1    1    2    0    0 -0.14778793816E+03  0.10986089596E+03  0.52354000081E+03  0.56888471905E+03  0.12500000000E+03 0.  0.
</event>
<event>
 4    0  0.2219362E-002  0.1873160E+03  0.7546771E-02  0.1160905E+00
         21   -1    0    0  502  501  0.00000000000E+00  0.00000000000E+00  0.44810448011E+03  0.44810448011E+03  0.00000000000E+00 0. -1.
         21   -1    0    0  501  502 -0.00000000000E+00 -0.00000000000E+00 -0.78301607410E+02  0.78301607410E+02  0.00000000000E+00 0. -1.
         25    1    1    2    0    0 -0.94486496500E+02 -0.54652937034E+02  0.30697512740E+03  0.34896041379E+03  0.12500000000E+03 0.  0.
         25    1    1    2    0    0  0.94486496500E+02  0.54652937034E+02  0.62827745299E+02  0.17744567373E+03  0.12500000000E+03 0.  0.
</event>
<event>
 4    0  0.2219362E-002  0.2723128E+03  0.7546771E-02  0.1099963E+00
         21   -1    0    0  502  501  0.00000000000E+00  0.00000000000E+00  0.55988875884E+02  0.55988875884E+02  0.00000000000E+00 0.  1.
         21   -1    0    0  501  502 -0.00000000000E+00 -0.00000000000E+00 -0.13244464746E+04  0.13244464746E+04  0.00000000000E+00 0.  1.
         25    1    1    2    0    0  0.11344061818E+03 -0.21102087618E+03 -0.71945808725E+03  0.76853335864E+03  0.12500000000E+03 0.  0.
         25    1    1    2    0    0 -0.11344061818E+03  0.21102087618E+03 -0.54899951149E+03  0.61190199187E+03  0.12500000000E+03 0.  0.
</event>
<event>
 4    0  0.2219362E-002  0.2589116E+03  0.7546771E-02  0.1107799E+00
         21   -1    0    0  502  501  0.00000000000E+00  0.00000000000E+00  0.26537045985E+04  0.26537045985E+04  0.00000000000E+00 0. -1.
         21   -1    0    0  501  502 -0.00000000000E+00 -0.00000000000E+00 -0.25260994755E+02  0.25260994755E+02  0.00000000000E+00 0. -1.
         25    1    1    2    0    0  0.15486277122E+03  0.17832346645E+02  0.21660428425E+04  0.21752395422E+04  0.12500000000E+03 0.  0.
         25    1    1    2    0    0 -0.15486277122E+03 -0.17832346645E+02  0.46240076131E+03  0.50372605110E+03  0.12500000000E+03 0.  0.
</event>
<event>
 4    0  0.2219362E-002  0.2694866E+03  0.7546771E-02  0.1101574E+00
         21   -1    0    0  502  501  0.00000000000E+00  0.00000000000E+00  0.11260457470E+03  0.11260457470E+03  0.00000000000E+00 0. -1.
         21   -1    0    0  501  502 -0.00000000000E+00 -0.00000000000E+00 -0.64493843126E+03  0.64493843126E+03  0.00000000000E+00 0. -1.
         25    1    1    2    0    0 -0.20637256682E+03 -0.55550563181E+02 -0.41572561046E+03  0.48386804461E+03  0.12500000000E+03 0.  0.
         25    1    1    2    0    0  0.20637256682E+03  0.55550563181E+02 -0.11660824611E+03  0.27367496134E+03  0.12500000000E+03 0.  0.
</event>
<event>
 4    0  0.2219362E-002  0.2219710E+03  0.7546771E-02  0.1132422E+00
         21   -1    0    0  502  501  0.00000000000E+00  0.00000000000E+00  0.20345154304E+03  0.20345154304E+03  0.00000000000E+00 0.  1.
         21   -1    0    0  501  502 -0.00000000000E+00 -0.00000000000E+00 -0.24217629626E+03  0.24217629626E+03  0.00000000000E+00 0.  1.
         25    1    1    2    0    0  0.12122203232E+03  0.88615304335E+02  0.86387976753E+02  0.21362428656E+03  0.12500000000E+03 0.  0.
         25    1    1    2    0    0 -0.12122203232E+03 -0.88615304335E+02 -0.12511272998E+03  0.23200355274E+03  0.12500000000E+03 0.  0.
</event>
<event>
 4    0  0.2219362E-002  0.1651275E+03  0.7546771E-02  0.1183026E+00
         21   -1    0    0  502  501  0.00000000000E+00  0.00000000000E+00  0.10176815527E+03  0.10176815527E+03  0.00000000000E+00 0. -1.
         21   -1    0    0  501  502 -0.00000000000E+00 -0.00000000000E+00 -0.26793343450E+03  0.26793343450E+03  0.00000000000E+00 0. -1.
         25    1    1    2    0    0 -0.28070534868E+02  0.69045548562E+02  0.42543398252E+01  0.14559650446E+03  0.12500000000E+03 0.  0.
         25    1    1    2    0    0  0.28070534868E+02 -0.69045548562E+02 -0.17041961905E+03  0.22410508531E+03  0.12500000000E+03 0.  0.
</event>
<event>
 4    0  0.2219362E-002  0.1919054E+03  0.7546771E-02  0.1156754E+00
         21   -1    0    0  502  501  0.00000000000E+00  0.00000000000E+00  0.98629454922E+03  0.98629454922E+03  0.00000000000E+00 0.  1.
         21   -1    0    0  501  502 -0.00000000000E+00 -0.00000000000E+00 -0.37339433316E+02  0.37339433316E+02  0.00000000000E+00 0.  1.
         25    1    1    2    0    0  0.27789066894E+02 -0.14239619911E+03  0.44140536191E+03  0.48115756596E+03  0.12500000000E+03 0.  0.
         25    1    1    2    0    0 -0.27789066894E+02  0.14239619911E+03  0.50754975400E+03  0.54247641658E+03  0.12500000000E+03 0.  0.
</event>
<event>
 4    0  0.2219362E-002  0.2103286E+03  0.7546771E-02  0.1141306E+00
         21   -1    0    0  502  501  0.00000000000E+00  0.00000000000E+00  0.90616948014E+02  0.90616948014E+02  0.00000000000E+00 0. -1.
         21   -1    0    0  501  502 -0.00000000000E+00 -0.00000000000E+00 -0.48818794250E+03  0.48818794250E+03  0.00000000000E+00 0. -1.
         25    1    1    2    0    0 -0.93632223239E+02 -0.13954028481E+03 -0.22541712743E+03  0.30769524802E+03  0.12500000000E+03 0.  0.
         25    1    1    2    0    0  0.93632223239E+02  0.13954028481E+03 -0.17215386705E+03  0.27110964250E+03  0.12500000000E+03 0.  0.
</event>
<event>
 4    0  0.2219362E-002  0.2467550E+03  0.7546771E-02  0.1115373E+00
         21   -1    0    0  502  501  0.00000000000E+00  0.00000000000E+00  0.33589350596E+03  0.33589350596E+03  0.00000000000E+00 0.  1.
         21   -1    0    0  501  502 -0.00000000000E+00 -0.00000000000E+00 -0.18127185995E+03  0.18127185995E+03  0.00000000000E+00 0.  1.
         25    1    1    2    0    0  0.68980920441E+02  0.94579515704E+02  0.26347569119E+03  0.31424209143E+03  0.12500000000E+03 0.  0.
         25    1    1    2    0    0 -0.68980920441E+02 -0.94579515704E+02 -0.10885404519E+03  0.20292327449E+03  0.12500000000E+03 0.  0.
</event>
<event>
 4    0  0.2219362E-002  0.2620088E+03  0.7546771E-02  0.1105942E+00
         21   -1    0    0  502  501  0.00000000000E+00  0.00000000000E+00  0.83774145723E+03  0.83774145723E+03  0.00000000000E+00 0.  1.
         21   -1    0    0  501  502 -0.00000000000E+00 -0.00000000000E+00 -0.81944861076E+02  0.81944861076E+02  0.00000000000E+00 0.  1.
         25    1    1    2    0    0 -0.86222879709E+02 -0.20480824227E+03  0.48382657320E+03  0.54689482903E+03  0.12500000000E+03 0.  0.
         25    1    1    2    0    0  0.86222879709E+02  0.20480824227E+03  0.27197002295E+03  0.37279148927E+03  0.12500000000E+03 0.  0.
</event>
<event>
 4    0  0.2219362E-002  0.1999073E+03  0.7546771E-02  0.1149817E+00
         21   -1    0    0  502  501  0.00000000000E+00  0.00000000000E+00  0.97604177852E+02  0.97604177852E+02  0.00000000000E+00 0. -1.
         21   -1    0    0  501  502 -0.00000000000E+00 -0.00000000000E+00 -0.40943890714E+03  0.40943890714E+03  0.00000000000E+00 0. -1.
         25    1    1    2    0    0  0.56029286594E+02  0.13955493494E+03 -0.10327447449E+03  0.22114582949E+03  0.12500000000E+03 0.  0.
         25    1    1    2    0    0 -0.56029286594E+02 -0.13955493494E+03 -0.20856025479E+03  0.28589725550E+03  0.12500000000E+03 0.  0.
</event>
<event>
 4    0  0.2219362E-002  0.1717286E+03  0.7546771E-02  0.1176057E+00
         21   -1    0    0  502  501  0.00000000000E+00  0.00000000000E+00  0.61106771695E+02  0.61106771695E+02  0.00000000000E+00 0. -1.
         21   -1    0    0  501  502 -0.00000000000E+00 -0.00000000000E+00 -0.48260959856E+03  0.48260959856E+03  0.00000000000E+00 0. -1.
         25    1    1    2    0    0  0.17460220721E+02  0.96760376975E+02 -0.10817778737E+03  0.19234048856E+03  0.12500000000E+03 0.  0.
         25    1    1    2    0    0 -0.17460220721E+02 -0.96760376975E+02 -0.31332503950E+03  0.35137588169E+03  0.12500000000E+03 0.  0.
</event>
<event>
 4    0  0.2219362E-002  0.1667840E+03  0.7546771E-02  0.1181244E+00
         21   -1    0    0  502  501  0.00000000000E+00  0.00000000000E+00  0.56906220527E+02  0.56906220527E+02  0.00000000000E+00 0.  1.
         21   -1    0    0  501  502 -0.00000000000E+00 -0.00000000000E+00 -0.48881999676E+03  0.48881999676E+03  0.00000000000E+00 0.  1.
         25    1    1    2    0    0  0.96141963040E+02  0.53556092961E+02 -0.20129034777E+03  0.26125530857E+03  0.12500000000E+03 0.  0.
         25    1    1    2    0    0 -0.96141963040E+02 -0.53556092961E+02 -0.23062342846E+03  0.28447090871E+03  0.12500000000E+03 0.  0.
</event>
<event>
 4    0  0.2219362E-002  0.4528352E+03  0.7546771E-02  0.1026880E+00
         21   -1    0    0  502  501  0.00000000000E+00  0.00000000000E+00  0.28719611624E+03  0.28719611624E+03  0.00000000000E+00 0. -1.
         21   -1    0    0  501  502 -0.00000000000E+00 -0.00000000000E+00 -0.71400581585E+03  0.71400581585E+03  0.00000000000E+00 0. -1.
         25    1    1    2    0    0 -0.40614542727E+03 -0.18039993286E+02 -0.38521799075E+03  0.57384444743E+03  0.12500000000E+03 0.  0.
         25    1    1    2    0    0  0.40614542727E+03  0.18039993286E+02 -0.41591708859E+02  0.42735748466E+03  0.12500000000E+03 0.  0.
</event>
<event>
 4    0  0.2219362E-002  0.1741361E+03  0.7546771E-02  0.1173602E+00
         21   -1    0    0  502  501  0.00000000000E+00  0.00000000000E+00  0.39540928957E+03  0.39540928957E+03  0.00000000000E+00 0.  1.
         21   -1    0    0  501  502 -0.00000000000E+00 -0.00000000000E+00 -0.76688625581E+02  0.76688625581E+02  0.00000000000E+00 0.  1.
         25    1    1    2    0    0  0.26072770242E+02 -0.94181948648E+02  0.62097280893E+02  0.17038515514E+03  0.12500000000E+03 0.  0.
         25    1    1    2    0    0 -0.26072770242E+02  0.94181948648E+02  0.25662338309E+03  0.30171276000E+03  0.12500000000E+03 0.  0.
</event>
<event>
 4    0  0.2219362E-002  0.3027747E+03  0.7546771E-02  0.1083862E+00
         21   -1    0    0  502  501  0.00000000000E+00  0.00000000000E+00  0.13004969697E+04  0.13004969697E+04  0.00000000000E+00 0. -1.
         21   -1    0    0  501  502 -0.00000000000E+00 -0.00000000000E+00 -0.70490374699E+02  0.70490374699E+02  0.00000000000E+00 0. -1.
         25    1    1    2    0    0  0.13610065755E+03  0.23074628132E+03  0.76312548886E+03  0.81838422949E+03  0.12500000000E+03 0.  0.
         25    1    1    2    0    0 -0.13610065755E+03 -0.23074628132E+03  0.46688110609E+03  0.55260311486E+03  0.12500000000E+03 0.  0.
</event>
<event>
 4    0  0.2219362E-002  0.2138014E+03  0.7546771E-02  0.1138591E+00
         21   -1    0    0  502  501  0.00000000000E+00  0.00000000000E+00  0.63822408620E+02  0.63822408620E+02  0.00000000000E+00 0. -1.
         21   -1    0    0  501  502 -0.00000000000E+00 -0.00000000000E+00 -0.71622218577E+03  0.71622218577E+03  0.00000000000E+00 0. -1.
         25    1    1    2    0    0 -0.15248420018E+03  0.15759831719E+02 -0.47424603895E+03  0.51384249441E+03  0.12500000000E+03 0.  0.
         25    1    1    2    0    0  0.15248420018E+03 -0.15759831719E+02 -0.17815373820E+03  0.26620209998E+03  0.12500000000E+03 0.  0.
</event>
<event>
 4    0  0.2219362E-002  0.1993990E+03  0.7546771E-02  0.1150247E+00
         21   -1    0    0  502  501  0.00000000000E+00  0.00000000000E+00  0.45176518216E+03  0.45176518216E+03  0.00000000000E+00 0.  1.
         21   -1    0    0  501  502 -0.00000000000E+00 -0.00000000000E+00 -0.88010203159E+02  0.88010203159E+02  0.00000000000E+00 0.  1.
         25    1    1    2    0    0 -0.11537657331E+03 -0.28596256182E+02  0.31726494155E+03  0.36112538359E+03  0.12500000000E+03 0.  0.
         25    1    1    2    0    0  0.11537657331E+03  0.28596256182E+02  0.46490037454E+02  0.17865000173E+03  0.12500000000E+03 0.  0.
</event>
<event>
 4    0  0.2219362E-002  0.2341137E+03  0.7546771E-02  0.1123777E+00
         21   -1    0    0  502  501  0.00000000000E+00  0.00000000000E+00  0.10932855233E+03  0.10932855233E+03  0.00000000000E+00 0. -1.
         21   -1    0    0  501  502 -0.00000000000E+00 -0.00000000000E+00 -0.50132562243E+03  0.50132562243E+03  0.00000000000E+00 0. -1.
         25    1    1    2    0    0 -0.11617629856E+03 -0.15863402410E+03 -0.22581042159E+03  0.32446422368E+03  0.12500000000E+03 0.  0.
         25    1    1    2    0    0  0.11617629856E+03  0.15863402410E+03 -0.16618664851E+03  0.28618995107E+03  0.12500000000E+03 0.  0.
</event>
<event>
 4    0  0.2219362E-002  0.3260733E+03  0.7546771E-02  0.1072888E+00
         21   -1    0    0  502  501  0.00000000000E+00  0.00000000000E+00  0.31198044550E+03  0.31198044550E+03  0.00000000000E+00 0. -1.
         21   -1    0    0  501  502 -0.00000000000E+00 -0.00000000000E+00 -0.34080277839E+03  0.34080277839E+03  0.00000000000E+00 0. -1.
         25    1    1    2    0    0  0.17796598166E+03  0.31897027495E+02  0.22667554258E+03  0.31574691225E+03  0.12500000000E+03 0.  0.
         25    1    1    2    0    0 -0.17796598166E+03 -0.31897027495E+02 -0.25549787547E+03  0.33703631163E+03  0.12500000000E+03 0.  0.
</event>
<event>
 4    0  0.2219362E-002  0.2609912E+03  0.7546771E-02  0.1106549E+00
         21   -1    0    0  502  501  0.00000000000E+00  0.00000000000E+00  0.41912330822E+03  0.41912330822E+03  0.00000000000E+00 0. -1.
         21   -1    0    0  501  502 -0.00000000000E+00 -0.00000000000E+00 -0.16252112767E+03  0.16252112767E+03  0.00000000000E+00 0. -1.
         25    1    1    2    0    0 -0.21070018371E+03  0.79247949905E+02  0.17579412785E+03  0.31177456658E+03  0.12500000000E+03 0.  0.
         25    1    1    2    0    0  0.21070018371E+03 -0.79247949905E+02  0.80808052706E+02  0.26986986931E+03  0.12500000000E+03 0.  0.
</event>
<event>
 4    0  0.2219362E-002  0.2174607E+03  0.7546771E-02  0.1135790E+00
         21   -1    0    0  502  501  0.00000000000E+00  0.00000000000E+00  0.45685162517E+03  0.45685162517E+03  0.00000000000E+00 0.  1.
         21   -1    0    0  501  502 -0.00000000000E+00 -0.00000000000E+00 -0.10351101771E+03  0.10351101771E+03  0.00000000000E+00 0.  1.
         25    1    1    2    0    0  0.12797668064E+03 -0.97312706013E+02  0.78408483294E+02  0.21822163914E+03  0.12500000000E+03 0.  0.
         25    1    1    2    0    0 -0.12797668064E+03  0.97312706013E+02  0.27493212416E+03  0.34214100373E+03  0.12500000000E+03 0.  0.
</event>
<event>
 4    0  0.2219362E-002  0.1842994E+03  0.7546771E-02  0.1163706E+00
         21   -1    0    0  502  501  0.00000000000E+00  0.00000000000E+00  0.24099408848E+02  0.24099408848E+02  0.00000000000E+00 0. -1.
         21   -1    0    0  501  502 -0.00000000000E+00 -0.00000000000E+00 -0.14094226183E+04  0.14094226183E+04  0.00000000000E+00 0. -1.
         25    1    1    2    0    0 -0.99194240411E+02  0.56830504173E+02 -0.41027749445E+03  0.44387140704E+03  0.12500000000E+03 0.  0.
         25    1    1    2    0    0  0.99194240411E+02 -0.56830504173E+02 -0.97504571496E+03  0.98965062006E+03  0.12500000000E+03 0.  0.
</event>
<event>
 4    0  0.2219362E-002  0.1941511E+03  0.7546771E-02  0.1154770E+00
         21   -1    0    0  502  501  0.00000000000E+00  0.00000000000E+00  0.45362526529E+03  0.45362526529E+03  0.00000000000E+00 0.  1.
         21   -1    0    0  501  502 -0.00000000000E+00 -0.00000000000E+00 -0.83096477233E+02  0.83096477233E+02  0.00000000000E+00 0.  1.
         25    1    1    2    0    0  0.77546990689E+02 -0.12260487194E+03  0.14102944447E+03  0.23782303210E+03  0.12500000000E+03 0.  0.
         25    1    1    2    0    0 -0.77546990689E+02  0.12260487194E+03  0.22949934358E+03  0.29889871042E+03  0.12500000000E+03 0.  0.
</event>
<event>
 4    0  0.2219362E-002  0.2807632E+03  0.7546771E-02  0.1095273E+00
         21   -1    0    0  502  501  0.00000000000E+00  0.00000000000E+00  0.52248061511E+02  0.52248061511E+02  0.00000000000E+00 0.  1.
         21   -1    0    0  501  502 -0.00000000000E+00 -0.00000000000E+00 -0.15087256664E+04  0.15087256664E+04  0.00000000000E+00 0.  1.
         25    1    1    2    0    0  0.99272554770E+02  0.23097131287E+03 -0.72698347237E+03  0.77931556933E+03  0.12500000000E+03 0.  0.
         25    1    1    2    0    0 -0.99272554770E+02 -0.23097131287E+03 -0.72949413249E+03  0.78165815856E+03  0.12500000000E+03 0.  0.
</event>
<event>
 4    0  0.2219362E-002  0.1502707E+03  0.7546771E-02  0.1200141E+00
         21   -1    0    0  502  501  0.00000000000E+00  0.00000000000E+00  0.47044775176E+03  0.47044775176E+03  0.00000000000E+00 0.  1.
         21   -1    0    0  501  502 -0.00000000000E+00 -0.00000000000E+00 -0.47999574173E+02  0.47999574173E+02  0.00000000000E+00 0.  1.
         25    1    1    2    0    0  0.69182175180E+02 -0.44918341877E+02  0.23252408718E+03  0.27657961226E+03  0.12500000000E+03 0.  0.
         25    1    1    2    0    0 -0.69182175180E+02  0.44918341877E+02  0.18992409041E+03  0.24186771367E+03  0.12500000000E+03 0.  0.
</event>
<event>
 4    0  0.2219362E-002  0.1928418E+03  0.7546771E-02  0.1155923E+00
         21   -1    0    0  502  501  0.00000000000E+00  0.00000000000E+00  0.22093505048E+03  0.22093505048E+03  0.00000000000E+00 0.  1.
         21   -1    0    0  501  502 -0.00000000000E+00 -0.00000000000E+00 -0.16832074889E+03  0.16832074889E+03  0.00000000000E+00 0.  1.
         25    1    1    2    0    0  0.10065598929E+03 -0.10691586751E+03  0.26880077326E+02  0.19470534009E+03  0.12500000000E+03 0.  0.
         25    1    1    2    0    0 -0.10065598929E+03  0.10691586751E+03  0.25734224262E+02  0.19455045927E+03  0.12500000000E+03 0.  0.
</event>
<event>
 4    0  0.2219362E-002  0.1927960E+03  0.7546771E-02  0.1155963E+00
         21   -1    0    0  502  501  0.00000000000E+00  0.00000000000E+00  0.27941215704E+03  0.27941215704E+03  0.00000000000E+00 0.  1.
         21   -1    0    0  501  502 -0.00000000000E+00 -0.00000000000E+00 -0.13303034688E+03  0.13303034688E+03  0.00000000000E+00 0.  1.
         25    1    1    2    0    0  0.12926447657E+03 -0.63890455278E+02  0.10256208325E+03  0.21664550791E+03  0.12500000000E+03 0.  0.
         25    1    1    2    0    0 -0.12926447657E+03  0.63890455278E+02  0.43819726917E+02  0.19579699601E+03  0.12500000000E+03 0.  0.
</event>
<event>
 4    0  0.2219362E-002  0.3427399E+03  0.7546771E-02  0.1065635E+00
         21   -1    0    0  502  501  0.00000000000E+00  0.00000000000E+00  0.10149122195E+03  0.10149122195E+03  0.00000000000E+00 0. -1.
         21   -1    0    0  501  502 -0.00000000000E+00 -0.00000000000E+00 -0.11574461065E+04  0.11574461065E+04  0.00000000000E+00 0. -1.
         25    1    1    2    0    0  0.87458345394E+02  0.26799356858E+03 -0.25325019909E+03  0.39903656264E+03  0.12500000000E+03 0.  0.
         25    1    1    2    0    0 -0.87458345394E+02 -0.26799356858E+03 -0.80270468549E+03  0.85990076584E+03  0.12500000000E+03 0.  0.
</event>
<event>
 4    0  0.2219362E-002  0.3513351E+03  0.7546771E-02  0.1062068E+00
         21   -1    0    0  502  501  0.00000000000E+00  0.00000000000E+00  0.31872588159E+03  0.31872588159E+03  0.00000000000E+00 0. -1.
         21   -1    0    0  501  502 -0.00000000000E+00 -0.00000000000E+00 -0.38728050042E+03  0.38728050042E+03  0.00000000000E+00 0. -1.
         25    1    1    2    0    0  0.13859013528E+03 -0.29130836804E+03  0.27197571357E+02  0.34703385825E+03  0.12500000000E+03 0.  0.
         25    1    1    2    0    0 -0.13859013528E+03  0.29130836804E+03 -0.95752190184E+02  0.35897252375E+03  0.12500000000E+03 0.  0.
</event>
<event>
 4    0  0.2219362E-002  0.1992429E+03  0.7546771E-02  0.1150379E+00
         21   -1    0    0  502  501  0.00000000000E+00  0.00000000000E+00  0.17801099428E+03  0.17801099428E+03  0.00000000000E+00 0.  1.
         21   -1    0    0  501  502 -0.00000000000E+00 -0.00000000000E+00 -0.22300724762E+03  0.22300724762E+03  0.00000000000E+00 0.  1.
         25    1    1    2    0    0 -0.45847237094E+02  0.41695785989E+02  0.12064587454E+03  0.18444764775E+03  0.12500000000E+03 0.  0.
         25    1    1    2    0    0  0.45847237094E+02 -0.41695785989E+02 -0.16564212788E+03  0.21657059414E+03  0.12500000000E+03 0.  0.
</event>
<event>
 4    0  0.2219362E-002  0.2529278E+03  0.7546771E-02  0.1111468E+00
         21   -1    0    0  502  501  0.00000000000E+00  0.00000000000E+00  0.13506011036E+04  0.13506011036E+04  0.00000000000E+00 0.  1.
         21   -1    0    0  501  502 -0.00000000000E+00 -0.00000000000E+00 -0.47365925469E+02  0.47365925469E+02  0.00000000000E+00 0.  1.
         25    1    1    2    0    0  0.90758721167E+02 -0.19955986396E+03  0.60486615948E+03  0.65540014927E+03  0.12500000000E+03 0.  0.
         25    1    1    2    0    0 -0.90758721167E+02  0.19955986396E+03  0.69836901869E+03  0.74256687984E+03  0.12500000000E+03 0.  0.
</event>
<event>
 4    0  0.2219362E-002  0.1972930E+03  0.7546771E-02  0.1152043E+00
         21   -1    0    0  502  501  0.00000000000E+00  0.00000000000E+00  0.21866768848E+03  0.21866768848E+03  0.00000000000E+00 0.  1.
         21   -1    0    0  501  502 -0.00000000000E+00 -0.00000000000E+00 -0.17800771183E+03  0.17800771183E+03  0.00000000000E+00 0.  1.
         25    1    1    2    0    0 -0.14970258198E+03 -0.15676367629E+01  0.50256971840E+02  0.20140527241E+03  0.12500000000E+03 0.  0.
         25    1    1    2    0    0  0.14970258198E+03  0.15676367629E+01 -0.95969951887E+01  0.19527012791E+03  0.12500000000E+03 0.  0.
</event>
<event>
 4    0  0.2219362E-002  0.2039105E+03  0.7546771E-02  0.1146481E+00
         21   -1    0    0  502  501  0.00000000000E+00  0.00000000000E+00  0.21661947087E+03  0.21661947087E+03  0.00000000000E+00 0.  1.
         21   -1    0    0  501  502 -0.00000000000E+00 -0.00000000000E+00 -0.19194713466E+03  0.19194713466E+03  0.00000000000E+00 0.  1.
         25    1    1    2    0    0  0.20494378051E+02 -0.15061571732E+03 -0.41140944965E+02  0.20105395094E+03  0.12500000000E+03 0.  0.
         25    1    1    2    0    0 -0.20494378051E+02  0.15061571732E+03  0.65813281174E+02  0.20751265459E+03  0.12500000000E+03 0.  0.
</event>
<event>
 4    0  0.2219362E-002  0.2376937E+03  0.7546771E-02  0.1121339E+00
         21   -1    0    0  502  501  0.00000000000E+00  0.00000000000E+00  0.18543932986E+03  0.18543932986E+03  0.00000000000E+00 0.  1.
         21   -1    0    0  501  502 -0.00000000000E+00 -0.00000000000E+00 -0.30467271248E+03  0.30467271248E+03  0.00000000000E+00 0.  1.
         25    1    1    2    0    0  0.16117301816E+03 -0.77310512623E+02 -0.15698586732E+03  0.26874378074E+03  0.12500000000E+03 0.  0.
         25    1    1    2    0    0 -0.16117301816E+03  0.77310512623E+02  0.37752484700E+02  0.22136826161E+03  0.12500000000E+03 0.  0.
</event>
<event>
 4    0  0.2219362E-002  0.1570455E+03  0.7546771E-02  0.1192073E+00
         21   -1    0    0  502  501  0.00000000000E+00  0.00000000000E+00  0.36537850313E+03  0.36537850313E+03  0.00000000000E+00 0.  1.
         21   -1    0    0  501  502 -0.00000000000E+00 -0.00000000000E+00 -0.67500681629E+02  0.67500681629E+02  0.00000000000E+00 0.  1.
         25    1    1    2    0    0  0.88292103988E+02  0.35146201182E+02  0.14515277423E+03  0.21383423241E+03  0.12500000000E+03 0.  0.
         25    1    1    2    0    0 -0.88292103988E+02 -0.35146201182E+02  0.15272504727E+03  0.21904495235E+03  0.12500000000E+03 0.  0.
</event>
<event>
 4    0  0.2219362E-002  0.2848381E+03  0.7546771E-02  0.1093075E+00
         21   -1    0    0  502  501  0.00000000000E+00  0.00000000000E+00  0.25122622976E+03  0.25122622976E+03  0.00000000000E+00 0. -1.
         21   -1    0    0  501  502 -0.00000000000E+00 -0.00000000000E+00 -0.32294695166E+03  0.32294695166E+03  0.00000000000E+00 0. -1.
         25    1    1    2    0    0  0.20401969257E+03 -0.14316309923E+03 -0.94526688665E+02  0.29441467832E+03  0.12500000000E+03 0.  0.
         25    1    1    2    0    0 -0.20401969257E+03  0.14316309923E+03  0.22805966758E+02  0.27975850310E+03  0.12500000000E+03 0.  0.
</event>
<event>
 4    0  0.2219362E-002  0.1876148E+03  0.7546771E-02  0.1160630E+00
         21   -1    0    0  502  501  0.00000000000E+00  0.00000000000E+00  0.43094746175E+02  0.43094746175E+02  0.00000000000E+00 0. -1.
         21   -1    0    0  501  502 -0.00000000000E+00 -0.00000000000E+00 -0.81678854659E+03  0.81678854659E+03  0.00000000000E+00 0. -1.
         25    1    1    2    0    0 -0.13301115648E+03 -0.43374616777E+02 -0.38910384368E+03  0.43197236751E+03  0.12500000000E+03 0.  0.
         25    1    1    2    0    0  0.13301115648E+03  0.43374616777E+02 -0.38458995673E+03  0.42791092525E+03  0.12500000000E+03 0.  0.
</event>
<event>
 4    0  0.2219362E-002  0.2303927E+03  0.7546771E-02  0.1126364E+00
         21   -1    0    0  502  501  0.00000000000E+00  0.00000000000E+00  0.84639562685E+02  0.84639562685E+02  0.00000000000E+00 0. -1.
         21   -1    0    0  501  502 -0.00000000000E+00 -0.00000000000E+00 -0.62713913250E+03  0.62713913250E+03  0.00000000000E+00 0. -1.
         25    1    1    2    0    0  0.42903368283E+02 -0.66949063714E+02 -0.54380604523E+03  0.56362477853E+03  0.12500000000E+03 0.  0.
         25    1    1    2    0    0 -0.42903368283E+02  0.66949063714E+02  0.13064754165E+01  0.14815391666E+03  0.12500000000E+03 0.  0.
</event>
<event>
 4    0  0.2219362E-002  0.2112600E+03  0.7546771E-02  0.1140572E+00
         21   -1    0    0  502  501  0.00000000000E+00  0.00000000000E+00  0.97285056363E+02  0.97285056363E+02  0.00000000000E+00 0. -1.
         21   -1    0    0  501  502 -0.00000000000E+00 -0.00000000000E+00 -0.45876324742E+03  0.45876324742E+03  0.00000000000E+00 0. -1.
         25    1    1    2    0    0  0.14891084674E+03 -0.45593859442E+02 -0.27146458539E+03  0.33700335520E+03  0.12500000000E+03 0.  0.
         25    1    1    2    0    0 -0.14891084674E+03  0.45593859442E+02 -0.90013605667E+02  0.21904494858E+03  0.12500000000E+03 0.  0.
</event>
<event>
 4    0  0.2219362E-002  0.3879406E+03  0.7546771E-02  0.1048037E+00
         21   -1    0    0  502  501  0.00000000000E+00  0.00000000000E+00  0.16218932903E+03  0.16218932903E+03  0.00000000000E+00 0.  1.
         21   -1    0    0  501  502 -0.00000000000E+00 -0.00000000000E+00 -0.92791505783E+03  0.92791505783E+03  0.00000000000E+00 0.  1.
         25    1    1    2    0    0  0.26183336482E+03  0.73919393578E+02 -0.36277080807E+02  0.30159876371E+03  0.12500000000E+03 0.  0.
         25    1    1    2    0    0 -0.26183336482E+03 -0.73919393578E+02 -0.72944864800E+03  0.78850562315E+03  0.12500000000E+03 0.  0.
</event>
<event>
 4    0  0.2219362E-002  0.2698250E+03  0.7546771E-02  0.1101380E+00
         21   -1    0    0  502  501  0.00000000000E+00  0.00000000000E+00  0.20311887738E+03  0.20311887738E+03  0.00000000000E+00 0.  1.
         21   -1    0    0  501  502 -0.00000000000E+00 -0.00000000000E+00 -0.35843792681E+03  0.35843792681E+03  0.00000000000E+00 0.  1.
         25    1    1    2    0    0  0.46586297513E+02  0.12589295306E+02 -0.32137144064E+03  0.34818583591E+03  0.12500000000E+03 0.  0.
         25    1    1    2    0    0 -0.46586297513E+02 -0.12589295306E+02  0.16605239121E+03  0.21337096827E+03  0.12500000000E+03 0.  0.
</event>
<event>
 4    0  0.2219362E-002  0.2445495E+03  0.7546771E-02  0.1116799E+00
         21   -1    0    0  502  501  0.00000000000E+00  0.00000000000E+00  0.86818769969E+02  0.86818769969E+02  0.00000000000E+00 0. -1.
         21   -1    0    0  501  502 -0.00000000000E+00 -0.00000000000E+00 -0.68884277125E+03  0.68884277125E+03  0.00000000000E+00 0. -1.
         25    1    1    2    0    0  0.16598578560E+03  0.59306964867E+02 -0.48260177972E+03  0.52877034230E+03  0.12500000000E+03 0.  0.
         25    1    1    2    0    0 -0.16598578560E+03 -0.59306964867E+02 -0.11942222156E+03  0.24689119892E+03  0.12500000000E+03 0.  0.
</event>
<event>
 4    0  0.2219362E-002  0.1650065E+03  0.7546771E-02  0.1183158E+00
         21   -1    0    0  502  501  0.00000000000E+00  0.00000000000E+00  0.16580065987E+03  0.16580065987E+03  0.00000000000E+00 0.  1.
         21   -1    0    0  501  502 -0.00000000000E+00 -0.00000000000E+00 -0.16421607017E+03  0.16421607017E+03  0.00000000000E+00 0.  1.
         25    1    1    2    0    0  0.60428532569E+02 -0.78521999905E+02 -0.41455331440E+02  0.16480551120E+03  0.12500000000E+03 0.  0.
         25    1    1    2    0    0 -0.60428532569E+02  0.78521999905E+02  0.43039921139E+02  0.16521121884E+03  0.12500000000E+03 0.  0.
</event>
<event>
 4    0  0.2219362E-002  0.2619239E+03  0.7546771E-02  0.1105993E+00
         21   -1    0    0  502  501  0.00000000000E+00  0.00000000000E+00  0.76251539701E+03  0.76251539701E+03  0.00000000000E+00 0. -1.
         21   -1    0    0  501  502 -0.00000000000E+00 -0.00000000000E+00 -0.89970782489E+02  0.89970782489E+02  0.00000000000E+00 0. -1.
         25    1    1    2    0    0 -0.13239609786E+03 -0.11089778033E+02  0.64214317366E+03  0.66755117061E+03  0.12500000000E+03 0.  0.
         25    1    1    2    0    0  0.13239609786E+03  0.11089778033E+02  0.30401440860E+02  0.18493500889E+03  0.12500000000E+03 0.  0.
</event>
<event>
 4    0  0.2219362E-002  0.1812955E+03  0.7546771E-02  0.1166555E+00
         21   -1    0    0  502  501  0.00000000000E+00  0.00000000000E+00  0.49660715582E+03  0.49660715582E+03  0.00000000000E+00 0. -1.
         21   -1    0    0  501  502 -0.00000000000E+00 -0.00000000000E+00 -0.66185205668E+02  0.66185205668E+02  0.00000000000E+00 0. -1.
         25    1    1    2    0    0  0.82921479293E+02  0.24620800529E+01  0.37320198082E+03  0.40222723932E+03  0.12500000000E+03 0.  0.
         25    1    1    2    0    0 -0.82921479293E+02 -0.24620800529E+01  0.57219969338E+02  0.16056512217E+03  0.12500000000E+03 0.  0.
</event>
<event>
 4    0  0.2219362E-002  0.2866012E+03  0.7546771E-02  0.1092137E+00
         21   -1    0    0  502  501  0.00000000000E+00  0.00000000000E+00  0.48861035307E+03  0.48861035307E+03  0.00000000000E+00 0. -1.
         21   -1    0    0  501  502 -0.00000000000E+00 -0.00000000000E+00 -0.16810988775E+03  0.16810988775E+03  0.00000000000E+00 0. -1.
         25    1    1    2    0    0  0.14675098993E+03  0.21200418874E+03  0.16689161317E+03  0.33160132635E+03  0.12500000000E+03 0.  0.
         25    1    1    2    0    0 -0.14675098993E+03 -0.21200418874E+03  0.15360885215E+03  0.32511891447E+03  0.12500000000E+03 0.  0.
</event>
<event>
 4    0  0.2219362E-002  0.3876694E+03  0.7546771E-02  0.1048135E+00
         21   -1    0    0  502  501  0.00000000000E+00  0.00000000000E+00  0.61502716656E+03  0.61502716656E+03  0.00000000000E+00 0. -1.
         21   -1    0    0  501  502 -0.00000000000E+00 -0.00000000000E+00 -0.24435917200E+03  0.24435917200E+03  0.00000000000E+00 0. -1.
         25    1    1    2    0    0 -0.27419585570E+03 -0.96408038558E+02  0.43363726564E+03  0.53679060660E+03  0.12500000000E+03 0.  0.
         25    1    1    2    0    0  0.27419585570E+03  0.96408038558E+02 -0.62969271083E+02  0.32259573196E+03  0.12500000000E+03 0.  0.
</event>
<event>
 4    0  0.2219362E-002  0.2687319E+03  0.7546771E-02  0.1102008E+00
         21   -1    0    0  502  501  0.00000000000E+00  0.00000000000E+00  0.17615810154E+04  0.17615810154E+04  0.00000000000E+00 0.  1.
         21   -1    0    0  501  502 -0.00000000000E+00 -0.00000000000E+00 -0.40995460047E+02  0.40995460047E+02  0.00000000000E+00 0.  1.
         25    1    1    2    0    0  0.23615030599E+03 -0.28536540493E+02  0.84941315565E+03  0.89090347970E+03  0.12500000000E+03 0.  0.
         25    1    1    2    0    0 -0.23615030599E+03  0.28536540493E+02  0.87117239973E+03  0.91167299577E+03  0.12500000000E+03 0.  0.
</event>
<event>
 4    0  0.2219362E-002  0.1582569E+03  0.7546771E-02  0.1190679E+00
         21   -1    0    0  502  501  0.00000000000E+00  0.00000000000E+00  0.20907336734E+03  0.20907336734E+03  0.00000000000E+00 0.  1.
         21   -1    0    0  501  502 -0.00000000000E+00 -0.00000000000E+00 -0.11979159597E+03  0.11979159597E+03  0.00000000000E+00 0.  1.
         25    1    1    2    0    0 -0.54377970553E+02 -0.68886361038E+01 -0.38583578398E+02  0.14183832173E+03  0.12500000000E+03 0.  0.
         25    1    1    2    0    0  0.54377970553E+02  0.68886361038E+01  0.12786534977E+03  0.18702664158E+03  0.12500000000E+03 0.  0.
</event>
<event>
 4    0  0.2219362E-002  0.2508716E+03  0.7546771E-02  0.1112755E+00
         21   -1    0    0  502  501  0.00000000000E+00  0.00000000000E+00  0.36559629209E+02  0.36559629209E+02  0.00000000000E+00 0.  1.
         21   -1    0    0  501  502 -0.00000000000E+00 -0.00000000000E+00 -0.17214775449E+04  0.17214775449E+04  0.00000000000E+00 0.  1.
         25    1    1    2    0    0 -0.18812195598E+03 -0.87886028391E+02 -0.10694742450E+04  0.10965919866E+04  0.12500000000E+03 0.  0.
         25    1    1    2    0    0  0.18812195598E+03  0.87886028391E+02 -0.61544367065E+03  0.66144518749E+03  0.12500000000E+03 0.  0.
</event>
<event>
 4    0  0.2219362E-002  0.1609245E+03  0.7546771E-02  0.1187657E+00
         21   -1    0    0  502  501  0.00000000000E+00  0.00000000000E+00  0.38088194304E+03  0.38088194304E+03  0.00000000000E+00 0.  1.
         21   -1    0    0  501  502 -0.00000000000E+00 -0.00000000000E+00 -0.67991394467E+02  0.67991394467E+02  0.00000000000E+00 0.  1.
         25    1    1    2    0    0 -0.23523472376E+01  0.94974854361E+02  0.10721640594E+03  0.19012131443E+03  0.12500000000E+03 0.  0.
         25    1    1    2    0    0  0.23523472376E+01 -0.94974854361E+02  0.20567414263E+03  0.25875202308E+03  0.12500000000E+03 0.  0.
</event>
<event>
 4    0  0.2219362E-002  0.2004792E+03  0.7546771E-02  0.1149335E+00
         21   -1    0    0  502  501  0.00000000000E+00  0.00000000000E+00  0.44692803689E+03  0.44692803689E+03  0.00000000000E+00 0.  1.
         21   -1    0    0  501  502 -0.00000000000E+00 -0.00000000000E+00 -0.89929285170E+02  0.89929285170E+02  0.00000000000E+00 0.  1.
         25    1    1    2    0    0  0.91834744230E+01 -0.15400653703E+03  0.21552206171E+03  0.29304796320E+03  0.12500000000E+03 0.  0.
         25    1    1    2    0    0 -0.91834744230E+01  0.15400653703E+03  0.14147669001E+03  0.24380935886E+03  0.12500000000E+03 0.  0.
</event>
<event>
 4    0  0.2219362E-002  0.1289416E+03  0.7546771E-02  0.1229035E+00
         21   -1    0    0  502  501  0.00000000000E+00  0.00000000000E+00  0.20680848636E+03  0.20680848636E+03  0.00000000000E+00 0. -1.
         21   -1    0    0  501  502 -0.00000000000E+00 -0.00000000000E+00 -0.80392957798E+02  0.80392957798E+02  0.00000000000E+00 0. -1.
         25    1    1    2    0    0  0.10499716267E+01  0.25941942040E+02  0.83342398526E+02  0.15246324865E+03  0.12500000000E+03 0.  0.
         25    1    1    2    0    0 -0.10499716267E+01 -0.25941942040E+02  0.43073130035E+02  0.13473819551E+03  0.12500000000E+03 0.  0.
</event>
<event>
 4    0  0.2219362E-002  0.2346353E+03  0.7546771E-02  0.1123419E+00
         21   -1    0    0  502  501  0.00000000000E+00  0.00000000000E+00  0.11005383667E+03  0.11005383667E+03  0.00000000000E+00 0. -1.
         21   -1    0    0  501  502 -0.00000000000E+00 -0.00000000000E+00 -0.50024359512E+03  0.50024359512E+03  0.00000000000E+00 0. -1.
         25    1    1    2    0    0  0.25645258549E+02  0.77726808873E+02 -0.43037675421E+03  0.45557467738E+03  0.12500000000E+03 0.  0.
         25    1    1    2    0    0 -0.25645258549E+02 -0.77726808873E+02  0.40186995759E+02  0.15472275441E+03  0.12500000000E+03 0.  0.
</event>
<event>
 4    0  0.2219362E-002  0.1799848E+03  0.7546771E-02  0.1167818E+00
         21   -1    0    0  502  501  0.00000000000E+00  0.00000000000E+00  0.66967492108E+03  0.66967492108E+03  0.00000000000E+00 0.  1.
         21   -1    0    0  501  502 -0.00000000000E+00 -0.00000000000E+00 -0.48373516266E+02  0.48373516266E+02  0.00000000000E+00 0.  1.
         25    1    1    2    0    0  0.13535306151E+02  0.10128931426E+03  0.46931528242E+03  0.49631095496E+03  0.12500000000E+03 0.  0.
         25    1    1    2    0    0 -0.13535306151E+02 -0.10128931426E+03  0.15198612239E+03  0.22173748238E+03  0.12500000000E+03 0.  0.
</event>
<event>
 4    0  0.2219362E-002  0.2460941E+03  0.7546771E-02  0.1115798E+00
         21   -1    0    0  502  501  0.00000000000E+00  0.00000000000E+00  0.41883954410E+03  0.41883954410E+03  0.00000000000E+00 0. -1.
         21   -1    0    0  501  502 -0.00000000000E+00 -0.00000000000E+00 -0.14459547266E+03  0.14459547266E+03  0.00000000000E+00 0.  1.
         25    1    1    2    0    0 -0.14069037945E+03  0.13505349792E+03  0.23224060247E+03  0.32801513320E+03  0.12500000000E+03 0.  0.
         25    1    1    2    0    0  0.14069037945E+03 -0.13505349792E+03  0.42003468976E+02  0.23541988356E+03  0.12500000000E+03 0.  0.
</event>
<event>
 4    0  0.2219362E-002  0.3438890E+03  0.7546771E-02  0.1065152E+00
         21   -1    0    0  502  501  0.00000000000E+00  0.00000000000E+00  0.14813569187E+03  0.14813569187E+03  0.00000000000E+00 0. -1.
         21   -1    0    0  501  502 -0.00000000000E+00 -0.00000000000E+00 -0.79831969753E+03  0.79831969753E+03  0.00000000000E+00 0. -1.
         25    1    1    2    0    0 -0.11218288720E+03  0.23172040961E+03 -0.58747500428E+03  0.65347626511E+03  0.12500000000E+03 0.  0.
         25    1    1    2    0    0  0.11218288720E+03 -0.23172040961E+03 -0.62709001381E+02  0.29297912428E+03  0.12500000000E+03 0.  0.
</event>
<event>
 4    0  0.2219362E-002  0.1972082E+03  0.7546771E-02  0.1152116E+00
         21   -1    0    0  502  501  0.00000000000E+00  0.00000000000E+00  0.40951589335E+03  0.40951589335E+03  0.00000000000E+00 0.  1.
         21   -1    0    0  501  502 -0.00000000000E+00 -0.00000000000E+00 -0.94968415493E+02  0.94968415493E+02  0.00000000000E+00 0.  1.
         25    1    1    2    0    0  0.56063572814E+02 -0.13450393613E+03  0.21492599842E+03  0.28818851092E+03  0.12500000000E+03 0.  0.
         25    1    1    2    0    0 -0.56063572814E+02  0.13450393613E+03  0.99621479432E+02  0.21629579792E+03  0.12500000000E+03 0.  0.
</event>
<event>
 4    0  0.2219362E-002  0.1815754E+03  0.7546771E-02  0.1166287E+00
         21   -1    0    0  502  501  0.00000000000E+00  0.00000000000E+00  0.70642682729E+02  0.70642682729E+02  0.00000000000E+00 0. -1.
         21   -1    0    0  501  502 -0.00000000000E+00 -0.00000000000E+00 -0.46670949465E+03  0.46670949465E+03  0.00000000000E+00 0. -1.
         25    1    1    2    0    0 -0.89054117816E+02 -0.88356889794E+02 -0.25735116826E+03  0.31239750267E+03  0.12500000000E+03 0.  0.
         25    1    1    2    0    0  0.89054117816E+02  0.88356889794E+02 -0.13871564366E+03  0.22495467470E+03  0.12500000000E+03 0.  0.
</event>
<event>
 4    0  0.2219362E-002  0.4543249E+03  0.7546771E-02  0.1026440E+00
         21   -1    0    0  502  501  0.00000000000E+00  0.00000000000E+00  0.26009345367E+03  0.26009345367E+03  0.00000000000E+00 0. -1.
         21   -1    0    0  501  502 -0.00000000000E+00 -0.00000000000E+00 -0.79360377571E+03  0.79360377571E+03  0.00000000000E+00 0.  1.
         25    1    1    2    0    0  0.36114523287E+03  0.12165122966E+03 -0.51427901881E+03  0.65217544426E+03  0.12500000000E+03 0.  0.
         25    1    1    2    0    0 -0.36114523287E+03 -0.12165122966E+03 -0.19231303237E+02  0.40152178512E+03  0.12500000000E+03 0.  0.
</event>
<event>
 4    0  0.2219362E-002  0.2828576E+03  0.7546771E-02  0.1094138E+00
         21   -1    0    0  502  501  0.00000000000E+00  0.00000000000E+00  0.15376449507E+04  0.15376449507E+04  0.00000000000E+00 0. -1.
         21   -1    0    0  501  502 -0.00000000000E+00 -0.00000000000E+00 -0.52033097127E+02  0.52033097127E+02  0.00000000000E+00 0. -1.
         25    1    1    2    0    0  0.55509413811E+02 -0.23861389658E+03  0.92847108641E+03  0.96834985670E+03  0.12500000000E+03 0.  0.
         25    1    1    2    0    0 -0.55509413811E+02  0.23861389658E+03  0.55714076717E+03  0.62132819114E+03  0.12500000000E+03 0.  0.
</event>
<event>
 4    0  0.2219362E-002  0.1573883E+03  0.7546771E-02  0.1191677E+00
         21   -1    0    0  502  501  0.00000000000E+00  0.00000000000E+00  0.13565161239E+03  0.13565161239E+03  0.00000000000E+00 0.  1.
         21   -1    0    0  501  502 -0.00000000000E+00 -0.00000000000E+00 -0.18260809897E+03  0.18260809897E+03  0.00000000000E+00 0.  1.
         25    1    1    2    0    0  0.26075265275E+02 -0.81101464760E+02 -0.67418491154E+02  0.16561286180E+03  0.12500000000E+03 0.  0.
         25    1    1    2    0    0 -0.26075265275E+02  0.81101464760E+02  0.20462004574E+02  0.15264684955E+03  0.12500000000E+03 0.  0.
</event>
<event>
 4    0  0.2219362E-002  0.1893091E+03  0.7546771E-02  0.1159086E+00
         21   -1    0    0  502  501  0.00000000000E+00  0.00000000000E+00  0.22077268522E+03  0.22077268522E+03  0.00000000000E+00 0. -1.
         21   -1    0    0  501  502 -0.00000000000E+00 -0.00000000000E+00 -0.16232955405E+03  0.16232955405E+03  0.00000000000E+00 0. -1.
         25    1    1    2    0    0  0.99722353379E+02  0.10128646991E+03  0.32329553134E+02  0.19202525031E+03  0.12500000000E+03 0.  0.
         25    1    1    2    0    0 -0.99722353379E+02 -0.10128646991E+03  0.26113578033E+02  0.19107698896E+03  0.12500000000E+03 0.  0.
</event>
<event>
 4    0  0.2219362E-002  0.2542443E+03  0.7546771E-02  0.1110652E+00
         21   -1    0    0  502  501  0.00000000000E+00  0.00000000000E+00  0.21744068066E+03  0.21744068066E+03  0.00000000000E+00 0.  1.
         21   -1    0    0  501  502 -0.00000000000E+00 -0.00000000000E+00 -0.29727723682E+03  0.29727723682E+03  0.00000000000E+00 0.  1.
         25    1    1    2    0    0 -0.31772394203E+02  0.60943289410E+02  0.17311562502E+03  0.22431582464E+03  0.12500000000E+03 0.  0.
         25    1    1    2    0    0  0.31772394203E+02 -0.60943289410E+02 -0.25295218119E+03  0.29040209284E+03  0.12500000000E+03 0.  0.
</event>
<event>
 4    0  0.2219362E-002  0.1829010E+03  0.7546771E-02  0.1165025E+00
         21   -1    0    0  502  501  0.00000000000E+00  0.00000000000E+00  0.57787529743E+02  0.57787529743E+02  0.00000000000E+00 0. -1.
         21   -1    0    0  501  502 -0.00000000000E+00 -0.00000000000E+00 -0.57889259853E+03  0.57889259853E+03  0.00000000000E+00 0. -1.
         25    1    1    2    0    0  0.14253053974E+02 -0.99903222014E+02 -0.10838054398E+03  0.19379150041E+03  0.12500000000E+03 0.  0.
         25    1    1    2    0    0 -0.14253053974E+02  0.99903222014E+02 -0.41272452481E+03  0.44288862787E+03  0.12500000000E+03 0.  0.
</event>
<event>
 4    0  0.2219362E-002  0.2136118E+03  0.7546771E-02  0.1138737E+00
         21   -1    0    0  502  501  0.00000000000E+00  0.00000000000E+00  0.20050979886E+03  0.20050979886E+03  0.00000000000E+00 0. -1.
         21   -1    0    0  501  502 -0.00000000000E+00 -0.00000000000E+00 -0.22756988338E+03  0.22756988338E+03  0.00000000000E+00 0. -1.
         25    1    1    2    0    0 -0.51854260176E+02 -0.40554539564E+02 -0.17407426472E+03  0.22418827939E+03  0.12500000000E+03 0.  0.
         25    1    1    2    0    0  0.51854260176E+02  0.40554539564E+02  0.14701418020E+03  0.20389140285E+03  0.12500000000E+03 0.  0.
</event>
<event>
 4    0  0.2219362E-002  0.1666004E+03  0.7546771E-02  0.1181440E+00
         21   -1    0    0  502  501  0.00000000000E+00  0.00000000000E+00  0.22209204238E+03  0.22209204238E+03  0.00000000000E+00 0.  1.
         21   -1    0    0  501  502 -0.00000000000E+00 -0.00000000000E+00 -0.12497385346E+03  0.12497385346E+03  0.00000000000E+00 0.  1.
         25    1    1    2    0    0  0.36288359503E+02  0.84706821112E+02 -0.14271835384E+02  0.15595119706E+03  0.12500000000E+03 0.  0.
         25    1    1    2    0    0 -0.36288359503E+02 -0.84706821112E+02  0.11139002430E+03  0.19111469879E+03  0.12500000000E+03 0.  0.
</event>
<event>
 4    0  0.2219362E-002  0.2124529E+03  0.7546771E-02  0.1139638E+00
         21   -1    0    0  502  501  0.00000000000E+00  0.00000000000E+00  0.10209711791E+04  0.10209711791E+04  0.00000000000E+00 0. -1.
         21   -1    0    0  501  502 -0.00000000000E+00 -0.00000000000E+00 -0.44209111344E+02  0.44209111344E+02  0.00000000000E+00 0. -1.
         25    1    1    2    0    0  0.95075930794E+02 -0.13852080637E+03  0.57820167565E+03  0.61495497733E+03  0.12500000000E+03 0.  0.
         25    1    1    2    0    0 -0.95075930794E+02  0.13852080637E+03  0.39856039206E+03  0.45022531307E+03  0.12500000000E+03 0.  0.
</event>
<event>
 4    0  0.2219362E-002  0.2547377E+03  0.7546771E-02  0.1110347E+00
         21   -1    0    0  502  501  0.00000000000E+00  0.00000000000E+00  0.24785747565E+03  0.24785747565E+03  0.00000000000E+00 0.  1.
         21   -1    0    0  501  502 -0.00000000000E+00 -0.00000000000E+00 -0.26180895687E+03  0.26180895687E+03  0.00000000000E+00 0.  1.
         25    1    1    2    0    0  0.81191181301E+02  0.12334884683E+02 -0.21326203810E+03  0.26048004568E+03  0.12500000000E+03 0.  0.
         25    1    1    2    0    0 -0.81191181301E+02 -0.12334884683E+02  0.19931055689E+03  0.24918638684E+03  0.12500000000E+03 0.  0.
</event>
<event>
 4    0  0.2219362E-002  0.2315263E+03  0.7546771E-02  0.1125570E+00
         21   -1    0    0  502  501  0.00000000000E+00  0.00000000000E+00  0.84391430261E+02  0.84391430261E+02  0.00000000000E+00 0.  1.
         21   -1    0    0  501  502 -0.00000000000E+00 -0.00000000000E+00 -0.63518825440E+03  0.63518825440E+03  0.00000000000E+00 0.  1.
         25    1    1    2    0    0  0.41601560317E+02 -0.22555930074E+02  0.18383924657E+02  0.13491637591E+03  0.12500000000E+03 0.  0.
         25    1    1    2    0    0 -0.41601560317E+02  0.22555930074E+02 -0.56918074879E+03  0.58466330875E+03  0.12500000000E+03 0.  0.
</event>
<event>
 4    0  0.2219362E-002  0.3178617E+03  0.7546771E-02  0.1076638E+00
         21   -1    0    0  502  501  0.00000000000E+00  0.00000000000E+00  0.69776227610E+03  0.69776227610E+03  0.00000000000E+00 0. -1.
         21   -1    0    0  501  502 -0.00000000000E+00 -0.00000000000E+00 -0.14480013346E+03  0.14480013346E+03  0.00000000000E+00 0.  1.
         25    1    1    2    0    0  0.26661619584E+03  0.25245471915E+02  0.12141088719E+03  0.31951077175E+03  0.12500000000E+03 0.  0.
         25    1    1    2    0    0 -0.26661619584E+03 -0.25245471915E+02  0.43155125544E+03  0.52305163781E+03  0.12500000000E+03 0.  0.
</event>
<event>
 4    0  0.2219362E-002  0.2241914E+03  0.7546771E-02  0.1130796E+00
         21   -1    0    0  502  501  0.00000000000E+00  0.00000000000E+00  0.55641547632E+03  0.55641547632E+03  0.00000000000E+00 0. -1.
         21   -1    0    0  501  502 -0.00000000000E+00 -0.00000000000E+00 -0.90331370563E+02  0.90331370563E+02  0.00000000000E+00 0. -1.
         25    1    1    2    0    0  0.74670791816E+02  0.69936958617E+02  0.87971622398E+01  0.16176926591E+03  0.12500000000E+03 0.  0.
         25    1    1    2    0    0 -0.74670791816E+02 -0.69936958617E+02  0.45728694351E+03  0.48497758097E+03  0.12500000000E+03 0.  0.
</event>
<event>
 4    0  0.2219362E-002  0.2399198E+03  0.7546771E-02  0.1119846E+00
         21   -1    0    0  502  501  0.00000000000E+00  0.00000000000E+00  0.18404784076E+03  0.18404784076E+03  0.00000000000E+00 0. -1.
         21   -1    0    0  501  502 -0.00000000000E+00 -0.00000000000E+00 -0.31275294682E+03  0.31275294682E+03  0.00000000000E+00 0. -1.
         25    1    1    2    0    0  0.13201372868E+03  0.54554930177E+02  0.87574406690E+02  0.20904100477E+03  0.12500000000E+03 0.  0.
         25    1    1    2    0    0 -0.13201372868E+03 -0.54554930177E+02 -0.21627951275E+03  0.28775978281E+03  0.12500000000E+03 0.  0.
</event>
<event>
 4    0  0.2219362E-002  0.1833241E+03  0.7546771E-02  0.1164624E+00
         21   -1    0    0  502  501  0.00000000000E+00  0.00000000000E+00  0.75331480657E+03  0.75331480657E+03  0.00000000000E+00 0.  1.
         21   -1    0    0  501  502 -0.00000000000E+00 -0.00000000000E+00 -0.44613133125E+02  0.44613133125E+02  0.00000000000E+00 0.  1.
         25    1    1    2    0    0 -0.50526973479E+02  0.10717976862E+03  0.49099354732E+03  0.52032695621E+03  0.12500000000E+03 0.  0.
         25    1    1    2    0    0  0.50526973479E+02 -0.10717976862E+03  0.21770812613E+03  0.27760098349E+03  0.12500000000E+03 0.  0.
</event>
<event>
 4    0  0.2219362E-002  0.1807836E+03  0.7546771E-02  0.1167047E+00
         21   -1    0    0  502  501  0.00000000000E+00  0.00000000000E+00  0.13089273786E+03  0.13089273786E+03  0.00000000000E+00 0.  1.
         21   -1    0    0  501  502 -0.00000000000E+00 -0.00000000000E+00 -0.24969078234E+03  0.24969078234E+03  0.00000000000E+00 0.  1.
         25    1    1    2    0    0  0.15364501897E+02  0.48235886945E+02  0.67327986610E+02  0.15073429102E+03  0.12500000000E+03 0.  0.
         25    1    1    2    0    0 -0.15364501897E+02 -0.48235886945E+02 -0.18612603109E+03  0.22984922918E+03  0.12500000000E+03 0.  0.
</event>
<event>
 4    0  0.2219362E-002  0.3728956E+03  0.7546771E-02  0.1053591E+00
         21   -1    0    0  502  501  0.00000000000E+00  0.00000000000E+00  0.24169845175E+03  0.24169845175E+03  0.00000000000E+00 0.  1.
         21   -1    0    0  501  502 -0.00000000000E+00 -0.00000000000E+00 -0.57530833863E+03  0.57530833863E+03  0.00000000000E+00 0.  1.
         25    1    1    2    0    0 -0.26934204424E+03 -0.22121773569E+03 -0.21510240296E+03  0.42822478576E+03  0.12500000000E+03 0.  0.
         25    1    1    2    0    0  0.26934204424E+03  0.22121773569E+03 -0.11850748393E+03  0.38878200463E+03  0.12500000000E+03 0.  0.
</event>
<event>
 4    0  0.2219362E-002  0.3516795E+03  0.7546771E-02  0.1061928E+00
         21   -1    0    0  502  501  0.00000000000E+00  0.00000000000E+00  0.30122467055E+03  0.30122467055E+03  0.00000000000E+00 0.  1.
         21   -1    0    0  501  502 -0.00000000000E+00 -0.00000000000E+00 -0.41058553937E+03  0.41058553937E+03  0.00000000000E+00 0.  1.
         25    1    1    2    0    0  0.21056797761E+03 -0.84574159243E+02 -0.29536534196E+03  0.39288337562E+03  0.12500000000E+03 0.  0.
         25    1    1    2    0    0 -0.21056797761E+03  0.84574159243E+02  0.18600447314E+03  0.31892683430E+03  0.12500000000E+03 0.  0.
</event>
<event>
 4    0  0.2219362E-002  0.2380546E+03  0.7546771E-02  0.1121096E+00
         21   -1    0    0  502  501  0.00000000000E+00  0.00000000000E+00  0.68021776933E+03  0.68021776933E+03  0.00000000000E+00 0.  1.
         21   -1    0    0  501  502 -0.00000000000E+00 -0.00000000000E+00 -0.83311536218E+02  0.83311536218E+02  0.00000000000E+00 0.  1.
         25    1    1    2    0    0  0.80764316802E+02 -0.17821495484E+03  0.38272738850E+03  0.44764796315E+03  0.12500000000E+03 0.  0.
         25    1    1    2    0    0 -0.80764316802E+02  0.17821495484E+03  0.21417884460E+03  0.31588134240E+03  0.12500000000E+03 0.  0.
</event>
<event>
 4    0  0.2219362E-002  0.2470048E+03  0.7546771E-02  0.1115212E+00
         21   -1    0    0  502  501  0.00000000000E+00  0.00000000000E+00  0.16404105619E+03  0.16404105619E+03  0.00000000000E+00 0. -1.
         21   -1    0    0  501  502 -0.00000000000E+00 -0.00000000000E+00 -0.37192749008E+03  0.37192749008E+03  0.00000000000E+00 0. -1.
         25    1    1    2    0    0  0.18891779456E+03  0.97522907701E+02 -0.89157506566E+02  0.26224933099E+03  0.12500000000E+03 0.  0.
         25    1    1    2    0    0 -0.18891779456E+03 -0.97522907701E+02 -0.11872892733E+03  0.27371921528E+03  0.12500000000E+03 0.  0.
</event>
<event>
 4    0  0.2219362E-002  0.2355600E+03  0.7546771E-02  0.1122786E+00
         21   -1    0    0  502  501  0.00000000000E+00  0.00000000000E+00  0.22908398962E+03  0.22908398962E+03  0.00000000000E+00 0. -1.
         21   -1    0    0  501  502 -0.00000000000E+00 -0.00000000000E+00 -0.24221901413E+03  0.24221901413E+03  0.00000000000E+00 0. -1.
         25    1    1    2    0    0 -0.15968914209E+03 -0.74168971586E+02 -0.10074143719E+03  0.23827609115E+03  0.12500000000E+03 0.  0.
         25    1    1    2    0    0  0.15968914209E+03  0.74168971586E+02  0.87606412676E+02  0.23302691259E+03  0.12500000000E+03 0.  0.
</event>
<event>
 4    0  0.2219362E-002  0.2512833E+03  0.7546771E-02  0.1112497E+00
         21   -1    0    0  502  501  0.00000000000E+00  0.00000000000E+00  0.62665494017E+03  0.62665494017E+03  0.00000000000E+00 0.  1.
         21   -1    0    0  501  502 -0.00000000000E+00 -0.00000000000E+00 -0.10076242904E+03  0.10076242904E+03  0.00000000000E+00 0.  1.
         25    1    1    2    0    0  0.21424329075E+03  0.30774964494E+02  0.22545349155E+03  0.33660297522E+03  0.12500000000E+03 0.  0.
         25    1    1    2    0    0 -0.21424329075E+03 -0.30774964494E+02  0.30043901958E+03  0.39081439400E+03  0.12500000000E+03 0.  0.
</event>
<event>
 4    0  0.2219362E-002  0.1816330E+03  0.7546771E-02  0.1166232E+00
         21   -1    0    0  502  501  0.00000000000E+00  0.00000000000E+00  0.19343532907E+02  0.19343532907E+02  0.00000000000E+00 0.  1.
         21   -1    0    0  501  502 -0.00000000000E+00 -0.00000000000E+00 -0.17055071825E+04  0.17055071825E+04  0.00000000000E+00 0.  1.
         25    1    1    2    0    0 -0.70483198288E+01  0.11532753168E+03 -0.54220266222E+03  0.56829468174E+03  0.12500000000E+03 0.  0.
         25    1    1    2    0    0  0.70483198288E+01 -0.11532753168E+03 -0.11439609873E+04  0.11565560336E+04  0.12500000000E+03 0.  0.
</event>
<event>
 4    0  0.2219362E-002  0.5023271E+03  0.7546771E-02  0.1013173E+00
         21   -1    0    0  502  501  0.00000000000E+00  0.00000000000E+00  0.92202596628E+03  0.92202596628E+03  0.00000000000E+00 0. -1.
         21   -1    0    0  501  502 -0.00000000000E+00 -0.00000000000E+00 -0.27367177591E+03  0.27367177591E+03  0.00000000000E+00 0.  1.
         25    1    1    2    0    0 -0.15682383286E+03 -0.35350788909E+03 -0.27163566822E+02  0.40733819065E+03  0.12500000000E+03 0.  0.
         25    1    1    2    0    0  0.15682383286E+03  0.35350788909E+03  0.67551775720E+03  0.78835955153E+03  0.12500000000E+03 0.  0.
</event>
<event>
 4    0  0.2219362E-002  0.1906757E+03  0.7546771E-02  0.1157853E+00
         21   -1    0    0  502  501  0.00000000000E+00  0.00000000000E+00  0.75971058214E+02  0.75971058214E+02  0.00000000000E+00 0. -1.
         21   -1    0    0  501  502 -0.00000000000E+00 -0.00000000000E+00 -0.47856652740E+03  0.47856652740E+03  0.00000000000E+00 0. -1.
         25    1    1    2    0    0 -0.67344984487E+02  0.42625883077E+00 -0.16235115966E+02  0.14291293721E+03  0.12500000000E+03 0.  0.
         25    1    1    2    0    0  0.67344984487E+02 -0.42625883077E+00 -0.38636035322E+03  0.41162464841E+03  0.12500000000E+03 0.  0.
</event>
<event>
 4    0  0.2219362E-002  0.2137544E+03  0.7546771E-02  0.1138627E+00
         21   -1    0    0  502  501  0.00000000000E+00  0.00000000000E+00  0.98479144586E+03  0.98479144586E+03  0.00000000000E+00 0.  1.
         21   -1    0    0  501  502 -0.00000000000E+00 -0.00000000000E+00 -0.46396588537E+02  0.46396588537E+02  0.00000000000E+00 0.  1.
         25    1    1    2    0    0  0.12053099639E+02 -0.17074623376E+03  0.53597387134E+03  0.57636147018E+03  0.12500000000E+03 0.  0.
         25    1    1    2    0    0 -0.12053099639E+02  0.17074623376E+03  0.40242098599E+03  0.45482656422E+03  0.12500000000E+03 0.  0.
</event>
<event>
 4    0  0.2219362E-002  0.3335381E+03  0.7546771E-02  0.1069582E+00
         21   -1    0    0  502  501  0.00000000000E+00  0.00000000000E+00  0.12470696862E+03  0.12470696862E+03  0.00000000000E+00 0. -1.
         21   -1    0    0  501  502 -0.00000000000E+00 -0.00000000000E+00 -0.89207258254E+03  0.89207258254E+03  0.00000000000E+00 0.  1.
         25    1    1    2    0    0 -0.39333091127E+02 -0.25896556277E+03 -0.63419740575E+03  0.69745365740E+03  0.12500000000E+03 0.  0.
         25    1    1    2    0    0  0.39333091127E+02  0.25896556277E+03 -0.13316820816E+03  0.31932589376E+03  0.12500000000E+03 0.  0.
</event>
<event>
 4    0  0.2219362E-002  0.2533743E+03  0.7546771E-02  0.1111191E+00
         21   -1    0    0  502  501  0.00000000000E+00  0.00000000000E+00  0.54864787240E+03  0.54864787240E+03  0.00000000000E+00 0. -1.
         21   -1    0    0  501  502 -0.00000000000E+00 -0.00000000000E+00 -0.11701226865E+03  0.11701226865E+03  0.00000000000E+00 0. -1.
         25    1    1    2    0    0  0.17384292557E+03 -0.12104373606E+03  0.13590891015E+03  0.28101455597E+03  0.12500000000E+03 0.  0.
         25    1    1    2    0    0 -0.17384292557E+03  0.12104373606E+03  0.29572669361E+03  0.38464558508E+03  0.12500000000E+03 0.  0.
</event>
<event>
 4    0  0.2219362E-002  0.1847686E+03  0.7546771E-02  0.1163266E+00
         21   -1    0    0  502  501  0.00000000000E+00  0.00000000000E+00  0.11582528657E+03  0.11582528657E+03  0.00000000000E+00 0. -1.
         21   -1    0    0  501  502 -0.00000000000E+00 -0.00000000000E+00 -0.29474945074E+03  0.29474945074E+03  0.00000000000E+00 0. -1.
         25    1    1    2    0    0 -0.91285811779E+02  0.10080324062E+03 -0.84487494565E+02  0.20311949559E+03  0.12500000000E+03 0.  0.
         25    1    1    2    0    0  0.91285811779E+02 -0.10080324062E+03 -0.94436669611E+02  0.20745524172E+03  0.12500000000E+03 0.  0.
</event>
<event>
 4    0  0.2219362E-002  0.2096583E+03  0.7546771E-02  0.1141837E+00
         21   -1    0    0  502  501  0.00000000000E+00  0.00000000000E+00  0.75549863364E+02  0.75549863364E+02  0.00000000000E+00 0.  1.
         21   -1    0    0  501  502 -0.00000000000E+00 -0.00000000000E+00 -0.58182244313E+03  0.58182244313E+03  0.00000000000E+00 0.  1.
         25    1    1    2    0    0  0.78930420803E+02 -0.37469665224E+02 -0.47867937970E+03  0.50238723679E+03  0.12500000000E+03 0.  0.
         25    1    1    2    0    0 -0.78930420803E+02  0.37469665224E+02 -0.27593200063E+02  0.15498506970E+03  0.12500000000E+03 0.  0.
</event>
<event>
 4    0  0.2219362E-002  0.1861897E+03  0.7546771E-02  0.1161944E+00
         21   -1    0    0  502  501  0.00000000000E+00  0.00000000000E+00  0.14236007761E+03  0.14236007761E+03  0.00000000000E+00 0. -1.
         21   -1    0    0  501  502 -0.00000000000E+00 -0.00000000000E+00 -0.24351358889E+03  0.24351358889E+03  0.00000000000E+00 0. -1.
         25    1    1    2    0    0 -0.69746136167E+02 -0.84652277317E+02 -0.13734323099E+03  0.21568192939E+03  0.12500000000E+03 0.  0.
         25    1    1    2    0    0  0.69746136167E+02  0.84652277317E+02  0.36189719715E+02  0.17019173710E+03  0.12500000000E+03 0.  0.
</event>
<event>
 4    0  0.2219362E-002  0.1818462E+03  0.7546771E-02  0.1166028E+00
         21   -1    0    0  502  501  0.00000000000E+00  0.00000000000E+00  0.15266803027E+02  0.15266803027E+02  0.00000000000E+00 0.  1.
         21   -1    0    0  501  502 -0.00000000000E+00 -0.00000000000E+00 -0.21660103250E+04  0.21660103250E+04  0.00000000000E+00 0.  1.
         25    1    1    2    0    0  0.25814133523E+02 -0.20122666185E+02 -0.18427760925E+04  0.18473007384E+04  0.12500000000E+03 0.  0.
         25    1    1    2    0    0 -0.25814133523E+02  0.20122666185E+02 -0.30796742956E+03  0.33397638966E+03  0.12500000000E+03 0.  0.
</event>
<event>
 4    0  0.2219362E-002  0.2294331E+03  0.7546771E-02  0.1127039E+00
         21   -1    0    0  502  501  0.00000000000E+00  0.00000000000E+00  0.34566808197E+03  0.34566808197E+03  0.00000000000E+00 0. -1.
         21   -1    0    0  501  502 -0.00000000000E+00 -0.00000000000E+00 -0.15228345929E+03  0.15228345929E+03  0.00000000000E+00 0. -1.
         25    1    1    2    0    0 -0.40443004522E+02  0.15684715586E+03 -0.15967089086E+02  0.20522332921E+03  0.12500000000E+03 0.  0.
         25    1    1    2    0    0  0.40443004522E+02 -0.15684715586E+03  0.20935171176E+03  0.29272821206E+03  0.12500000000E+03 0.  0.
</event>
<event>
 4    0  0.2219362E-002  0.2180210E+03  0.7546771E-02  0.1135367E+00
         21   -1    0    0  502  501  0.00000000000E+00  0.00000000000E+00  0.11137573911E+03  0.11137573911E+03  0.00000000000E+00 0.  1.
         21   -1    0    0  501  502 -0.00000000000E+00 -0.00000000000E+00 -0.42678197152E+03  0.42678197152E+03  0.00000000000E+00 0.  1.
         25    1    1    2    0    0  0.10794408681E+03 -0.14185452653E+03 -0.14344170710E+03  0.26072045549E+03  0.12500000000E+03 0.  0.
         25    1    1    2    0    0 -0.10794408681E+03  0.14185452653E+03 -0.17196452531E+03  0.27743725514E+03  0.12500000000E+03 0.  0.
</event>
<event>
 4    0  0.2219362E-002  0.2175030E+03  0.7546771E-02  0.1135758E+00
         21   -1    0    0  502  501  0.00000000000E+00  0.00000000000E+00  0.10126365243E+03  0.10126365243E+03  0.00000000000E+00 0.  1.
         21   -1    0    0  501  502 -0.00000000000E+00 -0.00000000000E+00 -0.46717231705E+03  0.46717231705E+03  0.00000000000E+00 0.  1.
         25    1    1    2    0    0 -0.67731783508E+02 -0.12395722921E+03 -0.41431160589E+02  0.19311791796E+03  0.12500000000E+03 0.  0.
         25    1    1    2    0    0  0.67731783508E+02  0.12395722921E+03 -0.32447750404E+03  0.37531805152E+03  0.12500000000E+03 0.  0.
</event>
<event>
 4    0  0.2219362E-002  0.1648111E+03  0.7546771E-02  0.1183370E+00
         21   -1    0    0  502  501  0.00000000000E+00  0.00000000000E+00  0.14927592126E+02  0.14927592126E+02  0.00000000000E+00 0.  1.
         21   -1    0    0  501  502 -0.00000000000E+00 -0.00000000000E+00 -0.18196311779E+04  0.18196311779E+04  0.00000000000E+00 0.  1.
         25    1    1    2    0    0 -0.99137983227E+02  0.92006213695E+01 -0.11266906231E+04  0.11379673771E+04  0.12500000000E+03 0.  0.
         25    1    1    2    0    0  0.99137983227E+02 -0.92006213695E+01 -0.67801296275E+03  0.69659139301E+03  0.12500000000E+03 0.  0.
</event>
<event>
 4    0  0.2219362E-002  0.3500363E+03  0.7546771E-02  0.1062600E+00
         21   -1    0    0  502  501  0.00000000000E+00  0.00000000000E+00  0.88895220105E+03  0.88895220105E+03  0.00000000000E+00 0.  1.
         21   -1    0    0  501  502 -0.00000000000E+00 -0.00000000000E+00 -0.13783124801E+03  0.13783124801E+03  0.00000000000E+00 0.  1.
         25    1    1    2    0    0 -0.22553634271E+03  0.86658689154E+02  0.69864355015E+03  0.74973607386E+03  0.12500000000E+03 0.  0.
         25    1    1    2    0    0  0.22553634271E+03 -0.86658689154E+02  0.52477402900E+02  0.27704737520E+03  0.12500000000E+03 0.  0.
</event>
<event>
 4    0  0.2219362E-002  0.2785994E+03  0.7546771E-02  0.1096456E+00
         21   -1    0    0  502  501  0.00000000000E+00  0.00000000000E+00  0.43456186822E+03  0.43456186822E+03  0.00000000000E+00 0. -1.
         21   -1    0    0  501  502 -0.00000000000E+00 -0.00000000000E+00 -0.17861115875E+03  0.17861115875E+03  0.00000000000E+00 0. -1.
         25    1    1    2    0    0 -0.11671781759E+03  0.42067492459E+02  0.36553098354E+03  0.40574699357E+03  0.12500000000E+03 0.  0.
         25    1    1    2    0    0  0.11671781759E+03 -0.42067492459E+02 -0.10958027407E+03  0.20742603339E+03  0.12500000000E+03 0.  0.
</event>
<event>
 4    0  0.2219362E-002  0.2285511E+03  0.7546771E-02  0.1127664E+00
         21   -1    0    0  502  501  0.00000000000E+00  0.00000000000E+00  0.28389882878E+03  0.28389882878E+03  0.00000000000E+00 0.  1.
         21   -1    0    0  501  502 -0.00000000000E+00 -0.00000000000E+00 -0.18399378141E+03  0.18399378141E+03  0.00000000000E+00 0.  1.
         25    1    1    2    0    0 -0.12393297209E+03 -0.14192483652E+03  0.15871236059E+02  0.22666922360E+03  0.12500000000E+03 0.  0.
         25    1    1    2    0    0  0.12393297209E+03  0.14192483652E+03  0.84033811312E+02  0.24122338659E+03  0.12500000000E+03 0.  0.
</event>
<event>
 4    0  0.2219362E-002  0.1749625E+03  0.7546771E-02  0.1172769E+00
         21   -1    0    0  502  501  0.00000000000E+00  0.00000000000E+00  0.27596239241E+03  0.27596239241E+03  0.00000000000E+00 0.  1.
         21   -1    0    0  501  502 -0.00000000000E+00 -0.00000000000E+00 -0.11092766127E+03  0.11092766127E+03  0.00000000000E+00 0.  1.
         25    1    1    2    0    0  0.82311021025E+02 -0.89438088737E+02  0.98637955456E+02  0.20032154691E+03  0.12500000000E+03 0.  0.
         25    1    1    2    0    0 -0.82311021025E+02  0.89438088737E+02  0.66396775676E+02  0.18656850677E+03  0.12500000000E+03 0.  0.
</event>
<event>
 4    0  0.2219362E-002  0.1907394E+03  0.7546771E-02  0.1157796E+00
         21   -1    0    0  502  501  0.00000000000E+00  0.00000000000E+00  0.45410930908E+02  0.45410930908E+02  0.00000000000E+00 0.  1.
         21   -1    0    0  501  502 -0.00000000000E+00 -0.00000000000E+00 -0.80116199853E+03  0.80116199853E+03  0.00000000000E+00 0.  1.
         25    1    1    2    0    0 -0.18619205254E+02  0.72948258283E+02 -0.65046900130E+03  0.66663561624E+03  0.12500000000E+03 0.  0.
         25    1    1    2    0    0  0.18619205254E+02 -0.72948258283E+02 -0.10528206632E+03  0.17993731320E+03  0.12500000000E+03 0.  0.
</event>
<event>
 4    0  0.2219362E-002  0.4340698E+03  0.7546771E-02  0.1032582E+00
         21   -1    0    0  502  501  0.00000000000E+00  0.00000000000E+00  0.65388341749E+02  0.65388341749E+02  0.00000000000E+00 0.  1.
         21   -1    0    0  501  502 -0.00000000000E+00 -0.00000000000E+00 -0.28815015623E+04  0.28815015623E+04  0.00000000000E+00 0.  1.
         25    1    1    2    0    0  0.24946166954E+03  0.32919685680E+03 -0.12492063851E+04  0.13216441608E+04  0.12500000000E+03 0.  0.
         25    1    1    2    0    0 -0.24946166954E+03 -0.32919685680E+03 -0.15669068355E+04  0.16252457433E+04  0.12500000000E+03 0.  0.
</event>
<event>
 4    0  0.2219362E-002  0.2076559E+03  0.7546771E-02  0.1143436E+00
         21   -1    0    0  502  501  0.00000000000E+00  0.00000000000E+00  0.98876467025E+02  0.98876467025E+02  0.00000000000E+00 0.  1.
         21   -1    0    0  501  502 -0.00000000000E+00 -0.00000000000E+00 -0.43610936777E+03  0.43610936777E+03  0.00000000000E+00 0.  1.
         25    1    1    2    0    0 -0.12138808138E+03 -0.83939506768E+02 -0.71234607082E+02  0.20610743883E+03  0.12500000000E+03 0.  0.
         25    1    1    2    0    0  0.12138808138E+03  0.83939506768E+02 -0.26599829366E+03  0.32887839596E+03  0.12500000000E+03 0.  0.
</event>
<event>
 4    0  0.2219362E-002  0.2877735E+03  0.7546771E-02  0.1091517E+00
         21   -1    0    0  502  501  0.00000000000E+00  0.00000000000E+00  0.98030383125E+03  0.98030383125E+03  0.00000000000E+00 0.  1.
         21   -1    0    0  501  502 -0.00000000000E+00 -0.00000000000E+00 -0.84477486082E+02  0.84477486082E+02  0.00000000000E+00 0.  1.
         25    1    1    2    0    0 -0.50995282894E+02 -0.15742572989E+03  0.78808433026E+02  0.22185388981E+03  0.12500000000E+03 0.  0.
         25    1    1    2    0    0  0.50995282894E+02  0.15742572989E+03  0.81701791214E+03  0.84292742752E+03  0.12500000000E+03 0.  0.
</event>
<event>
 4    0  0.2219362E-002  0.2536852E+03  0.7546771E-02  0.1110998E+00
         21   -1    0    0  502  501  0.00000000000E+00  0.00000000000E+00  0.25059957824E+03  0.25059957824E+03  0.00000000000E+00 0. -1.
         21   -1    0    0  501  502 -0.00000000000E+00 -0.00000000000E+00 -0.25680884400E+03  0.25680884400E+03  0.00000000000E+00 0. -1.
         25    1    1    2    0    0 -0.98147649679E+02 -0.14679956411E+03 -0.13558385030E+03  0.25532538774E+03  0.12500000000E+03 0.  0.
         25    1    1    2    0    0  0.98147649679E+02  0.14679956411E+03  0.12937458454E+03  0.25208303451E+03  0.12500000000E+03 0.  0.
</event>
<event>
 4    0  0.2219362E-002  0.1894779E+03  0.7546771E-02  0.1158933E+00
         21   -1    0    0  502  501  0.00000000000E+00  0.00000000000E+00  0.10397717171E+03  0.10397717171E+03  0.00000000000E+00 0. -1.
         21   -1    0    0  501  502 -0.00000000000E+00 -0.00000000000E+00 -0.34528625356E+03  0.34528625356E+03  0.00000000000E+00 0. -1.
         25    1    1    2    0    0  0.11596854248E+03  0.82395671539E+02 -0.12807130997E+03  0.22861541936E+03  0.12500000000E+03 0.  0.
         25    1    1    2    0    0 -0.11596854248E+03 -0.82395671539E+02 -0.11323777188E+03  0.22064800591E+03  0.12500000000E+03 0.  0.
</event>
<event>
 4    0  0.2219362E-002  0.3331851E+03  0.7546771E-02  0.1069736E+00
         21   -1    0    0  502  501  0.00000000000E+00  0.00000000000E+00  0.17381522486E+04  0.17381522486E+04  0.00000000000E+00 0.  1.
         21   -1    0    0  501  502 -0.00000000000E+00 -0.00000000000E+00 -0.63867985127E+02  0.63867985127E+02  0.00000000000E+00 0.  1.
         25    1    1    2    0    0  0.72766223327E+01 -0.30491425439E+03  0.70572557039E+03  0.77890900140E+03  0.12500000000E+03 0.  0.
         25    1    1    2    0    0 -0.72766223327E+01  0.30491425439E+03  0.96855869311E+03  0.10231112324E+04  0.12500000000E+03 0.  0.
</event>
<event>
 4    0  0.2219362E-002  0.1941408E+03  0.7546771E-02  0.1154779E+00
         21   -1    0    0  502  501  0.00000000000E+00  0.00000000000E+00  0.12735244674E+04  0.12735244674E+04  0.00000000000E+00 0.  1.
         21   -1    0    0  501  502 -0.00000000000E+00 -0.00000000000E+00 -0.29595553305E+02  0.29595553305E+02  0.00000000000E+00 0.  1.
         25    1    1    2    0    0  0.42818043528E+02 -0.10442664396E+03  0.94609259673E+03  0.96096540542E+03  0.12500000000E+03 0.  0.
         25    1    1    2    0    0 -0.42818043528E+02  0.10442664396E+03  0.29783631737E+03  0.34215461529E+03  0.12500000000E+03 0.  0.
</event>
<event>
 4    0  0.2219362E-002  0.1956502E+03  0.7546771E-02  0.1153462E+00
         21   -1    0    0  502  501  0.00000000000E+00  0.00000000000E+00  0.89524404799E+03  0.89524404799E+03  0.00000000000E+00 0. -1.
         21   -1    0    0  501  502 -0.00000000000E+00 -0.00000000000E+00 -0.42758182888E+02  0.42758182888E+02  0.00000000000E+00 0. -1.
         25    1    1    2    0    0 -0.16822852435E+02  0.79833374906E+02  0.72943748485E+03  0.74455383984E+03  0.12500000000E+03 0.  0.
         25    1    1    2    0    0  0.16822852435E+02 -0.79833374906E+02  0.12304838025E+03  0.19344839104E+03  0.12500000000E+03 0.  0.
</event>
<event>
 4    0  0.2219362E-002  0.2932118E+03  0.7546771E-02  0.1088684E+00
         21   -1    0    0  502  501  0.00000000000E+00  0.00000000000E+00  0.17927385477E+03  0.17927385477E+03  0.00000000000E+00 0.  1.
         21   -1    0    0  501  502 -0.00000000000E+00 -0.00000000000E+00 -0.47956330405E+03  0.47956330405E+03  0.00000000000E+00 0.  1.
         25    1    1    2    0    0 -0.17074226739E+03 -0.14545983065E+03 -0.30917488553E+03  0.40190246833E+03  0.12500000000E+03 0.  0.
         25    1    1    2    0    0  0.17074226739E+03  0.14545983065E+03  0.88854362452E+01  0.25693469050E+03  0.12500000000E+03 0.  0.
</event>
<event>
 4    0  0.2219362E-002  0.3049672E+03  0.7546771E-02  0.1082784E+00
         21   -1    0    0  502  501  0.00000000000E+00  0.00000000000E+00  0.12187489424E+04  0.12187489424E+04  0.00000000000E+00 0.  1.
         21   -1    0    0  501  502 -0.00000000000E+00 -0.00000000000E+00 -0.76311873992E+02  0.76311873992E+02  0.00000000000E+00 0.  1.
         25    1    1    2    0    0 -0.14106625298E+03 -0.93274591817E+02  0.10226622882E+03  0.23384443283E+03  0.12500000000E+03 0.  0.
         25    1    1    2    0    0  0.14106625298E+03  0.93274591817E+02  0.10401708396E+04  0.10612163836E+04  0.12500000000E+03 0.  0.
</event>
<event>
 4    0  0.2219362E-002  0.2719069E+03  0.7546771E-02  0.1100193E+00
         21   -1    0    0  502  501  0.00000000000E+00  0.00000000000E+00  0.24406887496E+03  0.24406887496E+03  0.00000000000E+00 0. -1.
         21   -1    0    0  501  502 -0.00000000000E+00 -0.00000000000E+00 -0.30292015094E+03  0.30292015094E+03  0.00000000000E+00 0. -1.
         25    1    1    2    0    0  0.80378147171E+02 -0.22639137135E+03 -0.48971756890E+01  0.27085546311E+03  0.12500000000E+03 0.  0.
         25    1    1    2    0    0 -0.80378147171E+02  0.22639137135E+03 -0.53954100289E+02  0.27613356280E+03  0.12500000000E+03 0.  0.
</event>
<event>
 4    0  0.2219362E-002  0.1934446E+03  0.7546771E-02  0.1155391E+00
         21   -1    0    0  502  501  0.00000000000E+00  0.00000000000E+00  0.58392662512E+03  0.58392662512E+03  0.00000000000E+00 0. -1.
         21   -1    0    0  501  502 -0.00000000000E+00 -0.00000000000E+00 -0.64084789875E+02  0.64084789875E+02  0.00000000000E+00 0. -1.
         25    1    1    2    0    0 -0.13578734069E+03 -0.44699872989E+02  0.32167862442E+03  0.37354841446E+03  0.12500000000E+03 0.  0.
         25    1    1    2    0    0  0.13578734069E+03  0.44699872989E+02  0.19816321083E+03  0.27446300054E+03  0.12500000000E+03 0.  0.
</event>
<event>
 4    0  0.2219362E-002  0.1983224E+03  0.7546771E-02  0.1151162E+00
         21   -1    0    0  502  501  0.00000000000E+00  0.00000000000E+00  0.69136065260E+03  0.69136065260E+03  0.00000000000E+00 0.  1.
         21   -1    0    0  501  502 -0.00000000000E+00 -0.00000000000E+00 -0.56890404495E+02  0.56890404495E+02  0.00000000000E+00 0.  1.
         25    1    1    2    0    0 -0.10145983992E+03  0.30792338550E+02  0.10662304193E+03  0.19553961313E+03  0.12500000000E+03 0.  0.
         25    1    1    2    0    0  0.10145983992E+03 -0.30792338550E+02  0.52784720617E+03  0.55271144397E+03  0.12500000000E+03 0.  0.
</event>
<event>
 4    0  0.2219362E-002  0.2660656E+03  0.7546771E-02  0.1103553E+00
         21   -1    0    0  502  501  0.00000000000E+00  0.00000000000E+00  0.42270245438E+03  0.42270245438E+03  0.00000000000E+00 0.  1.
         21   -1    0    0  501  502 -0.00000000000E+00 -0.00000000000E+00 -0.16747221324E+03  0.16747221324E+03  0.00000000000E+00 0.  1.
         25    1    1    2    0    0  0.12850396871E+03 -0.99808173258E+02  0.31547517806E+03  0.37633034610E+03  0.12500000000E+03 0.  0.
         25    1    1    2    0    0 -0.12850396871E+03  0.99808173258E+02 -0.60244936925E+02  0.21384432152E+03  0.12500000000E+03 0.  0.
</event>
<event>
 4    0  0.2219362E-002  0.3321803E+03  0.7546771E-02  0.1070176E+00
         21   -1    0    0  502  501  0.00000000000E+00  0.00000000000E+00  0.22082573332E+03  0.22082573332E+03  0.00000000000E+00 0. -1.
         21   -1    0    0  501  502 -0.00000000000E+00 -0.00000000000E+00 -0.49968712158E+03  0.49968712158E+03  0.00000000000E+00 0. -1.
         25    1    1    2    0    0 -0.29591783387E+03 -0.83527344357E+02 -0.15376087676E+03  0.36580266385E+03  0.12500000000E+03 0.  0.
         25    1    1    2    0    0  0.29591783387E+03  0.83527344357E+02 -0.12510051151E+03  0.35471019105E+03  0.12500000000E+03 0.  0.
</event>
<event>
 4    0  0.2219362E-002  0.1953360E+03  0.7546771E-02  0.1153735E+00
         21   -1    0    0  502  501  0.00000000000E+00  0.00000000000E+00  0.78120649200E+03  0.78120649200E+03  0.00000000000E+00 0.  1.
         21   -1    0    0  501  502 -0.00000000000E+00 -0.00000000000E+00 -0.48842602617E+02  0.48842602617E+02  0.00000000000E+00 0.  1.
         25    1    1    2    0    0 -0.76514586762E+01 -0.10672338646E+03  0.58985562502E+03  0.61237495410E+03  0.12500000000E+03 0.  0.
         25    1    1    2    0    0  0.76514586762E+01  0.10672338646E+03  0.14250826436E+03  0.21767414051E+03  0.12500000000E+03 0.  0.
</event>
<event>
 4    0  0.2219362E-002  0.2322824E+03  0.7546771E-02  0.1125044E+00
         21   -1    0    0  502  501  0.00000000000E+00  0.00000000000E+00  0.16876051381E+04  0.16876051381E+04  0.00000000000E+00 0. -1.
         21   -1    0    0  501  502 -0.00000000000E+00 -0.00000000000E+00 -0.31971419882E+02  0.31971419882E+02  0.00000000000E+00 0. -1.
         25    1    1    2    0    0  0.13427225188E+02  0.98337697262E+02  0.14524738708E+04  0.14612172797E+04  0.12500000000E+03 0.  0.
         25    1    1    2    0    0 -0.13427225188E+02 -0.98337697262E+02  0.20315984740E+03  0.25835927828E+03  0.12500000000E+03 0.  0.
</event>
<event>
 4    0  0.2219362E-002  0.1790786E+03  0.7546771E-02  0.1168698E+00
         21   -1    0    0  502  501  0.00000000000E+00  0.00000000000E+00  0.78476882095E+03  0.78476882095E+03  0.00000000000E+00 0. -1.
         21   -1    0    0  501  502 -0.00000000000E+00 -0.00000000000E+00 -0.40864446119E+02  0.40864446119E+02  0.00000000000E+00 0. -1.
         25    1    1    2    0    0 -0.55482693456E+02  0.10502656648E+03  0.26055384308E+03  0.31244553778E+03  0.12500000000E+03 0.  0.
         25    1    1    2    0    0  0.55482693456E+02 -0.10502656648E+03  0.48335053175E+03  0.51318772928E+03  0.12500000000E+03 0.  0.
</event>
<event>
 4    0  0.2219362E-002  0.2599648E+03  0.7546771E-02  0.1107164E+00
         21   -1    0    0  502  501  0.00000000000E+00  0.00000000000E+00  0.13748474939E+03  0.13748474939E+03  0.00000000000E+00 0. -1.
         21   -1    0    0  501  502 -0.00000000000E+00 -0.00000000000E+00 -0.49155781469E+03  0.49155781469E+03  0.00000000000E+00 0. -1.
         25    1    1    2    0    0 -0.13394710684E+03  0.15861330834E+03 -0.63176503573E+02  0.25043218567E+03  0.12500000000E+03 0.  0.
         25    1    1    2    0    0  0.13394710684E+03 -0.15861330834E+03 -0.29089656173E+03  0.37861037841E+03  0.12500000000E+03 0.  0.
</event>
<event>
 4    0  0.2219362E-002  0.2550439E+03  0.7546771E-02  0.1110158E+00
         21   -1    0    0  502  501  0.00000000000E+00  0.00000000000E+00  0.23763194766E+03  0.23763194766E+03  0.00000000000E+00 0. -1.
         21   -1    0    0  501  502 -0.00000000000E+00 -0.00000000000E+00 -0.27373159823E+03  0.27373159823E+03  0.00000000000E+00 0. -1.
         25    1    1    2    0    0 -0.14260032435E+03 -0.95036286383E+02  0.12392226763E+03  0.24565926941E+03  0.12500000000E+03 0.  0.
         25    1    1    2    0    0  0.14260032435E+03  0.95036286383E+02 -0.16002191820E+03  0.26570427648E+03  0.12500000000E+03 0.  0.
</event>
<event>
 4    0  0.2219362E-002  0.1885288E+03  0.7546771E-02  0.1159795E+00
         21   -1    0    0  502  501  0.00000000000E+00  0.00000000000E+00  0.98206506654E+02  0.98206506654E+02  0.00000000000E+00 0.  1.
         21   -1    0    0  501  502 -0.00000000000E+00 -0.00000000000E+00 -0.36192212620E+03  0.36192212620E+03  0.00000000000E+00 0.  1.
         25    1    1    2    0    0 -0.30812896366E+02  0.66968496960E+02  0.15005809537E+02  0.14589170123E+03  0.12500000000E+03 0.  0.
         25    1    1    2    0    0  0.30812896366E+02 -0.66968496960E+02 -0.27872142908E+03  0.31423693162E+03  0.12500000000E+03 0.  0.
</event>
<event>
 4    0  0.2219362E-002  0.2618000E+03  0.7546771E-02  0.1106067E+00
         21   -1    0    0  502  501  0.00000000000E+00  0.00000000000E+00  0.19438610136E+03  0.19438610136E+03  0.00000000000E+00 0. -1.
         21   -1    0    0  501  502 -0.00000000000E+00 -0.00000000000E+00 -0.35259328744E+03  0.35259328744E+03  0.00000000000E+00 0. -1.
         25    1    1    2    0    0  0.15436345894E+03 -0.32496212682E+02  0.95794098370E+02  0.22290264820E+03  0.12500000000E+03 0.  0.
         25    1    1    2    0    0 -0.15436345894E+03  0.32496212682E+02 -0.25400128444E+03  0.32407674059E+03  0.12500000000E+03 0.  0.
</event>
<event>
 4    0  0.2219362E-002  0.2215781E+03  0.7546771E-02  0.1132712E+00
         21   -1    0    0  502  501  0.00000000000E+00  0.00000000000E+00  0.72110204206E+02  0.72110204206E+02  0.00000000000E+00 0.  1.
         21   -1    0    0  501  502 -0.00000000000E+00 -0.00000000000E+00 -0.68085890601E+03  0.68085890601E+03  0.00000000000E+00 0.  1.
         25    1    1    2    0    0  0.10617912252E+03  0.14859272764E+03 -0.28591187295E+03  0.36155829939E+03  0.12500000000E+03 0.  0.
         25    1    1    2    0    0 -0.10617912252E+03 -0.14859272764E+03 -0.32283682885E+03  0.39141081082E+03  0.12500000000E+03 0.  0.
</event>
<event>
 4    0  0.2219362E-002  0.2538017E+03  0.7546771E-02  0.1110926E+00
         21   -1    0    0  502  501  0.00000000000E+00  0.00000000000E+00  0.23309038966E+03  0.23309038966E+03  0.00000000000E+00 0. -1.
         21   -1    0    0  501  502 -0.00000000000E+00 -0.00000000000E+00 -0.27635324003E+03  0.27635324003E+03  0.00000000000E+00 0. -1.
         25    1    1    2    0    0 -0.16905512445E+03 -0.12853516600E+03  0.39328891854E+02  0.24954495735E+03  0.12500000000E+03 0.  0.
         25    1    1    2    0    0  0.16905512445E+03  0.12853516600E+03 -0.82591742220E+02  0.25989867234E+03  0.12500000000E+03 0.  0.
</event>
<event>
 4    0  0.2219362E-002  0.3504173E+03  0.7546771E-02  0.1062444E+00
         21   -1    0    0  502  501  0.00000000000E+00  0.00000000000E+00  0.83451766436E+03  0.83451766436E+03  0.00000000000E+00 0.  1.
         21   -1    0    0  501  502 -0.00000000000E+00 -0.00000000000E+00 -0.14714166552E+03  0.14714166552E+03  0.00000000000E+00 0.  1.
         25    1    1    2    0    0  0.11649122429E+03 -0.10705211795E+03  0.74512232832E+03  0.77192139850E+03  0.12500000000E+03 0.  0.
         25    1    1    2    0    0 -0.11649122429E+03  0.10705211795E+03 -0.57746329481E+02  0.20973793138E+03  0.12500000000E+03 0.  0.
</event>
<event>
 4    0  0.2219362E-002  0.3416438E+03  0.7546771E-02  0.1066098E+00
         21   -1    0    0  502  501  0.00000000000E+00  0.00000000000E+00  0.46109487840E+03  0.46109487840E+03  0.00000000000E+00 0. -1.
         21   -1    0    0  501  502 -0.00000000000E+00 -0.00000000000E+00 -0.25313765823E+03  0.25313765823E+03  0.00000000000E+00 0. -1.
         25    1    1    2    0    0 -0.23929240525E+03  0.39761891780E+02 -0.11088755833E+03  0.29455545122E+03  0.12500000000E+03 0.  0.
         25    1    1    2    0    0  0.23929240525E+03 -0.39761891780E+02  0.31884477850E+03  0.41967708542E+03  0.12500000000E+03 0.  0.
</event>
<event>
 4    0  0.2219362E-002  0.3901730E+03  0.7546771E-02  0.1047237E+00
         21   -1    0    0  502  501  0.00000000000E+00  0.00000000000E+00  0.10236269575E+04  0.10236269575E+04  0.00000000000E+00 0. -1.
         21   -1    0    0  501  502 -0.00000000000E+00 -0.00000000000E+00 -0.14872113477E+03  0.14872113477E+03  0.00000000000E+00 0. -1.
         25    1    1    2    0    0 -0.28417327898E+03 -0.22189050879E+03  0.55968973663E+03  0.67739755806E+03  0.12500000000E+03 0.  0.
         25    1    1    2    0    0  0.28417327898E+03  0.22189050879E+03  0.31521608607E+03  0.49495053419E+03  0.12500000000E+03 0.  0.
</event>
<event>
 4    0  0.2219362E-002  0.1728121E+03  0.7546771E-02  0.1174947E+00
         21   -1    0    0  502  501  0.00000000000E+00  0.00000000000E+00  0.16118141400E+03  0.16118141400E+03  0.00000000000E+00 0. -1.
         21   -1    0    0  501  502 -0.00000000000E+00 -0.00000000000E+00 -0.18528205697E+03  0.18528205697E+03  0.00000000000E+00 0. -1.
         25    1    1    2    0    0  0.63690599434E+02  0.95953773497E+02 -0.43357630775E+02  0.17540953010E+03  0.12500000000E+03 0.  0.
         25    1    1    2    0    0 -0.63690599434E+02 -0.95953773497E+02  0.19256987809E+02  0.17105394086E+03  0.12500000000E+03 0.  0.
</event>
<event>
 4    0  0.2219362E-002  0.2059955E+03  0.7546771E-02  0.1144777E+00
         21   -1    0    0  502  501  0.00000000000E+00  0.00000000000E+00  0.18654913284E+03  0.18654913284E+03  0.00000000000E+00 0.  1.
         21   -1    0    0  501  502 -0.00000000000E+00 -0.00000000000E+00 -0.22746894304E+03  0.22746894304E+03  0.00000000000E+00 0.  1.
         25    1    1    2    0    0  0.59079342789E+02  0.13479001451E+03  0.51659617735E+02  0.19988104678E+03  0.12500000000E+03 0.  0.
         25    1    1    2    0    0 -0.59079342789E+02 -0.13479001451E+03 -0.92579427933E+02  0.21413702910E+03  0.12500000000E+03 0.  0.
</event>
<event>
 4    0  0.2219362E-002  0.4061373E+03  0.7546771E-02  0.1041675E+00
         21   -1    0    0  502  501  0.00000000000E+00  0.00000000000E+00  0.20190663096E+03  0.20190663096E+03  0.00000000000E+00 0.  1.
         21   -1    0    0  501  502 -0.00000000000E+00 -0.00000000000E+00 -0.81694930437E+03  0.81694930437E+03  0.00000000000E+00 0. -1.
         25    1    1    2    0    0  0.74965367710E+02  0.34822248452E+03 -0.49543480496E+03  0.62286383026E+03  0.12500000000E+03 0.  0.
         25    1    1    2    0    0 -0.74965367710E+02 -0.34822248452E+03 -0.11960786846E+03  0.39599210507E+03  0.12500000000E+03 0.  0.
</event>
<event>
 4    0  0.2219362E-002  0.2464578E+03  0.7546771E-02  0.1115564E+00
         21   -1    0    0  502  501  0.00000000000E+00  0.00000000000E+00  0.37720527022E+02  0.37720527022E+02  0.00000000000E+00 0. -1.
         21   -1    0    0  501  502 -0.00000000000E+00 -0.00000000000E+00 -0.16103027158E+04  0.16103027158E+04  0.00000000000E+00 0. -1.
         25    1    1    2    0    0 -0.53454463544E+02 -0.13146688499E+03 -0.25790888058E+03  0.31981699799E+03  0.12500000000E+03 0.  0.
         25    1    1    2    0    0  0.53454463544E+02  0.13146688499E+03 -0.13146733082E+04  0.13282062448E+04  0.12500000000E+03 0.  0.
</event>
<event>
 4    0  0.2219362E-002  0.1922420E+03  0.7546771E-02  0.1156455E+00
         21   -1    0    0  502  501  0.00000000000E+00  0.00000000000E+00  0.95405126475E+02  0.95405126475E+02  0.00000000000E+00 0. -1.
         21   -1    0    0  501  502 -0.00000000000E+00 -0.00000000000E+00 -0.38736886188E+03  0.38736886188E+03  0.00000000000E+00 0. -1.
         25    1    1    2    0    0 -0.20669427993E+02 -0.10047712996E+03 -0.27652690043E+03  0.32033577003E+03  0.12500000000E+03 0.  0.
         25    1    1    2    0    0  0.20669427993E+02  0.10047712996E+03 -0.15436834977E+02  0.16243821833E+03  0.12500000000E+03 0.  0.
</event>
<event>
 4    0  0.2219362E-002  0.2052458E+03  0.7546771E-02  0.1145387E+00
         21   -1    0    0  502  501  0.00000000000E+00  0.00000000000E+00  0.17743197283E+03  0.17743197283E+03  0.00000000000E+00 0. -1.
         21   -1    0    0  501  502 -0.00000000000E+00 -0.00000000000E+00 -0.23741963644E+03  0.23741963644E+03  0.00000000000E+00 0. -1.
         25    1    1    2    0    0 -0.14822197519E+03 -0.66755081351E+02 -0.21250953316E+02  0.20616158185E+03  0.12500000000E+03 0.  0.
         25    1    1    2    0    0  0.14822197519E+03  0.66755081351E+02 -0.38736710295E+02  0.20869002741E+03  0.12500000000E+03 0.  0.
</event>
<event>
 4    0  0.2219362E-002  0.1983467E+03  0.7546771E-02  0.1151141E+00
         21   -1    0    0  502  501  0.00000000000E+00  0.00000000000E+00  0.27297763827E+03  0.27297763827E+03  0.00000000000E+00 0. -1.
         21   -1    0    0  501  502 -0.00000000000E+00 -0.00000000000E+00 -0.14411954190E+03  0.14411954190E+03  0.00000000000E+00 0. -1.
         25    1    1    2    0    0 -0.13088710822E+03  0.73181866916E+02  0.10129516346E+03  0.21993801600E+03  0.12500000000E+03 0.  0.
         25    1    1    2    0    0  0.13088710822E+03 -0.73181866916E+02  0.27562932913E+02  0.19715916417E+03  0.12500000000E+03 0.  0.
</event>
<event>
 4    0  0.2219362E-002  0.3345984E+03  0.7546771E-02  0.1069120E+00
         21   -1    0    0  502  501  0.00000000000E+00  0.00000000000E+00  0.46333559939E+03  0.46333559939E+03  0.00000000000E+00 0.  1.
         21   -1    0    0  501  502 -0.00000000000E+00 -0.00000000000E+00 -0.24163069871E+03  0.24163069871E+03  0.00000000000E+00 0.  1.
         25    1    1    2    0    0  0.91570694230E+02  0.28803431420E+03  0.18520959655E+03  0.37586773319E+03  0.12500000000E+03 0.  0.
         25    1    1    2    0    0 -0.91570694230E+02 -0.28803431420E+03  0.36495304118E+02  0.32909856491E+03  0.12500000000E+03 0.  0.
</event>
<event>
 4    0  0.2219362E-002  0.2282989E+03  0.7546771E-02  0.1127843E+00
         21   -1    0    0  502  501  0.00000000000E+00  0.00000000000E+00  0.88963348289E+02  0.88963348289E+02  0.00000000000E+00 0.  1.
         21   -1    0    0  501  502 -0.00000000000E+00 -0.00000000000E+00 -0.58586371743E+03  0.58586371743E+03  0.00000000000E+00 0.  1.
         25    1    1    2    0    0 -0.88338420688E+02 -0.96513231379E+02 -0.45418177395E+03  0.48890138494E+03  0.12500000000E+03 0.  0.
         25    1    1    2    0    0  0.88338420688E+02  0.96513231379E+02 -0.42718595191E+02  0.18592568079E+03  0.12500000000E+03 0.  0.
</event>
<event>
 4    0  0.2219362E-002  0.1595180E+03  0.7546771E-02  0.1189242E+00
         21   -1    0    0  502  501  0.00000000000E+00  0.00000000000E+00  0.11027482019E+03  0.11027482019E+03  0.00000000000E+00 0.  1.
         21   -1    0    0  501  502 -0.00000000000E+00 -0.00000000000E+00 -0.23075062565E+03  0.23075062565E+03  0.00000000000E+00 0.  1.
         25    1    1    2    0    0 -0.44941754064E+02 -0.73550923008E+02 -0.11251132414E+03  0.18897962216E+03  0.12500000000E+03 0.  0.
         25    1    1    2    0    0  0.44941754064E+02  0.73550923008E+02 -0.79644813179E+01  0.15204582367E+03  0.12500000000E+03 0.  0.
</event>
<event>
 4    0  0.2219362E-002  0.2153019E+03  0.7546771E-02  0.1137435E+00
         21   -1    0    0  502  501  0.00000000000E+00  0.00000000000E+00  0.58688258656E+02  0.58688258656E+02  0.00000000000E+00 0. -1.
         21   -1    0    0  501  502 -0.00000000000E+00 -0.00000000000E+00 -0.78984958933E+03  0.78984958933E+03  0.00000000000E+00 0. -1.
         25    1    1    2    0    0 -0.16944092326E+03  0.20149001178E+02 -0.28642113041E+03  0.35605936677E+03  0.12500000000E+03 0.  0.
         25    1    1    2    0    0  0.16944092326E+03 -0.20149001178E+02 -0.44474020026E+03  0.49247848121E+03  0.12500000000E+03 0.  0.
</event>
<event>
 4    0  0.2219362E-002  0.1921526E+03  0.7546771E-02  0.1156534E+00
         21   -1    0    0  502  501  0.00000000000E+00  0.00000000000E+00  0.32000640265E+03  0.32000640265E+03  0.00000000000E+00 0. -1.
         21   -1    0    0  501  502 -0.00000000000E+00 -0.00000000000E+00 -0.11538094405E+03  0.11538094405E+03  0.00000000000E+00 0. -1.
         25    1    1    2    0    0  0.12254015709E+03  0.60109385191E+02  0.16083563988E+03  0.24519855494E+03  0.12500000000E+03 0.  0.
         25    1    1    2    0    0 -0.12254015709E+03 -0.60109385191E+02  0.43789818719E+02  0.19018879176E+03  0.12500000000E+03 0.  0.
</event>
<event>
 4    0  0.2219362E-002  0.2389740E+03  0.7546771E-02  0.1120478E+00
         21   -1    0    0  502  501  0.00000000000E+00  0.00000000000E+00  0.16452157231E+03  0.16452157231E+03  0.00000000000E+00 0. -1.
         21   -1    0    0  501  502 -0.00000000000E+00 -0.00000000000E+00 -0.34711907022E+03  0.34711907022E+03  0.00000000000E+00 0. -1.
         25    1    1    2    0    0 -0.16323407074E+03 -0.43634490981E+02  0.30447309992E+02  0.21237082977E+03  0.12500000000E+03 0.  0.
         25    1    1    2    0    0  0.16323407074E+03  0.43634490981E+02 -0.21304480790E+03  0.29926981275E+03  0.12500000000E+03 0.  0.
</event>
<event>
 4    0  0.2219362E-002  0.1962551E+03  0.7546771E-02  0.1152938E+00
         21   -1    0    0  502  501  0.00000000000E+00  0.00000000000E+00  0.56624947209E+02  0.56624947209E+02  0.00000000000E+00 0. -1.
         21   -1    0    0  501  502 -0.00000000000E+00 -0.00000000000E+00 -0.68019628184E+03  0.68019628184E+03  0.00000000000E+00 0. -1.
         25    1    1    2    0    0  0.79344145529E+02  0.10898903439E+03 -0.18285895355E+03  0.25930001917E+03  0.12500000000E+03 0.  0.
         25    1    1    2    0    0 -0.79344145529E+02 -0.10898903439E+03 -0.44071238108E+03  0.47752120988E+03  0.12500000000E+03 0.  0.
</event>
<event>
 4    0  0.2219362E-002  0.1908760E+03  0.7546771E-02  0.1157674E+00
         21   -1    0    0  502  501  0.00000000000E+00  0.00000000000E+00  0.17311004507E+03  0.17311004507E+03  0.00000000000E+00 0.  1.
         21   -1    0    0  501  502 -0.00000000000E+00 -0.00000000000E+00 -0.21046517607E+03  0.21046517607E+03  0.00000000000E+00 0.  1.
         25    1    1    2    0    0  0.77343385158E+02 -0.40307560648E+02  0.96770889545E+02  0.18054446471E+03  0.12500000000E+03 0.  0.
         25    1    1    2    0    0 -0.77343385158E+02  0.40307560648E+02 -0.13412602055E+03  0.20303075644E+03  0.12500000000E+03 0.  0.
</event>
<event>
 4    0  0.2219362E-002  0.3259732E+03  0.7546771E-02  0.1072933E+00
         21   -1    0    0  502  501  0.00000000000E+00  0.00000000000E+00  0.48851246085E+03  0.48851246085E+03  0.00000000000E+00 0. -1.
         21   -1    0    0  501  502 -0.00000000000E+00 -0.00000000000E+00 -0.21751447475E+03  0.21751447475E+03  0.00000000000E+00 0. -1.
         25    1    1    2    0    0 -0.86589024978E+02  0.28317257653E+03  0.19431002918E+03  0.37558721329E+03  0.12500000000E+03 0.  0.
         25    1    1    2    0    0  0.86589024978E+02 -0.28317257653E+03  0.76687956910E+02  0.33043972231E+03  0.12500000000E+03 0.  0.
</event>
<event>
 4    0  0.2219362E-002  0.2749868E+03  0.7546771E-02  0.1098459E+00
         21   -1    0    0  502  501  0.00000000000E+00  0.00000000000E+00  0.13386212377E+04  0.13386212377E+04  0.00000000000E+00 0.  1.
         21   -1    0    0  501  502 -0.00000000000E+00 -0.00000000000E+00 -0.56489285468E+02  0.56489285468E+02  0.00000000000E+00 0.  1.
         25    1    1    2    0    0 -0.22881760679E+03 -0.51781698697E+02  0.46252371512E+03  0.53347167548E+03  0.12500000000E+03 0.  0.
         25    1    1    2    0    0  0.22881760679E+03  0.51781698697E+02  0.81960823709E+03  0.86163884767E+03  0.12500000000E+03 0.  0.
</event>
<event>
 4    0  0.2219362E-002  0.2019137E+03  0.7546771E-02  0.1148134E+00
         21   -1    0    0  502  501  0.00000000000E+00  0.00000000000E+00  0.26437068983E+02  0.26437068983E+02  0.00000000000E+00 0.  1.
         21   -1    0    0  501  502 -0.00000000000E+00 -0.00000000000E+00 -0.15421207472E+04  0.15421207472E+04  0.00000000000E+00 0.  1.
         25    1    1    2    0    0 -0.74319725091E+02  0.42414256952E+02 -0.12763791501E+04  0.12853369697E+04  0.12500000000E+03 0.  0.
         25    1    1    2    0    0  0.74319725091E+02 -0.42414256952E+02 -0.23930452805E+03  0.28322084647E+03  0.12500000000E+03 0.  0.
</event>
<event>
 4    0  0.2219362E-002  0.2968734E+03  0.7546771E-02  0.1086814E+00
         21   -1    0    0  502  501  0.00000000000E+00  0.00000000000E+00  0.66172956595E+03  0.66172956595E+03  0.00000000000E+00 0. -1.
         21   -1    0    0  501  502 -0.00000000000E+00 -0.00000000000E+00 -0.13318709429E+03  0.13318709429E+03  0.00000000000E+00 0. -1.
         25    1    1    2    0    0 -0.21044853747E+03  0.72643174581E+02  0.61480808668E+02  0.26262236685E+03  0.12500000000E+03 0.  0.
         25    1    1    2    0    0  0.21044853747E+03 -0.72643174581E+02  0.46706166299E+03  0.53229429339E+03  0.12500000000E+03 0.  0.
</event>
<event>
 4    0  0.2219362E-002  0.1933542E+03  0.7546771E-02  0.1155470E+00
         21   -1    0    0  502  501  0.00000000000E+00  0.00000000000E+00  0.26916912782E+02  0.26916912782E+02  0.00000000000E+00 0.  1.
         21   -1    0    0  501  502 -0.00000000000E+00 -0.00000000000E+00 -0.13889357533E+04  0.13889357533E+04  0.00000000000E+00 0.  1.
         25    1    1    2    0    0  0.11384504399E+02 -0.13171758677E+03 -0.92058588510E+03  0.93839357492E+03  0.12500000000E+03 0.  0.
         25    1    1    2    0    0 -0.11384504399E+02  0.13171758677E+03 -0.44143295539E+03  0.47745909113E+03  0.12500000000E+03 0.  0.
</event>
<event>
 4    0  0.2219362E-002  0.1979552E+03  0.7546771E-02  0.1151476E+00
         21   -1    0    0  502  501  0.00000000000E+00  0.00000000000E+00  0.64555573555E+03  0.64555573555E+03  0.00000000000E+00 0. -1.
         21   -1    0    0  501  502 -0.00000000000E+00 -0.00000000000E+00 -0.60701582870E+02  0.60701582870E+02  0.00000000000E+00 0. -1.
         25    1    1    2    0    0  0.62778223488E+02  0.10157466474E+03  0.46448372513E+03  0.49560937115E+03  0.12500000000E+03 0.  0.
         25    1    1    2    0    0 -0.62778223488E+02 -0.10157466474E+03  0.12037042755E+03  0.21064794727E+03  0.12500000000E+03 0.  0.
</event>
<event>
 4    0  0.2219362E-002  0.1584684E+03  0.7546771E-02  0.1190437E+00
         21   -1    0    0  502  501  0.00000000000E+00  0.00000000000E+00  0.92464887177E+02  0.92464887177E+02  0.00000000000E+00 0.  1.
         21   -1    0    0  501  502 -0.00000000000E+00 -0.00000000000E+00 -0.27158685591E+03  0.27158685591E+03  0.00000000000E+00 0.  1.
         25    1    1    2    0    0  0.42679115099E+02  0.76533095160E+02 -0.13840830547E+03  0.20605989552E+03  0.12500000000E+03 0.  0.
         25    1    1    2    0    0 -0.42679115099E+02 -0.76533095160E+02 -0.40713663266E+02  0.15799184757E+03  0.12500000000E+03 0.  0.
</event>
<event>
 4    0  0.2219362E-002  0.2118866E+03  0.7546771E-02  0.1140081E+00
         21   -1    0    0  502  501  0.00000000000E+00  0.00000000000E+00  0.33798127051E+03  0.33798127051E+03  0.00000000000E+00 0. -1.
         21   -1    0    0  501  502 -0.00000000000E+00 -0.00000000000E+00 -0.13283550570E+03  0.13283550570E+03  0.00000000000E+00 0. -1.
         25    1    1    2    0    0  0.12668772978E+03  0.28117402879E+02 -0.21296391899E+02  0.18143567877E+03  0.12500000000E+03 0.  0.
         25    1    1    2    0    0 -0.12668772978E+03 -0.28117402879E+02  0.22644215671E+03  0.28938109744E+03  0.12500000000E+03 0.  0.
</event>
<event>
 4    0  0.2219362E-002  0.2254969E+03  0.7546771E-02  0.1129850E+00
         21   -1    0    0  502  501  0.00000000000E+00  0.00000000000E+00  0.45246102615E+03  0.45246102615E+03  0.00000000000E+00 0.  1.
         21   -1    0    0  501  502 -0.00000000000E+00 -0.00000000000E+00 -0.11238282159E+03  0.11238282159E+03  0.00000000000E+00 0.  1.
         25    1    1    2    0    0  0.37328722153E+02 -0.26207793806E+02  0.39805097535E+03  0.41970210975E+03  0.12500000000E+03 0.  0.
         25    1    1    2    0    0 -0.37328722153E+02  0.26207793806E+02 -0.57972770782E+02  0.14514173799E+03  0.12500000000E+03 0.  0.
</event>
<event>
 4    0  0.2219362E-002  0.2845017E+03  0.7546771E-02  0.1093255E+00
         21   -1    0    0  502  501  0.00000000000E+00  0.00000000000E+00  0.59594744481E+03  0.59594744481E+03  0.00000000000E+00 0. -1.
         21   -1    0    0  501  502 -0.00000000000E+00 -0.00000000000E+00 -0.13581942394E+03  0.13581942394E+03  0.00000000000E+00 0. -1.
         25    1    1    2    0    0 -0.18073221999E+03 -0.17859956140E+03  0.19474326418E+03  0.34367408634E+03  0.12500000000E+03 0.  0.
         25    1    1    2    0    0  0.18073221999E+03  0.17859956140E+03  0.26538475669E+03  0.38809278241E+03  0.12500000000E+03 0.  0.
</event>
<event>
 4    0  0.2219362E-002  0.2819407E+03  0.7546771E-02  0.1094634E+00
         21   -1    0    0  502  501  0.00000000000E+00  0.00000000000E+00  0.13908137779E+03  0.13908137779E+03  0.00000000000E+00 0.  1.
         21   -1    0    0  501  502 -0.00000000000E+00 -0.00000000000E+00 -0.57153980790E+03  0.57153980790E+03  0.00000000000E+00 0.  1.
         25    1    1    2    0    0  0.93658089804E+02  0.21242093451E+03 -0.90388572390E+02  0.27872851527E+03  0.12500000000E+03 0.  0.
         25    1    1    2    0    0 -0.93658089804E+02 -0.21242093451E+03 -0.34206985771E+03  0.43189267042E+03  0.12500000000E+03 0.  0.
</event>
<event>
 4    0  0.2219362E-002  0.3651071E+03  0.7546771E-02  0.1056580E+00
         21   -1    0    0  502  501  0.00000000000E+00  0.00000000000E+00  0.25913457163E+03  0.25913457163E+03  0.00000000000E+00 0. -1.
         21   -1    0    0  501  502 -0.00000000000E+00 -0.00000000000E+00 -0.51441697999E+03  0.51441697999E+03  0.00000000000E+00 0. -1.
         25    1    1    2    0    0  0.17715038161E+03  0.83886803489E+02  0.17059691548E+03  0.28835318808E+03  0.12500000000E+03 0.  0.
         25    1    1    2    0    0 -0.17715038161E+03 -0.83886803489E+02 -0.42587932384E+03  0.48519836354E+03  0.12500000000E+03 0.  0.
</event>
<event>
 4    0  0.2219362E-002  0.1999761E+03  0.7546771E-02  0.1149759E+00
         21   -1    0    0  502  501  0.00000000000E+00  0.00000000000E+00  0.28926058836E+02  0.28926058836E+02  0.00000000000E+00 0. -1.
         21   -1    0    0  501  502 -0.00000000000E+00 -0.00000000000E+00 -0.13825052721E+04  0.13825052721E+04  0.00000000000E+00 0. -1.
         25    1    1    2    0    0 -0.11769025531E+03  0.62806540648E+01 -0.10379735652E+04  0.10520953212E+04  0.12500000000E+03 0.  0.
         25    1    1    2    0    0  0.11769025531E+03 -0.62806540648E+01 -0.31560564802E+03  0.35933600971E+03  0.12500000000E+03 0.  0.
</event>
<event>
 4    0  0.2219362E-002  0.2048780E+03  0.7546771E-02  0.1145687E+00
         21   -1    0    0  502  501  0.00000000000E+00  0.00000000000E+00  0.71545913150E+02  0.71545913150E+02  0.00000000000E+00 0. -1.
         21   -1    0    0  501  502 -0.00000000000E+00 -0.00000000000E+00 -0.58668630609E+03  0.58668630609E+03  0.00000000000E+00 0. -1.
         25    1    1    2    0    0  0.10469670105E+03 -0.22023630530E+02 -0.61460586440E+02  0.17563838760E+03  0.12500000000E+03 0.  0.
         25    1    1    2    0    0 -0.10469670105E+03  0.22023630530E+02 -0.45367980650E+03  0.48259383165E+03  0.12500000000E+03 0.  0.
</event>
<event>
 4    0  0.2219362E-002  0.1874417E+03  0.7546771E-02  0.1160789E+00
         21   -1    0    0  502  501  0.00000000000E+00  0.00000000000E+00  0.13638903583E+03  0.13638903583E+03  0.00000000000E+00 0.  1.
         21   -1    0    0  501  502 -0.00000000000E+00 -0.00000000000E+00 -0.25760428499E+03  0.25760428499E+03  0.00000000000E+00 0.  1.
         25    1    1    2    0    0 -0.38207492563E+01 -0.39092693843E+02  0.80264510777E+02  0.15365620237E+03  0.12500000000E+03 0.  0.
         25    1    1    2    0    0  0.38207492563E+01  0.39092693843E+02 -0.20147975994E+03  0.24033711845E+03  0.12500000000E+03 0.  0.
</event>
<event>
 4    0  0.2219362E-002  0.2009336E+03  0.7546771E-02  0.1148954E+00
         21   -1    0    0  502  501  0.00000000000E+00  0.00000000000E+00  0.87671815386E+02  0.87671815386E+02  0.00000000000E+00 0. -1.
         21   -1    0    0  501  502 -0.00000000000E+00 -0.00000000000E+00 -0.46051657672E+03  0.46051657672E+03  0.00000000000E+00 0. -1.
         25    1    1    2    0    0 -0.15000147163E+03 -0.29033336173E+02 -0.13527400275E+03  0.23930614685E+03  0.12500000000E+03 0.  0.
         25    1    1    2    0    0  0.15000147163E+03  0.29033336173E+02 -0.23757075859E+03  0.30888224526E+03  0.12500000000E+03 0.  0.
</event>
<event>
 4    0  0.2219362E-002  0.2128859E+03  0.7546771E-02  0.1139301E+00
         21   -1    0    0  502  501  0.00000000000E+00  0.00000000000E+00  0.64084066350E+02  0.64084066350E+02  0.00000000000E+00 0. -1.
         21   -1    0    0  501  502 -0.00000000000E+00 -0.00000000000E+00 -0.70720270686E+03  0.70720270686E+03  0.00000000000E+00 0. -1.
         25    1    1    2    0    0 -0.40954481304E+02 -0.13039665678E+03 -0.13143899882E+03  0.22711619944E+03  0.12500000000E+03 0.  0.
         25    1    1    2    0    0  0.40954481304E+02  0.13039665678E+03 -0.51167964169E+03  0.54417057377E+03  0.12500000000E+03 0.  0.
</event>
<event>
 4    0  0.2219362E-002  0.1944214E+03  0.7546771E-02  0.1154533E+00
         21   -1    0    0  502  501  0.00000000000E+00  0.00000000000E+00  0.20117977749E+03  0.20117977749E+03  0.00000000000E+00 0.  1.
         21   -1    0    0  501  502 -0.00000000000E+00 -0.00000000000E+00 -0.18788999837E+03  0.18788999837E+03  0.00000000000E+00 0.  1.
         25    1    1    2    0    0  0.10051305611E+03  0.10705787597E+03 -0.18075908047E+02  0.19369047913E+03  0.12500000000E+03 0.  0.
         25    1    1    2    0    0 -0.10051305611E+03 -0.10705787597E+03  0.31365687171E+02  0.19537929672E+03  0.12500000000E+03 0.  0.
</event>
<event>
 4    0  0.2219362E-002  0.2841233E+03  0.7546771E-02  0.1093458E+00
         21   -1    0    0  502  501  0.00000000000E+00  0.00000000000E+00  0.68919980317E+03  0.68919980317E+03  0.00000000000E+00 0. -1.
         21   -1    0    0  501  502 -0.00000000000E+00 -0.00000000000E+00 -0.11713007771E+03  0.11713007771E+03  0.00000000000E+00 0. -1.
         25    1    1    2    0    0  0.70352457875E+02  0.35604302128E+02 -0.58294630622E+02  0.15887227140E+03  0.12500000000E+03 0.  0.
         25    1    1    2    0    0 -0.70352457875E+02 -0.35604302128E+02  0.63036435608E+03  0.64745760948E+03  0.12500000000E+03 0.  0.
</event>
<event>
 4    0  0.2219362E-002  0.2132370E+03  0.7546771E-02  0.1139028E+00
         21   -1    0    0  502  501  0.00000000000E+00  0.00000000000E+00  0.23579825520E+03  0.23579825520E+03  0.00000000000E+00 0.  1.
         21   -1    0    0  501  502 -0.00000000000E+00 -0.00000000000E+00 -0.19283439733E+03  0.19283439733E+03  0.00000000000E+00 0.  1.
         25    1    1    2    0    0  0.15999981788E+03  0.58839820294E+02  0.49604773181E+02  0.21713521063E+03  0.12500000000E+03 0.  0.
         25    1    1    2    0    0 -0.15999981788E+03 -0.58839820294E+02 -0.66409153097E+01  0.21149744190E+03  0.12500000000E+03 0.  0.
</event>
<event>
 4    0  0.2219362E-002  0.1980578E+03  0.7546771E-02  0.1151388E+00
         21   -1    0    0  502  501  0.00000000000E+00  0.00000000000E+00  0.24836015759E+03  0.24836015759E+03  0.00000000000E+00 0. -1.
         21   -1    0    0  501  502 -0.00000000000E+00 -0.00000000000E+00 -0.15794361702E+03  0.15794361702E+03  0.00000000000E+00 0. -1.
         25    1    1    2    0    0 -0.88463990343E+02 -0.11983570538E+02  0.17345371229E+03  0.23169090155E+03  0.12500000000E+03 0.  0.
         25    1    1    2    0    0  0.88463990343E+02  0.11983570538E+02 -0.83037171731E+02  0.17461287306E+03  0.12500000000E+03 0.  0.
</event>
<event>
 4    0  0.2219362E-002  0.2109498E+03  0.7546771E-02  0.1140816E+00
         21   -1    0    0  502  501  0.00000000000E+00  0.00000000000E+00  0.64469160423E+02  0.64469160423E+02  0.00000000000E+00 0. -1.
         21   -1    0    0  501  502 -0.00000000000E+00 -0.00000000000E+00 -0.69024987800E+03  0.69024987800E+03  0.00000000000E+00 0. -1.
         25    1    1    2    0    0 -0.72853581570E+02  0.13355030944E+03 -0.44831893265E+03  0.48965109504E+03  0.12500000000E+03 0.  0.
         25    1    1    2    0    0  0.72853581570E+02 -0.13355030944E+03 -0.17746178492E+03  0.26506794338E+03  0.12500000000E+03 0.  0.
</event>
<event>
 4    0  0.2219362E-002  0.2616339E+03  0.7546771E-02  0.1106166E+00
         21   -1    0    0  502  501  0.00000000000E+00  0.00000000000E+00  0.42952231716E+03  0.42952231716E+03  0.00000000000E+00 0.  1.
         21   -1    0    0  501  502 -0.00000000000E+00 -0.00000000000E+00 -0.15936841930E+03  0.15936841930E+03  0.00000000000E+00 0. -1.
         25    1    1    2    0    0  0.17635225539E+03 -0.13705297715E+03  0.19613659344E+03  0.32245650840E+03  0.12500000000E+03 0.  0.
         25    1    1    2    0    0 -0.17635225539E+03  0.13705297715E+03  0.74017304427E+02  0.26643422806E+03  0.12500000000E+03 0.  0.
</event>
<event>
 4    0  0.2219362E-002  0.2322126E+03  0.7546771E-02  0.1125092E+00
         21   -1    0    0  502  501  0.00000000000E+00  0.00000000000E+00  0.84198356337E+03  0.84198356337E+03  0.00000000000E+00 0.  1.
         21   -1    0    0  501  502 -0.00000000000E+00 -0.00000000000E+00 -0.64042445868E+02  0.64042445868E+02  0.00000000000E+00 0.  1.
         25    1    1    2    0    0 -0.15353773494E+03 -0.14693738403E+02  0.15399220616E+03  0.25125354039E+03  0.12500000000E+03 0.  0.
         25    1    1    2    0    0  0.15353773494E+03  0.14693738403E+02  0.62394891134E+03  0.65477246885E+03  0.12500000000E+03 0.  0.
</event>
<event>
 4    0  0.2219362E-002  0.2322162E+03  0.7546771E-02  0.1125090E+00
         21   -1    0    0  502  501  0.00000000000E+00  0.00000000000E+00  0.81278291024E+03  0.81278291024E+03  0.00000000000E+00 0. -1.
         21   -1    0    0  501  502 -0.00000000000E+00 -0.00000000000E+00 -0.66345350051E+02  0.66345350051E+02  0.00000000000E+00 0. -1.
         25    1    1    2    0    0 -0.17328730166E+03  0.52196637258E+02  0.51419143384E+03  0.55925916041E+03  0.12500000000E+03 0.  0.
         25    1    1    2    0    0  0.17328730166E+03 -0.52196637258E+02  0.23224612634E+03  0.31986909988E+03  0.12500000000E+03 0.  0.
</event>
<event>
 4    0  0.2219362E-002  0.2135527E+03  0.7546771E-02  0.1138783E+00
         21   -1    0    0  502  501  0.00000000000E+00  0.00000000000E+00  0.84568913277E+02  0.84568913277E+02  0.00000000000E+00 0. -1.
         21   -1    0    0  501  502 -0.00000000000E+00 -0.00000000000E+00 -0.53926147587E+03  0.53926147587E+03  0.00000000000E+00 0. -1.
         25    1    1    2    0    0  0.23528829297E+02 -0.82179163862E+02 -0.44727575048E+03  0.47221564751E+03  0.12500000000E+03 0.  0.
         25    1    1    2    0    0 -0.23528829297E+02  0.82179163862E+02 -0.74168121120E+01  0.15161474164E+03  0.12500000000E+03 0.  0.
</event>
<event>
 4    0  0.2219362E-002  0.2001221E+03  0.7546771E-02  0.1149636E+00
         21   -1    0    0  502  501  0.00000000000E+00  0.00000000000E+00  0.79706660493E+03  0.79706660493E+03  0.00000000000E+00 0.  1.
         21   -1    0    0  501  502 -0.00000000000E+00 -0.00000000000E+00 -0.50245286647E+02  0.50245286647E+02  0.00000000000E+00 0.  1.
         25    1    1    2    0    0 -0.38342485857E+02 -0.12258712490E+03  0.56188309861E+03  0.58977569119E+03  0.12500000000E+03 0.  0.
         25    1    1    2    0    0  0.38342485857E+02  0.12258712490E+03  0.18493821967E+03  0.25753620038E+03  0.12500000000E+03 0.  0.
</event>
<event>
 4    0  0.2219362E-002  0.2101042E+03  0.7546771E-02  0.1141484E+00
         21   -1    0    0  502  501  0.00000000000E+00  0.00000000000E+00  0.67042632297E+03  0.67042632297E+03  0.00000000000E+00 0. -1.
         21   -1    0    0  501  502 -0.00000000000E+00 -0.00000000000E+00 -0.65844321776E+02  0.65844321776E+02  0.00000000000E+00 0. -1.
         25    1    1    2    0    0 -0.10608417370E+03 -0.13941150334E+02  0.53121781634E+03  0.55611651295E+03  0.12500000000E+03 0.  0.
         25    1    1    2    0    0  0.10608417370E+03  0.13941150334E+02  0.73364184856E+02  0.18015413179E+03  0.12500000000E+03 0.  0.
</event>
<event>
 4    0  0.2219362E-002  0.1971839E+03  0.7546771E-02  0.1152137E+00
         21   -1    0    0  502  501  0.00000000000E+00  0.00000000000E+00  0.16623187409E+03  0.16623187409E+03  0.00000000000E+00 0. -1.
         21   -1    0    0  501  502 -0.00000000000E+00 -0.00000000000E+00 -0.23389905489E+03  0.23389905489E+03  0.00000000000E+00 0. -1.
         25    1    1    2    0    0  0.13089827064E+03 -0.58918706577E+02  0.18403815898E+02  0.19123146102E+03  0.12500000000E+03 0.  0.
         25    1    1    2    0    0 -0.13089827064E+03  0.58918706577E+02 -0.86070996705E+02  0.20889946797E+03  0.12500000000E+03 0.  0.
</event>
<event>
 4    0  0.2219362E-002  0.1735227E+03  0.7546771E-02  0.1174223E+00
         21   -1    0    0  502  501  0.00000000000E+00  0.00000000000E+00  0.62667642804E+02  0.62667642804E+02  0.00000000000E+00 0. -1.
         21   -1    0    0  501  502 -0.00000000000E+00 -0.00000000000E+00 -0.48047300135E+03  0.48047300135E+03  0.00000000000E+00 0. -1.
         25    1    1    2    0    0 -0.77556439339E+01 -0.90171688369E+02 -0.84740183110E+02  0.17605959795E+03  0.12500000000E+03 0.  0.
         25    1    1    2    0    0  0.77556439339E+01  0.90171688369E+02 -0.33306517544E+03  0.36708104621E+03  0.12500000000E+03 0.  0.
</event>
<event>
 4    0  0.2219362E-002  0.2692215E+03  0.7546771E-02  0.1101726E+00
         21   -1    0    0  502  501  0.00000000000E+00  0.00000000000E+00  0.66230877504E+02  0.66230877504E+02  0.00000000000E+00 0. -1.
         21   -1    0    0  501  502 -0.00000000000E+00 -0.00000000000E+00 -0.10943570756E+04  0.10943570756E+04  0.00000000000E+00 0. -1.
         25    1    1    2    0    0 -0.11744941247E+02 -0.68631018258E+02 -0.22511093129E+02  0.14484443250E+03  0.12500000000E+03 0.  0.
         25    1    1    2    0    0  0.11744941247E+02  0.68631018258E+02 -0.10056151049E+04  0.10157435206E+04  0.12500000000E+03 0.  0.
</event>
<event>
 4    0  0.2219362E-002  0.2126320E+03  0.7546771E-02  0.1139499E+00
         21   -1    0    0  502  501  0.00000000000E+00  0.00000000000E+00  0.44389897523E+03  0.44389897523E+03  0.00000000000E+00 0.  1.
         21   -1    0    0  501  502 -0.00000000000E+00 -0.00000000000E+00 -0.10185279148E+03  0.10185279148E+03  0.00000000000E+00 0.  1.
         25    1    1    2    0    0  0.10476863065E+03  0.45790417985E+02  0.33593968403E+03  0.37623622852E+03  0.12500000000E+03 0.  0.
         25    1    1    2    0    0 -0.10476863065E+03 -0.45790417985E+02  0.61064997241E+01  0.16951553818E+03  0.12500000000E+03 0.  0.
</event>
<event>
 4    0  0.2219362E-002  0.2410049E+03  0.7546771E-02  0.1119125E+00
         21   -1    0    0  502  501  0.00000000000E+00  0.00000000000E+00  0.20358925431E+03  0.20358925431E+03  0.00000000000E+00 0.  1.
         21   -1    0    0  501  502 -0.00000000000E+00 -0.00000000000E+00 -0.28529681556E+03  0.28529681556E+03  0.00000000000E+00 0.  1.
         25    1    1    2    0    0 -0.10536696656E+03  0.60606775207E+02 -0.20960940432E+03  0.27264717351E+03  0.12500000000E+03 0.  0.
         25    1    1    2    0    0  0.10536696656E+03 -0.60606775207E+02  0.12790184307E+03  0.21623889637E+03  0.12500000000E+03 0.  0.
</event>
<event>
 4    0  0.2219362E-002  0.1943848E+03  0.7546771E-02  0.1154565E+00
         21   -1    0    0  502  501  0.00000000000E+00  0.00000000000E+00  0.62691377608E+02  0.62691377608E+02  0.00000000000E+00 0. -1.
         21   -1    0    0  501  502 -0.00000000000E+00 -0.00000000000E+00 -0.60272163814E+03  0.60272163814E+03  0.00000000000E+00 0. -1.
         25    1    1    2    0    0  0.10628904451E+02  0.14799962444E+03 -0.29052472648E+03  0.34935151230E+03  0.12500000000E+03 0.  0.
         25    1    1    2    0    0 -0.10628904451E+02 -0.14799962444E+03 -0.24950553405E+03  0.31606150346E+03  0.12500000000E+03 0.  0.
</event>
<event>
 4    0  0.2219362E-002  0.2523516E+03  0.7546771E-02  0.1111828E+00
         21   -1    0    0  502  501  0.00000000000E+00  0.00000000000E+00  0.44198509022E+03  0.44198509022E+03  0.00000000000E+00 0. -1.
         21   -1    0    0  501  502 -0.00000000000E+00 -0.00000000000E+00 -0.14408030969E+03  0.14408030969E+03  0.00000000000E+00 0. -1.
         25    1    1    2    0    0 -0.97451358057E+02 -0.19587503871E+03  0.16506561675E+03  0.30122326572E+03  0.12500000000E+03 0.  0.
         25    1    1    2    0    0  0.97451358057E+02  0.19587503871E+03  0.13283916377E+03  0.28484213419E+03  0.12500000000E+03 0.  0.
</event>
<event>
 4    0  0.2219362E-002  0.2525366E+03  0.7546771E-02  0.1111712E+00
         21   -1    0    0  502  501  0.00000000000E+00  0.00000000000E+00  0.83485804400E+03  0.83485804400E+03  0.00000000000E+00 0.  1.
         21   -1    0    0  501  502 -0.00000000000E+00 -0.00000000000E+00 -0.76389938069E+02  0.76389938069E+02  0.00000000000E+00 0.  1.
         25    1    1    2    0    0 -0.20643147320E+02 -0.18806936091E+03  0.57976330235E+03  0.62253249778E+03  0.12500000000E+03 0.  0.
         25    1    1    2    0    0  0.20643147320E+02  0.18806936091E+03  0.17870480358E+03  0.28871548428E+03  0.12500000000E+03 0.  0.
</event>
<event>
 4    0  0.2219362E-002  0.4816565E+03  0.7546771E-02  0.1018681E+00
         21   -1    0    0  502  501  0.00000000000E+00  0.00000000000E+00  0.35009901066E+03  0.35009901066E+03  0.00000000000E+00 0.  1.
         21   -1    0    0  501  502 -0.00000000000E+00 -0.00000000000E+00 -0.66264963872E+03  0.66264963872E+03  0.00000000000E+00 0.  1.
         25    1    1    2    0    0 -0.46268656768E+03  0.18565712618E+02 -0.10991661632E+03  0.49206728010E+03  0.12500000000E+03 0.  0.
         25    1    1    2    0    0  0.46268656768E+03 -0.18565712618E+02 -0.20263401174E+03  0.52068136928E+03  0.12500000000E+03 0.  0.
</event>
<event>
 4    0  0.2219362E-002  0.2188715E+03  0.7546771E-02  0.1134727E+00
         21   -1    0    0  502  501  0.00000000000E+00  0.00000000000E+00  0.58592477193E+03  0.58592477193E+03  0.00000000000E+00 0.  1.
         21   -1    0    0  501  502 -0.00000000000E+00 -0.00000000000E+00 -0.81759193225E+02  0.81759193225E+02  0.00000000000E+00 0.  1.
         25    1    1    2    0    0  0.90252705237E+02  0.15432054060E+03  0.27934051794E+03  0.35442418797E+03  0.12500000000E+03 0.  0.
         25    1    1    2    0    0 -0.90252705237E+02 -0.15432054060E+03  0.22482506076E+03  0.31325977718E+03  0.12500000000E+03 0.  0.
</event>
<event>
 4    0  0.2219362E-002  0.2955247E+03  0.7546771E-02  0.1087499E+00
         21   -1    0    0  502  501  0.00000000000E+00  0.00000000000E+00  0.26219350576E+03  0.26219350576E+03  0.00000000000E+00 0. -1.
         21   -1    0    0  501  502 -0.00000000000E+00 -0.00000000000E+00 -0.33309313307E+03  0.33309313307E+03  0.00000000000E+00 0. -1.
         25    1    1    2    0    0  0.18270571869E+03 -0.19096758263E+03  0.79854387851E+01  0.29247010871E+03  0.12500000000E+03 0.  0.
         25    1    1    2    0    0 -0.18270571869E+03  0.19096758263E+03 -0.78885066092E+02  0.30281653012E+03  0.12500000000E+03 0.  0.
</event>
<event>
 4    0  0.2219362E-002  0.1827095E+03  0.7546771E-02  0.1165206E+00
         21   -1    0    0  502  501  0.00000000000E+00  0.00000000000E+00  0.49572078189E+03  0.49572078189E+03  0.00000000000E+00 0. -1.
         21   -1    0    0  501  502 -0.00000000000E+00 -0.00000000000E+00 -0.67341842118E+02  0.67341842118E+02  0.00000000000E+00 0. -1.
         25    1    1    2    0    0 -0.11883079757E+03 -0.52269192516E+02  0.16783713405E+03  0.24626638119E+03  0.12500000000E+03 0.  0.
         25    1    1    2    0    0  0.11883079757E+03  0.52269192516E+02  0.26054180572E+03  0.31679624282E+03  0.12500000000E+03 0.  0.
</event>
<event>
 4    0  0.2219362E-002  0.2085775E+03  0.7546771E-02  0.1142697E+00
         21   -1    0    0  502  501  0.00000000000E+00  0.00000000000E+00  0.80583701625E+02  0.80583701625E+02  0.00000000000E+00 0.  1.
         21   -1    0    0  501  502 -0.00000000000E+00 -0.00000000000E+00 -0.53986788953E+03  0.53986788953E+03  0.00000000000E+00 0.  1.
         25    1    1    2    0    0  0.14611801151E+03  0.78241187473E+02 -0.25966267206E+03  0.33244828164E+03  0.12500000000E+03 0.  0.
         25    1    1    2    0    0 -0.14611801151E+03 -0.78241187473E+02 -0.19962151584E+03  0.28800330951E+03  0.12500000000E+03 0.  0.
</event>
<event>
 4    0  0.2219362E-002  0.1918474E+03  0.7546771E-02  0.1156806E+00
         21   -1    0    0  502  501  0.00000000000E+00  0.00000000000E+00  0.15900904167E+03  0.15900904167E+03  0.00000000000E+00 0. -1.
         21   -1    0    0  501  502 -0.00000000000E+00 -0.00000000000E+00 -0.23146755588E+03  0.23146755588E+03  0.00000000000E+00 0. -1.
         25    1    1    2    0    0  0.13882717788E+03  0.37263330762E+02 -0.59411101676E+02  0.19954002140E+03  0.12500000000E+03 0.  0.
         25    1    1    2    0    0 -0.13882717788E+03 -0.37263330762E+02 -0.13047412530E+02  0.19093657615E+03  0.12500000000E+03 0.  0.
</event>
<event>
 4    0  0.2219362E-002  0.2565409E+03  0.7546771E-02  0.1109240E+00
         21   -1    0    0  502  501  0.00000000000E+00  0.00000000000E+00  0.31487856233E+03  0.31487856233E+03  0.00000000000E+00 0. -1.
         21   -1    0    0  501  502 -0.00000000000E+00 -0.00000000000E+00 -0.20901141830E+03  0.20901141830E+03  0.00000000000E+00 0. -1.
         25    1    1    2    0    0 -0.13654871571E+03  0.15306727562E+03  0.14490357836E+03  0.28053019383E+03  0.12500000000E+03 0.  0.
         25    1    1    2    0    0  0.13654871571E+03 -0.15306727562E+03 -0.39036434327E+02  0.24335978680E+03  0.12500000000E+03 0.  0.
</event>
<event>
 4    0  0.2219362E-002  0.2113312E+03  0.7546771E-02  0.1140516E+00
         21   -1    0    0  502  501  0.00000000000E+00  0.00000000000E+00  0.52198611238E+02  0.52198611238E+02  0.00000000000E+00 0. -1.
         21   -1    0    0  501  502 -0.00000000000E+00 -0.00000000000E+00 -0.85559518656E+03  0.85559518656E+03  0.00000000000E+00 0. -1.
         25    1    1    2    0    0 -0.15215822656E+03  0.61047295203E+02 -0.30194737648E+03  0.36561744532E+03  0.12500000000E+03 0.  0.
         25    1    1    2    0    0  0.15215822656E+03 -0.61047295203E+02 -0.50144919885E+03  0.54217635248E+03  0.12500000000E+03 0.  0.
</event>
<event>
 4    0  0.2219362E-002  0.2514441E+03  0.7546771E-02  0.1112396E+00
         21   -1    0    0  502  501  0.00000000000E+00  0.00000000000E+00  0.64679800478E+02  0.64679800478E+02  0.00000000000E+00 0. -1.
         21   -1    0    0  501  502 -0.00000000000E+00 -0.00000000000E+00 -0.97749389930E+03  0.97749389930E+03  0.00000000000E+00 0. -1.
         25    1    1    2    0    0  0.10633404607E+03 -0.82302066716E+02 -0.81246137503E+03  0.83294600393E+03  0.12500000000E+03 0.  0.
         25    1    1    2    0    0 -0.10633404607E+03  0.82302066716E+02 -0.10035272379E+03  0.20922769585E+03  0.12500000000E+03 0.  0.
</event>
<event>
 4    0  0.2219362E-002  0.1540883E+03  0.7546771E-02  0.1195537E+00
         21   -1    0    0  502  501  0.00000000000E+00  0.00000000000E+00  0.53124693821E+03  0.53124693821E+03  0.00000000000E+00 0.  1.
         21   -1    0    0  501  502 -0.00000000000E+00 -0.00000000000E+00 -0.44693320715E+02  0.44693320715E+02  0.00000000000E+00 0.  1.
         25    1    1    2    0    0 -0.58635767564E+02 -0.33361262581E+02  0.35489456340E+03  0.38226467037E+03  0.12500000000E+03 0.  0.
         25    1    1    2    0    0  0.58635767564E+02  0.33361262581E+02  0.13165905409E+03  0.19367558856E+03  0.12500000000E+03 0.  0.
</event>
<event>
 4    0  0.2219362E-002  0.2390366E+03  0.7546771E-02  0.1120436E+00
         21   -1    0    0  502  501  0.00000000000E+00  0.00000000000E+00  0.12828606563E+04  0.12828606563E+04  0.00000000000E+00 0. -1.
         21   -1    0    0  501  502 -0.00000000000E+00 -0.00000000000E+00 -0.44539892449E+02  0.44539892449E+02  0.00000000000E+00 0. -1.
         25    1    1    2    0    0  0.16711259248E+03  0.11241011513E+03  0.53354386876E+03  0.58382935215E+03  0.12500000000E+03 0.  0.
         25    1    1    2    0    0 -0.16711259248E+03 -0.11241011513E+03  0.70477689509E+03  0.74357119660E+03  0.12500000000E+03 0.  0.
</event>
<event>
 4    0  0.2219362E-002  0.2475355E+03  0.7546771E-02  0.1114872E+00
         21   -1    0    0  502  501  0.00000000000E+00  0.00000000000E+00  0.59078383485E+02  0.59078383485E+02  0.00000000000E+00 0. -1.
         21   -1    0    0  501  502 -0.00000000000E+00 -0.00000000000E+00 -0.10371618759E+04  0.10371618759E+04  0.00000000000E+00 0. -1.
         25    1    1    2    0    0 -0.21851280885E+02 -0.16095499204E+03 -0.18170032424E+03  0.27390508533E+03  0.12500000000E+03 0.  0.
         25    1    1    2    0    0  0.21851280885E+02  0.16095499204E+03 -0.79638316813E+03  0.82233517401E+03  0.12500000000E+03 0.  0.
</event>
<event>
 4    0  0.2219362E-002  0.1902593E+03  0.7546771E-02  0.1158228E+00
         21   -1    0    0  502  501  0.00000000000E+00  0.00000000000E+00  0.53027132297E+02  0.53027132297E+02  0.00000000000E+00 0. -1.
         21   -1    0    0  501  502 -0.00000000000E+00 -0.00000000000E+00 -0.68264279392E+03  0.68264279392E+03  0.00000000000E+00 0. -1.
         25    1    1    2    0    0 -0.13045624924E+03 -0.26690105588E+02 -0.41788189485E+03  0.45604985774E+03  0.12500000000E+03 0.  0.
         25    1    1    2    0    0  0.13045624924E+03  0.26690105588E+02 -0.21173376678E+03  0.27962006848E+03  0.12500000000E+03 0.  0.
</event>
<event>
 4    0  0.2219362E-002  0.2225753E+03  0.7546771E-02  0.1131978E+00
         21   -1    0    0  502  501  0.00000000000E+00  0.00000000000E+00  0.21857631030E+02  0.21857631030E+02  0.00000000000E+00 0.  1.
         21   -1    0    0  501  502 -0.00000000000E+00 -0.00000000000E+00 -0.22664736373E+04  0.22664736373E+04  0.00000000000E+00 0.  1.
         25    1    1    2    0    0  0.63466064276E+02  0.63705547233E+02 -0.29615435677E+03  0.33379445936E+03  0.12500000000E+03 0.  0.
         25    1    1    2    0    0 -0.63466064276E+02 -0.63705547233E+02 -0.19484616495E+04  0.19545368090E+04  0.12500000000E+03 0.  0.
</event>
<event>
 4    0  0.2219362E-002  0.1975171E+03  0.7546771E-02  0.1151851E+00
         21   -1    0    0  502  501  0.00000000000E+00  0.00000000000E+00  0.39476946876E+03  0.39476946876E+03  0.00000000000E+00 0. -1.
         21   -1    0    0  501  502 -0.00000000000E+00 -0.00000000000E+00 -0.98824817000E+02  0.98824817000E+02  0.00000000000E+00 0. -1.
         25    1    1    2    0    0  0.40681792109E+02 -0.13822215139E+03  0.21202231038E+03  0.28519963437E+03  0.12500000000E+03 0.  0.
         25    1    1    2    0    0 -0.40681792109E+02  0.13822215139E+03  0.83922341374E+02  0.20839465139E+03  0.12500000000E+03 0.  0.
</event>
<event>
 4    0  0.2219362E-002  0.1742952E+03  0.7546771E-02  0.1173441E+00
         21   -1    0    0  502  501  0.00000000000E+00  0.00000000000E+00  0.68289018219E+03  0.68289018219E+03  0.00000000000E+00 0. -1.
         21   -1    0    0  501  502 -0.00000000000E+00 -0.00000000000E+00 -0.44485651175E+02  0.44485651175E+02  0.00000000000E+00 0. -1.
         25    1    1    2    0    0  0.76240161368E+01 -0.45042759626E+02  0.84359286765E+02  0.15757050828E+03  0.12500000000E+03 0.  0.
         25    1    1    2    0    0 -0.76240161368E+01  0.45042759626E+02  0.55404524425E+03  0.56980532508E+03  0.12500000000E+03 0.  0.
</event>
<event>
 4    0  0.2219362E-002  0.2143916E+03  0.7546771E-02  0.1138135E+00
         21   -1    0    0  502  501  0.00000000000E+00  0.00000000000E+00  0.17882441672E+04  0.17882441672E+04  0.00000000000E+00 0. -1.
         21   -1    0    0  501  502 -0.00000000000E+00 -0.00000000000E+00 -0.25703293829E+02  0.25703293829E+02  0.00000000000E+00 0. -1.
         25    1    1    2    0    0  0.16516012900E+03 -0.37899582090E+02  0.71076066554E+03  0.74129614205E+03  0.12500000000E+03 0.  0.
         25    1    1    2    0    0 -0.16516012900E+03  0.37899582090E+02  0.10517802078E+04  0.10726513190E+04  0.12500000000E+03 0.  0.
</event>
<event>
 4    0  0.2219362E-002  0.1980558E+03  0.7546771E-02  0.1151390E+00
         21   -1    0    0  502  501  0.00000000000E+00  0.00000000000E+00  0.10314297985E+03  0.10314297985E+03  0.00000000000E+00 0.  1.
         21   -1    0    0  501  502 -0.00000000000E+00 -0.00000000000E+00 -0.38030814549E+03  0.38030814549E+03  0.00000000000E+00 0.  1.
         25    1    1    2    0    0  0.33973860646E+02 -0.11490326863E+03 -0.25592849780E+03  0.30900061542E+03  0.12500000000E+03 0.  0.
         25    1    1    2    0    0 -0.33973860646E+02  0.11490326863E+03 -0.21236667849E+02  0.17445050992E+03  0.12500000000E+03 0.  0.
</event>
<event>
 4    0  0.2219362E-002  0.3181060E+03  0.7546771E-02  0.1076524E+00
         21   -1    0    0  502  501  0.00000000000E+00  0.00000000000E+00  0.18109563995E+03  0.18109563995E+03  0.00000000000E+00 0. -1.
         21   -1    0    0  501  502 -0.00000000000E+00 -0.00000000000E+00 -0.55877336038E+03  0.55877336038E+03  0.00000000000E+00 0. -1.
         25    1    1    2    0    0 -0.28778834561E+03  0.41593272037E+00 -0.24975804734E+03  0.40103165347E+03  0.12500000000E+03 0.  0.
         25    1    1    2    0    0  0.28778834561E+03 -0.41593272037E+00 -0.12791967309E+03  0.33883734687E+03  0.12500000000E+03 0.  0.
</event>
<event>
 4    0  0.2219362E-002  0.2252791E+03  0.7546771E-02  0.1130007E+00
         21   -1    0    0  502  501  0.00000000000E+00  0.00000000000E+00  0.32611144470E+03  0.32611144470E+03  0.00000000000E+00 0. -1.
         21   -1    0    0  501  502 -0.00000000000E+00 -0.00000000000E+00 -0.15562370669E+03  0.15562370669E+03  0.00000000000E+00 0. -1.
         25    1    1    2    0    0 -0.11375226775E+03 -0.48247616466E+02  0.23591430670E+03  0.29419036527E+03  0.12500000000E+03 0.  0.
         25    1    1    2    0    0  0.11375226775E+03  0.48247616466E+02 -0.65426568680E+02  0.18754478612E+03  0.12500000000E+03 0.  0.
</event>
<event>
 4    0  0.2219362E-002  0.1551665E+03  0.7546771E-02  0.1194264E+00
         21   -1    0    0  502  501  0.00000000000E+00  0.00000000000E+00  0.18354831129E+02  0.18354831129E+02  0.00000000000E+00 0.  1.
         21   -1    0    0  501  502 -0.00000000000E+00 -0.00000000000E+00 -0.13117333125E+04  0.13117333125E+04  0.00000000000E+00 0.  1.
         25    1    1    2    0    0  0.38376121913E+00  0.87735501054E+02 -0.52900134473E+03  0.55060429361E+03  0.12500000000E+03 0.  0.
         25    1    1    2    0    0 -0.38376121913E+00 -0.87735501054E+02 -0.76437713664E+03  0.77948385002E+03  0.12500000000E+03 0.  0.
</event>
<event>
 4    0  0.2219362E-002  0.2804005E+03  0.7546771E-02  0.1095470E+00
         21   -1    0    0  502  501  0.00000000000E+00  0.00000000000E+00  0.10250147937E+04  0.10250147937E+04  0.00000000000E+00 0.  1.
         21   -1    0    0  501  502 -0.00000000000E+00 -0.00000000000E+00 -0.76705683351E+02  0.76705683351E+02  0.00000000000E+00 0.  1.
         25    1    1    2    0    0 -0.14803723361E+03  0.10177980410E+03  0.81851298426E+03  0.84726775960E+03  0.12500000000E+03 0.  0.
         25    1    1    2    0    0  0.14803723361E+03 -0.10177980410E+03  0.12979612604E+03  0.25445271740E+03  0.12500000000E+03 0.  0.
</event>
<event>
 4    0  0.2219362E-002  0.2227334E+03  0.7546771E-02  0.1131861E+00
         21   -1    0    0  502  501  0.00000000000E+00  0.00000000000E+00  0.33759818441E+03  0.33759818441E+03  0.00000000000E+00 0. -1.
         21   -1    0    0  501  502 -0.00000000000E+00 -0.00000000000E+00 -0.14695030916E+03  0.14695030916E+03  0.00000000000E+00 0. -1.
         25    1    1    2    0    0 -0.17977743783E+03  0.26112665831E+02  0.12943364707E+03  0.25569487180E+03  0.12500000000E+03 0.  0.
         25    1    1    2    0    0  0.17977743783E+03 -0.26112665831E+02  0.61214228185E+02  0.22885362178E+03  0.12500000000E+03 0.  0.
</event>
<event>
 4    0  0.2219362E-002  0.2339587E+03  0.7546771E-02  0.1123884E+00
         21   -1    0    0  502  501  0.00000000000E+00  0.00000000000E+00  0.21620713252E+03  0.21620713252E+03  0.00000000000E+00 0. -1.
         21   -1    0    0  501  502 -0.00000000000E+00 -0.00000000000E+00 -0.25316779066E+03  0.25316779066E+03  0.00000000000E+00 0. -1.
         25    1    1    2    0    0 -0.18165546443E+02 -0.10006297907E+03  0.15166254124E+03  0.22128965921E+03  0.12500000000E+03 0.  0.
         25    1    1    2    0    0  0.18165546443E+02  0.10006297907E+03 -0.18862319937E+03  0.24808526397E+03  0.12500000000E+03 0.  0.
</event>
<event>
 4    0  0.2219362E-002  0.2004704E+03  0.7546771E-02  0.1149343E+00
         21   -1    0    0  502  501  0.00000000000E+00  0.00000000000E+00  0.18006692504E+03  0.18006692504E+03  0.00000000000E+00 0. -1.
         21   -1    0    0  501  502 -0.00000000000E+00 -0.00000000000E+00 -0.22318575452E+03  0.22318575452E+03  0.00000000000E+00 0. -1.
         25    1    1    2    0    0 -0.28201345061E+02  0.79028503152E+02 -0.15469548679E+03  0.21586225656E+03  0.12500000000E+03 0.  0.
         25    1    1    2    0    0  0.28201345061E+02 -0.79028503152E+02  0.11157665731E+03  0.18739042300E+03  0.12500000000E+03 0.  0.
</event>
<event>
 4    0  0.2219362E-002  0.2170278E+03  0.7546771E-02  0.1136119E+00
         21   -1    0    0  502  501  0.00000000000E+00  0.00000000000E+00  0.81056724216E+02  0.81056724216E+02  0.00000000000E+00 0. -1.
         21   -1    0    0  501  502 -0.00000000000E+00 -0.00000000000E+00 -0.58108791571E+03  0.58108791571E+03  0.00000000000E+00 0. -1.
         25    1    1    2    0    0 -0.77348732666E+02  0.15930029155E+03 -0.23353800484E+03  0.31862895198E+03  0.12500000000E+03 0.  0.
         25    1    1    2    0    0  0.77348732666E+02 -0.15930029155E+03 -0.26649318665E+03  0.34351568795E+03  0.12500000000E+03 0.  0.
</event>
<event>
 4    0  0.2219362E-002  0.1759269E+03  0.7546771E-02  0.1171804E+00
         21   -1    0    0  502  501  0.00000000000E+00  0.00000000000E+00  0.75678919260E+02  0.75678919260E+02  0.00000000000E+00 0. -1.
         21   -1    0    0  501  502 -0.00000000000E+00 -0.00000000000E+00 -0.40896806704E+03  0.40896806704E+03  0.00000000000E+00 0. -1.
         25    1    1    2    0    0 -0.21686463499E+01  0.11821216009E+03 -0.11610199140E+03  0.20756562872E+03  0.12500000000E+03 0.  0.
         25    1    1    2    0    0  0.21686463499E+01 -0.11821216009E+03 -0.21718715638E+03  0.27708135758E+03  0.12500000000E+03 0.  0.
</event>
<event>
 4    0  0.2219362E-002  0.2110063E+03  0.7546771E-02  0.1140772E+00
         21   -1    0    0  502  501  0.00000000000E+00  0.00000000000E+00  0.48741231727E+03  0.48741231727E+03  0.00000000000E+00 0. -1.
         21   -1    0    0  501  502 -0.00000000000E+00 -0.00000000000E+00 -0.91346973762E+02  0.91346973762E+02  0.00000000000E+00 0. -1.
         25    1    1    2    0    0 -0.10293072727E+03  0.11103165197E+03  0.30404918149E+03  0.36193047277E+03  0.12500000000E+03 0.  0.
         25    1    1    2    0    0  0.10293072727E+03 -0.11103165197E+03  0.92016162011E+02  0.21682881826E+03  0.12500000000E+03 0.  0.
</event>
<event>
 4    0  0.2219362E-002  0.1950838E+03  0.7546771E-02  0.1153954E+00
         21   -1    0    0  502  501  0.00000000000E+00  0.00000000000E+00  0.19810972962E+04  0.19810972962E+04  0.00000000000E+00 0.  1.
         21   -1    0    0  501  502 -0.00000000000E+00 -0.00000000000E+00 -0.19210408330E+02  0.19210408330E+02  0.00000000000E+00 0.  1.
         25    1    1    2    0    0 -0.13610260461E+03 -0.18171681030E+02  0.12876335064E+04  0.13009531797E+04  0.12500000000E+03 0.  0.
         25    1    1    2    0    0  0.13610260461E+03  0.18171681030E+02  0.67425338142E+03  0.69935452478E+03  0.12500000000E+03 0.  0.
</event>
<event>
 4    0  0.2219362E-002  0.1900629E+03  0.7546771E-02  0.1158405E+00
         21   -1    0    0  502  501  0.00000000000E+00  0.00000000000E+00  0.45093846891E+03  0.45093846891E+03  0.00000000000E+00 0. -1.
         21   -1    0    0  501  502 -0.00000000000E+00 -0.00000000000E+00 -0.80108287724E+02  0.80108287724E+02  0.00000000000E+00 0. -1.
         25    1    1    2    0    0  0.91203402744E+01  0.10043801536E+03  0.43440016121E+02  0.16638212205E+03  0.12500000000E+03 0.  0.
         25    1    1    2    0    0 -0.91203402744E+01 -0.10043801536E+03  0.32739016506E+03  0.36466463458E+03  0.12500000000E+03 0.  0.
</event>
<event>
 4    0  0.2219362E-002  0.2098392E+03  0.7546771E-02  0.1141693E+00
         21   -1    0    0  502  501  0.00000000000E+00  0.00000000000E+00  0.11007576117E+03  0.11007576117E+03  0.00000000000E+00 0. -1.
         21   -1    0    0  501  502 -0.00000000000E+00 -0.00000000000E+00 -0.40001974413E+03  0.40001974413E+03  0.00000000000E+00 0. -1.
         25    1    1    2    0    0  0.47503992473E+02 -0.94183699501E+02 -0.30474753993E+03  0.34586595908E+03  0.12500000000E+03 0.  0.
         25    1    1    2    0    0 -0.47503992473E+02  0.94183699501E+02  0.14803556972E+02  0.16422954622E+03  0.12500000000E+03 0.  0.
</event>
<event>
 4    0  0.2219362E-002  0.1671298E+03  0.7546771E-02  0.1180874E+00
         21   -1    0    0  502  501  0.00000000000E+00  0.00000000000E+00  0.62846543578E+02  0.62846543578E+02  0.00000000000E+00 0.  1.
         21   -1    0    0  501  502 -0.00000000000E+00 -0.00000000000E+00 -0.44445354353E+03  0.44445354353E+03  0.00000000000E+00 0.  1.
         25    1    1    2    0    0  0.99165601017E+02  0.16671125595E+02 -0.26191834241E+03  0.30714485336E+03  0.12500000000E+03 0.  0.
         25    1    1    2    0    0 -0.99165601017E+02 -0.16671125595E+02 -0.11968865754E+03  0.20015523375E+03  0.12500000000E+03 0.  0.
</event>
<event>
 4    0  0.2219362E-002  0.1543838E+03  0.7546771E-02  0.1195187E+00
         21   -1    0    0  502  501  0.00000000000E+00  0.00000000000E+00  0.29861973428E+02  0.29861973428E+02  0.00000000000E+00 0.  1.
         21   -1    0    0  501  502 -0.00000000000E+00 -0.00000000000E+00 -0.79815090668E+03  0.79815090668E+03  0.00000000000E+00 0.  1.
         25    1    1    2    0    0  0.18927101790E+02  0.86506483520E+02 -0.43557064059E+03  0.46172328273E+03  0.12500000000E+03 0.  0.
         25    1    1    2    0    0 -0.18927101790E+02 -0.86506483520E+02 -0.33271829266E+03  0.36628959738E+03  0.12500000000E+03 0.  0.
</event>
<event>
 4    0  0.2219362E-002  0.2085116E+03  0.7546771E-02  0.1142750E+00
         21   -1    0    0  502  501  0.00000000000E+00  0.00000000000E+00  0.40958277638E+03  0.40958277638E+03  0.00000000000E+00 0.  1.
         21   -1    0    0  501  502 -0.00000000000E+00 -0.00000000000E+00 -0.10614971513E+03  0.10614971513E+03  0.00000000000E+00 0.  1.
         25    1    1    2    0    0 -0.78356350830E+02  0.84295892354E+01 -0.30214217324E+02  0.15082663763E+03  0.12500000000E+03 0.  0.
         25    1    1    2    0    0  0.78356350830E+02 -0.84295892354E+01  0.33364727858E+03  0.36490585388E+03  0.12500000000E+03 0.  0.
</event>
<event>
 4    0  0.2219362E-002  0.2431395E+03  0.7546771E-02  0.1117719E+00
         21   -1    0    0  502  501  0.00000000000E+00  0.00000000000E+00  0.95264562082E+02  0.95264562082E+02  0.00000000000E+00 0.  1.
         21   -1    0    0  501  502 -0.00000000000E+00 -0.00000000000E+00 -0.62055415023E+03  0.62055415023E+03  0.00000000000E+00 0.  1.
         25    1    1    2    0    0  0.19964815948E+03 -0.58688669286E+02 -0.24245743737E+03  0.34309525853E+03  0.12500000000E+03 0.  0.
         25    1    1    2    0    0 -0.19964815948E+03  0.58688669286E+02 -0.28283215078E+03  0.37272345378E+03  0.12500000000E+03 0.  0.
</event>
<event>
 4    0  0.2219362E-002  0.2369438E+03  0.7546771E-02  0.1121846E+00
         21   -1    0    0  502  501  0.00000000000E+00  0.00000000000E+00  0.15173974189E+03  0.15173974189E+03  0.00000000000E+00 0.  1.
         21   -1    0    0  501  502 -0.00000000000E+00 -0.00000000000E+00 -0.36999105750E+03  0.36999105750E+03  0.00000000000E+00 0.  1.
         25    1    1    2    0    0  0.85189263405E+01 -0.53196877435E+02  0.10440044060E+03  0.17154279895E+03  0.12500000000E+03 0.  0.
         25    1    1    2    0    0 -0.85189263405E+01  0.53196877435E+02 -0.32265175620E+03  0.35018800044E+03  0.12500000000E+03 0.  0.
</event>
<event>
 4    0  0.2219362E-002  0.2041608E+03  0.7546771E-02  0.1146275E+00
         21   -1    0    0  502  501  0.00000000000E+00  0.00000000000E+00  0.14910309640E+04  0.14910309640E+04  0.00000000000E+00 0. -1.
         21   -1    0    0  501  502 -0.00000000000E+00 -0.00000000000E+00 -0.27954906306E+02  0.27954906306E+02  0.00000000000E+00 0. -1.
         25    1    1    2    0    0  0.43654347765E+02  0.95686078706E+02  0.11870776073E+04  0.11982653185E+04  0.12500000000E+03 0.  0.
         25    1    1    2    0    0 -0.43654347765E+02 -0.95686078706E+02  0.27599845037E+03  0.32072055179E+03  0.12500000000E+03 0.  0.
</event>
<event>
 4    0  0.2219362E-002  0.3024230E+03  0.7546771E-02  0.1084036E+00
         21   -1    0    0  502  501  0.00000000000E+00  0.00000000000E+00  0.13607383998E+04  0.13607383998E+04  0.00000000000E+00 0. -1.
         21   -1    0    0  501  502 -0.00000000000E+00 -0.00000000000E+00 -0.67213260210E+02  0.67213260210E+02  0.00000000000E+00 0. -1.
         25    1    1    2    0    0  0.75343534655E+02  0.22848045665E+03  0.33041992054E+03  0.42741348970E+03  0.12500000000E+03 0.  0.
         25    1    1    2    0    0 -0.75343534655E+02 -0.22848045665E+03  0.96310521905E+03  0.10005381703E+04  0.12500000000E+03 0.  0.
</event>
<event>
 4    0  0.2219362E-002  0.1954250E+03  0.7546771E-02  0.1153657E+00
         21   -1    0    0  502  501  0.00000000000E+00  0.00000000000E+00  0.12464034735E+03  0.12464034735E+03  0.00000000000E+00 0.  1.
         21   -1    0    0  501  502 -0.00000000000E+00 -0.00000000000E+00 -0.30640893825E+03  0.30640893825E+03  0.00000000000E+00 0.  1.
         25    1    1    2    0    0 -0.94243705925E+01  0.10851309249E+03  0.23206208570E+02  0.16741397230E+03  0.12500000000E+03 0.  0.
         25    1    1    2    0    0  0.94243705925E+01 -0.10851309249E+03 -0.20497479946E+03  0.26363531330E+03  0.12500000000E+03 0.  0.
</event>
<event>
 4    0  0.2219362E-002  0.2193832E+03  0.7546771E-02  0.1134344E+00
         21   -1    0    0  502  501  0.00000000000E+00  0.00000000000E+00  0.43705670809E+03  0.43705670809E+03  0.00000000000E+00 0. -1.
         21   -1    0    0  501  502 -0.00000000000E+00 -0.00000000000E+00 -0.11012073008E+03  0.11012073008E+03  0.00000000000E+00 0. -1.
         25    1    1    2    0    0 -0.10252273957E+03 -0.14733156098E+03  0.14235940117E+03  0.26097643589E+03  0.12500000000E+03 0.  0.
         25    1    1    2    0    0  0.10252273957E+03  0.14733156098E+03  0.18457657683E+03  0.28620100228E+03  0.12500000000E+03 0.  0.
</event>
<event>
 4    0  0.2219362E-002  0.2756007E+03  0.7546771E-02  0.1098116E+00
         21   -1    0    0  502  501  0.00000000000E+00  0.00000000000E+00  0.76471212141E+02  0.76471212141E+02  0.00000000000E+00 0. -1.
         21   -1    0    0  501  502 -0.00000000000E+00 -0.00000000000E+00 -0.99325969158E+03  0.99325969158E+03  0.00000000000E+00 0. -1.
         25    1    1    2    0    0  0.13482408735E+03 -0.20527977454E+03 -0.45127618745E+03  0.52876508747E+03  0.12500000000E+03 0.  0.
         25    1    1    2    0    0 -0.13482408735E+03  0.20527977454E+03 -0.46551229199E+03  0.54096581625E+03  0.12500000000E+03 0.  0.
</event>
<event>
 4    0  0.2219362E-002  0.2474518E+03  0.7546771E-02  0.1114926E+00
         21   -1    0    0  502  501  0.00000000000E+00  0.00000000000E+00  0.65163083207E+02  0.65163083207E+02  0.00000000000E+00 0.  1.
         21   -1    0    0  501  502 -0.00000000000E+00 -0.00000000000E+00 -0.93967889787E+03  0.93967889787E+03  0.00000000000E+00 0.  1.
         25    1    1    2    0    0  0.18920619989E+03 -0.15344137662E+02 -0.63591314537E+03  0.67531100768E+03  0.12500000000E+03 0.  0.
         25    1    1    2    0    0 -0.18920619989E+03  0.15344137662E+02 -0.23860266929E+03  0.32953097340E+03  0.12500000000E+03 0.  0.
</event>
<event>
 4    0  0.2219362E-002  0.2119997E+03  0.7546771E-02  0.1139992E+00
         21   -1    0    0  502  501  0.00000000000E+00  0.00000000000E+00  0.29400738785E+03  0.29400738785E+03  0.00000000000E+00 0. -1.
         21   -1    0    0  501  502 -0.00000000000E+00 -0.00000000000E+00 -0.15286643946E+03  0.15286643946E+03  0.00000000000E+00 0. -1.
         25    1    1    2    0    0 -0.10031020153E+03 -0.13584945867E+03  0.10041139972E+03  0.23286189286E+03  0.12500000000E+03 0.  0.
         25    1    1    2    0    0  0.10031020153E+03  0.13584945867E+03  0.40729548673E+02  0.21401193445E+03  0.12500000000E+03 0.  0.
</event>
<event>
 4    0  0.2219362E-002  0.2019743E+03  0.7546771E-02  0.1148084E+00
         21   -1    0    0  502  501  0.00000000000E+00  0.00000000000E+00  0.17458071188E+03  0.17458071188E+03  0.00000000000E+00 0.  1.
         21   -1    0    0  501  502 -0.00000000000E+00 -0.00000000000E+00 -0.23366625459E+03  0.23366625459E+03  0.00000000000E+00 0.  1.
         25    1    1    2    0    0 -0.10814822907E+03  0.27278374147E+02  0.84478262995E+02  0.18762123032E+03  0.12500000000E+03 0.  0.
         25    1    1    2    0    0  0.10814822907E+03 -0.27278374147E+02 -0.14356380570E+03  0.22062573615E+03  0.12500000000E+03 0.  0.
</event>
<event>
 4    0  0.2219362E-002  0.2141204E+03  0.7546771E-02  0.1138344E+00
         21   -1    0    0  502  501  0.00000000000E+00  0.00000000000E+00  0.10978385884E+03  0.10978385884E+03  0.00000000000E+00 0. -1.
         21   -1    0    0  501  502 -0.00000000000E+00 -0.00000000000E+00 -0.41761627679E+03  0.41761627679E+03  0.00000000000E+00 0. -1.
         25    1    1    2    0    0  0.16455178593E+03  0.48828615818E+02 -0.11994231708E+03  0.24387021836E+03  0.12500000000E+03 0.  0.
         25    1    1    2    0    0 -0.16455178593E+03 -0.48828615818E+02 -0.18789010088E+03  0.28352991726E+03  0.12500000000E+03 0.  0.
</event>
<event>
 4    0  0.2219362E-002  0.2337735E+03  0.7546771E-02  0.1124012E+00
         21   -1    0    0  502  501  0.00000000000E+00  0.00000000000E+00  0.38588162116E+03  0.38588162116E+03  0.00000000000E+00 0.  1.
         21   -1    0    0  501  502 -0.00000000000E+00 -0.00000000000E+00 -0.14162385512E+03  0.14162385512E+03  0.00000000000E+00 0.  1.
         25    1    1    2    0    0  0.94977452559E+02 -0.17312726808E+03  0.11581926756E+03  0.26083111430E+03  0.12500000000E+03 0.  0.
         25    1    1    2    0    0 -0.94977452559E+02  0.17312726808E+03  0.12843849848E+03  0.26667436199E+03  0.12500000000E+03 0.  0.
</event>
<event>
 4    0  0.2219362E-002  0.1890145E+03  0.7546771E-02  0.1159353E+00
         21   -1    0    0  502  501  0.00000000000E+00  0.00000000000E+00  0.37448252717E+02  0.37448252717E+02  0.00000000000E+00 0. -1.
         21   -1    0    0  501  502 -0.00000000000E+00 -0.00000000000E+00 -0.95402267065E+03  0.95402267065E+03  0.00000000000E+00 0. -1.
         25    1    1    2    0    0 -0.28131139147E+02  0.85784016822E+02 -0.74500922680E+03  0.76079826929E+03  0.12500000000E+03 0.  0.
         25    1    1    2    0    0  0.28131139147E+02 -0.85784016822E+02 -0.17156519113E+03  0.23067265408E+03  0.12500000000E+03 0.  0.
</event>
<event>
 4    0  0.2219362E-002  0.1722729E+03  0.7546771E-02  0.1175498E+00
         21   -1    0    0  502  501  0.00000000000E+00  0.00000000000E+00  0.99834979589E+02  0.99834979589E+02  0.00000000000E+00 0. -1.
         21   -1    0    0  501  502 -0.00000000000E+00 -0.00000000000E+00 -0.29727016198E+03  0.29727016198E+03  0.00000000000E+00 0. -1.
         25    1    1    2    0    0  0.93005157111E+01 -0.11673882350E+03 -0.11992282126E+03  0.20909551780E+03  0.12500000000E+03 0.  0.
         25    1    1    2    0    0 -0.93005157111E+01  0.11673882350E+03 -0.77512361136E+02  0.18800962378E+03  0.12500000000E+03 0.  0.
</event>
<event>
 4    0  0.2219362E-002  0.1842853E+03  0.7546771E-02  0.1163719E+00
         21   -1    0    0  502  501  0.00000000000E+00  0.00000000000E+00  0.56866282279E+03  0.56866282279E+03  0.00000000000E+00 0.  1.
         21   -1    0    0  501  502 -0.00000000000E+00 -0.00000000000E+00 -0.59720928617E+02  0.59720928617E+02  0.00000000000E+00 0.  1.
         25    1    1    2    0    0  0.84513771315E+02  0.20706495777E+02  0.43136202771E+03  0.45745987306E+03  0.12500000000E+03 0.  0.
         25    1    1    2    0    0 -0.84513771315E+02 -0.20706495777E+02  0.77579866465E+02  0.17092387835E+03  0.12500000000E+03 0.  0.
</event>
<event>
 4    0  0.2219362E-002  0.2316206E+03  0.7546771E-02  0.1125504E+00
         21   -1    0    0  502  501  0.00000000000E+00  0.00000000000E+00  0.76899593753E+03  0.76899593753E+03  0.00000000000E+00 0.  1.
         21   -1    0    0  501  502 -0.00000000000E+00 -0.00000000000E+00 -0.69763857467E+02  0.69763857467E+02  0.00000000000E+00 0.  1.
         25    1    1    2    0    0  0.13944248166E+03  0.55737486432E+02  0.57483610476E+03  0.60713459827E+03  0.12500000000E+03 0.  0.
         25    1    1    2    0    0 -0.13944248166E+03 -0.55737486432E+02  0.12439597531E+03  0.23162519673E+03  0.12500000000E+03 0.  0.
</event>
<event>
 4    0  0.2219362E-002  0.1558360E+03  0.7546771E-02  0.1193480E+00
         21   -1    0    0  502  501  0.00000000000E+00  0.00000000000E+00  0.12387737127E+04  0.12387737127E+04  0.00000000000E+00 0.  1.
         21   -1    0    0  501  502 -0.00000000000E+00 -0.00000000000E+00 -0.19603948224E+02  0.19603948224E+02  0.00000000000E+00 0.  1.
         25    1    1    2    0    0 -0.65313864221E+02 -0.47585963236E+02  0.42326670771E+03  0.44867586364E+03  0.12500000000E+03 0.  0.
         25    1    1    2    0    0  0.65313864221E+02  0.47585963236E+02  0.79590305677E+03  0.80970179728E+03  0.12500000000E+03 0.  0.
</event>
<event>
 4    0  0.2219362E-002  0.2452983E+03  0.7546771E-02  0.1116313E+00
         21   -1    0    0  502  501  0.00000000000E+00  0.00000000000E+00  0.10216818563E+04  0.10216818563E+04  0.00000000000E+00 0. -1.
         21   -1    0    0  501  502 -0.00000000000E+00 -0.00000000000E+00 -0.58894336927E+02  0.58894336927E+02  0.00000000000E+00 0. -1.
         25    1    1    2    0    0  0.19727885989E+03 -0.12269897673E+02  0.64439589770E+03  0.68552211629E+03  0.12500000000E+03 0.  0.
         25    1    1    2    0    0 -0.19727885989E+03  0.12269897673E+02  0.31839162164E+03  0.39505407691E+03  0.12500000000E+03 0.  0.
</event>
<event>
 4    0  0.2219362E-002  0.1881787E+03  0.7546771E-02  0.1160114E+00
         21   -1    0    0  502  501  0.00000000000E+00  0.00000000000E+00  0.69230715342E+02  0.69230715342E+02  0.00000000000E+00 0. -1.
         21   -1    0    0  501  502 -0.00000000000E+00 -0.00000000000E+00 -0.51149583852E+03  0.51149583852E+03  0.00000000000E+00 0. -1.
         25    1    1    2    0    0  0.31688329893E+02  0.10592690322E+03 -0.86955883592E+02  0.18817806665E+03  0.12500000000E+03 0.  0.
         25    1    1    2    0    0 -0.31688329893E+02 -0.10592690322E+03 -0.35530923959E+03  0.39254848721E+03  0.12500000000E+03 0.  0.
</event>
<event>
 4    0  0.2219362E-002  0.2399172E+03  0.7546771E-02  0.1119848E+00
         21   -1    0    0  502  501  0.00000000000E+00  0.00000000000E+00  0.68494125753E+03  0.68494125753E+03  0.00000000000E+00 0. -1.
         21   -1    0    0  501  502 -0.00000000000E+00 -0.00000000000E+00 -0.84036758844E+02  0.84036758844E+02  0.00000000000E+00 0. -1.
         25    1    1    2    0    0  0.31633883527E+02 -0.20108889005E+03  0.33620830677E+03  0.41242995748E+03  0.12500000000E+03 0.  0.
         25    1    1    2    0    0 -0.31633883527E+02  0.20108889005E+03  0.26469619192E+03  0.35654805889E+03  0.12500000000E+03 0.  0.
</event>
<event>
 4    0  0.2219362E-002  0.2720594E+03  0.7546771E-02  0.1100107E+00
         21   -1    0    0  502  501  0.00000000000E+00  0.00000000000E+00  0.29965386736E+03  0.29965386736E+03  0.00000000000E+00 0. -1.
         21   -1    0    0  501  502 -0.00000000000E+00 -0.00000000000E+00 -0.24700612880E+03  0.24700612880E+03  0.00000000000E+00 0. -1.
         25    1    1    2    0    0  0.18810272850E+03 -0.13329784330E+03 -0.46404743753E+02  0.26632564980E+03  0.12500000000E+03 0.  0.
         25    1    1    2    0    0 -0.18810272850E+03  0.13329784330E+03  0.99052482322E+02  0.28033434636E+03  0.12500000000E+03 0.  0.
</event>
<event>
 4    0  0.2219362E-002  0.1999311E+03  0.7546771E-02  0.1149797E+00
         21   -1    0    0  502  501  0.00000000000E+00  0.00000000000E+00  0.40319386024E+03  0.40319386024E+03  0.00000000000E+00 0.  1.
         21   -1    0    0  501  502 -0.00000000000E+00 -0.00000000000E+00 -0.99139471574E+02  0.99139471574E+02  0.00000000000E+00 0.  1.
         25    1    1    2    0    0 -0.27628236616E+02  0.10540541186E+03  0.29233480768E+03  0.33609263617E+03  0.12500000000E+03 0.  0.
         25    1    1    2    0    0  0.27628236616E+02 -0.10540541186E+03  0.11719580982E+02  0.16624069564E+03  0.12500000000E+03 0.  0.
</event>
<event>
 4    0  0.2219362E-002  0.2493078E+03  0.7546771E-02  0.1113743E+00
         21   -1    0    0  502  501  0.00000000000E+00  0.00000000000E+00  0.83206211922E+03  0.83206211922E+03  0.00000000000E+00 0. -1.
         21   -1    0    0  501  502 -0.00000000000E+00 -0.00000000000E+00 -0.74699206031E+02  0.74699206031E+02  0.00000000000E+00 0. -1.
         25    1    1    2    0    0  0.16374704539E+03  0.73725766476E+01  0.12368144714E+03  0.24039457175E+03  0.12500000000E+03 0.  0.
         25    1    1    2    0    0 -0.16374704539E+03 -0.73725766476E+01  0.63368146605E+03  0.66636675350E+03  0.12500000000E+03 0.  0.
</event>
<event>
 4    0  0.2219362E-002  0.2571964E+03  0.7546771E-02  0.1108840E+00
         21   -1    0    0  502  501  0.00000000000E+00  0.00000000000E+00  0.87890394145E+03  0.87890394145E+03  0.00000000000E+00 0.  1.
         21   -1    0    0  501  502 -0.00000000000E+00 -0.00000000000E+00 -0.75264157256E+02  0.75264157256E+02  0.00000000000E+00 0.  1.
         25    1    1    2    0    0  0.59316628286E+02  0.21669532726E+03  0.38875114974E+03  0.46607701474E+03  0.12500000000E+03 0.  0.
         25    1    1    2    0    0 -0.59316628286E+02 -0.21669532726E+03  0.41488863446E+03  0.48809108397E+03  0.12500000000E+03 0.  0.
</event>
<event>
 4    0  0.2219362E-002  0.2495946E+03  0.7546771E-02  0.1113561E+00
         21   -1    0    0  502  501  0.00000000000E+00  0.00000000000E+00  0.17869496387E+03  0.17869496387E+03  0.00000000000E+00 0. -1.
         21   -1    0    0  501  502 -0.00000000000E+00 -0.00000000000E+00 -0.34862474739E+03  0.34862474739E+03  0.00000000000E+00 0. -1.
         25    1    1    2    0    0 -0.64794677185E+02 -0.17445498015E+03 -0.20087323826E+03  0.30101154154E+03  0.12500000000E+03 0.  0.
         25    1    1    2    0    0  0.64794677185E+02  0.17445498015E+03  0.30943454741E+02  0.22630816972E+03  0.12500000000E+03 0.  0.
</event>
<event>
 4    0  0.2219362E-002  0.2043838E+03  0.7546771E-02  0.1146092E+00
         21   -1    0    0  502  501  0.00000000000E+00  0.00000000000E+00  0.43698933556E+03  0.43698933556E+03  0.00000000000E+00 0. -1.
         21   -1    0    0  501  502 -0.00000000000E+00 -0.00000000000E+00 -0.95592117317E+02  0.95592117317E+02  0.00000000000E+00 0. -1.
         25    1    1    2    0    0  0.54430252401E+02 -0.98785593699E+02  0.32166866921E+03  0.36306608028E+03  0.12500000000E+03 0.  0.
         25    1    1    2    0    0 -0.54430252401E+02  0.98785593699E+02  0.19728549031E+02  0.16951537259E+03  0.12500000000E+03 0.  0.
</event>
<event>
 4    0  0.2219362E-002  0.1870771E+03  0.7546771E-02  0.1161124E+00
         21   -1    0    0  502  501  0.00000000000E+00  0.00000000000E+00  0.18505800747E+03  0.18505800747E+03  0.00000000000E+00 0. -1.
         21   -1    0    0  501  502 -0.00000000000E+00 -0.00000000000E+00 -0.18911817030E+03  0.18911817030E+03  0.00000000000E+00 0. -1.
         25    1    1    2    0    0 -0.12096967467E+02 -0.13825675195E+03 -0.12593169356E+02  0.18720270830E+03  0.12500000000E+03 0.  0.
         25    1    1    2    0    0  0.12096967467E+02  0.13825675195E+03  0.85330065276E+01  0.18697346946E+03  0.12500000000E+03 0.  0.
</event>
<event>
 4    0  0.2219362E-002  0.1945109E+03  0.7546771E-02  0.1154455E+00
         21   -1    0    0  502  501  0.00000000000E+00  0.00000000000E+00  0.14002787850E+04  0.14002787850E+04  0.00000000000E+00 0. -1.
         21   -1    0    0  501  502 -0.00000000000E+00 -0.00000000000E+00 -0.27019243716E+02  0.27019243716E+02  0.00000000000E+00 0. -1.
         25    1    1    2    0    0  0.64142154743E+02 -0.72382660665E+02  0.11026303079E+04  0.11138994844E+04  0.12500000000E+03 0.  0.
         25    1    1    2    0    0 -0.64142154743E+02  0.72382660665E+02  0.27062923339E+03  0.31339854426E+03  0.12500000000E+03 0.  0.
</event>
<event>
 4    0  0.2219362E-002  0.2523453E+03  0.7546771E-02  0.1111832E+00
         21   -1    0    0  502  501  0.00000000000E+00  0.00000000000E+00  0.49322787731E+02  0.49322787731E+02  0.00000000000E+00 0.  1.
         21   -1    0    0  501  502 -0.00000000000E+00 -0.00000000000E+00 -0.12910495725E+04  0.12910495725E+04  0.00000000000E+00 0.  1.
         25    1    1    2    0    0 -0.20861349524E+02 -0.17486986453E+02 -0.11985424865E+04  0.12053506056E+04  0.12500000000E+03 0.  0.
         25    1    1    2    0    0  0.20861349524E+02  0.17486986453E+02 -0.43184298304E+02  0.13502175461E+03  0.12500000000E+03 0.  0.
</event>
<event>
 4    0  0.2219362E-002  0.2408422E+03  0.7546771E-02  0.1119233E+00
         21   -1    0    0  502  501  0.00000000000E+00  0.00000000000E+00  0.11367757665E+04  0.11367757665E+04  0.00000000000E+00 0. -1.
         21   -1    0    0  501  502 -0.00000000000E+00 -0.00000000000E+00 -0.51025880699E+02  0.51025880699E+02  0.00000000000E+00 0. -1.
         25    1    1    2    0    0  0.30445150620E+02  0.20357468040E+03  0.55083763313E+03  0.60117938735E+03  0.12500000000E+03 0.  0.
         25    1    1    2    0    0 -0.30445150620E+02 -0.20357468040E+03  0.53491225266E+03  0.58662225984E+03  0.12500000000E+03 0.  0.
</event>
<event>
 4    0  0.2219362E-002  0.1645289E+03  0.7546771E-02  0.1183676E+00
         21   -1    0    0  502  501  0.00000000000E+00  0.00000000000E+00  0.64318958472E+02  0.64318958472E+02  0.00000000000E+00 0. -1.
         21   -1    0    0  501  502 -0.00000000000E+00 -0.00000000000E+00 -0.42086772503E+03  0.42086772503E+03  0.00000000000E+00 0. -1.
         25    1    1    2    0    0  0.49513398600E+02 -0.39961430722E+02 -0.51467371157E+02  0.14940676986E+03  0.12500000000E+03 0.  0.
         25    1    1    2    0    0 -0.49513398600E+02  0.39961430722E+02 -0.30508139540E+03  0.33577991364E+03  0.12500000000E+03 0.  0.
</event>
<event>
 4    0  0.2219362E-002  0.2770920E+03  0.7546771E-02  0.1097288E+00
         21   -1    0    0  502  501  0.00000000000E+00  0.00000000000E+00  0.15140667034E+04  0.15140667034E+04  0.00000000000E+00 0.  1.
         21   -1    0    0  501  502 -0.00000000000E+00 -0.00000000000E+00 -0.50711108751E+02  0.50711108751E+02  0.00000000000E+00 0.  1.
         25    1    1    2    0    0  0.32463193446E+02 -0.21713475766E+03  0.10530398013E+04  0.10829215969E+04  0.12500000000E+03 0.  0.
         25    1    1    2    0    0 -0.32463193446E+02  0.21713475766E+03  0.41031579342E+03  0.48185621532E+03  0.12500000000E+03 0.  0.
</event>
<event>
 4    0  0.2219362E-002  0.1623151E+03  0.7546771E-02  0.1186108E+00
         21   -1    0    0  502  501  0.00000000000E+00  0.00000000000E+00  0.34374238862E+02  0.34374238862E+02  0.00000000000E+00 0. -1.
         21   -1    0    0  501  502 -0.00000000000E+00 -0.00000000000E+00 -0.76645150674E+03  0.76645150674E+03  0.00000000000E+00 0. -1.
         25    1    1    2    0    0  0.64310737200E+02  0.46839883107E+02 -0.20256498541E+03  0.25097294452E+03  0.12500000000E+03 0.  0.
         25    1    1    2    0    0 -0.64310737200E+02 -0.46839883107E+02 -0.52951228246E+03  0.54985280107E+03  0.12500000000E+03 0.  0.
</event>
<event>
 4    0  0.2219362E-002  0.3417572E+03  0.7546771E-02  0.1066050E+00
         21   -1    0    0  502  501  0.00000000000E+00  0.00000000000E+00  0.25971999469E+03  0.25971999469E+03  0.00000000000E+00 0.  1.
         21   -1    0    0  501  502 -0.00000000000E+00 -0.00000000000E+00 -0.44970736787E+03  0.44970736787E+03  0.00000000000E+00 0.  1.
         25    1    1    2    0    0 -0.81582650052E+02 -0.23343698184E+03 -0.30263936069E+03  0.41032199054E+03  0.12500000000E+03 0.  0.
         25    1    1    2    0    0  0.81582650052E+02  0.23343698184E+03  0.11265198751E+03  0.29910537202E+03  0.12500000000E+03 0.  0.
</event>
<event>
 4    0  0.2219362E-002  0.2721952E+03  0.7546771E-02  0.1100030E+00
         21   -1    0    0  502  501  0.00000000000E+00  0.00000000000E+00  0.62912507518E+02  0.62912507518E+02  0.00000000000E+00 0.  1.
         21   -1    0    0  501  502 -0.00000000000E+00 -0.00000000000E+00 -0.11776710586E+04  0.11776710586E+04  0.00000000000E+00 0.  1.
         25    1    1    2    0    0  0.11587879288E+03  0.13547006219E+03 -0.18511546646E+03  0.28578447878E+03  0.12500000000E+03 0.  0.
         25    1    1    2    0    0 -0.11587879288E+03 -0.13547006219E+03 -0.92964308461E+03  0.95479908733E+03  0.12500000000E+03 0.  0.
</event>
<event>
 4    0  0.2219362E-002  0.1920238E+03  0.7546771E-02  0.1156649E+00
         21   -1    0    0  502  501  0.00000000000E+00  0.00000000000E+00  0.80110427657E+02  0.80110427657E+02  0.00000000000E+00 0.  1.
         21   -1    0    0  501  502 -0.00000000000E+00 -0.00000000000E+00 -0.46027909169E+03  0.46027909169E+03  0.00000000000E+00 0.  1.
         25    1    1    2    0    0  0.63724697348E+02 -0.13104160798E+03 -0.19560880402E+03  0.27408127313E+03  0.12500000000E+03 0.  0.
         25    1    1    2    0    0 -0.63724697348E+02  0.13104160798E+03 -0.18455986001E+03  0.26630824621E+03  0.12500000000E+03 0.  0.
</event>
<event>
 4    0  0.2219362E-002  0.2401143E+03  0.7546771E-02  0.1119717E+00
         21   -1    0    0  502  501  0.00000000000E+00  0.00000000000E+00  0.15922940396E+04  0.15922940396E+04  0.00000000000E+00 0. -1.
         21   -1    0    0  501  502 -0.00000000000E+00 -0.00000000000E+00 -0.36208701619E+02  0.36208701619E+02  0.00000000000E+00 0. -1.
         25    1    1    2    0    0  0.18310993470E+03 -0.31226516580E+02  0.48386500804E+03  0.53315540842E+03  0.12500000000E+03 0.  0.
         25    1    1    2    0    0 -0.18310993470E+03  0.31226516580E+02  0.10722203299E+04  0.10953473328E+04  0.12500000000E+03 0.  0.
</event>
<event>
 4    0  0.2219362E-002  0.2300084E+03  0.7546771E-02  0.1126634E+00
         21   -1    0    0  502  501  0.00000000000E+00  0.00000000000E+00  0.28291473308E+03  0.28291473308E+03  0.00000000000E+00 0. -1.
         21   -1    0    0  501  502 -0.00000000000E+00 -0.00000000000E+00 -0.18699574522E+03  0.18699574522E+03  0.00000000000E+00 0. -1.
         25    1    1    2    0    0  0.13280653069E+03 -0.12655789639E+03  0.10945708277E+03  0.24750823966E+03  0.12500000000E+03 0.  0.
         25    1    1    2    0    0 -0.13280653069E+03  0.12655789639E+03 -0.13538094915E+02  0.22240223863E+03  0.12500000000E+03 0.  0.
</event>
<event>
 4    0  0.2219362E-002  0.1970054E+03  0.7546771E-02  0.1152290E+00
         21   -1    0    0  502  501  0.00000000000E+00  0.00000000000E+00  0.44307712297E+03  0.44307712297E+03  0.00000000000E+00 0. -1.
         21   -1    0    0  501  502 -0.00000000000E+00 -0.00000000000E+00 -0.87594556763E+02  0.87594556763E+02  0.00000000000E+00 0. -1.
         25    1    1    2    0    0  0.42058105813E+01  0.13582309519E+03  0.85204662925E+02  0.20334806764E+03  0.12500000000E+03 0.  0.
         25    1    1    2    0    0 -0.42058105813E+01 -0.13582309519E+03  0.27027790328E+03  0.32732361209E+03  0.12500000000E+03 0.  0.
</event>
<event>
 4    0  0.2219362E-002  0.3529426E+03  0.7546771E-02  0.1061414E+00
         21   -1    0    0  502  501  0.00000000000E+00  0.00000000000E+00  0.49078359548E+03  0.49078359548E+03  0.00000000000E+00 0. -1.
         21   -1    0    0  501  502 -0.00000000000E+00 -0.00000000000E+00 -0.25381542278E+03  0.25381542278E+03  0.00000000000E+00 0. -1.
         25    1    1    2    0    0  0.87913083027E+02  0.71937405820E+01  0.45398928964E+03  0.47907383062E+03  0.12500000000E+03 0.  0.
         25    1    1    2    0    0 -0.87913083027E+02 -0.71937405820E+01 -0.21702111695E+03  0.26552518764E+03  0.12500000000E+03 0.  0.
</event>
<event>
 4    0  0.2219362E-002  0.2369338E+03  0.7546771E-02  0.1121852E+00
         21   -1    0    0  502  501  0.00000000000E+00  0.00000000000E+00  0.11953811703E+03  0.11953811703E+03  0.00000000000E+00 0.  1.
         21   -1    0    0  501  502 -0.00000000000E+00 -0.00000000000E+00 -0.46962095459E+03  0.46962095459E+03  0.00000000000E+00 0.  1.
         25    1    1    2    0    0  0.71307138999E+02  0.93302016999E+02 -0.37828424969E+03  0.41534798424E+03  0.12500000000E+03 0.  0.
         25    1    1    2    0    0 -0.71307138999E+02 -0.93302016999E+02  0.28201412130E+02  0.17381108737E+03  0.12500000000E+03 0.  0.
</event>
<event>
 4    0  0.2219362E-002  0.1762605E+03  0.7546771E-02  0.1171472E+00
         21   -1    0    0  502  501  0.00000000000E+00  0.00000000000E+00  0.25471284287E+03  0.25471284287E+03  0.00000000000E+00 0.  1.
         21   -1    0    0  501  502 -0.00000000000E+00 -0.00000000000E+00 -0.12197168739E+03  0.12197168739E+03  0.00000000000E+00 0.  1.
         25    1    1    2    0    0  0.12099541686E+03  0.13432065705E+02  0.93029523964E+02  0.19773670276E+03  0.12500000000E+03 0.  0.
         25    1    1    2    0    0 -0.12099541686E+03 -0.13432065705E+02  0.39711631515E+02  0.17894782750E+03  0.12500000000E+03 0.  0.
</event>
<event>
 4    0  0.2219362E-002  0.1955531E+03  0.7546771E-02  0.1153546E+00
         21   -1    0    0  502  501  0.00000000000E+00  0.00000000000E+00  0.13597736285E+04  0.13597736285E+04  0.00000000000E+00 0. -1.
         21   -1    0    0  501  502 -0.00000000000E+00 -0.00000000000E+00 -0.28123083781E+02  0.28123083781E+02  0.00000000000E+00 0.  1.
         25    1    1    2    0    0 -0.80284056177E+02  0.10700721967E+03  0.42202667193E+03  0.46002998441E+03  0.12500000000E+03 0.  0.
         25    1    1    2    0    0  0.80284056177E+02 -0.10700721967E+03  0.90962387278E+03  0.92786672786E+03  0.12500000000E+03 0.  0.
</event>
<event>
 4    0  0.2219362E-002  0.2419362E+03  0.7546771E-02  0.1118510E+00
         21   -1    0    0  502  501  0.00000000000E+00  0.00000000000E+00  0.12190891836E+04  0.12190891836E+04  0.00000000000E+00 0.  1.
         21   -1    0    0  501  502 -0.00000000000E+00 -0.00000000000E+00 -0.48013809586E+02  0.48013809586E+02  0.00000000000E+00 0.  1.
         25    1    1    2    0    0 -0.15884822489E+03  0.90168978838E+02  0.84137688097E+03  0.87000187306E+03  0.12500000000E+03 0.  0.
         25    1    1    2    0    0  0.15884822489E+03 -0.90168978838E+02  0.32969849308E+03  0.39710112017E+03  0.12500000000E+03 0.  0.
</event>
<event>
 4    0  0.2219362E-002  0.1735747E+03  0.7546771E-02  0.1174171E+00
         21   -1    0    0  502  501  0.00000000000E+00  0.00000000000E+00  0.20215965130E+03  0.20215965130E+03  0.00000000000E+00 0. -1.
         21   -1    0    0  501  502 -0.00000000000E+00 -0.00000000000E+00 -0.14903152142E+03  0.14903152142E+03  0.00000000000E+00 0. -1.
         25    1    1    2    0    0  0.10071619380E+03 -0.25014771549E+02  0.88379260617E+02  0.18494697672E+03  0.12500000000E+03 0.  0.
         25    1    1    2    0    0 -0.10071619380E+03  0.25014771549E+02 -0.35251130737E+02  0.16624419601E+03  0.12500000000E+03 0.  0.
</event>
<event>
 4    0  0.2219362E-002  0.2577433E+03  0.7546771E-02  0.1108507E+00
         21   -1    0    0  502  501  0.00000000000E+00  0.00000000000E+00  0.95782485464E+02  0.95782485464E+02  0.00000000000E+00 0. -1.
         21   -1    0    0  501  502 -0.00000000000E+00 -0.00000000000E+00 -0.69356741008E+03  0.69356741008E+03  0.00000000000E+00 0. -1.
         25    1    1    2    0    0  0.27943240359E+02  0.47291291070E+02 -0.63364015567E+03  0.64818372224E+03  0.12500000000E+03 0.  0.
         25    1    1    2    0    0 -0.27943240359E+02 -0.47291291070E+02  0.35855231054E+02  0.14116617331E+03  0.12500000000E+03 0.  0.
</event>
<event>
 4    0  0.2219362E-002  0.2642180E+03  0.7546771E-02  0.1104635E+00
         21   -1    0    0  502  501  0.00000000000E+00  0.00000000000E+00  0.61180812921E+02  0.61180812921E+02  0.00000000000E+00 0.  1.
         21   -1    0    0  501  502 -0.00000000000E+00 -0.00000000000E+00 -0.11410629446E+04  0.11410629446E+04  0.00000000000E+00 0.  1.
         25    1    1    2    0    0  0.23625720785E+02 -0.95742855139E+02 -0.60217404330E+02  0.17022339668E+03  0.12500000000E+03 0.  0.
         25    1    1    2    0    0 -0.23625720785E+02  0.95742855139E+02 -0.10196647274E+04  0.10320203608E+04  0.12500000000E+03 0.  0.
</event>
<event>
 4    0  0.2219362E-002  0.2722173E+03  0.7546771E-02  0.1100017E+00
         21   -1    0    0  502  501  0.00000000000E+00  0.00000000000E+00  0.11275165358E+03  0.11275165358E+03  0.00000000000E+00 0. -1.
         21   -1    0    0  501  502 -0.00000000000E+00 -0.00000000000E+00 -0.65721639448E+03  0.65721639448E+03  0.00000000000E+00 0. -1.
         25    1    1    2    0    0  0.67953611273E+02 -0.76616633058E+02 -0.58204553303E+03  0.60406109316E+03  0.12500000000E+03 0.  0.
         25    1    1    2    0    0 -0.67953611273E+02  0.76616633058E+02  0.37580792139E+02  0.16590695490E+03  0.12500000000E+03 0.  0.
</event>
<event>
 4    0  0.2219362E-002  0.3187332E+03  0.7546771E-02  0.1076234E+00
         21   -1    0    0  502  501  0.00000000000E+00  0.00000000000E+00  0.26979862536E+03  0.26979862536E+03  0.00000000000E+00 0. -1.
         21   -1    0    0  501  502 -0.00000000000E+00 -0.00000000000E+00 -0.37654331386E+03  0.37654331386E+03  0.00000000000E+00 0. -1.
         25    1    1    2    0    0 -0.17216756683E+03  0.17277184029E+03  0.11160165926E+03  0.29592517672E+03  0.12500000000E+03 0.  0.
         25    1    1    2    0    0  0.17216756683E+03 -0.17277184029E+03 -0.21834634776E+03  0.35041676251E+03  0.12500000000E+03 0.  0.
</event>
<event>
 4    0  0.2219362E-002  0.5077780E+03  0.7546771E-02  0.1011768E+00
         21   -1    0    0  502  501  0.00000000000E+00  0.00000000000E+00  0.21794169901E+03  0.21794169901E+03  0.00000000000E+00 0.  1.
         21   -1    0    0  501  502 -0.00000000000E+00 -0.00000000000E+00 -0.11830619706E+04  0.11830619706E+04  0.00000000000E+00 0. -1.
         25    1    1    2    0    0 -0.47123143869E+03  0.12616502586E+03 -0.57235615403E+03  0.76236031483E+03  0.12500000000E+03 0.  0.
         25    1    1    2    0    0  0.47123143869E+03 -0.12616502586E+03 -0.39276411751E+03  0.63864335475E+03  0.12500000000E+03 0.  0.
</event>
<event>
 4    0  0.2219362E-002  0.5577903E+03  0.7546771E-02  0.9997067E-01
         21   -1    0    0  502  501  0.00000000000E+00  0.00000000000E+00  0.22144442939E+03  0.22144442939E+03  0.00000000000E+00 0. -1.
         21   -1    0    0  501  502 -0.00000000000E+00 -0.00000000000E+00 -0.14050026214E+04  0.14050026214E+04  0.00000000000E+00 0.  1.
         25    1    1    2    0    0  0.52009584465E+03 -0.31784997805E+02 -0.36593973523E+03  0.64888123993E+03  0.12500000000E+03 0.  0.
         25    1    1    2    0    0 -0.52009584465E+03  0.31784997805E+02 -0.81761845674E+03  0.97756581084E+03  0.12500000000E+03 0.  0.
</event>
<event>
 4    0  0.2219362E-002  0.1758624E+03  0.7546771E-02  0.1171869E+00
         21   -1    0    0  502  501  0.00000000000E+00  0.00000000000E+00  0.14389743454E+02  0.14389743454E+02  0.00000000000E+00 0. -1.
         21   -1    0    0  501  502 -0.00000000000E+00 -0.00000000000E+00 -0.21492804598E+04  0.21492804598E+04  0.00000000000E+00 0. -1.
         25    1    1    2    0    0  0.55943862171E+02 -0.91471199081E+02 -0.68794115002E+03  0.70737876832E+03  0.12500000000E+03 0.  0.
         25    1    1    2    0    0 -0.55943862171E+02  0.91471199081E+02 -0.14469495663E+04  0.14562914349E+04  0.12500000000E+03 0.  0.
</event>
<event>
 4    0  0.2219362E-002  0.1704415E+03  0.7546771E-02  0.1177388E+00
         21   -1    0    0  502  501  0.00000000000E+00  0.00000000000E+00  0.48864524312E+03  0.48864524312E+03  0.00000000000E+00 0.  1.
         21   -1    0    0  501  502 -0.00000000000E+00 -0.00000000000E+00 -0.59450697662E+02  0.59450697662E+02  0.00000000000E+00 0.  1.
         25    1    1    2    0    0  0.81217000071E+01 -0.49903745313E+01  0.28928622538E+02  0.12865741740E+03  0.12500000000E+03 0.  0.
         25    1    1    2    0    0 -0.81217000071E+01  0.49903745313E+01  0.40026592292E+03  0.41943852339E+03  0.12500000000E+03 0.  0.
</event>
<event>
 4    0  0.2219362E-002  0.1962341E+03  0.7546771E-02  0.1152956E+00
         21   -1    0    0  502  501  0.00000000000E+00  0.00000000000E+00  0.11914076663E+03  0.11914076663E+03  0.00000000000E+00 0. -1.
         21   -1    0    0  501  502 -0.00000000000E+00 -0.00000000000E+00 -0.32321284897E+03  0.32321284897E+03  0.00000000000E+00 0. -1.
         25    1    1    2    0    0 -0.93285735656E+02  0.10463444381E+03 -0.16611512561E+03  0.25073856956E+03  0.12500000000E+03 0.  0.
         25    1    1    2    0    0  0.93285735656E+02 -0.10463444381E+03 -0.37956956729E+02  0.19161504605E+03  0.12500000000E+03 0.  0.
</event>
<event>
 4    0  0.2219362E-002  0.1909581E+03  0.7546771E-02  0.1157600E+00
         21   -1    0    0  502  501  0.00000000000E+00  0.00000000000E+00  0.23696955667E+03  0.23696955667E+03  0.00000000000E+00 0.  1.
         21   -1    0    0  501  502 -0.00000000000E+00 -0.00000000000E+00 -0.15388053791E+03  0.15388053791E+03  0.00000000000E+00 0.  1.
         25    1    1    2    0    0  0.11096416326E+03 -0.57094432558E+02 -0.32728548989E+02  0.17963568041E+03  0.12500000000E+03 0.  0.
         25    1    1    2    0    0 -0.11096416326E+03  0.57094432558E+02  0.11581756775E+03  0.21121441418E+03  0.12500000000E+03 0.  0.
</event>
<event>
 4    0  0.2219362E-002  0.2150399E+03  0.7546771E-02  0.1137636E+00
         21   -1    0    0  502  501  0.00000000000E+00  0.00000000000E+00  0.41650772315E+02  0.41650772315E+02  0.00000000000E+00 0.  1.
         21   -1    0    0  501  502 -0.00000000000E+00 -0.00000000000E+00 -0.11102351918E+04  0.11102351918E+04  0.00000000000E+00 0.  1.
         25    1    1    2    0    0  0.13656651327E+03 -0.66466129673E+02 -0.76699683422E+03  0.79181898351E+03  0.12500000000E+03 0.  0.
         25    1    1    2    0    0 -0.13656651327E+03  0.66466129673E+02 -0.30158758530E+03  0.36006698064E+03  0.12500000000E+03 0.  0.
</event>
<event>
 4    0  0.2219362E-002  0.1918987E+03  0.7546771E-02  0.1156760E+00
         21   -1    0    0  502  501  0.00000000000E+00  0.00000000000E+00  0.21470242531E+02  0.21470242531E+02  0.00000000000E+00 0. -1.
         21   -1    0    0  501  502 -0.00000000000E+00 -0.00000000000E+00 -0.17151700415E+04  0.17151700415E+04  0.00000000000E+00 0. -1.
         25    1    1    2    0    0  0.50611771569E+02 -0.13245515484E+03 -0.69717270652E+03  0.72234389468E+03  0.12500000000E+03 0.  0.
         25    1    1    2    0    0 -0.50611771569E+02  0.13245515484E+03 -0.99652709243E+03  0.10142963893E+04  0.12500000000E+03 0.  0.
</event>
<event>
 4    0  0.2219362E-002  0.1914518E+03  0.7546771E-02  0.1157158E+00
         21   -1    0    0  502  501  0.00000000000E+00  0.00000000000E+00  0.87977451894E+02  0.87977451894E+02  0.00000000000E+00 0.  1.
         21   -1    0    0  501  502 -0.00000000000E+00 -0.00000000000E+00 -0.41662707232E+03  0.41662707232E+03  0.00000000000E+00 0.  1.
         25    1    1    2    0    0  0.13715528386E+03 -0.21200222724E+02 -0.21973303134E+03  0.28838971271E+03  0.12500000000E+03 0.  0.
         25    1    1    2    0    0 -0.13715528386E+03  0.21200222724E+02 -0.10891658908E+03  0.21621481150E+03  0.12500000000E+03 0.  0.
</event>
<event>
 4    0  0.2219362E-002  0.2064759E+03  0.7546771E-02  0.1144387E+00
         21   -1    0    0  502  501  0.00000000000E+00  0.00000000000E+00  0.66782780634E+03  0.66782780634E+03  0.00000000000E+00 0.  1.
         21   -1    0    0  501  502 -0.00000000000E+00 -0.00000000000E+00 -0.63837276054E+02  0.63837276054E+02  0.00000000000E+00 0.  1.
         25    1    1    2    0    0 -0.28626004540E+02  0.15898447263E+03  0.35549628680E+03  0.40999770804E+03  0.12500000000E+03 0.  0.
         25    1    1    2    0    0  0.28626004540E+02 -0.15898447263E+03  0.24849424348E+03  0.32166737435E+03  0.12500000000E+03 0.  0.
</event>
<event>
 4    0  0.2219362E-002  0.3509723E+03  0.7546771E-02  0.1062217E+00
         21   -1    0    0  502  501  0.00000000000E+00  0.00000000000E+00  0.27514995904E+03  0.27514995904E+03  0.00000000000E+00 0. -1.
         21   -1    0    0  501  502 -0.00000000000E+00 -0.00000000000E+00 -0.44768882746E+03  0.44768882746E+03  0.00000000000E+00 0. -1.
         25    1    1    2    0    0 -0.15845475315E+03  0.10037895843E+03 -0.36329894877E+03  0.42754528446E+03  0.12500000000E+03 0.  0.
         25    1    1    2    0    0  0.15845475315E+03 -0.10037895843E+03  0.19076008035E+03  0.29529350204E+03  0.12500000000E+03 0.  0.
</event>
<event>
 4    0  0.2219362E-002  0.2439685E+03  0.7546771E-02  0.1117177E+00
         21   -1    0    0  502  501  0.00000000000E+00  0.00000000000E+00  0.89265724347E+02  0.89265724347E+02  0.00000000000E+00 0. -1.
         21   -1    0    0  501  502 -0.00000000000E+00 -0.00000000000E+00 -0.66678050074E+03  0.66678050074E+03  0.00000000000E+00 0. -1.
         25    1    1    2    0    0  0.90900327544E+01 -0.45021137357E+02 -0.60549564925E+03  0.61996734814E+03  0.12500000000E+03 0.  0.
         25    1    1    2    0    0 -0.90900327544E+01  0.45021137357E+02  0.27980872856E+02  0.13607887694E+03  0.12500000000E+03 0.  0.
</event>
<event>
 4    0  0.2219362E-002  0.2582478E+03  0.7546771E-02  0.1108201E+00
         21   -1    0    0  502  501  0.00000000000E+00  0.00000000000E+00  0.29619629703E+03  0.29619629703E+03  0.00000000000E+00 0. -1.
         21   -1    0    0  501  502 -0.00000000000E+00 -0.00000000000E+00 -0.22516120555E+03  0.22516120555E+03  0.00000000000E+00 0. -1.
         25    1    1    2    0    0 -0.90130239833E+02  0.17844022107E+03 -0.70842927956E+02  0.24618710987E+03  0.12500000000E+03 0.  0.
         25    1    1    2    0    0  0.90130239833E+02 -0.17844022107E+03  0.14187801944E+03  0.27517039271E+03  0.12500000000E+03 0.  0.
</event>
<event>
 4    0  0.2219362E-002  0.3545967E+03  0.7546771E-02  0.1060744E+00
         21   -1    0    0  502  501  0.00000000000E+00  0.00000000000E+00  0.13201019329E+04  0.13201019329E+04  0.00000000000E+00 0. -1.
         21   -1    0    0  501  502 -0.00000000000E+00 -0.00000000000E+00 -0.95249347820E+02  0.95249347820E+02  0.00000000000E+00 0. -1.
         25    1    1    2    0    0 -0.20057496234E+03  0.25956403225E+03  0.51244003074E+03  0.62114699344E+03  0.12500000000E+03 0.  0.
         25    1    1    2    0    0  0.20057496234E+03 -0.25956403225E+03  0.71241255435E+03  0.79420428729E+03  0.12500000000E+03 0.  0.
</event>
<event>
 4    0  0.2219362E-002  0.1803078E+03  0.7546771E-02  0.1167505E+00
         21   -1    0    0  502  501  0.00000000000E+00  0.00000000000E+00  0.22155573881E+03  0.22155573881E+03  0.00000000000E+00 0. -1.
         21   -1    0    0  501  502 -0.00000000000E+00 -0.00000000000E+00 -0.14673923393E+03  0.14673923393E+03  0.00000000000E+00 0. -1.
         25    1    1    2    0    0 -0.85727420254E+02  0.62647876699E+02  0.11391661913E+03  0.19968961704E+03  0.12500000000E+03 0.  0.
         25    1    1    2    0    0  0.85727420254E+02 -0.62647876699E+02 -0.39100114253E+02  0.16860535571E+03  0.12500000000E+03 0.  0.
</event>
<event>
 4    0  0.2219362E-002  0.2314218E+03  0.7546771E-02  0.1125643E+00
         21   -1    0    0  502  501  0.00000000000E+00  0.00000000000E+00  0.92797036382E+02  0.92797036382E+02  0.00000000000E+00 0.  1.
         21   -1    0    0  501  502 -0.00000000000E+00 -0.00000000000E+00 -0.57713109458E+03  0.57713109458E+03  0.00000000000E+00 0.  1.
         25    1    1    2    0    0  0.75126819651E+02  0.69047705618E+02 -0.20551481475E+01  0.16137177051E+03  0.12500000000E+03 0.  0.
         25    1    1    2    0    0 -0.75126819651E+02 -0.69047705618E+02 -0.48227891005E+03  0.50855636046E+03  0.12500000000E+03 0.  0.
</event>
<event>
 4    0  0.2219362E-002  0.2602969E+03  0.7546771E-02  0.1106965E+00
         21   -1    0    0  502  501  0.00000000000E+00  0.00000000000E+00  0.62759947493E+02  0.62759947493E+02  0.00000000000E+00 0. -1.
         21   -1    0    0  501  502 -0.00000000000E+00 -0.00000000000E+00 -0.10795814080E+04  0.10795814080E+04  0.00000000000E+00 0. -1.
         25    1    1    2    0    0 -0.58828601009E+01  0.22628940261E+03 -0.44302300349E+03  0.51296772160E+03  0.12500000000E+03 0.  0.
         25    1    1    2    0    0  0.58828601009E+01 -0.22628940261E+03 -0.57379845703E+03  0.62937363391E+03  0.12500000000E+03 0.  0.
</event>
<event>
 4    0  0.2219362E-002  0.2794687E+03  0.7546771E-02  0.1095979E+00
         21   -1    0    0  502  501  0.00000000000E+00  0.00000000000E+00  0.27694146800E+03  0.27694146800E+03  0.00000000000E+00 0.  1.
         21   -1    0    0  501  502 -0.00000000000E+00 -0.00000000000E+00 -0.28201903760E+03  0.28201903760E+03  0.00000000000E+00 0.  1.
         25    1    1    2    0    0  0.87959687868E+02 -0.14209590208E+03  0.18334414988E+03  0.27779170141E+03  0.12500000000E+03 0.  0.
         25    1    1    2    0    0 -0.87959687868E+02  0.14209590208E+03 -0.18842171948E+03  0.28116880419E+03  0.12500000000E+03 0.  0.
</event>
<event>
 4    0  0.2219362E-002  0.1933809E+03  0.7546771E-02  0.1155447E+00
         21   -1    0    0  502  501  0.00000000000E+00  0.00000000000E+00  0.46372776155E+03  0.46372776155E+03  0.00000000000E+00 0. -1.
         21   -1    0    0  501  502 -0.00000000000E+00 -0.00000000000E+00 -0.80642497066E+02  0.80642497066E+02  0.00000000000E+00 0. -1.
         25    1    1    2    0    0 -0.12652924229E+03  0.54065080810E+02  0.26653101292E+03  0.32495609391E+03  0.12500000000E+03 0.  0.
         25    1    1    2    0    0  0.12652924229E+03 -0.54065080810E+02  0.11655425156E+03  0.21941416470E+03  0.12500000000E+03 0.  0.
</event>
<event>
 4    0  0.2219362E-002  0.2090935E+03  0.7546771E-02  0.1142286E+00
         21   -1    0    0  502  501  0.00000000000E+00  0.00000000000E+00  0.99688408322E+03  0.99688408322E+03  0.00000000000E+00 0. -1.
         21   -1    0    0  501  502 -0.00000000000E+00 -0.00000000000E+00 -0.43856753142E+02  0.43856753142E+02  0.00000000000E+00 0. -1.
         25    1    1    2    0    0 -0.11910870708E+03 -0.11769856352E+03  0.45801288629E+03  0.50342888273E+03  0.12500000000E+03 0.  0.
         25    1    1    2    0    0  0.11910870708E+03  0.11769856352E+03  0.49501444379E+03  0.53731195363E+03  0.12500000000E+03 0.  0.
</event>
<event>
 4    0  0.2219362E-002  0.2218222E+03  0.7546771E-02  0.1132532E+00
         21   -1    0    0  502  501  0.00000000000E+00  0.00000000000E+00  0.79485320764E+02  0.79485320764E+02  0.00000000000E+00 0. -1.
         21   -1    0    0  501  502 -0.00000000000E+00 -0.00000000000E+00 -0.61904621189E+03  0.61904621189E+03  0.00000000000E+00 0. -1.
         25    1    1    2    0    0 -0.12813172297E+03  0.85990858849E+02 -0.42539566765E+03  0.46946633563E+03  0.12500000000E+03 0.  0.
         25    1    1    2    0    0  0.12813172297E+03 -0.85990858849E+02 -0.11416522348E+03  0.22906519703E+03  0.12500000000E+03 0.  0.
</event>
<event>
 4    0  0.2219362E-002  0.2041508E+03  0.7546771E-02  0.1146283E+00
         21   -1    0    0  502  501  0.00000000000E+00  0.00000000000E+00  0.56123796548E+03  0.56123796548E+03  0.00000000000E+00 0. -1.
         21   -1    0    0  501  502 -0.00000000000E+00 -0.00000000000E+00 -0.74260028171E+02  0.74260028171E+02  0.00000000000E+00 0. -1.
         25    1    1    2    0    0  0.10846560334E+03 -0.32420319505E+02  0.64419025814E+02  0.18052887612E+03  0.12500000000E+03 0.  0.
         25    1    1    2    0    0 -0.10846560334E+03  0.32420319505E+02  0.42255891150E+03  0.45496911754E+03  0.12500000000E+03 0.  0.
</event>
<event>
 4    0  0.2219362E-002  0.2331704E+03  0.7546771E-02  0.1124428E+00
         21   -1    0    0  502  501  0.00000000000E+00  0.00000000000E+00  0.20031435541E+02  0.20031435541E+02  0.00000000000E+00 0.  1.
         21   -1    0    0  501  502 -0.00000000000E+00 -0.00000000000E+00 -0.27141561150E+04  0.27141561150E+04  0.00000000000E+00 0.  1.
         25    1    1    2    0    0  0.18291394795E+03  0.61884138819E+02 -0.15708045564E+04  0.15875575937E+04  0.12500000000E+03 0.  0.
         25    1    1    2    0    0 -0.18291394795E+03 -0.61884138819E+02 -0.11233201231E+04  0.11466299569E+04  0.12500000000E+03 0.  0.
</event>
<event>
 4    0  0.2219362E-002  0.2683206E+03  0.7546771E-02  0.1102245E+00
         21   -1    0    0  502  501  0.00000000000E+00  0.00000000000E+00  0.24251065125E+03  0.24251065125E+03  0.00000000000E+00 0. -1.
         21   -1    0    0  501  502 -0.00000000000E+00 -0.00000000000E+00 -0.29687737771E+03  0.29687737771E+03  0.00000000000E+00 0. -1.
         25    1    1    2    0    0 -0.16700434139E+02  0.21521181858E+03 -0.12656258861E+03  0.27971077954E+03  0.12500000000E+03 0.  0.
         25    1    1    2    0    0  0.16700434139E+02 -0.21521181858E+03  0.72195862146E+02  0.25967724942E+03  0.12500000000E+03 0.  0.
</event>
<event>
 4    0  0.2219362E-002  0.2353752E+03  0.7546771E-02  0.1122913E+00
         21   -1    0    0  502  501  0.00000000000E+00  0.00000000000E+00  0.21411735678E+03  0.21411735678E+03  0.00000000000E+00 0.  1.
         21   -1    0    0  501  502 -0.00000000000E+00 -0.00000000000E+00 -0.25874347647E+03  0.25874347647E+03  0.00000000000E+00 0.  1.
         25    1    1    2    0    0  0.13246896386E+03 -0.48299175576E+02 -0.16399731180E+03  0.24980183151E+03  0.12500000000E+03 0.  0.
         25    1    1    2    0    0 -0.13246896386E+03  0.48299175576E+02  0.11937119211E+03  0.22305900173E+03  0.12500000000E+03 0.  0.
</event>
<event>
 4    0  0.2219362E-002  0.2113733E+03  0.7546771E-02  0.1140483E+00
         21   -1    0    0  502  501  0.00000000000E+00  0.00000000000E+00  0.17609059448E+04  0.17609059448E+04  0.00000000000E+00 0. -1.
         21   -1    0    0  501  502 -0.00000000000E+00 -0.00000000000E+00 -0.25372537092E+02  0.25372537092E+02  0.00000000000E+00 0. -1.
         25    1    1    2    0    0  0.13665006066E+03  0.39485134718E+02  0.12646257978E+04  0.12787242562E+04  0.12500000000E+03 0.  0.
         25    1    1    2    0    0 -0.13665006066E+03 -0.39485134718E+02  0.47090760984E+03  0.50755422562E+03  0.12500000000E+03 0.  0.
</event>
<event>
 4    0  0.2219362E-002  0.1664830E+03  0.7546771E-02  0.1181566E+00
         21   -1    0    0  502  501  0.00000000000E+00  0.00000000000E+00  0.25643797167E+02  0.25643797167E+02  0.00000000000E+00 0.  1.
         21   -1    0    0  501  502 -0.00000000000E+00 -0.00000000000E+00 -0.10808295361E+04  0.10808295361E+04  0.00000000000E+00 0.  1.
         25    1    1    2    0    0  0.56944708466E+02  0.85530121892E+02 -0.39746237278E+03  0.42913801900E+03  0.12500000000E+03 0.  0.
         25    1    1    2    0    0 -0.56944708466E+02 -0.85530121892E+02 -0.65772336614E+03  0.67733531425E+03  0.12500000000E+03 0.  0.
</event>
<event>
 4    0  0.2219362E-002  0.3967402E+03  0.7546771E-02  0.1044914E+00
         21   -1    0    0  502  501  0.00000000000E+00  0.00000000000E+00  0.73226199155E+03  0.73226199155E+03  0.00000000000E+00 0. -1.
         21   -1    0    0  501  502 -0.00000000000E+00 -0.00000000000E+00 -0.21495424620E+03  0.21495424620E+03  0.00000000000E+00 0. -1.
         25    1    1    2    0    0  0.21995703120E+03  0.11783316581E+03  0.59526573666E+03  0.65744357004E+03  0.12500000000E+03 0.  0.
         25    1    1    2    0    0 -0.21995703120E+03 -0.11783316581E+03 -0.77957991319E+02  0.28977266771E+03  0.12500000000E+03 0.  0.
</event>
<event>
 4    0  0.2219362E-002  0.2521181E+03  0.7546771E-02  0.1111973E+00
         21   -1    0    0  502  501  0.00000000000E+00  0.00000000000E+00  0.11165835783E+03  0.11165835783E+03  0.00000000000E+00 0. -1.
         21   -1    0    0  501  502 -0.00000000000E+00 -0.00000000000E+00 -0.56926826304E+03  0.56926826304E+03  0.00000000000E+00 0. -1.
         25    1    1    2    0    0 -0.18624896761E+03 -0.78002893140E+01 -0.38389101020E+03  0.44468733978E+03  0.12500000000E+03 0.  0.
         25    1    1    2    0    0  0.18624896761E+03  0.78002893140E+01 -0.73718895011E+02  0.23623928109E+03  0.12500000000E+03 0.  0.
</event>
<event>
 4    0  0.2219362E-002  0.1853659E+03  0.7546771E-02  0.1162709E+00
         21   -1    0    0  502  501  0.00000000000E+00  0.00000000000E+00  0.30947181750E+03  0.30947181750E+03  0.00000000000E+00 0. -1.
         21   -1    0    0  501  502 -0.00000000000E+00 -0.00000000000E+00 -0.11102960657E+03  0.11102960657E+03  0.00000000000E+00 0. -1.
         25    1    1    2    0    0  0.10091183171E+03  0.61731201662E+01 -0.54387629011E+01  0.16085983132E+03  0.12500000000E+03 0.  0.
         25    1    1    2    0    0 -0.10091183171E+03 -0.61731201662E+01  0.20388097383E+03  0.25964159274E+03  0.12500000000E+03 0.  0.
</event>
<event>
 4    0  0.2219362E-002  0.3736124E+03  0.7546771E-02  0.1053320E+00
         21   -1    0    0  502  501  0.00000000000E+00  0.00000000000E+00  0.10273205448E+03  0.10273205448E+03  0.00000000000E+00 0. -1.
         21   -1    0    0  501  502 -0.00000000000E+00 -0.00000000000E+00 -0.13587406961E+04  0.13587406961E+04  0.00000000000E+00 0. -1.
         25    1    1    2    0    0  0.20804588815E+03 -0.16185417515E+03 -0.10845281054E+04  0.11230788383E+04  0.12500000000E+03 0.  0.
         25    1    1    2    0    0 -0.20804588815E+03  0.16185417515E+03 -0.17148053623E+03  0.33839391232E+03  0.12500000000E+03 0.  0.
</event>
<event>
 4    0  0.2219362E-002  0.2331833E+03  0.7546771E-02  0.1124419E+00
         21   -1    0    0  502  501  0.00000000000E+00  0.00000000000E+00  0.98158147870E+02  0.98158147870E+02  0.00000000000E+00 0.  1.
         21   -1    0    0  501  502 -0.00000000000E+00 -0.00000000000E+00 -0.55394749471E+03  0.55394749471E+03  0.00000000000E+00 0.  1.
         25    1    1    2    0    0  0.13976829781E+03 -0.13174491550E+03 -0.28815922644E+03  0.36817474060E+03  0.12500000000E+03 0.  0.
         25    1    1    2    0    0 -0.13976829781E+03  0.13174491550E+03 -0.16763012040E+03  0.28393090198E+03  0.12500000000E+03 0.  0.
</event>
<event>
 4    0  0.2219362E-002  0.2190712E+03  0.7546771E-02  0.1134577E+00
         21   -1    0    0  502  501  0.00000000000E+00  0.00000000000E+00  0.60502659242E+02  0.60502659242E+02  0.00000000000E+00 0. -1.
         21   -1    0    0  501  502 -0.00000000000E+00 -0.00000000000E+00 -0.79322436453E+03  0.79322436453E+03  0.00000000000E+00 0. -1.
         25    1    1    2    0    0 -0.15576546246E+03 -0.77223145210E+02 -0.45651816430E+03  0.50424213210E+03  0.12500000000E+03 0.  0.
         25    1    1    2    0    0  0.15576546246E+03  0.77223145210E+02 -0.27620354098E+03  0.34948489167E+03  0.12500000000E+03 0.  0.
</event>
<event>
 4    0  0.2219362E-002  0.1993312E+03  0.7546771E-02  0.1150305E+00
         21   -1    0    0  502  501  0.00000000000E+00  0.00000000000E+00  0.55844263177E+02  0.55844263177E+02  0.00000000000E+00 0. -1.
         21   -1    0    0  501  502 -0.00000000000E+00 -0.00000000000E+00 -0.71149510142E+03  0.71149510142E+03  0.00000000000E+00 0. -1.
         25    1    1    2    0    0  0.12610558437E+03 -0.73628657758E+01 -0.50160152998E+03  0.53215216347E+03  0.12500000000E+03 0.  0.
         25    1    1    2    0    0 -0.12610558437E+03  0.73628657758E+01 -0.15404930826E+03  0.23518720113E+03  0.12500000000E+03 0.  0.
</event>
<event>
 4    0  0.2219362E-002  0.2073865E+03  0.7546771E-02  0.1143652E+00
         21   -1    0    0  502  501  0.00000000000E+00  0.00000000000E+00  0.43075816823E+03  0.43075816823E+03  0.00000000000E+00 0. -1.
         21   -1    0    0  501  502 -0.00000000000E+00 -0.00000000000E+00 -0.99845241110E+02  0.99845241110E+02  0.00000000000E+00 0. -1.
         25    1    1    2    0    0 -0.30495021339E+01 -0.15615897699E+03  0.95514296014E+02  0.22168199363E+03  0.12500000000E+03 0.  0.
         25    1    1    2    0    0  0.30495021339E+01  0.15615897699E+03  0.23539863111E+03  0.30892141571E+03  0.12500000000E+03 0.  0.
</event>
<event>
 4    0  0.2219362E-002  0.2381235E+03  0.7546771E-02  0.1121049E+00
         21   -1    0    0  502  501  0.00000000000E+00  0.00000000000E+00  0.95040295517E+02  0.95040295517E+02  0.00000000000E+00 0.  1.
         21   -1    0    0  501  502 -0.00000000000E+00 -0.00000000000E+00 -0.59661853701E+03  0.59661853701E+03  0.00000000000E+00 0.  1.
         25    1    1    2    0    0 -0.48979247469E+02 -0.12720224553E+03 -0.32950077504E+02  0.18785655580E+03  0.12500000000E+03 0.  0.
         25    1    1    2    0    0  0.48979247469E+02  0.12720224553E+03 -0.46862816398E+03  0.50380227672E+03  0.12500000000E+03 0.  0.
</event>
<event>
 4    0  0.2219362E-002  0.1887826E+03  0.7546771E-02  0.1159564E+00
         21   -1    0    0  502  501  0.00000000000E+00  0.00000000000E+00  0.19919376753E+04  0.19919376753E+04  0.00000000000E+00 0. -1.
         21   -1    0    0  501  502 -0.00000000000E+00 -0.00000000000E+00 -0.17891550140E+02  0.17891550140E+02  0.00000000000E+00 0. -1.
         25    1    1    2    0    0  0.74923139512E+02  0.64149479482E+02  0.44717182476E+03  0.47467491340E+03  0.12500000000E+03 0.  0.
         25    1    1    2    0    0 -0.74923139512E+02 -0.64149479482E+02  0.15268743004E+04  0.15351543120E+04  0.12500000000E+03 0.  0.
</event>
<event>
 4    0  0.2219362E-002  0.3009666E+03  0.7546771E-02  0.1084758E+00
         21   -1    0    0  502  501  0.00000000000E+00  0.00000000000E+00  0.12955415415E+04  0.12955415415E+04  0.00000000000E+00 0.  1.
         21   -1    0    0  501  502 -0.00000000000E+00 -0.00000000000E+00 -0.69917395418E+02  0.69917395418E+02  0.00000000000E+00 0.  1.
         25    1    1    2    0    0  0.19999395117E+02 -0.12207856979E+03  0.58766429297E+02  0.18542288483E+03  0.12500000000E+03 0.  0.
         25    1    1    2    0    0 -0.19999395117E+02  0.12207856979E+03  0.11668577168E+04  0.11800360521E+04  0.12500000000E+03 0.  0.
</event>
<event>
 4    0  0.2219362E-002  0.2609461E+03  0.7546771E-02  0.1106576E+00
         21   -1    0    0  502  501  0.00000000000E+00  0.00000000000E+00  0.72747471178E+03  0.72747471178E+03  0.00000000000E+00 0.  1.
         21   -1    0    0  501  502 -0.00000000000E+00 -0.00000000000E+00 -0.93601672072E+02  0.93601672072E+02  0.00000000000E+00 0.  1.
         25    1    1    2    0    0 -0.11277773544E+02 -0.18162313812E+03  0.98067254961E+02  0.24157056728E+03  0.12500000000E+03 0.  0.
         25    1    1    2    0    0  0.11277773544E+02  0.18162313812E+03  0.53580578474E+03  0.57950581657E+03  0.12500000000E+03 0.  0.
</event>
<event>
 4    0  0.2219362E-002  0.2942382E+03  0.7546771E-02  0.1088157E+00
         21   -1    0    0  502  501  0.00000000000E+00  0.00000000000E+00  0.34556956276E+03  0.34556956276E+03  0.00000000000E+00 0. -1.
         21   -1    0    0  501  502 -0.00000000000E+00 -0.00000000000E+00 -0.25053174585E+03  0.25053174585E+03  0.00000000000E+00 0.  1.
         25    1    1    2    0    0 -0.24780394507E+03  0.91911610582E+02  0.13974791255E+02  0.29270263774E+03  0.12500000000E+03 0.  0.
         25    1    1    2    0    0  0.24780394507E+03 -0.91911610582E+02  0.81063025657E+02  0.30339867086E+03  0.12500000000E+03 0.  0.
</event>
<event>
 4    0  0.2219362E-002  0.1941889E+03  0.7546771E-02  0.1154737E+00
         21   -1    0    0  502  501  0.00000000000E+00  0.00000000000E+00  0.11512052018E+04  0.11512052018E+04  0.00000000000E+00 0.  1.
         21   -1    0    0  501  502 -0.00000000000E+00 -0.00000000000E+00 -0.32756379241E+02  0.32756379241E+02  0.00000000000E+00 0.  1.
         25    1    1    2    0    0  0.66845082288E+02 -0.41478200493E+02  0.94356997262E+03  0.95505916014E+03  0.12500000000E+03 0.  0.
         25    1    1    2    0    0 -0.66845082288E+02  0.41478200493E+02  0.17487884998E+03  0.22890242094E+03  0.12500000000E+03 0.  0.
</event>
<event>
 4    0  0.2219362E-002  0.2764552E+03  0.7546771E-02  0.1097641E+00
         21   -1    0    0  502  501  0.00000000000E+00  0.00000000000E+00  0.55248651308E+02  0.55248651308E+02  0.00000000000E+00 0. -1.
         21   -1    0    0  501  502 -0.00000000000E+00 -0.00000000000E+00 -0.13833362743E+04  0.13833362743E+04  0.00000000000E+00 0. -1.
         25    1    1    2    0    0 -0.19138162217E+03  0.89909575641E+02 -0.99409643215E+03  0.10239938347E+04  0.12500000000E+03 0.  0.
         25    1    1    2    0    0  0.19138162217E+03 -0.89909575641E+02 -0.33399119084E+03  0.41459109090E+03  0.12500000000E+03 0.  0.
</event>
<event>
 4    0  0.2219362E-002  0.2308761E+03  0.7546771E-02  0.1126025E+00
         21   -1    0    0  502  501  0.00000000000E+00  0.00000000000E+00  0.64165444428E+02  0.64165444428E+02  0.00000000000E+00 0. -1.
         21   -1    0    0  501  502 -0.00000000000E+00 -0.00000000000E+00 -0.83072375046E+03  0.83072375046E+03  0.00000000000E+00 0. -1.
         25    1    1    2    0    0 -0.12111250912E+03  0.52040836328E+02 -0.10713703424E+03  0.21090242440E+03  0.12500000000E+03 0.  0.
         25    1    1    2    0    0  0.12111250912E+03 -0.52040836328E+02 -0.65942127179E+03  0.68398677049E+03  0.12500000000E+03 0.  0.
</event>
<event>
 4    0  0.2219362E-002  0.2295469E+03  0.7546771E-02  0.1126959E+00
         21   -1    0    0  502  501  0.00000000000E+00  0.00000000000E+00  0.11543641161E+03  0.11543641161E+03  0.00000000000E+00 0.  1.
         21   -1    0    0  501  502 -0.00000000000E+00 -0.00000000000E+00 -0.45645710964E+03  0.45645710964E+03  0.00000000000E+00 0.  1.
         25    1    1    2    0    0 -0.15708466523E+03  0.11112986093E+03 -0.16250166893E+03  0.28117117641E+03  0.12500000000E+03 0.  0.
         25    1    1    2    0    0  0.15708466523E+03 -0.11112986093E+03 -0.17851902910E+03  0.29072234484E+03  0.12500000000E+03 0.  0.
</event>
<event>
 4    0  0.2219362E-002  0.2302308E+03  0.7546771E-02  0.1126477E+00
         21   -1    0    0  502  501  0.00000000000E+00  0.00000000000E+00  0.11124322832E+03  0.11124322832E+03  0.00000000000E+00 0. -1.
         21   -1    0    0  501  502 -0.00000000000E+00 -0.00000000000E+00 -0.47648938785E+03  0.47648938785E+03  0.00000000000E+00 0. -1.
         25    1    1    2    0    0 -0.10194311466E+03 -0.52941449164E+02  0.15880622580E+02  0.17050627507E+03  0.12500000000E+03 0.  0.
         25    1    1    2    0    0  0.10194311466E+03  0.52941449164E+02 -0.38112678211E+03  0.41722634110E+03  0.12500000000E+03 0.  0.
</event>
<event>
 4    0  0.2219362E-002  0.1810397E+03  0.7546771E-02  0.1166801E+00
         21   -1    0    0  502  501  0.00000000000E+00  0.00000000000E+00  0.12992150056E+04  0.12992150056E+04  0.00000000000E+00 0. -1.
         21   -1    0    0  501  502 -0.00000000000E+00 -0.00000000000E+00 -0.25227062743E+02  0.25227062743E+02  0.00000000000E+00 0. -1.
         25    1    1    2    0    0 -0.40760463614E+02 -0.12067764479E+03  0.74829621347E+03  0.76928325891E+03  0.12500000000E+03 0.  0.
         25    1    1    2    0    0  0.40760463614E+02  0.12067764479E+03  0.52569172939E+03  0.55515880943E+03  0.12500000000E+03 0.  0.
</event>
<event>
 4    0  0.2219362E-002  0.2945748E+03  0.7546771E-02  0.1087984E+00
         21   -1    0    0  502  501  0.00000000000E+00  0.00000000000E+00  0.15484096027E+04  0.15484096027E+04  0.00000000000E+00 0. -1.
         21   -1    0    0  501  502 -0.00000000000E+00 -0.00000000000E+00 -0.56040939648E+02  0.56040939648E+02  0.00000000000E+00 0. -1.
         25    1    1    2    0    0 -0.20062556294E+02  0.19012793495E+03  0.12527402619E+04  0.12733947941E+04  0.12500000000E+03 0.  0.
         25    1    1    2    0    0  0.20062556294E+02 -0.19012793495E+03  0.23962840112E+03  0.33105574823E+03  0.12500000000E+03 0.  0.
</event>
<event>
 4    0  0.2219362E-002  0.2704855E+03  0.7546771E-02  0.1101002E+00
         21   -1    0    0  502  501  0.00000000000E+00  0.00000000000E+00  0.21014971961E+03  0.21014971961E+03  0.00000000000E+00 0.  1.
         21   -1    0    0  501  502 -0.00000000000E+00 -0.00000000000E+00 -0.34814418135E+03  0.34814418135E+03  0.00000000000E+00 0.  1.
         25    1    1    2    0    0  0.47658800708E+02  0.16492010153E+03  0.10390078479E+03  0.23641145119E+03  0.12500000000E+03 0.  0.
         25    1    1    2    0    0 -0.47658800708E+02 -0.16492010153E+03 -0.24189524654E+03  0.32188244977E+03  0.12500000000E+03 0.  0.
</event>
<event>
 4    0  0.2219362E-002  0.6760078E+03  0.7546771E-02  0.9759165E-01
         21   -1    0    0  502  501  0.00000000000E+00  0.00000000000E+00  0.31531634551E+03  0.31531634551E+03  0.00000000000E+00 0. -1.
         21   -1    0    0  501  502 -0.00000000000E+00 -0.00000000000E+00 -0.14492953042E+04  0.14492953042E+04  0.00000000000E+00 0.  1.
         25    1    1    2    0    0  0.51045425622E+03  0.39571278450E+03 -0.77006565058E+03  0.10128071197E+04  0.12500000000E+03 0.  0.
         25    1    1    2    0    0 -0.51045425622E+03 -0.39571278450E+03 -0.36391330808E+03  0.75180452998E+03  0.12500000000E+03 0.  0.
</event>
<event>
 4    0  0.2219362E-002  0.1923150E+03  0.7546771E-02  0.1156390E+00
         21   -1    0    0  502  501  0.00000000000E+00  0.00000000000E+00  0.67534898386E+02  0.67534898386E+02  0.00000000000E+00 0. -1.
         21   -1    0    0  501  502 -0.00000000000E+00 -0.00000000000E+00 -0.54764368509E+03  0.54764368509E+03  0.00000000000E+00 0. -1.
         25    1    1    2    0    0  0.35769117220E+02 -0.12597118929E+03 -0.13625457998E+03  0.22657996567E+03  0.12500000000E+03 0.  0.
         25    1    1    2    0    0 -0.35769117220E+02  0.12597118929E+03 -0.34385420673E+03  0.38859861781E+03  0.12500000000E+03 0.  0.
</event>
<event>
 4    0  0.2219362E-002  0.3331535E+03  0.7546771E-02  0.1069750E+00
         21   -1    0    0  502  501  0.00000000000E+00  0.00000000000E+00  0.10796607632E+03  0.10796607632E+03  0.00000000000E+00 0.  1.
         21   -1    0    0  501  502 -0.00000000000E+00 -0.00000000000E+00 -0.10280199995E+04  0.10280199995E+04  0.00000000000E+00 0.  1.
         25    1    1    2    0    0  0.22149066124E+03  0.11630663538E+02 -0.93680375158E+02  0.27128287458E+03  0.12500000000E+03 0.  0.
         25    1    1    2    0    0 -0.22149066124E+03 -0.11630663538E+02 -0.82637354802E+03  0.86470320124E+03  0.12500000000E+03 0.  0.
</event>
<event>
 4    0  0.2219362E-002  0.3693578E+03  0.7546771E-02  0.1054939E+00
         21   -1    0    0  502  501  0.00000000000E+00  0.00000000000E+00  0.82493972215E+03  0.82493972215E+03  0.00000000000E+00 0.  1.
         21   -1    0    0  501  502 -0.00000000000E+00 -0.00000000000E+00 -0.16537598537E+03  0.16537598537E+03  0.00000000000E+00 0.  1.
         25    1    1    2    0    0 -0.19723650257E+03 -0.19608957033E+03  0.50350248728E+02  0.30905259275E+03  0.12500000000E+03 0.  0.
         25    1    1    2    0    0  0.19723650257E+03  0.19608957033E+03  0.60921348805E+03  0.68126311478E+03  0.12500000000E+03 0.  0.
</event>
<event>
 4    0  0.2219362E-002  0.2275272E+03  0.7546771E-02  0.1128392E+00
         21   -1    0    0  502  501  0.00000000000E+00  0.00000000000E+00  0.86860154861E+02  0.86860154861E+02  0.00000000000E+00 0.  1.
         21   -1    0    0  501  502 -0.00000000000E+00 -0.00000000000E+00 -0.59599991356E+03  0.59599991356E+03  0.00000000000E+00 0.  1.
         25    1    1    2    0    0  0.13915512052E+02  0.18001582735E+03 -0.16523236178E+03  0.27482007378E+03  0.12500000000E+03 0.  0.
         25    1    1    2    0    0 -0.13915512052E+02 -0.18001582735E+03 -0.34390739691E+03  0.40803999464E+03  0.12500000000E+03 0.  0.
</event>
<event>
 4    0  0.2219362E-002  0.1812546E+03  0.7546771E-02  0.1166594E+00
         21   -1    0    0  502  501  0.00000000000E+00  0.00000000000E+00  0.29655073772E+03  0.29655073772E+03  0.00000000000E+00 0. -1.
         21   -1    0    0  501  502 -0.00000000000E+00 -0.00000000000E+00 -0.11078447172E+03  0.11078447172E+03  0.00000000000E+00 0. -1.
         25    1    1    2    0    0  0.10966427739E+03  0.69382144055E+02  0.70747380506E+02  0.19357253808E+03  0.12500000000E+03 0.  0.
         25    1    1    2    0    0 -0.10966427739E+03 -0.69382144055E+02  0.11501888549E+03  0.21376267136E+03  0.12500000000E+03 0.  0.
</event>
<event>
 4    0  0.2219362E-002  0.2971508E+03  0.7546771E-02  0.1086674E+00
         21   -1    0    0  502  501  0.00000000000E+00  0.00000000000E+00  0.33647423386E+03  0.33647423386E+03  0.00000000000E+00 0. -1.
         21   -1    0    0  501  502 -0.00000000000E+00 -0.00000000000E+00 -0.26242298924E+03  0.26242298924E+03  0.00000000000E+00 0. -1.
         25    1    1    2    0    0  0.16172783251E+03 -0.18809027015E+03  0.14338672802E+03  0.31259973657E+03  0.12500000000E+03 0.  0.
         25    1    1    2    0    0 -0.16172783251E+03  0.18809027015E+03 -0.69335483402E+02  0.28629748653E+03  0.12500000000E+03 0.  0.
</event>
<event>
 4    0  0.2219362E-002  0.2375814E+03  0.7546771E-02  0.1121415E+00
         21   -1    0    0  502  501  0.00000000000E+00  0.00000000000E+00  0.29366397038E+03  0.29366397038E+03  0.00000000000E+00 0.  1.
         21   -1    0    0  501  502 -0.00000000000E+00 -0.00000000000E+00 -0.19220917598E+03  0.19220917598E+03  0.00000000000E+00 0.  1.
         25    1    1    2    0    0 -0.16102766781E+03  0.52415532695E+02 -0.61949937804E+02  0.21940850635E+03  0.12500000000E+03 0.  0.
         25    1    1    2    0    0  0.16102766781E+03 -0.52415532695E+02  0.16340473221E+03  0.26646464001E+03  0.12500000000E+03 0.  0.
</event>
<event>
 4    0  0.2219362E-002  0.2008598E+03  0.7546771E-02  0.1149016E+00
         21   -1    0    0  502  501  0.00000000000E+00  0.00000000000E+00  0.17459489560E+03  0.17459489560E+03  0.00000000000E+00 0. -1.
         21   -1    0    0  501  502 -0.00000000000E+00 -0.00000000000E+00 -0.23107590914E+03  0.23107590914E+03  0.00000000000E+00 0. -1.
         25    1    1    2    0    0  0.75942867248E+02 -0.11636007173E+03 -0.10253509545E+03  0.21317934041E+03  0.12500000000E+03 0.  0.
         25    1    1    2    0    0 -0.75942867248E+02  0.11636007173E+03  0.46054081915E+02  0.19249146433E+03  0.12500000000E+03 0.  0.
</event>
<event>
 4    0  0.2219362E-002  0.1725480E+03  0.7546771E-02  0.1175216E+00
         21   -1    0    0  502  501  0.00000000000E+00  0.00000000000E+00  0.53828379098E+03  0.53828379098E+03  0.00000000000E+00 0.  1.
         21   -1    0    0  501  502 -0.00000000000E+00 -0.00000000000E+00 -0.55310604192E+02  0.55310604192E+02  0.00000000000E+00 0.  1.
         25    1    1    2    0    0 -0.94729489876E+01  0.11842309810E+03  0.25152145583E+03  0.30496198069E+03  0.12500000000E+03 0.  0.
         25    1    1    2    0    0  0.94729489876E+01 -0.11842309810E+03  0.23145173096E+03  0.28863241448E+03  0.12500000000E+03 0.  0.
</event>
<event>
 4    0  0.2343065E-002  0.2112065E+03  0.7546771E-02  0.1140614E+00
         21   -1    0    0  502  501  0.00000000000E+00  0.00000000000E+00  0.13284336195E+03  0.13284336195E+03  0.00000000000E+00 0.  1.
         21   -1    0    0  501  502 -0.00000000000E+00 -0.00000000000E+00 -0.33579532615E+03  0.33579532615E+03  0.00000000000E+00 0.  1.
         25    1    1    2    0    0  0.30116895068E+02 -0.17034763380E+00  0.84419769107E+02  0.15381402343E+03  0.12500000000E+03 0.  0.
         25    1    1    2    0    0 -0.30116895068E+02  0.17034763380E+00 -0.28737173330E+03  0.31482466468E+03  0.12500000000E+03 0.  0.
</event>
<event>
 4    0  0.2219362E-002  0.2493088E+03  0.7546771E-02  0.1113742E+00
         21   -1    0    0  502  501  0.00000000000E+00  0.00000000000E+00  0.91045092814E+02  0.91045092814E+02  0.00000000000E+00 0. -1.
         21   -1    0    0  501  502 -0.00000000000E+00 -0.00000000000E+00 -0.68268211353E+03  0.68268211353E+03  0.00000000000E+00 0. -1.
         25    1    1    2    0    0 -0.76346470511E+02  0.62955632444E+02 -0.59324256575E+03  0.61429141052E+03  0.12500000000E+03 0.  0.
         25    1    1    2    0    0  0.76346470511E+02 -0.62955632444E+02  0.16055450352E+01  0.15943579583E+03  0.12500000000E+03 0.  0.
</event>
<event>
 4    0  0.2219362E-002  0.2073492E+03  0.7546771E-02  0.1143682E+00
         21   -1    0    0  502  501  0.00000000000E+00  0.00000000000E+00  0.19539617744E+03  0.19539617744E+03  0.00000000000E+00 0. -1.
         21   -1    0    0  501  502 -0.00000000000E+00 -0.00000000000E+00 -0.22003348555E+03  0.22003348555E+03  0.00000000000E+00 0. -1.
         25    1    1    2    0    0 -0.45964865212E+02 -0.10531165049E+03 -0.13154695246E+03  0.21478573804E+03  0.12500000000E+03 0.  0.
         25    1    1    2    0    0  0.45964865212E+02  0.10531165049E+03  0.10690964435E+03  0.20064392495E+03  0.12500000000E+03 0.  0.
</event>
<event>
 4    0  0.2219362E-002  0.2259560E+03  0.7546771E-02  0.1129519E+00
         21   -1    0    0  502  501  0.00000000000E+00  0.00000000000E+00  0.12210946592E+03  0.12210946592E+03  0.00000000000E+00 0. -1.
         21   -1    0    0  501  502 -0.00000000000E+00 -0.00000000000E+00 -0.41811774506E+03  0.41811774506E+03  0.00000000000E+00 0. -1.
         25    1    1    2    0    0 -0.16188961911E+03 -0.48995771583E+02 -0.24674295325E+03  0.32421585308E+03  0.12500000000E+03 0.  0.
         25    1    1    2    0    0  0.16188961911E+03  0.48995771583E+02 -0.49265325885E+02  0.21601135790E+03  0.12500000000E+03 0.  0.
</event>
<event>
 4    0  0.2219362E-002  0.1359406E+03  0.7546771E-02  0.1218898E+00
         21   -1    0    0  502  501  0.00000000000E+00  0.00000000000E+00  0.77861237573E+02  0.77861237573E+02  0.00000000000E+00 0.  1.
         21   -1    0    0  501  502 -0.00000000000E+00 -0.00000000000E+00 -0.23734323978E+03  0.23734323978E+03  0.00000000000E+00 0.  1.
         25    1    1    2    0    0 -0.17230035746E+00 -0.70850016400E+01 -0.14113835421E+03  0.18866706645E+03  0.12500000000E+03 0.  0.
         25    1    1    2    0    0  0.17230035746E+00  0.70850016400E+01 -0.18343648001E+02  0.12653741090E+03  0.12500000000E+03 0.  0.
</event>
<event>
 4    0  0.2219362E-002  0.2872319E+03  0.7546771E-02  0.1091803E+00
         21   -1    0    0  502  501  0.00000000000E+00  0.00000000000E+00  0.22831755581E+03  0.22831755581E+03  0.00000000000E+00 0. -1.
         21   -1    0    0  501  502 -0.00000000000E+00 -0.00000000000E+00 -0.36134838598E+03  0.36134838598E+03  0.00000000000E+00 0. -1.
         25    1    1    2    0    0 -0.84008831241E+02  0.13704059016E+03 -0.27445862974E+03  0.34174573372E+03  0.12500000000E+03 0.  0.
         25    1    1    2    0    0  0.84008831241E+02 -0.13704059016E+03  0.14142779957E+03  0.24792020807E+03  0.12500000000E+03 0.  0.
</event>
<event>
 4    0  0.2219362E-002  0.2824628E+03  0.7546771E-02  0.1094351E+00
         21   -1    0    0  502  501  0.00000000000E+00  0.00000000000E+00  0.96446310698E+02  0.96446310698E+02  0.00000000000E+00 0.  1.
         21   -1    0    0  501  502 -0.00000000000E+00 -0.00000000000E+00 -0.82725033968E+03  0.82725033968E+03  0.00000000000E+00 0.  1.
         25    1    1    2    0    0 -0.14725698641E+03  0.92158316131E+02 -0.63986540267E+02  0.22337648179E+03  0.12500000000E+03 0.  0.
         25    1    1    2    0    0  0.14725698641E+03 -0.92158316131E+02 -0.66681748872E+03  0.70032016860E+03  0.12500000000E+03 0.  0.
</event>
<event>
 4    0  0.2219362E-002  0.2080729E+03  0.7546771E-02  0.1143101E+00
         21   -1    0    0  502  501  0.00000000000E+00  0.00000000000E+00  0.89530774991E+02  0.89530774991E+02  0.00000000000E+00 0.  1.
         21   -1    0    0  501  502 -0.00000000000E+00 -0.00000000000E+00 -0.48356931552E+03  0.48356931552E+03  0.00000000000E+00 0.  1.
         25    1    1    2    0    0 -0.49290119729E+02  0.79341728392E+01  0.21498015930E+02  0.13630712267E+03  0.12500000000E+03 0.  0.
         25    1    1    2    0    0  0.49290119729E+02 -0.79341728392E+01 -0.41553655645E+03  0.43679296784E+03  0.12500000000E+03 0.  0.
</event>
<event>
 4    0  0.2219362E-002  0.1764466E+03  0.7546771E-02  0.1171287E+00
         21   -1    0    0  502  501  0.00000000000E+00  0.00000000000E+00  0.50854157788E+02  0.50854157788E+02  0.00000000000E+00 0. -1.
         21   -1    0    0  501  502 -0.00000000000E+00 -0.00000000000E+00 -0.61220964858E+03  0.61220964858E+03  0.00000000000E+00 0. -1.
         25    1    1    2    0    0 -0.94779073641E+02  0.80752232625E+02 -0.27673189264E+03  0.32819131048E+03  0.12500000000E+03 0.  0.
         25    1    1    2    0    0  0.94779073641E+02 -0.80752232625E+02 -0.28462359816E+03  0.33487249589E+03  0.12500000000E+03 0.  0.
</event>
<event>
 4    0  0.2219362E-002  0.2038520E+03  0.7546771E-02  0.1146529E+00
         21   -1    0    0  502  501  0.00000000000E+00  0.00000000000E+00  0.49779201343E+03  0.49779201343E+03  0.00000000000E+00 0.  1.
         21   -1    0    0  501  502 -0.00000000000E+00 -0.00000000000E+00 -0.83479956381E+02  0.83479956381E+02  0.00000000000E+00 0.  1.
         25    1    1    2    0    0 -0.12233008652E+03  0.73696034094E+02  0.31322520767E+03  0.36623870116E+03  0.12500000000E+03 0.  0.
         25    1    1    2    0    0  0.12233008652E+03 -0.73696034094E+02  0.10108684938E+03  0.21503326865E+03  0.12500000000E+03 0.  0.
</event>
<event>
 4    0  0.2219362E-002  0.1889015E+03  0.7546771E-02  0.1159456E+00
         21   -1    0    0  502  501  0.00000000000E+00  0.00000000000E+00  0.25914262585E+02  0.25914262585E+02  0.00000000000E+00 0. -1.
         21   -1    0    0  501  502 -0.00000000000E+00 -0.00000000000E+00 -0.13769940974E+04  0.13769940974E+04  0.00000000000E+00 0. -1.
         25    1    1    2    0    0  0.10480959267E+03 -0.85339263731E+02 -0.83268655129E+03  0.85279524703E+03  0.12500000000E+03 0.  0.
         25    1    1    2    0    0 -0.10480959267E+03  0.85339263731E+02 -0.51839328354E+03  0.55011311297E+03  0.12500000000E+03 0.  0.
</event>
<event>
 4    0  0.2219362E-002  0.2276542E+03  0.7546771E-02  0.1128302E+00
         21   -1    0    0  502  501  0.00000000000E+00  0.00000000000E+00  0.61050864197E+02  0.61050864197E+02  0.00000000000E+00 0. -1.
         21   -1    0    0  501  502 -0.00000000000E+00 -0.00000000000E+00 -0.84890556786E+03  0.84890556786E+03  0.00000000000E+00 0. -1.
         25    1    1    2    0    0 -0.12505890419E+03  0.23694020500E+02 -0.11128771357E+03  0.21026433677E+03  0.12500000000E+03 0.  0.
         25    1    1    2    0    0  0.12505890419E+03 -0.23694020500E+02 -0.67656699009E+03  0.69969209529E+03  0.12500000000E+03 0.  0.
</event>
<event>
 4    0  0.2219362E-002  0.1964718E+03  0.7546771E-02  0.1152750E+00
         21   -1    0    0  502  501  0.00000000000E+00  0.00000000000E+00  0.52720253880E+03  0.52720253880E+03  0.00000000000E+00 0.  1.
         21   -1    0    0  501  502 -0.00000000000E+00 -0.00000000000E+00 -0.73218824702E+02  0.73218824702E+02  0.00000000000E+00 0.  1.
         25    1    1    2    0    0  0.15159283741E+02  0.66858489592E+02  0.43356317631E+03  0.45640101815E+03  0.12500000000E+03 0.  0.
         25    1    1    2    0    0 -0.15159283741E+02 -0.66858489592E+02  0.20420537794E+02  0.14402034536E+03  0.12500000000E+03 0.  0.
</event>
<event>
 4    0  0.2219362E-002  0.1783771E+03  0.7546771E-02  0.1169383E+00
         21   -1    0    0  502  501  0.00000000000E+00  0.00000000000E+00  0.12526011909E+03  0.12526011909E+03  0.00000000000E+00 0. -1.
         21   -1    0    0  501  502 -0.00000000000E+00 -0.00000000000E+00 -0.25401847273E+03  0.25401847273E+03  0.00000000000E+00 0. -1.
         25    1    1    2    0    0  0.10440604788E+03  0.55961143927E+02 -0.14956316168E+02  0.17286111147E+03  0.12500000000E+03 0.  0.
         25    1    1    2    0    0 -0.10440604788E+03 -0.55961143927E+02 -0.11380203747E+03  0.20641748036E+03  0.12500000000E+03 0.  0.
</event>
<event>
 4    0  0.2219362E-002  0.2484777E+03  0.7546771E-02  0.1114271E+00
         21   -1    0    0  502  501  0.00000000000E+00  0.00000000000E+00  0.49886918658E+03  0.49886918658E+03  0.00000000000E+00 0. -1.
         21   -1    0    0  501  502 -0.00000000000E+00 -0.00000000000E+00 -0.12376225248E+03  0.12376225248E+03  0.00000000000E+00 0. -1.
         25    1    1    2    0    0  0.37645845009E+02 -0.13934230877E+03  0.38676992300E+03  0.43133451288E+03  0.12500000000E+03 0.  0.
         25    1    1    2    0    0 -0.37645845009E+02  0.13934230877E+03 -0.11662988904E+02  0.19129692619E+03  0.12500000000E+03 0.  0.
</event>
<event>
 4    0  0.2219362E-002  0.1900781E+03  0.7546771E-02  0.1158391E+00
         21   -1    0    0  502  501  0.00000000000E+00  0.00000000000E+00  0.17720229724E+03  0.17720229724E+03  0.00000000000E+00 0.  1.
         21   -1    0    0  501  502 -0.00000000000E+00 -0.00000000000E+00 -0.20388939358E+03  0.20388939358E+03  0.00000000000E+00 0.  1.
         25    1    1    2    0    0 -0.11542920264E+02 -0.51739011998E+02 -0.14669160655E+03  0.19988394584E+03  0.12500000000E+03 0.  0.
         25    1    1    2    0    0  0.11542920264E+02  0.51739011998E+02  0.12000451021E+03  0.18120774498E+03  0.12500000000E+03 0.  0.
</event>
<event>
 4    0  0.2219362E-002  0.1526430E+03  0.7546771E-02  0.1197262E+00
         21   -1    0    0  502  501  0.00000000000E+00  0.00000000000E+00  0.58144214877E+03  0.58144214877E+03  0.00000000000E+00 0.  1.
         21   -1    0    0  501  502 -0.00000000000E+00 -0.00000000000E+00 -0.40072567285E+02  0.40072567285E+02  0.00000000000E+00 0.  1.
         25    1    1    2    0    0 -0.71546435657E+02  0.18228787294E+02  0.17468229305E+03  0.22713450783E+03  0.12500000000E+03 0.  0.
         25    1    1    2    0    0  0.71546435657E+02 -0.18228787294E+02  0.36668728844E+03  0.39438020823E+03  0.12500000000E+03 0.  0.
</event>
<event>
 4    0  0.2219362E-002  0.2146825E+03  0.7546771E-02  0.1137911E+00
         21   -1    0    0  502  501  0.00000000000E+00  0.00000000000E+00  0.72259634632E+03  0.72259634632E+03  0.00000000000E+00 0.  1.
         21   -1    0    0  501  502 -0.00000000000E+00 -0.00000000000E+00 -0.63781933557E+02  0.63781933557E+02  0.00000000000E+00 0.  1.
         25    1    1    2    0    0  0.35663470090E+02 -0.15112798840E+03  0.18343794483E+03  0.27089856327E+03  0.12500000000E+03 0.  0.
         25    1    1    2    0    0 -0.35663470090E+02  0.15112798840E+03  0.47537646793E+03  0.51547971661E+03  0.12500000000E+03 0.  0.
</event>
<event>
 4    0  0.2219362E-002  0.1846178E+03  0.7546771E-02  0.1163407E+00
         21   -1    0    0  502  501  0.00000000000E+00  0.00000000000E+00  0.19795219145E+03  0.19795219145E+03  0.00000000000E+00 0.  1.
         21   -1    0    0  501  502 -0.00000000000E+00 -0.00000000000E+00 -0.17218168530E+03  0.17218168530E+03  0.00000000000E+00 0.  1.
         25    1    1    2    0    0 -0.82417099975E+01  0.12342140200E+03 -0.43447303182E+02  0.18114479404E+03  0.12500000000E+03 0.  0.
         25    1    1    2    0    0  0.82417099975E+01 -0.12342140200E+03  0.69217809334E+02  0.18898908271E+03  0.12500000000E+03 0.  0.
</event>
<event>
 4    0  0.2219362E-002  0.2557607E+03  0.7546771E-02  0.1109717E+00
         21   -1    0    0  502  501  0.00000000000E+00  0.00000000000E+00  0.73956622420E+02  0.73956622420E+02  0.00000000000E+00 0.  1.
         21   -1    0    0  501  502 -0.00000000000E+00 -0.00000000000E+00 -0.88448485337E+03  0.88448485337E+03  0.00000000000E+00 0.  1.
         25    1    1    2    0    0  0.21058269261E+03  0.73709458388E+02 -0.41129432793E+03  0.48432032671E+03  0.12500000000E+03 0.  0.
         25    1    1    2    0    0 -0.21058269261E+03 -0.73709458388E+02 -0.39923390303E+03  0.47412114908E+03  0.12500000000E+03 0.  0.
</event>
<event>
 4    0  0.2219362E-002  0.2085420E+03  0.7546771E-02  0.1142726E+00
         21   -1    0    0  502  501  0.00000000000E+00  0.00000000000E+00  0.66935067847E+02  0.66935067847E+02  0.00000000000E+00 0.  1.
         21   -1    0    0  501  502 -0.00000000000E+00 -0.00000000000E+00 -0.64973061923E+03  0.64973061923E+03  0.00000000000E+00 0. -1.
         25    1    1    2    0    0  0.13554308692E+03  0.13048459466E+01 -0.12399906728E+03  0.22220350969E+03  0.12500000000E+03 0.  0.
         25    1    1    2    0    0 -0.13554308692E+03 -0.13048459466E+01 -0.45879648411E+03  0.49446217738E+03  0.12500000000E+03 0.  0.
</event>
<event>
 4    0  0.2219362E-002  0.3349893E+03  0.7546771E-02  0.1068950E+00
         21   -1    0    0  502  501  0.00000000000E+00  0.00000000000E+00  0.81458939950E+03  0.81458939950E+03  0.00000000000E+00 0. -1.
         21   -1    0    0  501  502 -0.00000000000E+00 -0.00000000000E+00 -0.13776002768E+03  0.13776002768E+03  0.00000000000E+00 0. -1.
         25    1    1    2    0    0  0.23747337031E+03 -0.73952415981E+02  0.73510031628E+02  0.28790846841E+03  0.12500000000E+03 0.  0.
         25    1    1    2    0    0 -0.23747337031E+03  0.73952415981E+02  0.60331934019E+03  0.66444095877E+03  0.12500000000E+03 0.  0.
</event>
<event>
 4    0  0.2219362E-002  0.2497359E+03  0.7546771E-02  0.1113472E+00
         21   -1    0    0  502  501  0.00000000000E+00  0.00000000000E+00  0.18499662966E+03  0.18499662966E+03  0.00000000000E+00 0.  1.
         21   -1    0    0  501  502 -0.00000000000E+00 -0.00000000000E+00 -0.33713057382E+03  0.33713057382E+03  0.00000000000E+00 0.  1.
         25    1    1    2    0    0 -0.16275445343E+03 -0.12624620233E+03 -0.73915645195E+01  0.24105341926E+03  0.12500000000E+03 0.  0.
         25    1    1    2    0    0  0.16275445343E+03  0.12624620233E+03 -0.14474237964E+03  0.28107378422E+03  0.12500000000E+03 0.  0.
</event>
<event>
 4    0  0.2219362E-002  0.2228863E+03  0.7546771E-02  0.1131749E+00
         21   -1    0    0  502  501  0.00000000000E+00  0.00000000000E+00  0.12280406605E+03  0.12280406605E+03  0.00000000000E+00 0. -1.
         21   -1    0    0  501  502 -0.00000000000E+00 -0.00000000000E+00 -0.40453291031E+03  0.40453291031E+03  0.00000000000E+00 0. -1.
         25    1    1    2    0    0 -0.11155099181E+03 -0.13431590213E+03 -0.70193270157E+02  0.22591255059E+03  0.12500000000E+03 0.  0.
         25    1    1    2    0    0  0.11155099181E+03  0.13431590213E+03 -0.21153557411E+03  0.30142442577E+03  0.12500000000E+03 0.  0.
</event>
<event>
 4    0  0.2219362E-002  0.2169137E+03  0.7546771E-02  0.1136205E+00
         21   -1    0    0  502  501  0.00000000000E+00  0.00000000000E+00  0.53449284736E+02  0.53449284736E+02  0.00000000000E+00 0.  1.
         21   -1    0    0  501  502 -0.00000000000E+00 -0.00000000000E+00 -0.88030262345E+03  0.88030262345E+03  0.00000000000E+00 0.  1.
         25    1    1    2    0    0  0.15032717116E+03 -0.80704660630E+02 -0.30986613742E+03  0.37517132587E+03  0.12500000000E+03 0.  0.
         25    1    1    2    0    0 -0.15032717116E+03  0.80704660630E+02 -0.51698720130E+03  0.55858058232E+03  0.12500000000E+03 0.  0.
</event>
<event>
 4    0  0.2219362E-002  0.2294971E+03  0.7546771E-02  0.1126994E+00
         21   -1    0    0  502  501  0.00000000000E+00  0.00000000000E+00  0.12573021176E+04  0.12573021176E+04  0.00000000000E+00 0.  1.
         21   -1    0    0  501  502 -0.00000000000E+00 -0.00000000000E+00 -0.41890419455E+02  0.41890419455E+02  0.00000000000E+00 0.  1.
         25    1    1    2    0    0 -0.74579000650E+02  0.14637997672E+03  0.32387943768E+03  0.38407292937E+03  0.12500000000E+03 0.  0.
         25    1    1    2    0    0  0.74579000650E+02 -0.14637997672E+03  0.89153226048E+03  0.91511960770E+03  0.12500000000E+03 0.  0.
</event>
<event>
 4    0  0.2219362E-002  0.2145263E+03  0.7546771E-02  0.1138031E+00
         21   -1    0    0  502  501  0.00000000000E+00  0.00000000000E+00  0.19452152516E+03  0.19452152516E+03  0.00000000000E+00 0. -1.
         21   -1    0    0  501  502 -0.00000000000E+00 -0.00000000000E+00 -0.23658845888E+03  0.23658845888E+03  0.00000000000E+00 0. -1.
         25    1    1    2    0    0  0.15056553483E+03 -0.71016466592E+02  0.31014809036E+02  0.21047621525E+03  0.12500000000E+03 0.  0.
         25    1    1    2    0    0 -0.15056553483E+03  0.71016466592E+02 -0.73081742754E+02  0.22063376879E+03  0.12500000000E+03 0.  0.
</event>
<event>
 4    0  0.2219362E-002  0.2901193E+03  0.7546771E-02  0.1090287E+00
         21   -1    0    0  502  501  0.00000000000E+00  0.00000000000E+00  0.20666303885E+03  0.20666303885E+03  0.00000000000E+00 0.  1.
         21   -1    0    0  501  502 -0.00000000000E+00 -0.00000000000E+00 -0.40727760630E+03  0.40727760630E+03  0.00000000000E+00 0.  1.
         25    1    1    2    0    0 -0.23051643812E+03  0.12349669489E+03 -0.11347886034E+03  0.31127433822E+03  0.12500000000E+03 0.  0.
         25    1    1    2    0    0  0.23051643812E+03 -0.12349669489E+03 -0.87135707115E+02  0.30266630692E+03  0.12500000000E+03 0.  0.
</event>
<event>
 4    0  0.2219362E-002  0.2332826E+03  0.7546771E-02  0.1124350E+00
         21   -1    0    0  502  501  0.00000000000E+00  0.00000000000E+00  0.12216456072E+03  0.12216456072E+03  0.00000000000E+00 0. -1.
         21   -1    0    0  501  502 -0.00000000000E+00 -0.00000000000E+00 -0.44547109057E+03  0.44547109057E+03  0.00000000000E+00 0. -1.
         25    1    1    2    0    0  0.73478464033E+02 -0.18106486961E+03 -0.13155046222E+03  0.26667226289E+03  0.12500000000E+03 0.  0.
         25    1    1    2    0    0 -0.73478464033E+02  0.18106486961E+03 -0.19175606763E+03  0.30096338840E+03  0.12500000000E+03 0.  0.
</event>
<event>
 4    0  0.2219362E-002  0.1935877E+03  0.7546771E-02  0.1155265E+00
         21   -1    0    0  502  501  0.00000000000E+00  0.00000000000E+00  0.24590567194E+04  0.24590567194E+04  0.00000000000E+00 0. -1.
         21   -1    0    0  501  502 -0.00000000000E+00 -0.00000000000E+00 -0.15240066250E+02  0.15240066250E+02  0.00000000000E+00 0. -1.
         25    1    1    2    0    0  0.14520438621E+03  0.63822019069E+01  0.13941168274E+04  0.14072355079E+04  0.12500000000E+03 0.  0.
         25    1    1    2    0    0 -0.14520438621E+03 -0.63822019069E+01  0.10496998257E+04  0.10670612777E+04  0.12500000000E+03 0.  0.
</event>
<event>
 4    0  0.2219362E-002  0.1989767E+03  0.7546771E-02  0.1150605E+00
         21   -1    0    0  502  501  0.00000000000E+00  0.00000000000E+00  0.15732129597E+03  0.15732129597E+03  0.00000000000E+00 0. -1.
         21   -1    0    0  501  502 -0.00000000000E+00 -0.00000000000E+00 -0.25166162480E+03  0.25166162480E+03  0.00000000000E+00 0. -1.
         25    1    1    2    0    0 -0.15344263808E+03  0.10202398555E+02 -0.65496981911E+02  0.20871891806E+03  0.12500000000E+03 0.  0.
         25    1    1    2    0    0  0.15344263808E+03 -0.10202398555E+02 -0.28843346922E+02  0.20026400271E+03  0.12500000000E+03 0.  0.
</event>
<event>
 4    0  0.2219362E-002  0.2013387E+03  0.7546771E-02  0.1148614E+00
         21   -1    0    0  502  501  0.00000000000E+00  0.00000000000E+00  0.59075111563E+03  0.59075111563E+03  0.00000000000E+00 0.  1.
         21   -1    0    0  501  502 -0.00000000000E+00 -0.00000000000E+00 -0.68619862975E+02  0.68619862975E+02  0.00000000000E+00 0.  1.
         25    1    1    2    0    0 -0.14591452426E+03  0.45385836470E+02  0.32576813326E+03  0.38092098812E+03  0.12500000000E+03 0.  0.
         25    1    1    2    0    0  0.14591452426E+03 -0.45385836470E+02  0.19636311940E+03  0.27844999049E+03  0.12500000000E+03 0.  0.
</event>
<event>
 4    0  0.2219362E-002  0.2356836E+03  0.7546771E-02  0.1122702E+00
         21   -1    0    0  502  501  0.00000000000E+00  0.00000000000E+00  0.10337578214E+04  0.10337578214E+04  0.00000000000E+00 0.  1.
         21   -1    0    0  501  502 -0.00000000000E+00 -0.00000000000E+00 -0.53732833645E+02  0.53732833645E+02  0.00000000000E+00 0.  1.
         25    1    1    2    0    0  0.52192111116E+02  0.15615851826E+03  0.22886927290E+03  0.30840824140E+03  0.12500000000E+03 0.  0.
         25    1    1    2    0    0 -0.52192111116E+02 -0.15615851826E+03  0.75115571485E+03  0.77908241363E+03  0.12500000000E+03 0.  0.
</event>
<event>
 4    0  0.2219362E-002  0.4643249E+03  0.7546771E-02  0.1023534E+00
         21   -1    0    0  502  501  0.00000000000E+00  0.00000000000E+00  0.74403144722E+02  0.74403144722E+02  0.00000000000E+00 0. -1.
         21   -1    0    0  501  502 -0.00000000000E+00 -0.00000000000E+00 -0.28976949576E+04  0.28976949576E+04  0.00000000000E+00 0. -1.
         25    1    1    2    0    0 -0.53760704294E+02 -0.11232001115E+03 -0.37065780977E+02  0.18029107119E+03  0.12500000000E+03 0.  0.
         25    1    1    2    0    0  0.53760704294E+02  0.11232001115E+03 -0.27862260319E+04  0.27918070312E+04  0.12500000000E+03 0.  0.
</event>
<event>
 4    0  0.2219362E-002  0.2074372E+03  0.7546771E-02  0.1143612E+00
         21   -1    0    0  502  501  0.00000000000E+00  0.00000000000E+00  0.11496936066E+03  0.11496936066E+03  0.00000000000E+00 0. -1.
         21   -1    0    0  501  502 -0.00000000000E+00 -0.00000000000E+00 -0.37427522456E+03  0.37427522456E+03  0.00000000000E+00 0. -1.
         25    1    1    2    0    0  0.10523526305E+03 -0.10308529024E+03 -0.21871745291E+03  0.29182762354E+03  0.12500000000E+03 0.  0.
         25    1    1    2    0    0 -0.10523526305E+03  0.10308529024E+03 -0.40588410987E+02  0.19741696168E+03  0.12500000000E+03 0.  0.
</event>
<event>
 4    0  0.2219362E-002  0.2981638E+03  0.7546771E-02  0.1086162E+00
         21   -1    0    0  502  501  0.00000000000E+00  0.00000000000E+00  0.12730414720E+03  0.12730414720E+03  0.00000000000E+00 0.  1.
         21   -1    0    0  501  502 -0.00000000000E+00 -0.00000000000E+00 -0.69834034871E+03  0.69834034871E+03  0.00000000000E+00 0.  1.
         25    1    1    2    0    0 -0.20024366783E+03  0.18189095495E+03 -0.27203906902E+03  0.40349981545E+03  0.12500000000E+03 0.  0.
         25    1    1    2    0    0  0.20024366783E+03 -0.18189095495E+03 -0.29899713249E+03  0.42214468045E+03  0.12500000000E+03 0.  0.
</event>
<event>
 4    0  0.2219362E-002  0.1541069E+03  0.7546771E-02  0.1195515E+00
         21   -1    0    0  502  501  0.00000000000E+00  0.00000000000E+00  0.11009084914E+03  0.11009084914E+03  0.00000000000E+00 0.  1.
         21   -1    0    0  501  502 -0.00000000000E+00 -0.00000000000E+00 -0.21572112531E+03  0.21572112531E+03  0.00000000000E+00 0.  1.
         25    1    1    2    0    0 -0.10350750221E+02  0.89477240942E+02 -0.56257965035E+02  0.16402217322E+03  0.12500000000E+03 0.  0.
         25    1    1    2    0    0  0.10350750221E+02 -0.89477240942E+02 -0.49372311130E+02  0.16178980123E+03  0.12500000000E+03 0.  0.
</event>
<event>
 4    0  0.2219362E-002  0.1987996E+03  0.7546771E-02  0.1150756E+00
         21   -1    0    0  502  501  0.00000000000E+00  0.00000000000E+00  0.10502327516E+04  0.10502327516E+04  0.00000000000E+00 0.  1.
         21   -1    0    0  501  502 -0.00000000000E+00 -0.00000000000E+00 -0.37630978681E+02  0.37630978681E+02  0.00000000000E+00 0.  1.
         25    1    1    2    0    0  0.14994297452E+03 -0.36873349750E+02  0.48624207990E+03  0.52526079217E+03  0.12500000000E+03 0.  0.
         25    1    1    2    0    0 -0.14994297452E+03  0.36873349750E+02  0.52635969303E+03  0.56260293812E+03  0.12500000000E+03 0.  0.
</event>
<event>
 4    0  0.2219362E-002  0.2263686E+03  0.7546771E-02  0.1129222E+00
         21   -1    0    0  502  501  0.00000000000E+00  0.00000000000E+00  0.11489031651E+04  0.11489031651E+04  0.00000000000E+00 0.  1.
         21   -1    0    0  501  502 -0.00000000000E+00 -0.00000000000E+00 -0.44601447007E+02  0.44601447007E+02  0.00000000000E+00 0.  1.
         25    1    1    2    0    0  0.14656785183E+03 -0.11851361873E+03  0.52712355365E+03  0.57359554900E+03  0.12500000000E+03 0.  0.
         25    1    1    2    0    0 -0.14656785183E+03  0.11851361873E+03  0.57717816445E+03  0.61990906312E+03  0.12500000000E+03 0.  0.
</event>
<event>
 4    0  0.2219362E-002  0.3356284E+03  0.7546771E-02  0.1068673E+00
         21   -1    0    0  502  501  0.00000000000E+00  0.00000000000E+00  0.21995682522E+03  0.21995682522E+03  0.00000000000E+00 0.  1.
         21   -1    0    0  501  502 -0.00000000000E+00 -0.00000000000E+00 -0.51212977947E+03  0.51212977947E+03  0.00000000000E+00 0.  1.
         25    1    1    2    0    0  0.84676914596E+02  0.29974039748E+03 -0.14321032852E+03  0.36489544248E+03  0.12500000000E+03 0.  0.
         25    1    1    2    0    0 -0.84676914596E+02 -0.29974039748E+03 -0.14896262573E+03  0.36719116222E+03  0.12500000000E+03 0.  0.
</event>
<event>
 4    0  0.2219362E-002  0.2010296E+03  0.7546771E-02  0.1148873E+00
         21   -1    0    0  502  501  0.00000000000E+00  0.00000000000E+00  0.76318909303E+03  0.76318909303E+03  0.00000000000E+00 0.  1.
         21   -1    0    0  501  502 -0.00000000000E+00 -0.00000000000E+00 -0.52952665013E+02  0.52952665013E+02  0.00000000000E+00 0.  1.
         25    1    1    2    0    0 -0.14408795472E+03 -0.37719720021E+02  0.25153776422E+03  0.31793138065E+03  0.12500000000E+03 0.  0.
         25    1    1    2    0    0  0.14408795472E+03  0.37719720021E+02  0.45869866380E+03  0.49821037739E+03  0.12500000000E+03 0.  0.
</event>
<event>
 4    0  0.2219362E-002  0.2222807E+03  0.7546771E-02  0.1132194E+00
         21   -1    0    0  502  501  0.00000000000E+00  0.00000000000E+00  0.47446060107E+02  0.47446060107E+02  0.00000000000E+00 0.  1.
         21   -1    0    0  501  502 -0.00000000000E+00 -0.00000000000E+00 -0.10413655946E+04  0.10413655946E+04  0.00000000000E+00 0.  1.
         25    1    1    2    0    0  0.10456553151E+03 -0.37702841664E+02 -0.13843899286E+03  0.21713085777E+03  0.12500000000E+03 0.  0.
         25    1    1    2    0    0 -0.10456553151E+03  0.37702841664E+02 -0.85548054158E+03  0.87168079690E+03  0.12500000000E+03 0.  0.
</event>
<event>
 4    0  0.2219362E-002  0.1614973E+03  0.7546771E-02  0.1187017E+00
         21   -1    0    0  502  501  0.00000000000E+00  0.00000000000E+00  0.94401550606E+02  0.94401550606E+02  0.00000000000E+00 0. -1.
         21   -1    0    0  501  502 -0.00000000000E+00 -0.00000000000E+00 -0.27628119043E+03  0.27628119043E+03  0.00000000000E+00 0. -1.
         25    1    1    2    0    0  0.57345740706E+02 -0.82192503221E+02 -0.67638657603E+02  0.17390839418E+03  0.12500000000E+03 0.  0.
         25    1    1    2    0    0 -0.57345740706E+02  0.82192503221E+02 -0.11424098222E+03  0.19677434686E+03  0.12500000000E+03 0.  0.
</event>
<event>
 4    0  0.2219362E-002  0.1918534E+03  0.7546771E-02  0.1156800E+00
         21   -1    0    0  502  501  0.00000000000E+00  0.00000000000E+00  0.69630528703E+02  0.69630528703E+02  0.00000000000E+00 0.  1.
         21   -1    0    0  501  502 -0.00000000000E+00 -0.00000000000E+00 -0.52861466570E+03  0.52861466570E+03  0.00000000000E+00 0.  1.
         25    1    1    2    0    0  0.10958285872E+03 -0.71391093114E+02 -0.32905176182E+03  0.37550652865E+03  0.12500000000E+03 0.  0.
         25    1    1    2    0    0 -0.10958285872E+03  0.71391093114E+02 -0.12993237517E+03  0.22273866575E+03  0.12500000000E+03 0.  0.
</event>
<event>
 4    0  0.2219362E-002  0.1797794E+03  0.7546771E-02  0.1168017E+00
         21   -1    0    0  502  501  0.00000000000E+00  0.00000000000E+00  0.20183071267E+03  0.20183071267E+03  0.00000000000E+00 0.  1.
         21   -1    0    0  501  502 -0.00000000000E+00 -0.00000000000E+00 -0.16013733217E+03  0.16013733217E+03  0.00000000000E+00 0.  1.
         25    1    1    2    0    0 -0.64742163201E+02  0.43659302653E+02 -0.82789451705E+02  0.16904666728E+03  0.12500000000E+03 0.  0.
         25    1    1    2    0    0  0.64742163201E+02 -0.43659302653E+02  0.12448283221E+03  0.19292137756E+03  0.12500000000E+03 0.  0.
</event>
<event>
 4    0  0.2219362E-002  0.3249250E+03  0.7546771E-02  0.1073405E+00
         21   -1    0    0  502  501  0.00000000000E+00  0.00000000000E+00  0.13183796482E+04  0.13183796482E+04  0.00000000000E+00 0. -1.
         21   -1    0    0  501  502 -0.00000000000E+00 -0.00000000000E+00 -0.80080299022E+02  0.80080299022E+02  0.00000000000E+00 0. -1.
         25    1    1    2    0    0  0.11447743490E+03 -0.23471002290E+03  0.93657387370E+03  0.98030071858E+03  0.12500000000E+03 0.  0.
         25    1    1    2    0    0 -0.11447743490E+03  0.23471002290E+03  0.30172547549E+03  0.41815922865E+03  0.12500000000E+03 0.  0.
</event>
<event>
 4    0  0.2219362E-002  0.2897133E+03  0.7546771E-02  0.1090499E+00
         21   -1    0    0  502  501  0.00000000000E+00  0.00000000000E+00  0.48486087650E+03  0.48486087650E+03  0.00000000000E+00 0. -1.
         21   -1    0    0  501  502 -0.00000000000E+00 -0.00000000000E+00 -0.17310900582E+03  0.17310900582E+03  0.00000000000E+00 0. -1.
         25    1    1    2    0    0 -0.69828460314E+02 -0.13218691245E+03  0.39931750954E+03  0.44432968292E+03  0.12500000000E+03 0.  0.
         25    1    1    2    0    0  0.69828460314E+02  0.13218691245E+03 -0.87565638854E+02  0.21364019941E+03  0.12500000000E+03 0.  0.
</event>
<event>
 4    0  0.2219362E-002  0.1699564E+03  0.7546771E-02  0.1177893E+00
         21   -1    0    0  502  501  0.00000000000E+00  0.00000000000E+00  0.17898573575E+03  0.17898573575E+03  0.00000000000E+00 0.  1.
         21   -1    0    0  501  502 -0.00000000000E+00 -0.00000000000E+00 -0.16138252754E+03  0.16138252754E+03  0.00000000000E+00 0.  1.
         25    1    1    2    0    0 -0.99463143295E+01  0.10612796467E+03  0.52427135069E+02  0.17244036228E+03  0.12500000000E+03 0.  0.
         25    1    1    2    0    0  0.99463143295E+01 -0.10612796467E+03 -0.34823926865E+02  0.16792790100E+03  0.12500000000E+03 0.  0.
</event>
<event>
 4    0  0.2219362E-002  0.2276562E+03  0.7546771E-02  0.1128300E+00
         21   -1    0    0  502  501  0.00000000000E+00  0.00000000000E+00  0.44756551882E+03  0.44756551882E+03  0.00000000000E+00 0. -1.
         21   -1    0    0  501  502 -0.00000000000E+00 -0.00000000000E+00 -0.11579833537E+03  0.11579833537E+03  0.00000000000E+00 0. -1.
         25    1    1    2    0    0  0.12674684839E+03 -0.96400363879E+02  0.37033346657E+02  0.20580151238E+03  0.12500000000E+03 0.  0.
         25    1    1    2    0    0 -0.12674684839E+03  0.96400363879E+02  0.29473383679E+03  0.35756234182E+03  0.12500000000E+03 0.  0.
</event>
<event>
 4    0  0.2219362E-002  0.2044219E+03  0.7546771E-02  0.1146061E+00
         21   -1    0    0  502  501  0.00000000000E+00  0.00000000000E+00  0.17258837738E+03  0.17258837738E+03  0.00000000000E+00 0. -1.
         21   -1    0    0  501  502 -0.00000000000E+00 -0.00000000000E+00 -0.24212696510E+03  0.24212696510E+03  0.00000000000E+00 0. -1.
         25    1    1    2    0    0 -0.16133960315E+03  0.74734056245E+01 -0.25869424040E+02  0.20586535998E+03  0.12500000000E+03 0.  0.
         25    1    1    2    0    0  0.16133960315E+03 -0.74734056245E+01 -0.43669163682E+02  0.20884998251E+03  0.12500000000E+03 0.  0.
</event>
<event>
 4    0  0.2219362E-002  0.2531384E+03  0.7546771E-02  0.1111337E+00
         21   -1    0    0  502  501  0.00000000000E+00  0.00000000000E+00  0.69330055990E+03  0.69330055990E+03  0.00000000000E+00 0.  1.
         21   -1    0    0  501  502 -0.00000000000E+00 -0.00000000000E+00 -0.92426047764E+02  0.92426047764E+02  0.00000000000E+00 0.  1.
         25    1    1    2    0    0 -0.19899499280E+03  0.28013912425E+02  0.16101669168E+03  0.28624318585E+03  0.12500000000E+03 0.  0.
         25    1    1    2    0    0  0.19899499280E+03 -0.28013912425E+02  0.43985782046E+03  0.49948342181E+03  0.12500000000E+03 0.  0.
</event>
<event>
 4    0  0.2219362E-002  0.2098579E+03  0.7546771E-02  0.1141679E+00
         21   -1    0    0  502  501  0.00000000000E+00  0.00000000000E+00  0.19712090960E+04  0.19712090960E+04  0.00000000000E+00 0. -1.
         21   -1    0    0  501  502 -0.00000000000E+00 -0.00000000000E+00 -0.22341789498E+02  0.22341789498E+02  0.00000000000E+00 0. -1.
         25    1    1    2    0    0 -0.13187640715E+02  0.14740156284E+03  0.13577900241E+04  0.13715392391E+04  0.12500000000E+03 0.  0.
         25    1    1    2    0    0  0.13187640715E+02 -0.14740156284E+03  0.59107728237E+03  0.62201164646E+03  0.12500000000E+03 0.  0.
</event>
<event>
 4    0  0.2219362E-002  0.3184439E+03  0.7546771E-02  0.1076368E+00
         21   -1    0    0  502  501  0.00000000000E+00  0.00000000000E+00  0.72889128822E+03  0.72889128822E+03  0.00000000000E+00 0. -1.
         21   -1    0    0  501  502 -0.00000000000E+00 -0.00000000000E+00 -0.13912429726E+03  0.13912429726E+03  0.00000000000E+00 0. -1.
         25    1    1    2    0    0  0.75886715910E+02 -0.28279844253E+03  0.28546708399E+03  0.42760987920E+03  0.12500000000E+03 0.  0.
         25    1    1    2    0    0 -0.75886715910E+02  0.28279844253E+03  0.30429990697E+03  0.44040570629E+03  0.12500000000E+03 0.  0.
</event>
<event>
 4    0  0.2219362E-002  0.2031163E+03  0.7546771E-02  0.1147136E+00
         21   -1    0    0  502  501  0.00000000000E+00  0.00000000000E+00  0.10151877759E+03  0.10151877759E+03  0.00000000000E+00 0.  1.
         21   -1    0    0  501  502 -0.00000000000E+00 -0.00000000000E+00 -0.40639011169E+03  0.40639011169E+03  0.00000000000E+00 0.  1.
         25    1    1    2    0    0 -0.10991393623E+03 -0.10093140092E+03 -0.22494182658E+03  0.29747612747E+03  0.12500000000E+03 0.  0.
         25    1    1    2    0    0  0.10991393623E+03  0.10093140092E+03 -0.79929507524E+02  0.21043276181E+03  0.12500000000E+03 0.  0.
</event>
<event>
 4    0  0.2219362E-002  0.2333238E+03  0.7546771E-02  0.1124322E+00
         21   -1    0    0  502  501  0.00000000000E+00  0.00000000000E+00  0.90119059761E+03  0.90119059761E+03  0.00000000000E+00 0. -1.
         21   -1    0    0  501  502 -0.00000000000E+00 -0.00000000000E+00 -0.60408957773E+02  0.60408957773E+02  0.00000000000E+00 0. -1.
         25    1    1    2    0    0  0.15749985274E+03 -0.42101776978E+02  0.64833521931E+03  0.68010463889E+03  0.12500000000E+03 0.  0.
         25    1    1    2    0    0 -0.15749985274E+03  0.42101776978E+02  0.19244642053E+03  0.28149491650E+03  0.12500000000E+03 0.  0.
</event>
<event>
 4    0  0.2219362E-002  0.2252854E+03  0.7546771E-02  0.1130003E+00
         21   -1    0    0  502  501  0.00000000000E+00  0.00000000000E+00  0.23250942812E+03  0.23250942812E+03  0.00000000000E+00 0.  1.
         21   -1    0    0  501  502 -0.00000000000E+00 -0.00000000000E+00 -0.21828588719E+03  0.21828588719E+03  0.00000000000E+00 0.  1.
         25    1    1    2    0    0  0.89660678347E+02 -0.64604066804E+02 -0.14434330649E+03  0.22061893123E+03  0.12500000000E+03 0.  0.
         25    1    1    2    0    0 -0.89660678347E+02  0.64604066804E+02  0.15856684741E+03  0.23017638408E+03  0.12500000000E+03 0.  0.
</event>
<event>
 4    0  0.2219362E-002  0.3500897E+03  0.7546771E-02  0.1062578E+00
         21   -1    0    0  502  501  0.00000000000E+00  0.00000000000E+00  0.12891837131E+04  0.12891837131E+04  0.00000000000E+00 0. -1.
         21   -1    0    0  501  502 -0.00000000000E+00 -0.00000000000E+00 -0.95070086436E+02  0.95070086436E+02  0.00000000000E+00 0. -1.
         25    1    1    2    0    0 -0.26393356385E+02 -0.31621275456E+03  0.75336092988E+03  0.82696118777E+03  0.12500000000E+03 0.  0.
         25    1    1    2    0    0  0.26393356385E+02  0.31621275456E+03  0.44075269677E+03  0.55729261176E+03  0.12500000000E+03 0.  0.
</event>
<event>
 4    0  0.2219362E-002  0.1933656E+03  0.7546771E-02  0.1155460E+00
         21   -1    0    0  502  501  0.00000000000E+00  0.00000000000E+00  0.47933926215E+02  0.47933926215E+02  0.00000000000E+00 0.  1.
         21   -1    0    0  501  502 -0.00000000000E+00 -0.00000000000E+00 -0.78003703909E+03  0.78003703909E+03  0.00000000000E+00 0.  1.
         25    1    1    2    0    0 -0.65310539858E+02 -0.12612565416E+03 -0.28062559214E+03  0.33845069097E+03  0.12500000000E+03 0.  0.
         25    1    1    2    0    0  0.65310539858E+02  0.12612565416E+03 -0.45147752074E+03  0.48952027434E+03  0.12500000000E+03 0.  0.
</event>
<event>
 4    0  0.2219362E-002  0.3119254E+03  0.7546771E-02  0.1079427E+00
         21   -1    0    0  502  501  0.00000000000E+00  0.00000000000E+00  0.10974330275E+04  0.10974330275E+04  0.00000000000E+00 0.  1.
         21   -1    0    0  501  502 -0.00000000000E+00 -0.00000000000E+00 -0.88659134649E+02  0.88659134649E+02  0.00000000000E+00 0.  1.
         25    1    1    2    0    0 -0.96922948415E+00 -0.23249462652E+03  0.18842702182E+03  0.32432149685E+03  0.12500000000E+03 0.  0.
         25    1    1    2    0    0  0.96922948415E+00  0.23249462652E+03  0.82034687102E+03  0.86177066529E+03  0.12500000000E+03 0.  0.
</event>
<event>
 4    0  0.2219362E-002  0.3038238E+03  0.7546771E-02  0.1083345E+00
         21   -1    0    0  502  501  0.00000000000E+00  0.00000000000E+00  0.31162208120E+03  0.31162208120E+03  0.00000000000E+00 0. -1.
         21   -1    0    0  501  502 -0.00000000000E+00 -0.00000000000E+00 -0.29622065038E+03  0.29622065038E+03  0.00000000000E+00 0. -1.
         25    1    1    2    0    0  0.24345961671E+03  0.62642911486E+01 -0.12414476010E+03  0.30058068429E+03  0.12500000000E+03 0.  0.
         25    1    1    2    0    0 -0.24345961671E+03 -0.62642911486E+01  0.13954619092E+03  0.30726204730E+03  0.12500000000E+03 0.  0.
</event>
<event>
 4    0  0.2219362E-002  0.3102481E+03  0.7546771E-02  0.1080227E+00
         21   -1    0    0  502  501  0.00000000000E+00  0.00000000000E+00  0.17393687468E+03  0.17393687468E+03  0.00000000000E+00 0.  1.
         21   -1    0    0  501  502 -0.00000000000E+00 -0.00000000000E+00 -0.55338390062E+03  0.55338390062E+03  0.00000000000E+00 0.  1.
         25    1    1    2    0    0  0.25819749497E+03 -0.77894565666E+02 -0.85570275102E+02  0.30932310251E+03  0.12500000000E+03 0.  0.
         25    1    1    2    0    0 -0.25819749497E+03  0.77894565666E+02 -0.29387675084E+03  0.41799767278E+03  0.12500000000E+03 0.  0.
</event>
<event>
 4    0  0.2219362E-002  0.2240207E+03  0.7546771E-02  0.1130920E+00
         21   -1    0    0  502  501  0.00000000000E+00  0.00000000000E+00  0.90366609412E+03  0.90366609412E+03  0.00000000000E+00 0. -1.
         21   -1    0    0  501  502 -0.00000000000E+00 -0.00000000000E+00 -0.55535201583E+02  0.55535201583E+02  0.00000000000E+00 0. -1.
         25    1    1    2    0    0 -0.21694785289E+02 -0.16295068906E+02  0.81780099216E+03  0.82774371382E+03  0.12500000000E+03 0.  0.
         25    1    1    2    0    0  0.21694785289E+02  0.16295068906E+02  0.30329900376E+02  0.13145758189E+03  0.12500000000E+03 0.  0.
</event>
<event>
 4    0  0.2219362E-002  0.2370942E+03  0.7546771E-02  0.1121744E+00
         21   -1    0    0  502  501  0.00000000000E+00  0.00000000000E+00  0.26818094478E+03  0.26818094478E+03  0.00000000000E+00 0.  1.
         21   -1    0    0  501  502 -0.00000000000E+00 -0.00000000000E+00 -0.20961092864E+03  0.20961092864E+03  0.00000000000E+00 0.  1.
         25    1    1    2    0    0 -0.24535521916E+02 -0.16147256485E+03 -0.89565910221E+02  0.22432662193E+03  0.12500000000E+03 0.  0.
         25    1    1    2    0    0  0.24535521916E+02  0.16147256485E+03  0.14813592635E+03  0.25346525149E+03  0.12500000000E+03 0.  0.
</event>
<event>
 4    0  0.2219362E-002  0.2525037E+03  0.7546771E-02  0.1111733E+00
         21   -1    0    0  502  501  0.00000000000E+00  0.00000000000E+00  0.40930837795E+02  0.40930837795E+02  0.00000000000E+00 0. -1.
         21   -1    0    0  501  502 -0.00000000000E+00 -0.00000000000E+00 -0.15577038466E+04  0.15577038466E+04  0.00000000000E+00 0. -1.
         25    1    1    2    0    0  0.17504631390E+03  0.13088647132E+03 -0.81850253310E+03  0.85635499477E+03  0.12500000000E+03 0.  0.
         25    1    1    2    0    0 -0.17504631390E+03 -0.13088647132E+03 -0.69827047575E+03  0.74227968966E+03  0.12500000000E+03 0.  0.
</event>
<event>
 4    0  0.2219362E-002  0.2031881E+03  0.7546771E-02  0.1147077E+00
         21   -1    0    0  502  501  0.00000000000E+00  0.00000000000E+00  0.46090907815E+02  0.46090907815E+02  0.00000000000E+00 0.  1.
         21   -1    0    0  501  502 -0.00000000000E+00 -0.00000000000E+00 -0.89573838085E+03  0.89573838085E+03  0.00000000000E+00 0.  1.
         25    1    1    2    0    0 -0.11618393227E+03  0.88271561004E+02 -0.27161773640E+03  0.33270372605E+03  0.12500000000E+03 0.  0.
         25    1    1    2    0    0  0.11618393227E+03 -0.88271561004E+02 -0.57802973663E+03  0.60912556262E+03  0.12500000000E+03 0.  0.
</event>
<event>
 4    0  0.2219362E-002  0.2458069E+03  0.7546771E-02  0.1115984E+00
         21   -1    0    0  502  501  0.00000000000E+00  0.00000000000E+00  0.15091318200E+04  0.15091318200E+04  0.00000000000E+00 0. -1.
         21   -1    0    0  501  502 -0.00000000000E+00 -0.00000000000E+00 -0.40036963685E+02  0.40036963685E+02  0.00000000000E+00 0. -1.
         25    1    1    2    0    0 -0.30749303641E+02  0.16834181273E+03  0.34208103973E+03  0.40240393056E+03  0.12500000000E+03 0.  0.
         25    1    1    2    0    0  0.30749303641E+02 -0.16834181273E+03  0.11270138166E+04  0.11467648531E+04  0.12500000000E+03 0.  0.
</event>
<event>
 4    0  0.2219362E-002  0.1805754E+03  0.7546771E-02  0.1167247E+00
         21   -1    0    0  502  501  0.00000000000E+00  0.00000000000E+00  0.12443000841E+02  0.12443000841E+02  0.00000000000E+00 0. -1.
         21   -1    0    0  501  502 -0.00000000000E+00 -0.00000000000E+00 -0.26205474926E+04  0.26205474926E+04  0.00000000000E+00 0. -1.
         25    1    1    2    0    0 -0.81237750546E+02 -0.52351256323E+02 -0.66671207798E+03  0.68517897010E+03  0.12500000000E+03 0.  0.
         25    1    1    2    0    0  0.81237750546E+02  0.52351256323E+02 -0.19413924138E+04  0.19478115234E+04  0.12500000000E+03 0.  0.
</event>
<event>
 4    0  0.2219362E-002  0.1929803E+03  0.7546771E-02  0.1155800E+00
         21   -1    0    0  502  501  0.00000000000E+00  0.00000000000E+00  0.72935490889E+02  0.72935490889E+02  0.00000000000E+00 0.  1.
         21   -1    0    0  501  502 -0.00000000000E+00 -0.00000000000E+00 -0.51060718138E+03  0.51060718138E+03  0.00000000000E+00 0.  1.
         25    1    1    2    0    0  0.13824736632E+03  0.11275339929E+02 -0.29254760761E+03  0.34705701305E+03  0.12500000000E+03 0.  0.
         25    1    1    2    0    0 -0.13824736632E+03 -0.11275339929E+02 -0.14512408288E+03  0.23648565922E+03  0.12500000000E+03 0.  0.
</event>
<event>
 4    0  0.2219362E-002  0.2718999E+03  0.7546771E-02  0.1100197E+00
         21   -1    0    0  502  501  0.00000000000E+00  0.00000000000E+00  0.23554845476E+03  0.23554845476E+03  0.00000000000E+00 0. -1.
         21   -1    0    0  501  502 -0.00000000000E+00 -0.00000000000E+00 -0.31386126320E+03  0.31386126320E+03  0.00000000000E+00 0. -1.
         25    1    1    2    0    0  0.35950828484E+02  0.34711760534E+02  0.19951607328E+03  0.24068450695E+03  0.12500000000E+03 0.  0.
         25    1    1    2    0    0 -0.35950828484E+02 -0.34711760534E+02 -0.27782888172E+03  0.30872521100E+03  0.12500000000E+03 0.  0.
</event>
<event>
 4    0  0.2219362E-002  0.2755474E+03  0.7546771E-02  0.1098146E+00
         21   -1    0    0  502  501  0.00000000000E+00  0.00000000000E+00  0.93802772659E+02  0.93802772659E+02  0.00000000000E+00 0.  1.
         21   -1    0    0  501  502 -0.00000000000E+00 -0.00000000000E+00 -0.80942543593E+03  0.80942543593E+03  0.00000000000E+00 0.  1.
         25    1    1    2    0    0 -0.28238557425E+02 -0.21400393351E+02  0.40448328494E+02  0.13607520068E+03  0.12500000000E+03 0.  0.
         25    1    1    2    0    0  0.28238557425E+02  0.21400393351E+02 -0.75607099176E+03  0.76715300791E+03  0.12500000000E+03 0.  0.
</event>
<event>
 4    0  0.2219362E-002  0.1939745E+03  0.7546771E-02  0.1154925E+00
         21   -1    0    0  502  501  0.00000000000E+00  0.00000000000E+00  0.19095270741E+03  0.19095270741E+03  0.00000000000E+00 0. -1.
         21   -1    0    0  501  502 -0.00000000000E+00 -0.00000000000E+00 -0.19704411315E+03  0.19704411315E+03  0.00000000000E+00 0. -1.
         25    1    1    2    0    0  0.11762092196E+02 -0.10643030165E+03  0.99608806718E+02  0.19238677267E+03  0.12500000000E+03 0.  0.
         25    1    1    2    0    0 -0.11762092196E+02  0.10643030165E+03 -0.10570021246E+03  0.19561004789E+03  0.12500000000E+03 0.  0.
</event>
<event>
 4    0  0.2219362E-002  0.2194189E+03  0.7546771E-02  0.1134317E+00
         21   -1    0    0  502  501  0.00000000000E+00  0.00000000000E+00  0.12743524438E+03  0.12743524438E+03  0.00000000000E+00 0.  1.
         21   -1    0    0  501  502 -0.00000000000E+00 -0.00000000000E+00 -0.37779686724E+03  0.37779686724E+03  0.00000000000E+00 0.  1.
         25    1    1    2    0    0  0.79326096521E+02 -0.13961210595E+03 -0.30694078569E+02  0.20579430550E+03  0.12500000000E+03 0.  0.
         25    1    1    2    0    0 -0.79326096521E+02  0.13961210595E+03 -0.21966754429E+03  0.29943780611E+03  0.12500000000E+03 0.  0.
</event>
<event>
 4    0  0.2219362E-002  0.5409441E+03  0.7546771E-02  0.1003612E+00
         21   -1    0    0  502  501  0.00000000000E+00  0.00000000000E+00  0.36698749457E+03  0.36698749457E+03  0.00000000000E+00 0. -1.
         21   -1    0    0  501  502 -0.00000000000E+00 -0.00000000000E+00 -0.79735821932E+03  0.79735821932E+03  0.00000000000E+00 0. -1.
         25    1    1    2    0    0  0.41251083033E+03  0.18223509180E+03  0.76825830872E+02  0.47423836002E+03  0.12500000000E+03 0.  0.
         25    1    1    2    0    0 -0.41251083033E+03 -0.18223509180E+03 -0.50719655562E+03  0.69010735386E+03  0.12500000000E+03 0.  0.
</event>
<event>
 4    0  0.2219362E-002  0.2399140E+03  0.7546771E-02  0.1119850E+00
         21   -1    0    0  502  501  0.00000000000E+00  0.00000000000E+00  0.14342638325E+04  0.14342638325E+04  0.00000000000E+00 0. -1.
         21   -1    0    0  501  502 -0.00000000000E+00 -0.00000000000E+00 -0.40131183914E+02  0.40131183914E+02  0.00000000000E+00 0. -1.
         25    1    1    2    0    0  0.48763735763E+02  0.15897922915E+03  0.10642757908E+04  0.10844170121E+04  0.12500000000E+03 0.  0.
         25    1    1    2    0    0 -0.48763735763E+02 -0.15897922915E+03  0.32985685778E+03  0.38997800432E+03  0.12500000000E+03 0.  0.
</event>
<event>
 4    0  0.2219362E-002  0.1811200E+03  0.7546771E-02  0.1166723E+00
         21   -1    0    0  502  501  0.00000000000E+00  0.00000000000E+00  0.32720541334E+02  0.32720541334E+02  0.00000000000E+00 0. -1.
         21   -1    0    0  501  502 -0.00000000000E+00 -0.00000000000E+00 -0.10025646979E+04  0.10025646979E+04  0.00000000000E+00 0. -1.
         25    1    1    2    0    0 -0.15488302668E+02 -0.12313415903E+03 -0.36442552709E+03  0.40476273721E+03  0.12500000000E+03 0.  0.
         25    1    1    2    0    0  0.15488302668E+02  0.12313415903E+03 -0.60541862944E+03  0.63052250199E+03  0.12500000000E+03 0.  0.
</event>
<event>
 4    0  0.2219362E-002  0.3075435E+03  0.7546771E-02  0.1081529E+00
         21   -1    0    0  502  501  0.00000000000E+00  0.00000000000E+00  0.75600004487E+02  0.75600004487E+02  0.00000000000E+00 0.  1.
         21   -1    0    0  501  502 -0.00000000000E+00 -0.00000000000E+00 -0.12510977477E+04  0.12510977477E+04  0.00000000000E+00 0.  1.
         25    1    1    2    0    0 -0.61280874617E+02  0.13153669267E+03 -0.68736686782E+02  0.20348704927E+03  0.12500000000E+03 0.  0.
         25    1    1    2    0    0  0.61280874617E+02 -0.13153669267E+03 -0.11067610564E+04  0.11232107029E+04  0.12500000000E+03 0.  0.
</event>
<event>
 4    0  0.2219362E-002  0.5616422E+03  0.7546771E-02  0.9988346E-01
         21   -1    0    0  502  501  0.00000000000E+00  0.00000000000E+00  0.11829410287E+04  0.11829410287E+04  0.00000000000E+00 0.  1.
         21   -1    0    0  501  502 -0.00000000000E+00 -0.00000000000E+00 -0.26665910701E+03  0.26665910701E+03  0.00000000000E+00 0.  1.
         25    1    1    2    0    0  0.49259459828E+03 -0.12964714900E+03  0.19888448232E+03  0.56092589422E+03  0.12500000000E+03 0.  0.
         25    1    1    2    0    0 -0.49259459828E+03  0.12964714900E+03  0.71739743942E+03  0.88867424154E+03  0.12500000000E+03 0.  0.
</event>
<event>
 4    0  0.2219362E-002  0.1915104E+03  0.7546771E-02  0.1157106E+00
         21   -1    0    0  502  501  0.00000000000E+00  0.00000000000E+00  0.48951934554E+03  0.48951934554E+03  0.00000000000E+00 0.  1.
         21   -1    0    0  501  502 -0.00000000000E+00 -0.00000000000E+00 -0.74922951570E+02  0.74922951570E+02  0.00000000000E+00 0.  1.
         25    1    1    2    0    0  0.12779542272E+03  0.42916743580E+02  0.12824467053E+03  0.22415443887E+03  0.12500000000E+03 0.  0.
         25    1    1    2    0    0 -0.12779542272E+03 -0.42916743580E+02  0.28635172344E+03  0.34028785824E+03  0.12500000000E+03 0.  0.
</event>
<event>
 4    0  0.2219362E-002  0.2911645E+03  0.7546771E-02  0.1089743E+00
         21   -1    0    0  502  501  0.00000000000E+00  0.00000000000E+00  0.12020291986E+03  0.12020291986E+03  0.00000000000E+00 0. -1.
         21   -1    0    0  501  502 -0.00000000000E+00 -0.00000000000E+00 -0.70528033662E+03  0.70528033662E+03  0.00000000000E+00 0. -1.
         25    1    1    2    0    0 -0.33935275687E+02 -0.13489810607E+03 -0.60888745589E+03  0.63695999552E+03  0.12500000000E+03 0.  0.
         25    1    1    2    0    0  0.33935275687E+02  0.13489810607E+03  0.23810039124E+02  0.18852326095E+03  0.12500000000E+03 0.  0.
</event>
<event>
 4    0  0.2219362E-002  0.2581196E+03  0.7546771E-02  0.1108278E+00
         21   -1    0    0  502  501  0.00000000000E+00  0.00000000000E+00  0.13779377877E+03  0.13779377877E+03  0.00000000000E+00 0. -1.
         21   -1    0    0  501  502 -0.00000000000E+00 -0.00000000000E+00 -0.48351777874E+03  0.48351777874E+03  0.00000000000E+00 0. -1.
         25    1    1    2    0    0 -0.18520268670E+03  0.83578004644E+02 -0.29149056667E+03  0.37666572512E+03  0.12500000000E+03 0.  0.
         25    1    1    2    0    0  0.18520268670E+03 -0.83578004644E+02 -0.54233433302E+02  0.24464583240E+03  0.12500000000E+03 0.  0.
</event>
<event>
 4    0  0.2219362E-002  0.1472114E+03  0.7546771E-02  0.1203942E+00
         21   -1    0    0  502  501  0.00000000000E+00  0.00000000000E+00  0.15028378656E+04  0.15028378656E+04  0.00000000000E+00 0.  1.
         21   -1    0    0  501  502 -0.00000000000E+00 -0.00000000000E+00 -0.14420178516E+02  0.14420178516E+02  0.00000000000E+00 0.  1.
         25    1    1    2    0    0 -0.21960452288E+01 -0.69792829441E+02  0.56791303468E+03  0.58568428066E+03  0.12500000000E+03 0.  0.
         25    1    1    2    0    0  0.21960452288E+01  0.69792829441E+02  0.92050465242E+03  0.93157376347E+03  0.12500000000E+03 0.  0.
</event>
<event>
 4    0  0.2219362E-002  0.4224038E+03  0.7546771E-02  0.1036287E+00
         21   -1    0    0  502  501  0.00000000000E+00  0.00000000000E+00  0.35174720171E+03  0.35174720171E+03  0.00000000000E+00 0.  1.
         21   -1    0    0  501  502 -0.00000000000E+00 -0.00000000000E+00 -0.50725330966E+03  0.50725330966E+03  0.00000000000E+00 0.  1.
         25    1    1    2    0    0 -0.11683523509E+02  0.42595659264E+02  0.33004475632E+03  0.35567602686E+03  0.12500000000E+03 0.  0.
         25    1    1    2    0    0  0.11683523509E+02 -0.42595659264E+02 -0.48555086427E+03  0.50332448451E+03  0.12500000000E+03 0.  0.
</event>
<event>
 4    0  0.2219362E-002  0.2619771E+03  0.7546771E-02  0.1105961E+00
         21   -1    0    0  502  501  0.00000000000E+00  0.00000000000E+00  0.30519701717E+03  0.30519701717E+03  0.00000000000E+00 0. -1.
         21   -1    0    0  501  502 -0.00000000000E+00 -0.00000000000E+00 -0.22487775418E+03  0.22487775418E+03  0.00000000000E+00 0. -1.
         25    1    1    2    0    0  0.28776983411E+02 -0.15099754377E+03 -0.13324458077E+03  0.23876241602E+03  0.12500000000E+03 0.  0.
         25    1    1    2    0    0 -0.28776983411E+02  0.15099754377E+03  0.21356384376E+03  0.29131235532E+03  0.12500000000E+03 0.  0.
</event>
<event>
 4    0  0.2219362E-002  0.2513860E+03  0.7546771E-02  0.1112432E+00
         21   -1    0    0  502  501  0.00000000000E+00  0.00000000000E+00  0.11516531819E+03  0.11516531819E+03  0.00000000000E+00 0. -1.
         21   -1    0    0  501  502 -0.00000000000E+00 -0.00000000000E+00 -0.54873202511E+03  0.54873202511E+03  0.00000000000E+00 0. -1.
         25    1    1    2    0    0 -0.79196784609E+02  0.16866323910E+03 -0.36647225097E+03  0.42970493324E+03  0.12500000000E+03 0.  0.
         25    1    1    2    0    0  0.79196784609E+02 -0.16866323910E+03 -0.67094455943E+02  0.23419241007E+03  0.12500000000E+03 0.  0.
</event>
<event>
 4    0  0.2219362E-002  0.1757167E+03  0.7546771E-02  0.1172014E+00
         21   -1    0    0  502  501  0.00000000000E+00  0.00000000000E+00  0.92713457982E+02  0.92713457982E+02  0.00000000000E+00 0. -1.
         21   -1    0    0  501  502 -0.00000000000E+00 -0.00000000000E+00 -0.33303007477E+03  0.33303007477E+03  0.00000000000E+00 0. -1.
         25    1    1    2    0    0  0.40685583462E+02 -0.10605309779E+03 -0.61446240993E+02  0.17973095667E+03  0.12500000000E+03 0.  0.
         25    1    1    2    0    0 -0.40685583462E+02  0.10605309779E+03 -0.17887037579E+03  0.24601257608E+03  0.12500000000E+03 0.  0.
</event>
<event>
 4    0  0.2219362E-002  0.1855892E+03  0.7546771E-02  0.1162501E+00
         21   -1    0    0  502  501  0.00000000000E+00  0.00000000000E+00  0.63257462512E+02  0.63257462512E+02  0.00000000000E+00 0.  1.
         21   -1    0    0  501  502 -0.00000000000E+00 -0.00000000000E+00 -0.54449457384E+03  0.54449457384E+03  0.00000000000E+00 0.  1.
         25    1    1    2    0    0 -0.75382919212E+02  0.48117074123E+02 -0.70297795799E+02  0.16901070210E+03  0.12500000000E+03 0.  0.
         25    1    1    2    0    0  0.75382919212E+02 -0.48117074123E+02 -0.41093931553E+03  0.43874133425E+03  0.12500000000E+03 0.  0.
</event>
<event>
 4    0  0.2219362E-002  0.2216231E+03  0.7546771E-02  0.1132679E+00
         21   -1    0    0  502  501  0.00000000000E+00  0.00000000000E+00  0.13025233283E+04  0.13025233283E+04  0.00000000000E+00 0.  1.
         21   -1    0    0  501  502 -0.00000000000E+00 -0.00000000000E+00 -0.37708941797E+02  0.37708941797E+02  0.00000000000E+00 0.  1.
         25    1    1    2    0    0  0.13670614092E+03  0.71778622382E+02  0.33536227118E+03  0.38978659870E+03  0.12500000000E+03 0.  0.
         25    1    1    2    0    0 -0.13670614092E+03 -0.71778622382E+02  0.92945211531E+03  0.95044567138E+03  0.12500000000E+03 0.  0.
</event>
<event>
 4    0  0.2219362E-002  0.2544140E+03  0.7546771E-02  0.1110547E+00
         21   -1    0    0  502  501  0.00000000000E+00  0.00000000000E+00  0.93534267846E+03  0.93534267846E+03  0.00000000000E+00 0. -1.
         21   -1    0    0  501  502 -0.00000000000E+00 -0.00000000000E+00 -0.69200796821E+02  0.69200796821E+02  0.00000000000E+00 0. -1.
         25    1    1    2    0    0  0.65243902483E+02 -0.17831693720E+03  0.20756092924E+03  0.30783150627E+03  0.12500000000E+03 0.  0.
         25    1    1    2    0    0 -0.65243902483E+02  0.17831693720E+03  0.65858095239E+03  0.69671196901E+03  0.12500000000E+03 0.  0.
</event>
<event>
 4    0  0.2219362E-002  0.2533518E+03  0.7546771E-02  0.1111205E+00
         21   -1    0    0  502  501  0.00000000000E+00  0.00000000000E+00  0.11853988542E+04  0.11853988542E+04  0.00000000000E+00 0.  1.
         21   -1    0    0  501  502 -0.00000000000E+00 -0.00000000000E+00 -0.54148150415E+02  0.54148150415E+02  0.00000000000E+00 0.  1.
         25    1    1    2    0    0  0.20107198514E+03  0.44903155677E+02  0.37431441563E+03  0.44517695172E+03  0.12500000000E+03 0.  0.
         25    1    1    2    0    0 -0.20107198514E+03 -0.44903155677E+02  0.75693628811E+03  0.79437005284E+03  0.12500000000E+03 0.  0.
</event>
<event>
 4    0  0.2219362E-002  0.2000644E+03  0.7546771E-02  0.1149685E+00
         21   -1    0    0  502  501  0.00000000000E+00  0.00000000000E+00  0.74636427698E+02  0.74636427698E+02  0.00000000000E+00 0. -1.
         21   -1    0    0  501  502 -0.00000000000E+00 -0.00000000000E+00 -0.53627648680E+03  0.53627648680E+03  0.00000000000E+00 0. -1.
         25    1    1    2    0    0 -0.86297626827E+02 -0.12378252873E+03 -0.16915268191E+03  0.25885715098E+03  0.12500000000E+03 0.  0.
         25    1    1    2    0    0  0.86297626827E+02  0.12378252873E+03 -0.29248737719E+03  0.35205576353E+03  0.12500000000E+03 0.  0.
</event>
<event>
 4    0  0.2219362E-002  0.2033780E+03  0.7546771E-02  0.1146920E+00
         21   -1    0    0  502  501  0.00000000000E+00  0.00000000000E+00  0.10904420278E+04  0.10904420278E+04  0.00000000000E+00 0.  1.
         21   -1    0    0  501  502 -0.00000000000E+00 -0.00000000000E+00 -0.37931983099E+02  0.37931983099E+02  0.00000000000E+00 0.  1.
         25    1    1    2    0    0 -0.99118240203E+02 -0.12008561746E+03  0.41907899777E+03  0.46421674618E+03  0.12500000000E+03 0.  0.
         25    1    1    2    0    0  0.99118240203E+02  0.12008561746E+03  0.63343104696E+03  0.66415726474E+03  0.12500000000E+03 0.  0.
</event>
<event>
 4    0  0.2219362E-002  0.4711946E+03  0.7546771E-02  0.1021584E+00
         21   -1    0    0  502  501  0.00000000000E+00  0.00000000000E+00  0.19830344884E+04  0.19830344884E+04  0.00000000000E+00 0.  1.
         21   -1    0    0  501  502 -0.00000000000E+00 -0.00000000000E+00 -0.11196189937E+03  0.11196189937E+03  0.00000000000E+00 0.  1.
         25    1    1    2    0    0  0.16037948634E+03 -0.42427306508E+03  0.99308307518E+03  0.10988940839E+04  0.12500000000E+03 0.  0.
         25    1    1    2    0    0 -0.16037948634E+03  0.42427306508E+03  0.87798951388E+03  0.99610230392E+03  0.12500000000E+03 0.  0.
</event>
<event>
 4    0  0.2219362E-002  0.1809372E+03  0.7546771E-02  0.1166899E+00
         21   -1    0    0  502  501  0.00000000000E+00  0.00000000000E+00  0.10976998849E+03  0.10976998849E+03  0.00000000000E+00 0. -1.
         21   -1    0    0  501  502 -0.00000000000E+00 -0.00000000000E+00 -0.29824437118E+03  0.29824437118E+03  0.00000000000E+00 0. -1.
         25    1    1    2    0    0  0.68658180674E+02  0.34894650310E+02  0.24988928335E+02  0.14893296792E+03  0.12500000000E+03 0.  0.
         25    1    1    2    0    0 -0.68658180674E+02 -0.34894650310E+02 -0.21346331103E+03  0.25908139175E+03  0.12500000000E+03 0.  0.
</event>
<event>
 4    0  0.2219362E-002  0.2988261E+03  0.7546771E-02  0.1085829E+00
         21   -1    0    0  502  501  0.00000000000E+00  0.00000000000E+00  0.18207637004E+03  0.18207637004E+03  0.00000000000E+00 0. -1.
         21   -1    0    0  501  502 -0.00000000000E+00 -0.00000000000E+00 -0.49043724325E+03  0.49043724325E+03  0.00000000000E+00 0. -1.
         25    1    1    2    0    0 -0.22277710411E+03  0.11392851619E+03 -0.27253442647E+03  0.39052446598E+03  0.12500000000E+03 0.  0.
         25    1    1    2    0    0  0.22277710411E+03 -0.11392851619E+03 -0.35826446739E+02  0.28198914731E+03  0.12500000000E+03 0.  0.
</event>
<event>
 4    0  0.2219362E-002  0.4015187E+03  0.7546771E-02  0.1043255E+00
         21   -1    0    0  502  501  0.00000000000E+00  0.00000000000E+00  0.63073751263E+03  0.63073751263E+03  0.00000000000E+00 0.  1.
         21   -1    0    0  501  502 -0.00000000000E+00 -0.00000000000E+00 -0.25560119836E+03  0.25560119836E+03  0.00000000000E+00 0.  1.
         25    1    1    2    0    0  0.23868638882E+03 -0.28908583323E+03  0.10912968766E+03  0.40997085251E+03  0.12500000000E+03 0.  0.
         25    1    1    2    0    0 -0.23868638882E+03  0.28908583323E+03  0.26600662662E+03  0.47636785847E+03  0.12500000000E+03 0.  0.
</event>
<event>
 4    0  0.2219362E-002  0.2624555E+03  0.7546771E-02  0.1105677E+00
         21   -1    0    0  502  501  0.00000000000E+00  0.00000000000E+00  0.11843804114E+03  0.11843804114E+03  0.00000000000E+00 0. -1.
         21   -1    0    0  501  502 -0.00000000000E+00 -0.00000000000E+00 -0.58159420286E+03  0.58159420286E+03  0.00000000000E+00 0. -1.
         25    1    1    2    0    0  0.22618863323E+03  0.48794352510E+01 -0.29229477445E+03  0.39018757266E+03  0.12500000000E+03 0.  0.
         25    1    1    2    0    0 -0.22618863323E+03 -0.48794352510E+01 -0.17086138728E+03  0.30984467133E+03  0.12500000000E+03 0.  0.
</event>
<event>
 4    0  0.2219362E-002  0.2328559E+03  0.7546771E-02  0.1124646E+00
         21   -1    0    0  502  501  0.00000000000E+00  0.00000000000E+00  0.21503575321E+04  0.21503575321E+04  0.00000000000E+00 0. -1.
         21   -1    0    0  501  502 -0.00000000000E+00 -0.00000000000E+00 -0.25215283674E+02  0.25215283674E+02  0.00000000000E+00 0. -1.
         25    1    1    2    0    0 -0.15992223834E+03 -0.85142585564E+02  0.70764491701E+03  0.74108751896E+03  0.12500000000E+03 0.  0.
         25    1    1    2    0    0  0.15992223834E+03  0.85142585564E+02  0.14174973314E+04  0.14344852968E+04  0.12500000000E+03 0.  0.
</event>
<event>
 4    0  0.2219362E-002  0.2339048E+03  0.7546771E-02  0.1123921E+00
         21   -1    0    0  502  501  0.00000000000E+00  0.00000000000E+00  0.91301507176E+03  0.91301507176E+03  0.00000000000E+00 0.  1.
         21   -1    0    0  501  502 -0.00000000000E+00 -0.00000000000E+00 -0.59923934360E+02  0.59923934360E+02  0.00000000000E+00 0.  1.
         25    1    1    2    0    0  0.94934110537E+02  0.15640122595E+01  0.78720243395E+03  0.80270019527E+03  0.12500000000E+03 0.  0.
         25    1    1    2    0    0 -0.94934110537E+02 -0.15640122595E+01  0.65888703459E+02  0.17023881085E+03  0.12500000000E+03 0.  0.
</event>
<event>
 4    0  0.2378368E-002  0.2147390E+03  0.7546771E-02  0.1137867E+00
         21   -1    0    0  502  501  0.00000000000E+00  0.00000000000E+00  0.15539508548E+03  0.15539508548E+03  0.00000000000E+00 0.  1.
         21   -1    0    0  501  502 -0.00000000000E+00 -0.00000000000E+00 -0.29674574214E+03  0.29674574214E+03  0.00000000000E+00 0.  1.
         25    1    1    2    0    0  0.32143579913E+02  0.14104173972E+02  0.10939329020E+03  0.16977641000E+03  0.12500000000E+03 0.  0.
         25    1    1    2    0    0 -0.32143579913E+02 -0.14104173972E+02 -0.25074394685E+03  0.28236441762E+03  0.12500000000E+03 0.  0.
</event>
<event>
 4    0  0.2219362E-002  0.1679672E+03  0.7546771E-02  0.1179984E+00
         21   -1    0    0  502  501  0.00000000000E+00  0.00000000000E+00  0.62857703019E+02  0.62857703019E+02  0.00000000000E+00 0.  1.
         21   -1    0    0  501  502 -0.00000000000E+00 -0.00000000000E+00 -0.44883911064E+03  0.44883911064E+03  0.00000000000E+00 0.  1.
         25    1    1    2    0    0  0.26745468547E+02 -0.10869864000E+03 -0.20451896410E+03  0.26454436509E+03  0.12500000000E+03 0.  0.
         25    1    1    2    0    0 -0.26745468547E+02  0.10869864000E+03 -0.18146244353E+03  0.24715244857E+03  0.12500000000E+03 0.  0.
</event>
<event>
 4    0  0.2219362E-002  0.2510455E+03  0.7546771E-02  0.1112646E+00
         21   -1    0    0  502  501  0.00000000000E+00  0.00000000000E+00  0.24525000512E+03  0.24525000512E+03  0.00000000000E+00 0.  1.
         21   -1    0    0  501  502 -0.00000000000E+00 -0.00000000000E+00 -0.25697786308E+03  0.25697786308E+03  0.00000000000E+00 0.  1.
         25    1    1    2    0    0 -0.15793957792E+03  0.10090454797E+03  0.10494617815E+03  0.24852633337E+03  0.12500000000E+03 0.  0.
         25    1    1    2    0    0  0.15793957792E+03 -0.10090454797E+03 -0.11667403611E+03  0.25370153483E+03  0.12500000000E+03 0.  0.
</event>
<event>
 4    0  0.2219362E-002  0.2490519E+03  0.7546771E-02  0.1113905E+00
         21   -1    0    0  502  501  0.00000000000E+00  0.00000000000E+00  0.27265679359E+03  0.27265679359E+03  0.00000000000E+00 0.  1.
         21   -1    0    0  501  502 -0.00000000000E+00 -0.00000000000E+00 -0.22749064519E+03  0.22749064519E+03  0.00000000000E+00 0.  1.
         25    1    1    2    0    0  0.59249469136E+02  0.19441315698E+03  0.94254447587E+02  0.25654605062E+03  0.12500000000E+03 0.  0.
         25    1    1    2    0    0 -0.59249469136E+02 -0.19441315698E+03 -0.49088299193E+02  0.24360138816E+03  0.12500000000E+03 0.  0.
</event>
<event>
 4    0  0.2219362E-002  0.2766298E+03  0.7546771E-02  0.1097544E+00
         21   -1    0    0  502  501  0.00000000000E+00  0.00000000000E+00  0.33797358936E+03  0.33797358936E+03  0.00000000000E+00 0. -1.
         21   -1    0    0  501  502 -0.00000000000E+00 -0.00000000000E+00 -0.22642024039E+03  0.22642024039E+03  0.00000000000E+00 0. -1.
         25    1    1    2    0    0 -0.19703757933E+03 -0.14830059871E+03  0.65024772876E+02  0.28402481641E+03  0.12500000000E+03 0.  0.
         25    1    1    2    0    0  0.19703757933E+03  0.14830059871E+03  0.46528576096E+02  0.28036901334E+03  0.12500000000E+03 0.  0.
</event>
<event>
 4    0  0.2219362E-002  0.2471937E+03  0.7546771E-02  0.1115091E+00
         21   -1    0    0  502  501  0.00000000000E+00  0.00000000000E+00  0.12717433528E+03  0.12717433528E+03  0.00000000000E+00 0.  1.
         21   -1    0    0  501  502 -0.00000000000E+00 -0.00000000000E+00 -0.48047991740E+03  0.48047991740E+03  0.00000000000E+00 0.  1.
         25    1    1    2    0    0  0.58791656488E+02 -0.39346813878E+02 -0.42392941593E+03  0.44760002270E+03  0.12500000000E+03 0.  0.
         25    1    1    2    0    0 -0.58791656488E+02  0.39346813878E+02  0.70623833804E+02  0.16005422999E+03  0.12500000000E+03 0.  0.
</event>
<event>
 4    0  0.2219362E-002  0.2152605E+03  0.7546771E-02  0.1137467E+00
         21   -1    0    0  502  501  0.00000000000E+00  0.00000000000E+00  0.25636118624E+03  0.25636118624E+03  0.00000000000E+00 0.  1.
         21   -1    0    0  501  502 -0.00000000000E+00 -0.00000000000E+00 -0.18074921976E+03  0.18074921976E+03  0.00000000000E+00 0.  1.
         25    1    1    2    0    0 -0.38108354392E+02 -0.10887425390E+03 -0.96146020293E+02  0.19538399897E+03  0.12500000000E+03 0.  0.
         25    1    1    2    0    0  0.38108354392E+02  0.10887425390E+03  0.17175798677E+03  0.24172640703E+03  0.12500000000E+03 0.  0.
</event>
<event>
 4    0  0.2219362E-002  0.1830422E+03  0.7546771E-02  0.1164891E+00
         21   -1    0    0  502  501  0.00000000000E+00  0.00000000000E+00  0.29382299575E+02  0.29382299575E+02  0.00000000000E+00 0. -1.
         21   -1    0    0  501  502 -0.00000000000E+00 -0.00000000000E+00 -0.11402934226E+04  0.11402934226E+04  0.00000000000E+00 0. -1.
         25    1    1    2    0    0 -0.16592865533E+02 -0.11412558457E+03 -0.33923752363E+03  0.37948263423E+03  0.12500000000E+03 0.  0.
         25    1    1    2    0    0  0.16592865533E+02  0.11412558457E+03 -0.77167359941E+03  0.79019308796E+03  0.12500000000E+03 0.  0.
</event>
<event>
 4    0  0.2219362E-002  0.2686131E+03  0.7546771E-02  0.1102076E+00
         21   -1    0    0  502  501  0.00000000000E+00  0.00000000000E+00  0.47390396931E+03  0.47390396931E+03  0.00000000000E+00 0.  1.
         21   -1    0    0  501  502 -0.00000000000E+00 -0.00000000000E+00 -0.15225230580E+03  0.15225230580E+03  0.00000000000E+00 0.  1.
         25    1    1    2    0    0  0.12941000670E+02  0.10786553403E+03  0.40731814060E+03  0.43969934113E+03  0.12500000000E+03 0.  0.
         25    1    1    2    0    0 -0.12941000670E+02 -0.10786553403E+03 -0.85666477098E+02  0.18645693398E+03  0.12500000000E+03 0.  0.
</event>
<event>
 4    0  0.2219362E-002  0.2898376E+03  0.7546771E-02  0.1090434E+00
         21   -1    0    0  502  501  0.00000000000E+00  0.00000000000E+00  0.49222356895E+02  0.49222356895E+02  0.00000000000E+00 0. -1.
         21   -1    0    0  501  502 -0.00000000000E+00 -0.00000000000E+00 -0.17066596669E+04  0.17066596669E+04  0.00000000000E+00 0.  1.
         25    1    1    2    0    0  0.14658148828E+03 -0.12230859146E+03 -0.13700286965E+04  0.13889021397E+04  0.12500000000E+03 0.  0.
         25    1    1    2    0    0 -0.14658148828E+03  0.12230859146E+03 -0.28740861344E+03  0.36697988410E+03  0.12500000000E+03 0.  0.
</event>
<event>
 4    0  0.2219362E-002  0.2079087E+03  0.7546771E-02  0.1143233E+00
         21   -1    0    0  502  501  0.00000000000E+00  0.00000000000E+00  0.12005768115E+03  0.12005768115E+03  0.00000000000E+00 0. -1.
         21   -1    0    0  501  502 -0.00000000000E+00 -0.00000000000E+00 -0.36004395732E+03  0.36004395732E+03  0.00000000000E+00 0. -1.
         25    1    1    2    0    0 -0.12863187794E+02  0.13806369173E+03 -0.14336477143E+02  0.18723669285E+03  0.12500000000E+03 0.  0.
         25    1    1    2    0    0  0.12863187794E+02 -0.13806369173E+03 -0.22564979902E+03  0.29286494562E+03  0.12500000000E+03 0.  0.
</event>
<event>
 4    0  0.2219362E-002  0.2174001E+03  0.7546771E-02  0.1135836E+00
         21   -1    0    0  502  501  0.00000000000E+00  0.00000000000E+00  0.29524196984E+03  0.29524196984E+03  0.00000000000E+00 0.  1.
         21   -1    0    0  501  502 -0.00000000000E+00 -0.00000000000E+00 -0.16008166149E+03  0.16008166149E+03  0.00000000000E+00 0.  1.
         25    1    1    2    0    0  0.15155282205E+03  0.72663027889E+02  0.66113206208E+01  0.20956355374E+03  0.12500000000E+03 0.  0.
         25    1    1    2    0    0 -0.15155282205E+03 -0.72663027889E+02  0.12854898773E+03  0.24576007760E+03  0.12500000000E+03 0.  0.
</event>
<event>
 4    0  0.2219362E-002  0.2215532E+03  0.7546771E-02  0.1132730E+00
         21   -1    0    0  502  501  0.00000000000E+00  0.00000000000E+00  0.16075775112E+03  0.16075775112E+03  0.00000000000E+00 0.  1.
         21   -1    0    0  501  502 -0.00000000000E+00 -0.00000000000E+00 -0.30534026645E+03  0.30534026645E+03  0.00000000000E+00 0.  1.
         25    1    1    2    0    0 -0.17328191034E+03  0.44465520216E+02 -0.11244266452E+03  0.24550388132E+03  0.12500000000E+03 0.  0.
         25    1    1    2    0    0  0.17328191034E+03 -0.44465520216E+02 -0.32139850811E+02  0.22059413625E+03  0.12500000000E+03 0.  0.
</event>
<event>
 4    0  0.2219362E-002  0.2328046E+03  0.7546771E-02  0.1124681E+00
         21   -1    0    0  502  501  0.00000000000E+00  0.00000000000E+00  0.12240698573E+03  0.12240698573E+03  0.00000000000E+00 0. -1.
         21   -1    0    0  501  502 -0.00000000000E+00 -0.00000000000E+00 -0.44276860270E+03  0.44276860270E+03  0.00000000000E+00 0. -1.
         25    1    1    2    0    0  0.77050206469E+02 -0.67670179517E+02 -0.36350187074E+03  0.39783740089E+03  0.12500000000E+03 0.  0.
         25    1    1    2    0    0 -0.77050206469E+02  0.67670179517E+02  0.43140253776E+02  0.16733818754E+03  0.12500000000E+03 0.  0.
</event>
<event>
 4    0  0.2219362E-002  0.2088967E+03  0.7546771E-02  0.1142443E+00
         21   -1    0    0  502  501  0.00000000000E+00  0.00000000000E+00  0.10038060761E+03  0.10038060761E+03  0.00000000000E+00 0.  1.
         21   -1    0    0  501  502 -0.00000000000E+00 -0.00000000000E+00 -0.43472354526E+03  0.43472354526E+03  0.00000000000E+00 0.  1.
         25    1    1    2    0    0  0.42605109084E+01 -0.42242216079E+02  0.40182557473E+02  0.13799345889E+03  0.12500000000E+03 0.  0.
         25    1    1    2    0    0 -0.42605109084E+01  0.42242216079E+02 -0.37452549512E+03  0.39711069398E+03  0.12500000000E+03 0.  0.
</event>
<event>
 4    0  0.2219362E-002  0.2182970E+03  0.7546771E-02  0.1135159E+00
         21   -1    0    0  502  501  0.00000000000E+00  0.00000000000E+00  0.90784468097E+03  0.90784468097E+03  0.00000000000E+00 0. -1.
         21   -1    0    0  501  502 -0.00000000000E+00 -0.00000000000E+00 -0.52490919211E+02  0.52490919211E+02  0.00000000000E+00 0. -1.
         25    1    1    2    0    0 -0.51807188215E+02  0.14033265840E+03  0.64376926988E+03  0.67263743027E+03  0.12500000000E+03 0.  0.
         25    1    1    2    0    0  0.51807188215E+02 -0.14033265840E+03  0.21158449188E+03  0.28769816991E+03  0.12500000000E+03 0.  0.
</event>
<event>
 4    0  0.2219362E-002  0.1838760E+03  0.7546771E-02  0.1164104E+00
         21   -1    0    0  502  501  0.00000000000E+00  0.00000000000E+00  0.32307822862E+02  0.32307822862E+02  0.00000000000E+00 0.  1.
         21   -1    0    0  501  502 -0.00000000000E+00 -0.00000000000E+00 -0.10465072533E+04  0.10465072533E+04  0.00000000000E+00 0.  1.
         25    1    1    2    0    0  0.13052507950E+03 -0.20233595895E+02 -0.58685620392E+03  0.61438701065E+03  0.12500000000E+03 0.  0.
         25    1    1    2    0    0 -0.13052507950E+03  0.20233595895E+02 -0.42734322655E+03  0.46442806554E+03  0.12500000000E+03 0.  0.
</event>
<event>
 4    0  0.2219362E-002  0.1857709E+03  0.7546771E-02  0.1162332E+00
         21   -1    0    0  502  501  0.00000000000E+00  0.00000000000E+00  0.10021835349E+03  0.10021835349E+03  0.00000000000E+00 0. -1.
         21   -1    0    0  501  502 -0.00000000000E+00 -0.00000000000E+00 -0.34435635539E+03  0.34435635539E+03  0.00000000000E+00 0. -1.
         25    1    1    2    0    0 -0.89806054592E+02 -0.78296273245E+02 -0.20401763059E+03  0.26728940764E+03  0.12500000000E+03 0.  0.
         25    1    1    2    0    0  0.89806054592E+02  0.78296273245E+02 -0.40120371313E+02  0.17728530125E+03  0.12500000000E+03 0.  0.
</event>
<event>
 4    0  0.2219362E-002  0.1898810E+03  0.7546771E-02  0.1158569E+00
         21   -1    0    0  502  501  0.00000000000E+00  0.00000000000E+00  0.61590705981E+02  0.61590705981E+02  0.00000000000E+00 0.  1.
         21   -1    0    0  501  502 -0.00000000000E+00 -0.00000000000E+00 -0.58539346686E+03  0.58539346686E+03  0.00000000000E+00 0.  1.
         25    1    1    2    0    0  0.47428476788E+02 -0.88161960175E+02 -0.88096601673E+02  0.18277856236E+03  0.12500000000E+03 0.  0.
         25    1    1    2    0    0 -0.47428476788E+02  0.88161960175E+02 -0.43570615920E+03  0.46420561048E+03  0.12500000000E+03 0.  0.
</event>
<event>
 4    0  0.2219362E-002  0.5538149E+03  0.7546771E-02  0.1000615E+00
         21   -1    0    0  502  501  0.00000000000E+00  0.00000000000E+00  0.17684696037E+03  0.17684696037E+03  0.00000000000E+00 0. -1.
         21   -1    0    0  501  502 -0.00000000000E+00 -0.00000000000E+00 -0.17343300501E+04  0.17343300501E+04  0.00000000000E+00 0. -1.
         25    1    1    2    0    0  0.51103753661E+03 -0.15770536059E+03 -0.90142750721E+03  0.10555694649E+04  0.12500000000E+03 0.  0.
         25    1    1    2    0    0 -0.51103753661E+03  0.15770536059E+03 -0.65605558249E+03  0.85560754549E+03  0.12500000000E+03 0.  0.
</event>
<event>
 4    0  0.2219362E-002  0.3300942E+03  0.7546771E-02  0.1071095E+00
         21   -1    0    0  502  501  0.00000000000E+00  0.00000000000E+00  0.10050011350E+04  0.10050011350E+04  0.00000000000E+00 0. -1.
         21   -1    0    0  501  502 -0.00000000000E+00 -0.00000000000E+00 -0.10841998852E+03  0.10841998852E+03  0.00000000000E+00 0.  1.
         25    1    1    2    0    0  0.96163908166E+02 -0.22480293209E+03  0.13936099712E+03  0.30794535721E+03  0.12500000000E+03 0.  0.
         25    1    1    2    0    0 -0.96163908166E+02  0.22480293209E+03  0.75722014941E+03  0.80547576635E+03  0.12500000000E+03 0.  0.
</event>
<event>
 4    0  0.2219362E-002  0.3220425E+03  0.7546771E-02  0.1074713E+00
         21   -1    0    0  502  501  0.00000000000E+00  0.00000000000E+00  0.77717212786E+03  0.77717212786E+03  0.00000000000E+00 0. -1.
         21   -1    0    0  501  502 -0.00000000000E+00 -0.00000000000E+00 -0.13344710999E+03  0.13344710999E+03  0.00000000000E+00 0. -1.
         25    1    1    2    0    0 -0.11616243407E+03  0.49122509156E+02 -0.57977750262E+02  0.18679708649E+03  0.12500000000E+03 0.  0.
         25    1    1    2    0    0  0.11616243407E+03 -0.49122509156E+02  0.70170276813E+03  0.72382215136E+03  0.12500000000E+03 0.  0.
</event>
<event>
 4    0  0.2219362E-002  0.2323585E+03  0.7546771E-02  0.1124991E+00
         21   -1    0    0  502  501  0.00000000000E+00  0.00000000000E+00  0.76120682402E+03  0.76120682402E+03  0.00000000000E+00 0. -1.
         21   -1    0    0  501  502 -0.00000000000E+00 -0.00000000000E+00 -0.70927446078E+02  0.70927446078E+02  0.00000000000E+00 0. -1.
         25    1    1    2    0    0  0.15443083555E+03  0.83023955721E+02  0.50148499433E+03  0.54576007524E+03  0.12500000000E+03 0.  0.
         25    1    1    2    0    0 -0.15443083555E+03 -0.83023955721E+02  0.18879438361E+03  0.28637419485E+03  0.12500000000E+03 0.  0.
</event>
<event>
 4    0  0.2219362E-002  0.1458464E+03  0.7546771E-02  0.1205672E+00
         21   -1    0    0  502  501  0.00000000000E+00  0.00000000000E+00  0.11172780026E+03  0.11172780026E+03  0.00000000000E+00 0. -1.
         21   -1    0    0  501  502 -0.00000000000E+00 -0.00000000000E+00 -0.19038380200E+03  0.19038380200E+03  0.00000000000E+00 0. -1.
         25    1    1    2    0    0  0.61485752804E+02 -0.22236436028E+02 -0.97554127507E+00  0.14107058009E+03  0.12500000000E+03 0.  0.
         25    1    1    2    0    0 -0.61485752804E+02  0.22236436028E+02 -0.77680460466E+02  0.16104102218E+03  0.12500000000E+03 0.  0.
</event>
<event>
 4    0  0.2219362E-002  0.1712739E+03  0.7546771E-02  0.1176526E+00
         21   -1    0    0  502  501  0.00000000000E+00  0.00000000000E+00  0.26219644684E+03  0.26219644684E+03  0.00000000000E+00 0.  1.
         21   -1    0    0  501  502 -0.00000000000E+00 -0.00000000000E+00 -0.11188081743E+03  0.11188081743E+03  0.00000000000E+00 0.  1.
         25    1    1    2    0    0  0.59798508344E+02 -0.95745702636E+02  0.10911057553E+03  0.20068188475E+03  0.12500000000E+03 0.  0.
         25    1    1    2    0    0 -0.59798508344E+02  0.95745702636E+02  0.41205053883E+02  0.17339537952E+03  0.12500000000E+03 0.  0.
</event>
<event>
 4    0  0.2219362E-002  0.5079496E+03  0.7546771E-02  0.1011725E+00
         21   -1    0    0  502  501  0.00000000000E+00  0.00000000000E+00  0.73338122856E+03  0.73338122856E+03  0.00000000000E+00 0.  1.
         21   -1    0    0  501  502 -0.00000000000E+00 -0.00000000000E+00 -0.35181267540E+03  0.35181267540E+03  0.00000000000E+00 0.  1.
         25    1    1    2    0    0  0.45393934270E+03  0.15116441692E+03  0.31478965075E+03  0.58619888435E+03  0.12500000000E+03 0.  0.
         25    1    1    2    0    0 -0.45393934270E+03 -0.15116441692E+03  0.66778902407E+02  0.49899501961E+03  0.12500000000E+03 0.  0.
</event>
<event>
 4    0  0.2219362E-002  0.1903481E+03  0.7546771E-02  0.1158148E+00
         21   -1    0    0  502  501  0.00000000000E+00  0.00000000000E+00  0.12777420038E+03  0.12777420038E+03  0.00000000000E+00 0. -1.
         21   -1    0    0  501  502 -0.00000000000E+00 -0.00000000000E+00 -0.28356576143E+03  0.28356576143E+03  0.00000000000E+00 0. -1.
         25    1    1    2    0    0 -0.78797540485E+02 -0.35125966233E+02  0.46076517663E+02  0.15871651259E+03  0.12500000000E+03 0.  0.
         25    1    1    2    0    0  0.78797540485E+02  0.35125966233E+02 -0.20186807871E+03  0.25262344921E+03  0.12500000000E+03 0.  0.
</event>
<event>
 4    0  0.2219362E-002  0.2796800E+03  0.7546771E-02  0.1095864E+00
         21   -1    0    0  502  501  0.00000000000E+00  0.00000000000E+00  0.22458083794E+04  0.22458083794E+04  0.00000000000E+00 0. -1.
         21   -1    0    0  501  502 -0.00000000000E+00 -0.00000000000E+00 -0.34829724955E+02  0.34829724955E+02  0.00000000000E+00 0.  1.
         25    1    1    2    0    0  0.56606565063E+02  0.18622570630E+03  0.17464261001E+04  0.17616791535E+04  0.12500000000E+03 0.  0.
         25    1    1    2    0    0 -0.56606565063E+02 -0.18622570630E+03  0.46455255441E+03  0.51895895088E+03  0.12500000000E+03 0.  0.
</event>
<event>
 4    0  0.2219362E-002  0.3102298E+03  0.7546771E-02  0.1080236E+00
         21   -1    0    0  502  501  0.00000000000E+00  0.00000000000E+00  0.44037938966E+03  0.44037938966E+03  0.00000000000E+00 0. -1.
         21   -1    0    0  501  502 -0.00000000000E+00 -0.00000000000E+00 -0.21854462819E+03  0.21854462819E+03  0.00000000000E+00 0. -1.
         25    1    1    2    0    0 -0.68958972256E+02 -0.41158135924E+02  0.40013896707E+03  0.42683196340E+03  0.12500000000E+03 0.  0.
         25    1    1    2    0    0  0.68958972256E+02  0.41158135924E+02 -0.17830420560E+03  0.23209205446E+03  0.12500000000E+03 0.  0.
</event>
<event>
 4    0  0.2219362E-002  0.1679866E+03  0.7546771E-02  0.1179964E+00
         21   -1    0    0  502  501  0.00000000000E+00  0.00000000000E+00  0.29338540873E+02  0.29338540873E+02  0.00000000000E+00 0.  1.
         21   -1    0    0  501  502 -0.00000000000E+00 -0.00000000000E+00 -0.96185742089E+03  0.96185742089E+03  0.00000000000E+00 0.  1.
         25    1    1    2    0    0 -0.10427179832E+03  0.28161974599E+02 -0.55617054640E+03  0.58018650572E+03  0.12500000000E+03 0.  0.
         25    1    1    2    0    0  0.10427179832E+03 -0.28161974599E+02 -0.37634833362E+03  0.41100945604E+03  0.12500000000E+03 0.  0.
</event>
<event>
 4    0  0.2219362E-002  0.1902306E+03  0.7546771E-02  0.1158254E+00
         21   -1    0    0  502  501  0.00000000000E+00  0.00000000000E+00  0.22318402276E+03  0.22318402276E+03  0.00000000000E+00 0.  1.
         21   -1    0    0  501  502 -0.00000000000E+00 -0.00000000000E+00 -0.16214278186E+03  0.16214278186E+03  0.00000000000E+00 0.  1.
         25    1    1    2    0    0 -0.81219776047E+02 -0.25720246391E+02  0.14734085282E+03  0.21116938700E+03  0.12500000000E+03 0.  0.
         25    1    1    2    0    0  0.81219776047E+02  0.25720246391E+02 -0.86299611921E+02  0.17415741762E+03  0.12500000000E+03 0.  0.
</event>
<event>
 4    0  0.2219362E-002  0.2170364E+03  0.7546771E-02  0.1136112E+00
         21   -1    0    0  502  501  0.00000000000E+00  0.00000000000E+00  0.16178541697E+04  0.16178541697E+04  0.00000000000E+00 0. -1.
         21   -1    0    0  501  502 -0.00000000000E+00 -0.00000000000E+00 -0.29115598687E+02  0.29115598687E+02  0.00000000000E+00 0. -1.
         25    1    1    2    0    0  0.51441353127E+02  0.10802512883E+03  0.12914583994E+04  0.13029986334E+04  0.12500000000E+03 0.  0.
         25    1    1    2    0    0 -0.51441353127E+02 -0.10802512883E+03  0.29728017164E+03  0.34397113501E+03  0.12500000000E+03 0.  0.
</event>
<event>
 4    0  0.2219362E-002  0.1787636E+03  0.7546771E-02  0.1169005E+00
         21   -1    0    0  502  501  0.00000000000E+00  0.00000000000E+00  0.21107249396E+03  0.21107249396E+03  0.00000000000E+00 0.  1.
         21   -1    0    0  501  502 -0.00000000000E+00 -0.00000000000E+00 -0.15140030241E+03  0.15140030241E+03  0.00000000000E+00 0.  1.
         25    1    1    2    0    0 -0.12071969469E+02 -0.34263905339E+02 -0.94380908052E+02  0.16078713711E+03  0.12500000000E+03 0.  0.
         25    1    1    2    0    0  0.12071969469E+02  0.34263905339E+02  0.15405309960E+03  0.20168565926E+03  0.12500000000E+03 0.  0.
</event>
<event>
 4    0  0.2219362E-002  0.2508566E+03  0.7546771E-02  0.1112765E+00
         21   -1    0    0  502  501  0.00000000000E+00  0.00000000000E+00  0.85462073386E+03  0.85462073386E+03  0.00000000000E+00 0. -1.
         21   -1    0    0  501  502 -0.00000000000E+00 -0.00000000000E+00 -0.73633859080E+02  0.73633859080E+02  0.00000000000E+00 0. -1.
         25    1    1    2    0    0 -0.30298406126E+01  0.20078656774E+03  0.54506400087E+03  0.59417521891E+03  0.12500000000E+03 0.  0.
         25    1    1    2    0    0  0.30298406126E+01 -0.20078656774E+03  0.23592287390E+03  0.33407937403E+03  0.12500000000E+03 0.  0.
</event>
<event>
 4    0  0.2219362E-002  0.1745281E+03  0.7546771E-02  0.1173206E+00
         21   -1    0    0  502  501  0.00000000000E+00  0.00000000000E+00  0.14034670491E+03  0.14034670491E+03  0.00000000000E+00 0.  1.
         21   -1    0    0  501  502 -0.00000000000E+00 -0.00000000000E+00 -0.21703434809E+03  0.21703434809E+03  0.00000000000E+00 0.  1.
         25    1    1    2    0    0 -0.87329292812E+02 -0.52693231478E+02 -0.10650540387E+03  0.19331679461E+03  0.12500000000E+03 0.  0.
         25    1    1    2    0    0  0.87329292812E+02  0.52693231478E+02  0.29817760688E+02  0.16406425838E+03  0.12500000000E+03 0.  0.
</event>
<event>
 4    0  0.2219362E-002  0.1977437E+03  0.7546771E-02  0.1151657E+00
         21   -1    0    0  502  501  0.00000000000E+00  0.00000000000E+00  0.19317951884E+02  0.19317951884E+02  0.00000000000E+00 0.  1.
         21   -1    0    0  501  502 -0.00000000000E+00 -0.00000000000E+00 -0.20241573918E+04  0.20241573918E+04  0.00000000000E+00 0.  1.
         25    1    1    2    0    0  0.63914220125E+02 -0.12088589726E+03 -0.64521931715E+03  0.67129084227E+03  0.12500000000E+03 0.  0.
         25    1    1    2    0    0 -0.63914220125E+02  0.12088589726E+03 -0.13596201227E+04  0.13721845014E+04  0.12500000000E+03 0.  0.
</event>
<event>
 4    0  0.2219362E-002  0.2018592E+03  0.7546771E-02  0.1148180E+00
         21   -1    0    0  502  501  0.00000000000E+00  0.00000000000E+00  0.94049242859E+02  0.94049242859E+02  0.00000000000E+00 0.  1.
         21   -1    0    0  501  502 -0.00000000000E+00 -0.00000000000E+00 -0.43325340581E+03  0.43325340581E+03  0.00000000000E+00 0.  1.
         25    1    1    2    0    0 -0.39986322537E+02  0.11356568722E+03 -0.34963996958E+02  0.17704110367E+03  0.12500000000E+03 0.  0.
         25    1    1    2    0    0  0.39986322537E+02 -0.11356568722E+03 -0.30424016599E+03  0.35026154500E+03  0.12500000000E+03 0.  0.
</event>
<event>
 4    0  0.2219362E-002  0.3047502E+03  0.7546771E-02  0.1082890E+00
         21   -1    0    0  502  501  0.00000000000E+00  0.00000000000E+00  0.67718664617E+03  0.67718664617E+03  0.00000000000E+00 0.  1.
         21   -1    0    0  501  502 -0.00000000000E+00 -0.00000000000E+00 -0.13714492438E+03  0.13714492438E+03  0.00000000000E+00 0.  1.
         25    1    1    2    0    0  0.17036808375E+03  0.37574345976E+01  0.56337225980E+03  0.60170815632E+03  0.12500000000E+03 0.  0.
         25    1    1    2    0    0 -0.17036808375E+03 -0.37574345976E+01 -0.23330538010E+02  0.21262341423E+03  0.12500000000E+03 0.  0.
</event>
<event>
 4    0  0.2219362E-002  0.2898203E+03  0.7546771E-02  0.1090443E+00
         21   -1    0    0  502  501  0.00000000000E+00  0.00000000000E+00  0.94633291464E+02  0.94633291464E+02  0.00000000000E+00 0.  1.
         21   -1    0    0  501  502 -0.00000000000E+00 -0.00000000000E+00 -0.88759230995E+03  0.88759230995E+03  0.00000000000E+00 0.  1.
         25    1    1    2    0    0  0.18288668529E+02  0.16052518501E+02  0.44683292863E+02  0.13495834694E+03  0.12500000000E+03 0.  0.
         25    1    1    2    0    0 -0.18288668529E+02 -0.16052518501E+02 -0.83764231135E+03  0.84726725448E+03  0.12500000000E+03 0.  0.
</event>
<event>
 4    0  0.2219362E-002  0.4142565E+03  0.7546771E-02  0.1038952E+00
         21   -1    0    0  502  501  0.00000000000E+00  0.00000000000E+00  0.30019804884E+03  0.30019804884E+03  0.00000000000E+00 0.  1.
         21   -1    0    0  501  502 -0.00000000000E+00 -0.00000000000E+00 -0.57165083463E+03  0.57165083463E+03  0.00000000000E+00 0.  1.
         25    1    1    2    0    0  0.23469839672E+02 -0.38435182286E+03 -0.43349138603E+02  0.40716250432E+03  0.12500000000E+03 0.  0.
         25    1    1    2    0    0 -0.23469839672E+02  0.38435182286E+03 -0.22810364719E+03  0.46468637915E+03  0.12500000000E+03 0.  0.
</event>
<event>
 4    0  0.2219362E-002  0.1741895E+03  0.7546771E-02  0.1173548E+00
         21   -1    0    0  502  501  0.00000000000E+00  0.00000000000E+00  0.67355598711E+02  0.67355598711E+02  0.00000000000E+00 0.  1.
         21   -1    0    0  501  502 -0.00000000000E+00 -0.00000000000E+00 -0.45047429926E+03  0.45047429926E+03  0.00000000000E+00 0.  1.
         25    1    1    2    0    0  0.11297469504E+03  0.34434126082E+00 -0.25725691823E+03  0.30752158017E+03  0.12500000000E+03 0.  0.
         25    1    1    2    0    0 -0.11297469504E+03 -0.34434126082E+00 -0.12586178232E+03  0.21030831781E+03  0.12500000000E+03 0.  0.
</event>
<event>
 4    0  0.2219362E-002  0.2220229E+03  0.7546771E-02  0.1132384E+00
         21   -1    0    0  502  501  0.00000000000E+00  0.00000000000E+00  0.30858571103E+03  0.30858571103E+03  0.00000000000E+00 0.  1.
         21   -1    0    0  501  502 -0.00000000000E+00 -0.00000000000E+00 -0.15974225046E+03  0.15974225046E+03  0.00000000000E+00 0.  1.
         25    1    1    2    0    0  0.16117455003E+03 -0.55566125911E+02  0.28558094786E+01  0.21141898111E+03  0.12500000000E+03 0.  0.
         25    1    1    2    0    0 -0.16117455003E+03  0.55566125911E+02  0.14598765110E+03  0.25690898038E+03  0.12500000000E+03 0.  0.
</event>
<event>
 4    0  0.2219362E-002  0.2626674E+03  0.7546771E-02  0.1105551E+00
         21   -1    0    0  502  501  0.00000000000E+00  0.00000000000E+00  0.11604782175E+04  0.11604782175E+04  0.00000000000E+00 0. -1.
         21   -1    0    0  501  502 -0.00000000000E+00 -0.00000000000E+00 -0.59453194258E+02  0.59453194258E+02  0.00000000000E+00 0. -1.
         25    1    1    2    0    0  0.11986538087E+02 -0.23010323226E+03  0.58922867189E+03  0.64490821236E+03  0.12500000000E+03 0.  0.
         25    1    1    2    0    0 -0.11986538087E+02  0.23010323226E+03  0.51179635134E+03  0.57502319939E+03  0.12500000000E+03 0.  0.
</event>
<event>
 4    0  0.2219362E-002  0.2332803E+03  0.7546771E-02  0.1124352E+00
         21   -1    0    0  502  501  0.00000000000E+00  0.00000000000E+00  0.47215691778E+03  0.47215691778E+03  0.00000000000E+00 0. -1.
         21   -1    0    0  501  502 -0.00000000000E+00 -0.00000000000E+00 -0.11525765623E+03  0.11525765623E+03  0.00000000000E+00 0. -1.
         25    1    1    2    0    0 -0.11655630003E+03 -0.29707744174E+02 -0.17922092913E+02  0.17439645224E+03  0.12500000000E+03 0.  0.
         25    1    1    2    0    0  0.11655630003E+03  0.29707744174E+02  0.37482135447E+03  0.41301812176E+03  0.12500000000E+03 0.  0.
</event>
<event>
 4    0  0.2219362E-002  0.2321433E+03  0.7546771E-02  0.1125140E+00
         21   -1    0    0  502  501  0.00000000000E+00  0.00000000000E+00  0.54404283283E+02  0.54404283283E+02  0.00000000000E+00 0. -1.
         21   -1    0    0  501  502 -0.00000000000E+00 -0.00000000000E+00 -0.99055612102E+03  0.99055612102E+03  0.00000000000E+00 0. -1.
         25    1    1    2    0    0  0.11348469120E+03  0.13562878374E+03 -0.65626767632E+03  0.69107612106E+03  0.12500000000E+03 0.  0.
         25    1    1    2    0    0 -0.11348469120E+03 -0.13562878374E+03 -0.27988416141E+03  0.35388428324E+03  0.12500000000E+03 0.  0.
</event>
<event>
 4    0  0.2219362E-002  0.2902401E+03  0.7546771E-02  0.1090224E+00
         21   -1    0    0  502  501  0.00000000000E+00  0.00000000000E+00  0.17040630476E+03  0.17040630476E+03  0.00000000000E+00 0.  1.
         21   -1    0    0  501  502 -0.00000000000E+00 -0.00000000000E+00 -0.49434384236E+03  0.49434384236E+03  0.00000000000E+00 0.  1.
         25    1    1    2    0    0 -0.84754465832E+02 -0.51545176169E+02  0.11565969036E+03  0.19708472452E+03  0.12500000000E+03 0.  0.
         25    1    1    2    0    0  0.84754465832E+02  0.51545176169E+02 -0.43959722797E+03  0.46766542260E+03  0.12500000000E+03 0.  0.
</event>
<event>
 4    0  0.2219362E-002  0.1917085E+03  0.7546771E-02  0.1156929E+00
         21   -1    0    0  502  501  0.00000000000E+00  0.00000000000E+00  0.96579429255E+02  0.96579429255E+02  0.00000000000E+00 0.  1.
         21   -1    0    0  501  502 -0.00000000000E+00 -0.00000000000E+00 -0.38053792025E+03  0.38053792025E+03  0.00000000000E+00 0.  1.
         25    1    1    2    0    0 -0.81339407876E+02 -0.68349265288E+01  0.76797863872E+01  0.14948844308E+03  0.12500000000E+03 0.  0.
         25    1    1    2    0    0  0.81339407876E+02  0.68349265288E+01 -0.29163827739E+03  0.32762890643E+03  0.12500000000E+03 0.  0.
</event>
<event>
 4    0  0.2219362E-002  0.1962187E+03  0.7546771E-02  0.1152969E+00
         21   -1    0    0  502  501  0.00000000000E+00  0.00000000000E+00  0.30800194712E+03  0.30800194712E+03  0.00000000000E+00 0.  1.
         21   -1    0    0  501  502 -0.00000000000E+00 -0.00000000000E+00 -0.12500497293E+03  0.12500497293E+03  0.00000000000E+00 0.  1.
         25    1    1    2    0    0  0.10530060023E+03  0.10098681192E+03  0.47498412954E+02  0.19790819039E+03  0.12500000000E+03 0.  0.
         25    1    1    2    0    0 -0.10530060023E+03 -0.10098681192E+03  0.13549856123E+03  0.23509872966E+03  0.12500000000E+03 0.  0.
</event>
<event>
 4    0  0.2219362E-002  0.2063527E+03  0.7546771E-02  0.1144487E+00
         21   -1    0    0  502  501  0.00000000000E+00  0.00000000000E+00  0.79275274674E+03  0.79275274674E+03  0.00000000000E+00 0.  1.
         21   -1    0    0  501  502 -0.00000000000E+00 -0.00000000000E+00 -0.53713386830E+02  0.53713386830E+02  0.00000000000E+00 0.  1.
         25    1    1    2    0    0  0.90427854514E+02 -0.91349067569E+02  0.16000857131E+03  0.24031144773E+03  0.12500000000E+03 0.  0.
         25    1    1    2    0    0 -0.90427854514E+02  0.91349067569E+02  0.57903078860E+03  0.60615468584E+03  0.12500000000E+03 0.  0.
</event>
<event>
 4    0  0.2219362E-002  0.1849936E+03  0.7546771E-02  0.1163056E+00
         21   -1    0    0  502  501  0.00000000000E+00  0.00000000000E+00  0.10620691499E+04  0.10620691499E+04  0.00000000000E+00 0.  1.
         21   -1    0    0  501  502 -0.00000000000E+00 -0.00000000000E+00 -0.32222588453E+02  0.32222588453E+02  0.00000000000E+00 0.  1.
         25    1    1    2    0    0 -0.71199728282E+02  0.97356030439E+02  0.32669925658E+03  0.37000675970E+03  0.12500000000E+03 0.  0.
         25    1    1    2    0    0  0.71199728282E+02 -0.97356030439E+02  0.70314730490E+03  0.72428497869E+03  0.12500000000E+03 0.  0.
</event>
<event>
 4    0  0.2219362E-002  0.1941213E+03  0.7546771E-02  0.1154796E+00
         21   -1    0    0  502  501  0.00000000000E+00  0.00000000000E+00  0.26818912639E+03  0.26818912639E+03  0.00000000000E+00 0. -1.
         21   -1    0    0  501  502 -0.00000000000E+00 -0.00000000000E+00 -0.14050930056E+03  0.14050930056E+03  0.00000000000E+00 0. -1.
         25    1    1    2    0    0  0.11473012671E+03  0.26951854273E+02 -0.31302753549E+02  0.17462607710E+03  0.12500000000E+03 0.  0.
         25    1    1    2    0    0 -0.11473012671E+03 -0.26951854273E+02  0.15898257937E+03  0.23407234986E+03  0.12500000000E+03 0.  0.
</event>
<event>
 4    0  0.2219362E-002  0.1743006E+03  0.7546771E-02  0.1173436E+00
         21   -1    0    0  502  501  0.00000000000E+00  0.00000000000E+00  0.24966910990E+03  0.24966910990E+03  0.00000000000E+00 0.  1.
         21   -1    0    0  501  502 -0.00000000000E+00 -0.00000000000E+00 -0.12168383236E+03  0.12168383236E+03  0.00000000000E+00 0.  1.
         25    1    1    2    0    0  0.89575187876E+02 -0.17612579956E+02 -0.21373498983E+02  0.15625537979E+03  0.12500000000E+03 0.  0.
         25    1    1    2    0    0 -0.89575187876E+02  0.17612579956E+02  0.14935877652E+03  0.21509756247E+03  0.12500000000E+03 0.  0.
</event>
<event>
 4    0  0.2219362E-002  0.1587888E+03  0.7546771E-02  0.1190071E+00
         21   -1    0    0  502  501  0.00000000000E+00  0.00000000000E+00  0.33132340006E+02  0.33132340006E+02  0.00000000000E+00 0. -1.
         21   -1    0    0  501  502 -0.00000000000E+00 -0.00000000000E+00 -0.76100479426E+03  0.76100479426E+03  0.00000000000E+00 0. -1.
         25    1    1    2    0    0  0.81411355944E+02 -0.23143272182E+02 -0.48708834665E+03  0.50994458264E+03  0.12500000000E+03 0.  0.
         25    1    1    2    0    0 -0.81411355944E+02  0.23143272182E+02 -0.24078410760E+03  0.28419255162E+03  0.12500000000E+03 0.  0.
</event>
<event>
 4    0  0.2219362E-002  0.2157643E+03  0.7546771E-02  0.1137081E+00
         21   -1    0    0  502  501  0.00000000000E+00  0.00000000000E+00  0.34431265172E+02  0.34431265172E+02  0.00000000000E+00 0.  1.
         21   -1    0    0  501  502 -0.00000000000E+00 -0.00000000000E+00 -0.13520922470E+04  0.13520922470E+04  0.00000000000E+00 0.  1.
         25    1    1    2    0    0 -0.12881975291E+03 -0.17096631822E+02 -0.27808162471E+03  0.33142301302E+03  0.12500000000E+03 0.  0.
         25    1    1    2    0    0  0.12881975291E+03  0.17096631822E+02 -0.10395793571E+04  0.10551004991E+04  0.12500000000E+03 0.  0.
</event>
<event>
 4    0  0.2219362E-002  0.2084276E+03  0.7546771E-02  0.1142817E+00
         21   -1    0    0  502  501  0.00000000000E+00  0.00000000000E+00  0.18831462778E+03  0.18831462778E+03  0.00000000000E+00 0.  1.
         21   -1    0    0  501  502 -0.00000000000E+00 -0.00000000000E+00 -0.23068868477E+03  0.23068868477E+03  0.00000000000E+00 0.  1.
         25    1    1    2    0    0 -0.87177465755E+02 -0.13414975389E+03 -0.68557234677E+02  0.21429223372E+03  0.12500000000E+03 0.  0.
         25    1    1    2    0    0  0.87177465755E+02  0.13414975389E+03  0.26183177685E+02  0.20471107884E+03  0.12500000000E+03 0.  0.
</event>
<event>
 4    0  0.2219362E-002  0.1670815E+03  0.7546771E-02  0.1180926E+00
         21   -1    0    0  502  501  0.00000000000E+00  0.00000000000E+00  0.55271665081E+02  0.55271665081E+02  0.00000000000E+00 0. -1.
         21   -1    0    0  501  502 -0.00000000000E+00 -0.00000000000E+00 -0.50507298163E+03  0.50507298163E+03  0.00000000000E+00 0. -1.
         25    1    1    2    0    0  0.10102585417E+03 -0.57191238472E+01 -0.30086618977E+03  0.34115157297E+03  0.12500000000E+03 0.  0.
         25    1    1    2    0    0 -0.10102585417E+03  0.57191238472E+01 -0.14893512677E+03  0.21919307374E+03  0.12500000000E+03 0.  0.
</event>
<event>
 4    0  0.2219362E-002  0.2212472E+03  0.7546771E-02  0.1132957E+00
         21   -1    0    0  502  501  0.00000000000E+00  0.00000000000E+00  0.18776797813E+03  0.18776797813E+03  0.00000000000E+00 0.  1.
         21   -1    0    0  501  502 -0.00000000000E+00 -0.00000000000E+00 -0.26069585020E+03  0.26069585020E+03  0.00000000000E+00 0.  1.
         25    1    1    2    0    0 -0.44590370618E+02  0.18703244803E+02 -0.21487053304E+03  0.25324387156E+03  0.12500000000E+03 0.  0.
         25    1    1    2    0    0  0.44590370618E+02 -0.18703244803E+02  0.14194266096E+03  0.19521995676E+03  0.12500000000E+03 0.  0.
</event>
<event>
 4    0  0.2219362E-002  0.1751267E+03  0.7546771E-02  0.1172605E+00
         21   -1    0    0  502  501  0.00000000000E+00  0.00000000000E+00  0.14020220120E+04  0.14020220120E+04  0.00000000000E+00 0.  1.
         21   -1    0    0  501  502 -0.00000000000E+00 -0.00000000000E+00 -0.21875102370E+02  0.21875102370E+02  0.00000000000E+00 0.  1.
         25    1    1    2    0    0 -0.17105945584E+02  0.74991864049E+02  0.10784773158E+04  0.10884184460E+04  0.12500000000E+03 0.  0.
         25    1    1    2    0    0  0.17105945584E+02 -0.74991864049E+02  0.30166959389E+03  0.33547866836E+03  0.12500000000E+03 0.  0.
</event>
<event>
 4    0  0.2219362E-002  0.2120404E+03  0.7546771E-02  0.1139960E+00
         21   -1    0    0  502  501  0.00000000000E+00  0.00000000000E+00  0.75161004940E+02  0.75161004940E+02  0.00000000000E+00 0.  1.
         21   -1    0    0  501  502 -0.00000000000E+00 -0.00000000000E+00 -0.59819741369E+03  0.59819741369E+03  0.00000000000E+00 0.  1.
         25    1    1    2    0    0 -0.94446832663E+02 -0.31238391569E+02 -0.40133944713E+02  0.16471725722E+03  0.12500000000E+03 0.  0.
         25    1    1    2    0    0  0.94446832663E+02  0.31238391569E+02 -0.48290246403E+03  0.50864116141E+03  0.12500000000E+03 0.  0.
</event>
<event>
 4    0  0.2219362E-002  0.2433892E+03  0.7546771E-02  0.1117555E+00
         21   -1    0    0  502  501  0.00000000000E+00  0.00000000000E+00  0.82016379595E+03  0.82016379595E+03  0.00000000000E+00 0. -1.
         21   -1    0    0  501  502 -0.00000000000E+00 -0.00000000000E+00 -0.72227378524E+02  0.72227378524E+02  0.00000000000E+00 0. -1.
         25    1    1    2    0    0  0.13979065025E+03  0.12236375030E+03  0.54884014063E+03  0.59276033374E+03  0.12500000000E+03 0.  0.
         25    1    1    2    0    0 -0.13979065025E+03 -0.12236375030E+03  0.19909627679E+03  0.29963084073E+03  0.12500000000E+03 0.  0.
</event>
<event>
 4    0  0.2219362E-002  0.1995278E+03  0.7546771E-02  0.1150138E+00
         21   -1    0    0  502  501  0.00000000000E+00  0.00000000000E+00  0.98019993278E+02  0.98019993278E+02  0.00000000000E+00 0.  1.
         21   -1    0    0  501  502 -0.00000000000E+00 -0.00000000000E+00 -0.40615530993E+03  0.40615530993E+03  0.00000000000E+00 0.  1.
         25    1    1    2    0    0  0.28107951274E+02 -0.12047355341E+03 -0.34994602558E+02  0.17931412718E+03  0.12500000000E+03 0.  0.
         25    1    1    2    0    0 -0.28107951274E+02  0.12047355341E+03 -0.27314071409E+03  0.32486117603E+03  0.12500000000E+03 0.  0.
</event>
<event>
 4    0  0.2219362E-002  0.4064086E+03  0.7546771E-02  0.1041583E+00
         21   -1    0    0  502  501  0.00000000000E+00  0.00000000000E+00  0.51510180781E+03  0.51510180781E+03  0.00000000000E+00 0. -1.
         21   -1    0    0  501  502 -0.00000000000E+00 -0.00000000000E+00 -0.32065111778E+03  0.32065111778E+03  0.00000000000E+00 0. -1.
         25    1    1    2    0    0  0.14430801212E+03 -0.13912309019E+03  0.43725756428E+03  0.49699015494E+03  0.12500000000E+03 0.  0.
         25    1    1    2    0    0 -0.14430801212E+03  0.13912309019E+03 -0.24280687425E+03  0.33876277064E+03  0.12500000000E+03 0.  0.
</event>
<event>
 4    0  0.2219362E-002  0.2608223E+03  0.7546771E-02  0.1106650E+00
         21   -1    0    0  502  501  0.00000000000E+00  0.00000000000E+00  0.19326694591E+03  0.19326694591E+03  0.00000000000E+00 0. -1.
         21   -1    0    0  501  502 -0.00000000000E+00 -0.00000000000E+00 -0.35199126440E+03  0.35199126440E+03  0.00000000000E+00 0. -1.
         25    1    1    2    0    0  0.19430514002E+03  0.81180359843E+02 -0.17319516389E+03  0.29994383317E+03  0.12500000000E+03 0.  0.
         25    1    1    2    0    0 -0.19430514002E+03 -0.81180359843E+02  0.14470845395E+02  0.24531437713E+03  0.12500000000E+03 0.  0.
</event>
<event>
 4    0  0.2219362E-002  0.2945044E+03  0.7546771E-02  0.1088021E+00
         21   -1    0    0  502  501  0.00000000000E+00  0.00000000000E+00  0.23679344607E+03  0.23679344607E+03  0.00000000000E+00 0. -1.
         21   -1    0    0  501  502 -0.00000000000E+00 -0.00000000000E+00 -0.36628065393E+03  0.36628065393E+03  0.00000000000E+00 0. -1.
         25    1    1    2    0    0  0.17701057128E+03  0.15515517963E+03  0.63556245745E+02  0.27398954083E+03  0.12500000000E+03 0.  0.
         25    1    1    2    0    0 -0.17701057128E+03 -0.15515517963E+03 -0.19304345360E+03  0.32908455918E+03  0.12500000000E+03 0.  0.
</event>
<event>
 4    0  0.2219362E-002  0.3286618E+03  0.7546771E-02  0.1071731E+00
         21   -1    0    0  502  501  0.00000000000E+00  0.00000000000E+00  0.10185750867E+03  0.10185750867E+03  0.00000000000E+00 0. -1.
         21   -1    0    0  501  502 -0.00000000000E+00 -0.00000000000E+00 -0.10604873972E+04  0.10604873972E+04  0.00000000000E+00 0. -1.
         25    1    1    2    0    0 -0.68603131093E+02 -0.23055856775E+02  0.42724710450E+02  0.15062656808E+03  0.12500000000E+03 0.  0.
         25    1    1    2    0    0  0.68603131093E+02  0.23055856775E+02 -0.10013545990E+04  0.10117183378E+04  0.12500000000E+03 0.  0.
</event>
<event>
 4    0  0.2219362E-002  0.1833090E+03  0.7546771E-02  0.1164638E+00
         21   -1    0    0  502  501  0.00000000000E+00  0.00000000000E+00  0.37782700700E+02  0.37782700700E+02  0.00000000000E+00 0.  1.
         21   -1    0    0  501  502 -0.00000000000E+00 -0.00000000000E+00 -0.88935397590E+03  0.88935397590E+03  0.00000000000E+00 0.  1.
         25    1    1    2    0    0  0.74960019772E+01 -0.10042895414E+03 -0.20193915252E+03  0.25796625011E+03  0.12500000000E+03 0.  0.
         25    1    1    2    0    0 -0.74960019772E+01  0.10042895414E+03 -0.64963212268E+03  0.66917042649E+03  0.12500000000E+03 0.  0.
</event>
<event>
 4    0  0.2219362E-002  0.2321277E+03  0.7546771E-02  0.1125151E+00
         21   -1    0    0  502  501  0.00000000000E+00  0.00000000000E+00  0.52756892352E+02  0.52756892352E+02  0.00000000000E+00 0. -1.
         21   -1    0    0  501  502 -0.00000000000E+00 -0.00000000000E+00 -0.10213504775E+04  0.10213504775E+04  0.00000000000E+00 0. -1.
         25    1    1    2    0    0  0.15565057838E+03  0.11674276025E+03 -0.53070204137E+03  0.57890036391E+03  0.12500000000E+03 0.  0.
         25    1    1    2    0    0 -0.15565057838E+03 -0.11674276025E+03 -0.43789154378E+03  0.49520700594E+03  0.12500000000E+03 0.  0.
</event>
<event>
 4    0  0.2219362E-002  0.4435813E+03  0.7546771E-02  0.1029654E+00
         21   -1    0    0  502  501  0.00000000000E+00  0.00000000000E+00  0.17196723068E+03  0.17196723068E+03  0.00000000000E+00 0. -1.
         21   -1    0    0  501  502 -0.00000000000E+00 -0.00000000000E+00 -0.11441968071E+04  0.11441968071E+04  0.00000000000E+00 0.  1.
         25    1    1    2    0    0 -0.11268366766E+03 -0.38338490805E+03 -0.26879513789E+03  0.49755142732E+03  0.12500000000E+03 0.  0.
         25    1    1    2    0    0  0.11268366766E+03  0.38338490805E+03 -0.70343443848E+03  0.81861261041E+03  0.12500000000E+03 0.  0.
</event>
<event>
 4    0  0.2219362E-002  0.2456079E+03  0.7546771E-02  0.1116112E+00
         21   -1    0    0  502  501  0.00000000000E+00  0.00000000000E+00  0.22547275118E+03  0.22547275118E+03  0.00000000000E+00 0.  1.
         21   -1    0    0  501  502 -0.00000000000E+00 -0.00000000000E+00 -0.26754117978E+03  0.26754117978E+03  0.00000000000E+00 0.  1.
         25    1    1    2    0    0 -0.10459967020E+01 -0.17640124791E+03  0.95924545825E+02  0.23652698126E+03  0.12500000000E+03 0.  0.
         25    1    1    2    0    0  0.10459967020E+01  0.17640124791E+03 -0.13799297442E+03  0.25648694969E+03  0.12500000000E+03 0.  0.
</event>
<event>
 4    0  0.2219362E-002  0.5587317E+03  0.7546771E-02  0.9994928E-01
         21   -1    0    0  502  501  0.00000000000E+00  0.00000000000E+00  0.30559228650E+03  0.30559228650E+03  0.00000000000E+00 0. -1.
         21   -1    0    0  501  502 -0.00000000000E+00 -0.00000000000E+00 -0.10215609605E+04  0.10215609605E+04  0.00000000000E+00 0.  1.
         25    1    1    2    0    0  0.24217995912E+03  0.43866414235E+03 -0.10470942192E+03  0.52694062799E+03  0.12500000000E+03 0.  0.
         25    1    1    2    0    0 -0.24217995912E+03 -0.43866414235E+03 -0.61125925211E+03  0.80021261904E+03  0.12500000000E+03 0.  0.
</event>
<event>
 4    0  0.2219362E-002  0.1895816E+03  0.7546771E-02  0.1158839E+00
         21   -1    0    0  502  501  0.00000000000E+00  0.00000000000E+00  0.17925596439E+03  0.17925596439E+03  0.00000000000E+00 0. -1.
         21   -1    0    0  501  502 -0.00000000000E+00 -0.00000000000E+00 -0.20050203698E+03  0.20050203698E+03  0.00000000000E+00 0. -1.
         25    1    1    2    0    0  0.84675557308E+02 -0.15638882247E+02  0.10314062340E+03  0.18351433960E+03  0.12500000000E+03 0.  0.
         25    1    1    2    0    0 -0.84675557308E+02  0.15638882247E+02 -0.12438669600E+03  0.19624366177E+03  0.12500000000E+03 0.  0.
</event>
<event>
 4    0  0.2219362E-002  0.3186012E+03  0.7546771E-02  0.1076295E+00
         21   -1    0    0  502  501  0.00000000000E+00  0.00000000000E+00  0.52716942654E+02  0.52716942654E+02  0.00000000000E+00 0. -1.
         21   -1    0    0  501  502 -0.00000000000E+00 -0.00000000000E+00 -0.19255051270E+04  0.19255051270E+04  0.00000000000E+00 0. -1.
         25    1    1    2    0    0 -0.21309980007E+03  0.34031920839E+02 -0.32084821252E+03  0.40637208554E+03  0.12500000000E+03 0.  0.
         25    1    1    2    0    0  0.21309980007E+03 -0.34031920839E+02 -0.15519399718E+04  0.15718499841E+04  0.12500000000E+03 0.  0.
</event>
<event>
 4    0  0.2219362E-002  0.2344009E+03  0.7546771E-02  0.1123580E+00
         21   -1    0    0  502  501  0.00000000000E+00  0.00000000000E+00  0.58744466277E+03  0.58744466277E+03  0.00000000000E+00 0.  1.
         21   -1    0    0  501  502 -0.00000000000E+00 -0.00000000000E+00 -0.93530107093E+02  0.93530107093E+02  0.00000000000E+00 0.  1.
         25    1    1    2    0    0 -0.16490491057E+02 -0.19758156105E+03  0.25115539145E+03  0.34353229865E+03  0.12500000000E+03 0.  0.
         25    1    1    2    0    0  0.16490491057E+02  0.19758156105E+03  0.24275916423E+03  0.33744247121E+03  0.12500000000E+03 0.  0.
</event>
<event>
 4    0  0.2219362E-002  0.2954600E+03  0.7546771E-02  0.1087532E+00
         21   -1    0    0  502  501  0.00000000000E+00  0.00000000000E+00  0.37421552949E+03  0.37421552949E+03  0.00000000000E+00 0. -1.
         21   -1    0    0  501  502 -0.00000000000E+00 -0.00000000000E+00 -0.23327891288E+03  0.23327891288E+03  0.00000000000E+00 0. -1.
         25    1    1    2    0    0  0.12266135310E+02 -0.88934580873E+02 -0.18881969489E+03  0.24359329820E+03  0.12500000000E+03 0.  0.
         25    1    1    2    0    0 -0.12266135310E+02  0.88934580873E+02  0.32975631150E+03  0.36390114417E+03  0.12500000000E+03 0.  0.
</event>
<event>
 4    0  0.2219362E-002  0.2752390E+03  0.7546771E-02  0.1098318E+00
         21   -1    0    0  502  501  0.00000000000E+00  0.00000000000E+00  0.51384085172E+03  0.51384085172E+03  0.00000000000E+00 0.  1.
         21   -1    0    0  501  502 -0.00000000000E+00 -0.00000000000E+00 -0.14743184486E+03  0.14743184486E+03  0.00000000000E+00 0.  1.
         25    1    1    2    0    0 -0.70375051963E+02 -0.23062906741E+03  0.12962880328E+03  0.30095023062E+03  0.12500000000E+03 0.  0.
         25    1    1    2    0    0  0.70375051963E+02  0.23062906741E+03  0.23678020358E+03  0.36032246597E+03  0.12500000000E+03 0.  0.
</event>
<event>
 4    0  0.2219362E-002  0.1764390E+03  0.7546771E-02  0.1171295E+00
         21   -1    0    0  502  501  0.00000000000E+00  0.00000000000E+00  0.40613338750E+03  0.40613338750E+03  0.00000000000E+00 0.  1.
         21   -1    0    0  501  502 -0.00000000000E+00 -0.00000000000E+00 -0.76651446207E+02  0.76651446207E+02  0.00000000000E+00 0.  1.
         25    1    1    2    0    0 -0.69079855523E+02 -0.97971259621E+02  0.11864237048E+03  0.20993190854E+03  0.12500000000E+03 0.  0.
         25    1    1    2    0    0  0.69079855523E+02  0.97971259621E+02  0.21083957081E+03  0.27285292516E+03  0.12500000000E+03 0.  0.
</event>
<event>
 4    0  0.2219362E-002  0.2014178E+03  0.7546771E-02  0.1148548E+00
         21   -1    0    0  502  501  0.00000000000E+00  0.00000000000E+00  0.52195206583E+02  0.52195206583E+02  0.00000000000E+00 0.  1.
         21   -1    0    0  501  502 -0.00000000000E+00 -0.00000000000E+00 -0.77725767628E+03  0.77725767628E+03  0.00000000000E+00 0.  1.
         25    1    1    2    0    0  0.54176261772E+02  0.82630585914E+02 -0.61622955054E+03  0.63649567165E+03  0.12500000000E+03 0.  0.
         25    1    1    2    0    0 -0.54176261772E+02 -0.82630585914E+02 -0.10883291916E+03  0.19295721122E+03  0.12500000000E+03 0.  0.
</event>
<event>
 4    0  0.2219362E-002  0.2971983E+03  0.7546771E-02  0.1086650E+00
         21   -1    0    0  502  501  0.00000000000E+00  0.00000000000E+00  0.43119278819E+03  0.43119278819E+03  0.00000000000E+00 0.  1.
         21   -1    0    0  501  502 -0.00000000000E+00 -0.00000000000E+00 -0.20484305299E+03  0.20484305299E+03  0.00000000000E+00 0.  1.
         25    1    1    2    0    0  0.67332902040E+01  0.20404946021E+02 -0.17442888163E+03  0.21566671919E+03  0.12500000000E+03 0.  0.
         25    1    1    2    0    0 -0.67332902040E+01 -0.20404946021E+02  0.40077861683E+03  0.42036912200E+03  0.12500000000E+03 0.  0.
</event>
<event>
 4    0  0.2219362E-002  0.3133764E+03  0.7546771E-02  0.1078739E+00
         21   -1    0    0  502  501  0.00000000000E+00  0.00000000000E+00  0.38476726688E+03  0.38476726688E+03  0.00000000000E+00 0. -1.
         21   -1    0    0  501  502 -0.00000000000E+00 -0.00000000000E+00 -0.25523161991E+03  0.25523161991E+03  0.00000000000E+00 0. -1.
         25    1    1    2    0    0 -0.37905928599E+02  0.18899530997E+03  0.28240050480E+03  0.36404825467E+03  0.12500000000E+03 0.  0.
         25    1    1    2    0    0  0.37905928599E+02 -0.18899530997E+03 -0.15286485783E+03  0.27595063213E+03  0.12500000000E+03 0.  0.
</event>
<event>
 4    0  0.2219362E-002  0.2035573E+03  0.7546771E-02  0.1146772E+00
         21   -1    0    0  502  501  0.00000000000E+00  0.00000000000E+00  0.23813626994E+03  0.23813626994E+03  0.00000000000E+00 0. -1.
         21   -1    0    0  501  502 -0.00000000000E+00 -0.00000000000E+00 -0.17399947545E+03  0.17399947545E+03  0.00000000000E+00 0. -1.
         25    1    1    2    0    0 -0.21401312004E+02  0.14872558030E+03 -0.25494764866E+02  0.19710986131E+03  0.12500000000E+03 0.  0.
         25    1    1    2    0    0  0.21401312004E+02 -0.14872558030E+03  0.89631559346E+02  0.21502588408E+03  0.12500000000E+03 0.  0.
</event>
<event>
 4    0  0.2219362E-002  0.2034324E+03  0.7546771E-02  0.1146875E+00
         21   -1    0    0  502  501  0.00000000000E+00  0.00000000000E+00  0.28944690118E+02  0.28944690118E+02  0.00000000000E+00 0. -1.
         21   -1    0    0  501  502 -0.00000000000E+00 -0.00000000000E+00 -0.14297865688E+04  0.14297865688E+04  0.00000000000E+00 0. -1.
         25    1    1    2    0    0 -0.15644880122E+03 -0.33315338434E+02 -0.65318336632E+03  0.68400266754E+03  0.12500000000E+03 0.  0.
         25    1    1    2    0    0  0.15644880122E+03  0.33315338434E+02 -0.74765851234E+03  0.77472859135E+03  0.12500000000E+03 0.  0.
</event>
<event>
 4    0  0.2219362E-002  0.1936775E+03  0.7546771E-02  0.1155186E+00
         21   -1    0    0  502  501  0.00000000000E+00  0.00000000000E+00  0.14432493889E+03  0.14432493889E+03  0.00000000000E+00 0.  1.
         21   -1    0    0  501  502 -0.00000000000E+00 -0.00000000000E+00 -0.25990647466E+03  0.25990647466E+03  0.00000000000E+00 0.  1.
         25    1    1    2    0    0  0.12688640225E+03 -0.76003676797E+02 -0.60967761850E+02  0.20302410189E+03  0.12500000000E+03 0.  0.
         25    1    1    2    0    0 -0.12688640225E+03  0.76003676797E+02 -0.54613773918E+02  0.20120731166E+03  0.12500000000E+03 0.  0.
</event>
<event>
 4    0  0.2219362E-002  0.3440534E+03  0.7546771E-02  0.1065083E+00
         21   -1    0    0  502  501  0.00000000000E+00  0.00000000000E+00  0.42065151518E+03  0.42065151518E+03  0.00000000000E+00 0. -1.
         21   -1    0    0  501  502 -0.00000000000E+00 -0.00000000000E+00 -0.28140333677E+03  0.28140333677E+03  0.00000000000E+00 0. -1.
         25    1    1    2    0    0 -0.98628110367E+02  0.18162194271E+03  0.31960841298E+03  0.40061024934E+03  0.12500000000E+03 0.  0.
         25    1    1    2    0    0  0.98628110367E+02 -0.18162194271E+03 -0.18036023457E+03  0.30144460261E+03  0.12500000000E+03 0.  0.
</event>
<event>
 4    0  0.2219362E-002  0.1975021E+03  0.7546771E-02  0.1151864E+00
         21   -1    0    0  502  501  0.00000000000E+00  0.00000000000E+00  0.18523970494E+03  0.18523970494E+03  0.00000000000E+00 0.  1.
         21   -1    0    0  501  502 -0.00000000000E+00 -0.00000000000E+00 -0.21057634063E+03  0.21057634063E+03  0.00000000000E+00 0.  1.
         25    1    1    2    0    0 -0.22994603442E+02 -0.11089758205E+03 -0.11561733574E+03  0.20449790662E+03  0.12500000000E+03 0.  0.
         25    1    1    2    0    0  0.22994603442E+02  0.11089758205E+03  0.90280700048E+02  0.19131813895E+03  0.12500000000E+03 0.  0.
</event>
<event>
 4    0  0.2219362E-002  0.1817278E+03  0.7546771E-02  0.1166141E+00
         21   -1    0    0  502  501  0.00000000000E+00  0.00000000000E+00  0.96406721418E+02  0.96406721418E+02  0.00000000000E+00 0. -1.
         21   -1    0    0  501  502 -0.00000000000E+00 -0.00000000000E+00 -0.34255886492E+03  0.34255886492E+03  0.00000000000E+00 0. -1.
         25    1    1    2    0    0 -0.43475503842E+02  0.11504248643E+03 -0.65468717637E+02  0.18717918182E+03  0.12500000000E+03 0.  0.
         25    1    1    2    0    0  0.43475503842E+02 -0.11504248643E+03 -0.18068342586E+03  0.25178640452E+03  0.12500000000E+03 0.  0.
</event>
<event>
 4    0  0.2219362E-002  0.2927409E+03  0.7546771E-02  0.1088927E+00
         21   -1    0    0  502  501  0.00000000000E+00  0.00000000000E+00  0.80754044289E+02  0.80754044289E+02  0.00000000000E+00 0.  1.
         21   -1    0    0  501  502 -0.00000000000E+00 -0.00000000000E+00 -0.10612131269E+04  0.10612131269E+04  0.00000000000E+00 0.  1.
         25    1    1    2    0    0  0.20466190713E+01 -0.26469209982E+03 -0.48539036287E+03  0.56682881077E+03  0.12500000000E+03 0.  0.
         25    1    1    2    0    0 -0.20466190713E+01  0.26469209982E+03 -0.49506871976E+03  0.57513836043E+03  0.12500000000E+03 0.  0.
</event>
<event>
 4    0  0.2219362E-002  0.2165955E+03  0.7546771E-02  0.1136447E+00
         21   -1    0    0  502  501  0.00000000000E+00  0.00000000000E+00  0.28415991613E+04  0.28415991613E+04  0.00000000000E+00 0.  1.
         21   -1    0    0  501  502 -0.00000000000E+00 -0.00000000000E+00 -0.16509575521E+02  0.16509575521E+02  0.00000000000E+00 0.  1.
         25    1    1    2    0    0 -0.12191868779E+03  0.58126490027E+02  0.21661324228E+04  0.21739359532E+04  0.12500000000E+03 0.  0.
         25    1    1    2    0    0  0.12191868779E+03 -0.58126490027E+02  0.65895716289E+03  0.68417278359E+03  0.12500000000E+03 0.  0.
</event>
<event>
 4    0  0.2219362E-002  0.1780364E+03  0.7546771E-02  0.1169717E+00
         21   -1    0    0  502  501  0.00000000000E+00  0.00000000000E+00  0.18379789833E+03  0.18379789833E+03  0.00000000000E+00 0.  1.
         21   -1    0    0  501  502 -0.00000000000E+00 -0.00000000000E+00 -0.17245548081E+03  0.17245548081E+03  0.00000000000E+00 0.  1.
         25    1    1    2    0    0  0.54713744103E+02  0.11435205341E+03  0.70751366473E+01  0.17817138791E+03  0.12500000000E+03 0.  0.
         25    1    1    2    0    0 -0.54713744103E+02 -0.11435205341E+03  0.42672808677E+01  0.17808199122E+03  0.12500000000E+03 0.  0.
</event>
<event>
 4    0  0.2219362E-002  0.1935205E+03  0.7546771E-02  0.1155324E+00
         21   -1    0    0  502  501  0.00000000000E+00  0.00000000000E+00  0.66125931039E+02  0.66125931039E+02  0.00000000000E+00 0. -1.
         21   -1    0    0  501  502 -0.00000000000E+00 -0.00000000000E+00 -0.56634613842E+03  0.56634613842E+03  0.00000000000E+00 0. -1.
         25    1    1    2    0    0  0.90729068126E+02 -0.59444881145E+02 -0.41400943108E+03  0.44586350683E+03  0.12500000000E+03 0.  0.
         25    1    1    2    0    0 -0.90729068126E+02  0.59444881145E+02 -0.86210776303E+02  0.18660856263E+03  0.12500000000E+03 0.  0.
</event>
<event>
 4    0  0.2219362E-002  0.2784557E+03  0.7546771E-02  0.1096535E+00
         21   -1    0    0  502  501  0.00000000000E+00  0.00000000000E+00  0.39536223159E+03  0.39536223159E+03  0.00000000000E+00 0.  1.
         21   -1    0    0  501  502 -0.00000000000E+00 -0.00000000000E+00 -0.19611775838E+03  0.19611775838E+03  0.00000000000E+00 0.  1.
         25    1    1    2    0    0 -0.14955154232E+03 -0.19881575769E+03  0.94970252629E+02  0.29417293927E+03  0.12500000000E+03 0.  0.
         25    1    1    2    0    0  0.14955154232E+03  0.19881575769E+03  0.10427422058E+03  0.29730705070E+03  0.12500000000E+03 0.  0.
</event>
<event>
 4    0  0.2219362E-002  0.3033405E+03  0.7546771E-02  0.1083583E+00
         21   -1    0    0  502  501  0.00000000000E+00  0.00000000000E+00  0.15193522319E+03  0.15193522319E+03  0.00000000000E+00 0. -1.
         21   -1    0    0  501  502 -0.00000000000E+00 -0.00000000000E+00 -0.60562282329E+03  0.60562282329E+03  0.00000000000E+00 0. -1.
         25    1    1    2    0    0  0.16188525661E+03  0.19766736375E+03 -0.35846818679E+03  0.45760645094E+03  0.12500000000E+03 0.  0.
         25    1    1    2    0    0 -0.16188525661E+03 -0.19766736375E+03 -0.95219413309E+02  0.29995159554E+03  0.12500000000E+03 0.  0.
</event>
<event>
 4    0  0.2219362E-002  0.2648402E+03  0.7546771E-02  0.1104270E+00
         21   -1    0    0  502  501  0.00000000000E+00  0.00000000000E+00  0.37033879026E+03  0.37033879026E+03  0.00000000000E+00 0.  1.
         21   -1    0    0  501  502 -0.00000000000E+00 -0.00000000000E+00 -0.18939503023E+03  0.18939503023E+03  0.00000000000E+00 0.  1.
         25    1    1    2    0    0 -0.13779974368E+02  0.74995919812E+02  0.32367632684E+03  0.35525433176E+03  0.12500000000E+03 0.  0.
         25    1    1    2    0    0  0.13779974368E+02 -0.74995919812E+02 -0.14273256680E+03  0.20447948872E+03  0.12500000000E+03 0.  0.
</event>
<event>
 4    0  0.2219362E-002  0.1789713E+03  0.7546771E-02  0.1168802E+00
         21   -1    0    0  502  501  0.00000000000E+00  0.00000000000E+00  0.41316123538E+03  0.41316123538E+03  0.00000000000E+00 0.  1.
         21   -1    0    0  501  502 -0.00000000000E+00 -0.00000000000E+00 -0.77525991236E+02  0.77525991236E+02  0.00000000000E+00 0.  1.
         25    1    1    2    0    0  0.98546104718E+02 -0.81412344847E+02  0.17899068744E+03  0.25298610800E+03  0.12500000000E+03 0.  0.
         25    1    1    2    0    0 -0.98546104718E+02  0.81412344847E+02  0.15664455670E+03  0.23770111862E+03  0.12500000000E+03 0.  0.
</event>
<event>
 4    0  0.2219362E-002  0.1876463E+03  0.7546771E-02  0.1160602E+00
         21   -1    0    0  502  501  0.00000000000E+00  0.00000000000E+00  0.44734899706E+02  0.44734899706E+02  0.00000000000E+00 0. -1.
         21   -1    0    0  501  502 -0.00000000000E+00 -0.00000000000E+00 -0.78710643044E+03  0.78710643044E+03  0.00000000000E+00 0. -1.
         25    1    1    2    0    0 -0.12345475122E+03  0.61718614073E+02 -0.31987624591E+03  0.37012980915E+03  0.12500000000E+03 0.  0.
         25    1    1    2    0    0  0.12345475122E+03 -0.61718614073E+02 -0.42249528483E+03  0.46171152100E+03  0.12500000000E+03 0.  0.
</event>
<event>
 4    0  0.2219362E-002  0.2638429E+03  0.7546771E-02  0.1104856E+00
         21   -1    0    0  502  501  0.00000000000E+00  0.00000000000E+00  0.60287415286E+02  0.60287415286E+02  0.00000000000E+00 0.  1.
         21   -1    0    0  501  502 -0.00000000000E+00 -0.00000000000E+00 -0.11546866045E+04  0.11546866045E+04  0.00000000000E+00 0.  1.
         25    1    1    2    0    0 -0.14790114324E+03  0.74805761821E+02 -0.92213567830E+03  0.94521418703E+03  0.12500000000E+03 0.  0.
         25    1    1    2    0    0  0.14790114324E+03 -0.74805761821E+02 -0.17226351091E+03  0.26975983274E+03  0.12500000000E+03 0.  0.
</event>
<event>
 4    0  0.2219362E-002  0.1872525E+03  0.7546771E-02  0.1160963E+00
         21   -1    0    0  502  501  0.00000000000E+00  0.00000000000E+00  0.25170457265E+02  0.25170457265E+02  0.00000000000E+00 0.  1.
         21   -1    0    0  501  502 -0.00000000000E+00 -0.00000000000E+00 -0.13930419017E+04  0.13930419017E+04  0.00000000000E+00 0.  1.
         25    1    1    2    0    0 -0.17096180319E+02  0.13603206696E+03 -0.58802180469E+03  0.61659682566E+03  0.12500000000E+03 0.  0.
         25    1    1    2    0    0  0.17096180319E+02 -0.13603206696E+03 -0.77984963970E+03  0.80161553326E+03  0.12500000000E+03 0.  0.
</event>
<event>
 4    0  0.2219362E-002  0.2863085E+03  0.7546771E-02  0.1092292E+00
         21   -1    0    0  502  501  0.00000000000E+00  0.00000000000E+00  0.16232938612E+03  0.16232938612E+03  0.00000000000E+00 0. -1.
         21   -1    0    0  501  502 -0.00000000000E+00 -0.00000000000E+00 -0.50497679681E+03  0.50497679681E+03  0.00000000000E+00 0. -1.
         25    1    1    2    0    0 -0.38960852055E+02 -0.24875525886E+03 -0.23462385693E+03  0.36615636147E+03  0.12500000000E+03 0.  0.
         25    1    1    2    0    0  0.38960852055E+02  0.24875525886E+03 -0.10802355376E+03  0.30114982147E+03  0.12500000000E+03 0.  0.
</event>
<event>
 4    0  0.2219362E-002  0.2754635E+03  0.7546771E-02  0.1098193E+00
         21   -1    0    0  502  501  0.00000000000E+00  0.00000000000E+00  0.39950495273E+03  0.39950495273E+03  0.00000000000E+00 0.  1.
         21   -1    0    0  501  502 -0.00000000000E+00 -0.00000000000E+00 -0.18993545820E+03  0.18993545820E+03  0.00000000000E+00 0.  1.
         25    1    1    2    0    0 -0.14532139227E+03 -0.19339359600E+03  0.14935975423E+03  0.31056839216E+03  0.12500000000E+03 0.  0.
         25    1    1    2    0    0  0.14532139227E+03  0.19339359600E+03  0.60209740302E+02  0.27887201877E+03  0.12500000000E+03 0.  0.
</event>
<event>
 4    0  0.2219362E-002  0.1769292E+03  0.7546771E-02  0.1170808E+00
         21   -1    0    0  502  501  0.00000000000E+00  0.00000000000E+00  0.37647554077E+02  0.37647554077E+02  0.00000000000E+00 0. -1.
         21   -1    0    0  501  502 -0.00000000000E+00 -0.00000000000E+00 -0.83150014651E+03  0.83150014651E+03  0.00000000000E+00 0. -1.
         25    1    1    2    0    0 -0.87386244475E+02 -0.89569609243E+02 -0.40787668930E+03  0.44457560021E+03  0.12500000000E+03 0.  0.
         25    1    1    2    0    0  0.87386244475E+02  0.89569609243E+02 -0.38597590313E+03  0.42457210038E+03  0.12500000000E+03 0.  0.
</event>
<event>
 4    0  0.2219362E-002  0.2010394E+03  0.7546771E-02  0.1148865E+00
         21   -1    0    0  502  501  0.00000000000E+00  0.00000000000E+00  0.45907703376E+02  0.45907703376E+02  0.00000000000E+00 0.  1.
         21   -1    0    0  501  502 -0.00000000000E+00 -0.00000000000E+00 -0.88039369120E+03  0.88039369120E+03  0.00000000000E+00 0.  1.
         25    1    1    2    0    0 -0.15518948714E+03  0.14724381609E+02 -0.46830529225E+03  0.50915167788E+03  0.12500000000E+03 0.  0.
         25    1    1    2    0    0  0.15518948714E+03 -0.14724381609E+02 -0.36618069558E+03  0.41714971670E+03  0.12500000000E+03 0.  0.
</event>
<event>
 4    0  0.2219362E-002  0.2118261E+03  0.7546771E-02  0.1140128E+00
         21   -1    0    0  502  501  0.00000000000E+00  0.00000000000E+00  0.12091306682E+04  0.12091306682E+04  0.00000000000E+00 0.  1.
         21   -1    0    0  501  502 -0.00000000000E+00 -0.00000000000E+00 -0.37109542055E+02  0.37109542055E+02  0.00000000000E+00 0.  1.
         25    1    1    2    0    0 -0.16065962099E+03  0.14474163621E+02  0.75304578547E+03  0.78020764559E+03  0.12500000000E+03 0.  0.
         25    1    1    2    0    0  0.16065962099E+03 -0.14474163621E+02  0.41897534065E+03  0.46603256464E+03  0.12500000000E+03 0.  0.
</event>
<event>
 4    0  0.2219362E-002  0.2427685E+03  0.7546771E-02  0.1117962E+00
         21   -1    0    0  502  501  0.00000000000E+00  0.00000000000E+00  0.23831072071E+03  0.23831072071E+03  0.00000000000E+00 0.  1.
         21   -1    0    0  501  502 -0.00000000000E+00 -0.00000000000E+00 -0.24730972061E+03  0.24730972061E+03  0.00000000000E+00 0.  1.
         25    1    1    2    0    0 -0.14966080001E+03 -0.44655940807E+02  0.13307065886E+03  0.24026091725E+03  0.12500000000E+03 0.  0.
         25    1    1    2    0    0  0.14966080001E+03  0.44655940807E+02 -0.14206965876E+03  0.24535952407E+03  0.12500000000E+03 0.  0.
</event>
<event>
 4    0  0.2219362E-002  0.1810743E+03  0.7546771E-02  0.1166767E+00
         21   -1    0    0  502  501  0.00000000000E+00  0.00000000000E+00  0.30943211873E+03  0.30943211873E+03  0.00000000000E+00 0.  1.
         21   -1    0    0  501  502 -0.00000000000E+00 -0.00000000000E+00 -0.10596149737E+03  0.10596149737E+03  0.00000000000E+00 0.  1.
         25    1    1    2    0    0 -0.88594601015E+02  0.82628028672E+02  0.44539136276E+02  0.17968063087E+03  0.12500000000E+03 0.  0.
         25    1    1    2    0    0  0.88594601015E+02 -0.82628028672E+02  0.15893148508E+03  0.23571298522E+03  0.12500000000E+03 0.  0.
</event>
<event>
 4    0  0.2219362E-002  0.1527518E+03  0.7546771E-02  0.1197132E+00
         21   -1    0    0  502  501  0.00000000000E+00  0.00000000000E+00  0.43485984378E+02  0.43485984378E+02  0.00000000000E+00 0. -1.
         21   -1    0    0  501  502 -0.00000000000E+00 -0.00000000000E+00 -0.53656602312E+03  0.53656602312E+03  0.00000000000E+00 0. -1.
         25    1    1    2    0    0 -0.19936248533E+02  0.27347098615E+02 -0.92726413594E+02  0.15927493709E+03  0.12500000000E+03 0.  0.
         25    1    1    2    0    0  0.19936248533E+02 -0.27347098615E+02 -0.40035362514E+03  0.42077707040E+03  0.12500000000E+03 0.  0.
</event>
<event>
 4    0  0.2219362E-002  0.2510491E+03  0.7546771E-02  0.1112644E+00
         21   -1    0    0  502  501  0.00000000000E+00  0.00000000000E+00  0.32437242821E+02  0.32437242821E+02  0.00000000000E+00 0. -1.
         21   -1    0    0  501  502 -0.00000000000E+00 -0.00000000000E+00 -0.19430023146E+04  0.19430023146E+04  0.00000000000E+00 0. -1.
         25    1    1    2    0    0 -0.15786467461E+03  0.76757105219E+02 -0.14620031750E+04  0.14777994425E+04  0.12500000000E+03 0.  0.
         25    1    1    2    0    0  0.15786467461E+03 -0.76757105219E+02 -0.44856189684E+03  0.49764011494E+03  0.12500000000E+03 0.  0.
</event>
<event>
 4    0  0.2219362E-002  0.1538522E+03  0.7546771E-02  0.1195818E+00
         21   -1    0    0  502  501  0.00000000000E+00  0.00000000000E+00  0.51130240450E+02  0.51130240450E+02  0.00000000000E+00 0. -1.
         21   -1    0    0  501  502 -0.00000000000E+00 -0.00000000000E+00 -0.46294525614E+03  0.46294525614E+03  0.00000000000E+00 0. -1.
         25    1    1    2    0    0 -0.37897546395E+02  0.77978527026E+02 -0.16749540590E+03  0.22626662524E+03  0.12500000000E+03 0.  0.
         25    1    1    2    0    0  0.37897546395E+02 -0.77978527026E+02 -0.24431960979E+03  0.28780887135E+03  0.12500000000E+03 0.  0.
</event>
<event>
 4    0  0.2219362E-002  0.1784954E+03  0.7546771E-02  0.1169267E+00
         21   -1    0    0  502  501  0.00000000000E+00  0.00000000000E+00  0.14371182421E+03  0.14371182421E+03  0.00000000000E+00 0.  1.
         21   -1    0    0  501  502 -0.00000000000E+00 -0.00000000000E+00 -0.22169789907E+03  0.22169789907E+03  0.00000000000E+00 0.  1.
         25    1    1    2    0    0  0.37235638989E+02 -0.43880339011E+02  0.77370084484E+02  0.15787053853E+03  0.12500000000E+03 0.  0.
         25    1    1    2    0    0 -0.37235638989E+02  0.43880339011E+02 -0.15535615934E+03  0.20753918475E+03  0.12500000000E+03 0.  0.
</event>
<event>
 4    0  0.2219362E-002  0.2032109E+03  0.7546771E-02  0.1147058E+00
         21   -1    0    0  502  501  0.00000000000E+00  0.00000000000E+00  0.15951270467E+03  0.15951270467E+03  0.00000000000E+00 0. -1.
         21   -1    0    0  501  502 -0.00000000000E+00 -0.00000000000E+00 -0.25888016733E+03  0.25888016733E+03  0.00000000000E+00 0. -1.
         25    1    1    2    0    0  0.20922285365E+02  0.15430027361E+03 -0.88522415695E+02  0.21842054515E+03  0.12500000000E+03 0.  0.
         25    1    1    2    0    0 -0.20922285365E+02 -0.15430027361E+03 -0.10845046962E+02  0.19997232685E+03  0.12500000000E+03 0.  0.
</event>
<event>
 4    0  0.2219362E-002  0.2980229E+03  0.7546771E-02  0.1086233E+00
         21   -1    0    0  502  501  0.00000000000E+00  0.00000000000E+00  0.42028852865E+03  0.42028852865E+03  0.00000000000E+00 0. -1.
         21   -1    0    0  501  502 -0.00000000000E+00 -0.00000000000E+00 -0.21132537237E+03  0.21132537237E+03  0.00000000000E+00 0. -1.
         25    1    1    2    0    0  0.37527167880E+02 -0.35540907195E+02 -0.17692347794E+03  0.22270689585E+03  0.12500000000E+03 0.  0.
         25    1    1    2    0    0 -0.37527167880E+02  0.35540907195E+02  0.38588663421E+03  0.40890700517E+03  0.12500000000E+03 0.  0.
</event>
<event>
 4    0  0.2219362E-002  0.1645722E+03  0.7546771E-02  0.1183629E+00
         21   -1    0    0  502  501  0.00000000000E+00  0.00000000000E+00  0.13361529028E+03  0.13361529028E+03  0.00000000000E+00 0. -1.
         21   -1    0    0  501  502 -0.00000000000E+00 -0.00000000000E+00 -0.20270148076E+03  0.20270148076E+03  0.00000000000E+00 0. -1.
         25    1    1    2    0    0  0.27094224324E+01 -0.64958221703E+02 -0.12143801165E+03  0.18600833909E+03  0.12500000000E+03 0.  0.
         25    1    1    2    0    0 -0.27094224324E+01  0.64958221703E+02  0.52351821169E+02  0.15030843195E+03  0.12500000000E+03 0.  0.
</event>
<event>
 4    0  0.2219362E-002  0.2737239E+03  0.7546771E-02  0.1099167E+00
         21   -1    0    0  502  501  0.00000000000E+00  0.00000000000E+00  0.76051253349E+03  0.76051253349E+03  0.00000000000E+00 0. -1.
         21   -1    0    0  501  502 -0.00000000000E+00 -0.00000000000E+00 -0.98518815461E+02  0.98518815461E+02  0.00000000000E+00 0. -1.
         25    1    1    2    0    0  0.12054114407E+03 -0.19698143362E+03  0.45221804021E+03  0.52293212609E+03  0.12500000000E+03 0.  0.
         25    1    1    2    0    0 -0.12054114407E+03  0.19698143362E+03  0.20977567782E+03  0.33609922286E+03  0.12500000000E+03 0.  0.
</event>
<event>
 4    0  0.2219362E-002  0.1985023E+03  0.7546771E-02  0.1151009E+00
         21   -1    0    0  502  501  0.00000000000E+00  0.00000000000E+00  0.73211841787E+03  0.73211841787E+03  0.00000000000E+00 0. -1.
         21   -1    0    0  501  502 -0.00000000000E+00 -0.00000000000E+00 -0.53820753097E+02  0.53820753097E+02  0.00000000000E+00 0. -1.
         25    1    1    2    0    0  0.45695009657E+02 -0.13175099033E+03  0.46944389202E+03  0.50541955355E+03  0.12500000000E+03 0.  0.
         25    1    1    2    0    0 -0.45695009657E+02  0.13175099033E+03  0.20885377276E+03  0.28051961742E+03  0.12500000000E+03 0.  0.
</event>
<event>
 4    0  0.2219362E-002  0.4285408E+03  0.7546771E-02  0.1034322E+00
         21   -1    0    0  502  501  0.00000000000E+00  0.00000000000E+00  0.81801709344E+03  0.81801709344E+03  0.00000000000E+00 0. -1.
         21   -1    0    0  501  502 -0.00000000000E+00 -0.00000000000E+00 -0.22450295313E+03  0.22450295313E+03  0.00000000000E+00 0. -1.
         25    1    1    2    0    0 -0.13469597813E+03  0.33128877727E+03  0.54041497595E+03  0.65997621677E+03  0.12500000000E+03 0.  0.
         25    1    1    2    0    0  0.13469597813E+03 -0.33128877727E+03  0.53099164357E+02  0.38254382980E+03  0.12500000000E+03 0.  0.
</event>
<event>
 4    0  0.2219362E-002  0.2125313E+03  0.7546771E-02  0.1139577E+00
         21   -1    0    0  502  501  0.00000000000E+00  0.00000000000E+00  0.52091155697E+02  0.52091155697E+02  0.00000000000E+00 0.  1.
         21   -1    0    0  501  502 -0.00000000000E+00 -0.00000000000E+00 -0.86712483654E+03  0.86712483654E+03  0.00000000000E+00 0.  1.
         25    1    1    2    0    0  0.73587191230E+02  0.89053293969E+02 -0.68275489555E+03  0.70365105789E+03  0.12500000000E+03 0.  0.
         25    1    1    2    0    0 -0.73587191230E+02 -0.89053293969E+02 -0.13227878530E+03  0.21556493435E+03  0.12500000000E+03 0.  0.
</event>
<event>
 4    0  0.2219362E-002  0.4374997E+03  0.7546771E-02  0.1031517E+00
         21   -1    0    0  502  501  0.00000000000E+00  0.00000000000E+00  0.18715764773E+03  0.18715764773E+03  0.00000000000E+00 0.  1.
         21   -1    0    0  501  502 -0.00000000000E+00 -0.00000000000E+00 -0.10226994026E+04  0.10226994026E+04  0.00000000000E+00 0.  1.
         25    1    1    2    0    0 -0.18126348626E+03  0.63868867725E+02  0.97448173803E+02  0.24911208380E+03  0.12500000000E+03 0.  0.
         25    1    1    2    0    0  0.18126348626E+03 -0.63868867725E+02 -0.93298992872E+03  0.96074496658E+03  0.12500000000E+03 0.  0.
</event>
<event>
 4    0  0.2219362E-002  0.1739991E+03  0.7546771E-02  0.1173740E+00
         21   -1    0    0  502  501  0.00000000000E+00  0.00000000000E+00  0.13282082573E+03  0.13282082573E+03  0.00000000000E+00 0.  1.
         21   -1    0    0  501  502 -0.00000000000E+00 -0.00000000000E+00 -0.22794390996E+03  0.22794390996E+03  0.00000000000E+00 0.  1.
         25    1    1    2    0    0 -0.75363218738E+02 -0.57517697836E+02  0.30450659651E+02  0.15981283733E+03  0.12500000000E+03 0.  0.
         25    1    1    2    0    0  0.75363218738E+02  0.57517697836E+02 -0.12557374388E+03  0.20095189836E+03  0.12500000000E+03 0.  0.
</event>
<event>
 4    0  0.2219362E-002  0.2043935E+03  0.7546771E-02  0.1146084E+00
         21   -1    0    0  502  501  0.00000000000E+00  0.00000000000E+00  0.17311091386E+03  0.17311091386E+03  0.00000000000E+00 0.  1.
         21   -1    0    0  501  502 -0.00000000000E+00 -0.00000000000E+00 -0.24132911658E+03  0.24132911658E+03  0.00000000000E+00 0.  1.
         25    1    1    2    0    0 -0.79850884059E+02  0.79321512047E+01 -0.17645232712E+03  0.23065018200E+03  0.12500000000E+03 0.  0.
         25    1    1    2    0    0  0.79850884059E+02 -0.79321512047E+01  0.10823412439E+03  0.18378984844E+03  0.12500000000E+03 0.  0.
</event>
<event>
 4    0  0.2219362E-002  0.2008807E+03  0.7546771E-02  0.1148998E+00
         21   -1    0    0  502  501  0.00000000000E+00  0.00000000000E+00  0.44790881546E+02  0.44790881546E+02  0.00000000000E+00 0. -1.
         21   -1    0    0  501  502 -0.00000000000E+00 -0.00000000000E+00 -0.90092125467E+03  0.90092125467E+03  0.00000000000E+00 0. -1.
         25    1    1    2    0    0 -0.11424636886E+03 -0.22838433854E+02 -0.17945979132E+03  0.24779960363E+03  0.12500000000E+03 0.  0.
         25    1    1    2    0    0  0.11424636886E+03  0.22838433854E+02 -0.67667058180E+03  0.69791253258E+03  0.12500000000E+03 0.  0.
</event>
<event>
 4    0  0.2219362E-002  0.2732325E+03  0.7546771E-02  0.1099444E+00
         21   -1    0    0  502  501  0.00000000000E+00  0.00000000000E+00  0.16544538757E+03  0.16544538757E+03  0.00000000000E+00 0.  1.
         21   -1    0    0  501  502 -0.00000000000E+00 -0.00000000000E+00 -0.45124268600E+03  0.45124268600E+03  0.00000000000E+00 0.  1.
         25    1    1    2    0    0 -0.19956346623E+03 -0.13752671422E+03 -0.12361981923E+03  0.29940947528E+03  0.12500000000E+03 0.  0.
         25    1    1    2    0    0  0.19956346623E+03  0.13752671422E+03 -0.16217747920E+03  0.31727859830E+03  0.12500000000E+03 0.  0.
</event>
<event>
 4    0  0.2219362E-002  0.2079846E+03  0.7546771E-02  0.1143172E+00
         21   -1    0    0  502  501  0.00000000000E+00  0.00000000000E+00  0.39992358412E+03  0.39992358412E+03  0.00000000000E+00 0. -1.
         21   -1    0    0  501  502 -0.00000000000E+00 -0.00000000000E+00 -0.10816464599E+03  0.10816464599E+03  0.00000000000E+00 0. -1.
         25    1    1    2    0    0 -0.90134050189E+02  0.35554353102E+02  0.31086352269E+03  0.34878272430E+03  0.12500000000E+03 0.  0.
         25    1    1    2    0    0  0.90134050189E+02 -0.35554353102E+02 -0.19104584566E+02  0.15930550580E+03  0.12500000000E+03 0.  0.
</event>
<event>
 4    0  0.2219362E-002  0.2799549E+03  0.7546771E-02  0.1095714E+00
         21   -1    0    0  502  501  0.00000000000E+00  0.00000000000E+00  0.61891818383E+03  0.61891818383E+03  0.00000000000E+00 0. -1.
         21   -1    0    0  501  502 -0.00000000000E+00 -0.00000000000E+00 -0.12663180798E+03  0.12663180798E+03  0.00000000000E+00 0. -1.
         25    1    1    2    0    0  0.11040505191E+03  0.13601056644E+03  0.48456786453E+03  0.53020671913E+03  0.12500000000E+03 0.  0.
         25    1    1    2    0    0 -0.11040505191E+03 -0.13601056644E+03  0.77185113138E+01  0.21534327268E+03  0.12500000000E+03 0.  0.
</event>
<event>
 4    0  0.2219362E-002  0.2709801E+03  0.7546771E-02  0.1100720E+00
         21   -1    0    0  502  501  0.00000000000E+00  0.00000000000E+00  0.44632214173E+03  0.44632214173E+03  0.00000000000E+00 0.  1.
         21   -1    0    0  501  502 -0.00000000000E+00 -0.00000000000E+00 -0.16452292613E+03  0.16452292613E+03  0.00000000000E+00 0.  1.
         25    1    1    2    0    0  0.23158702503E+03 -0.49574656835E+02  0.94223003541E+02  0.28388936429E+03  0.12500000000E+03 0.  0.
         25    1    1    2    0    0 -0.23158702503E+03  0.49574656835E+02  0.18757621207E+03  0.32695570357E+03  0.12500000000E+03 0.  0.
</event>
<event>
 4    0  0.2219362E-002  0.2637449E+03  0.7546771E-02  0.1104914E+00
         21   -1    0    0  502  501  0.00000000000E+00  0.00000000000E+00  0.80875178224E+02  0.80875178224E+02  0.00000000000E+00 0. -1.
         21   -1    0    0  501  502 -0.00000000000E+00 -0.00000000000E+00 -0.86010751652E+03  0.86010751652E+03  0.00000000000E+00 0. -1.
         25    1    1    2    0    0  0.55959856431E+02  0.21489182764E+03 -0.26828100585E+03  0.37001310953E+03  0.12500000000E+03 0.  0.
         25    1    1    2    0    0 -0.55959856431E+02 -0.21489182764E+03 -0.51095133244E+03  0.57096958522E+03  0.12500000000E+03 0.  0.
</event>
<event>
 4    0  0.2219362E-002  0.3235009E+03  0.7546771E-02  0.1074049E+00
         21   -1    0    0  502  501  0.00000000000E+00  0.00000000000E+00  0.17931949939E+03  0.17931949939E+03  0.00000000000E+00 0. -1.
         21   -1    0    0  501  502 -0.00000000000E+00 -0.00000000000E+00 -0.58361085613E+03  0.58361085613E+03  0.00000000000E+00 0. -1.
         25    1    1    2    0    0  0.17547564479E+03 -0.24028903489E+03 -0.22844120411E+03  0.39539967873E+03  0.12500000000E+03 0.  0.
         25    1    1    2    0    0 -0.17547564479E+03  0.24028903489E+03 -0.17585015263E+03  0.36753067679E+03  0.12500000000E+03 0.  0.
</event>
<event>
 4    0  0.2219362E-002  0.2023494E+03  0.7546771E-02  0.1147772E+00
         21   -1    0    0  502  501  0.00000000000E+00  0.00000000000E+00  0.96829893619E+03  0.96829893619E+03  0.00000000000E+00 0.  1.
         21   -1    0    0  501  502 -0.00000000000E+00 -0.00000000000E+00 -0.42285778372E+02  0.42285778372E+02  0.00000000000E+00 0.  1.
         25    1    1    2    0    0 -0.15654553347E+03 -0.11138942550E+02  0.52858622984E+03  0.56538392484E+03  0.12500000000E+03 0.  0.
         25    1    1    2    0    0  0.15654553347E+03  0.11138942550E+02  0.39742692798E+03  0.44520078973E+03  0.12500000000E+03 0.  0.
</event>
<event>
 4    0  0.2219362E-002  0.2090059E+03  0.7546771E-02  0.1142356E+00
         21   -1    0    0  502  501  0.00000000000E+00  0.00000000000E+00  0.11605878406E+04  0.11605878406E+04  0.00000000000E+00 0.  1.
         21   -1    0    0  501  502 -0.00000000000E+00 -0.00000000000E+00 -0.37639085501E+02  0.37639085501E+02  0.00000000000E+00 0.  1.
         25    1    1    2    0    0 -0.14348116752E+03 -0.80963776917E+02  0.47469559722E+03  0.51778652804E+03  0.12500000000E+03 0.  0.
         25    1    1    2    0    0  0.14348116752E+03  0.80963776917E+02  0.64825315789E+03  0.68044039807E+03  0.12500000000E+03 0.  0.
</event>
<event>
 4    0  0.2219362E-002  0.1639860E+03  0.7546771E-02  0.1184269E+00
         21   -1    0    0  502  501  0.00000000000E+00  0.00000000000E+00  0.12599999559E+03  0.12599999559E+03  0.00000000000E+00 0.  1.
         21   -1    0    0  501  502 -0.00000000000E+00 -0.00000000000E+00 -0.21342385197E+03  0.21342385197E+03  0.00000000000E+00 0.  1.
         25    1    1    2    0    0  0.93437434471E+02  0.41373412432E+02 -0.73421281441E+02  0.17736402675E+03  0.12500000000E+03 0.  0.
         25    1    1    2    0    0 -0.93437434471E+02 -0.41373412432E+02 -0.14002574944E+02  0.16205982081E+03  0.12500000000E+03 0.  0.
</event>
<event>
 4    0  0.2219362E-002  0.1536431E+03  0.7546771E-02  0.1196066E+00
         21   -1    0    0  502  501  0.00000000000E+00  0.00000000000E+00  0.87147789243E+03  0.87147789243E+03  0.00000000000E+00 0. -1.
         21   -1    0    0  501  502 -0.00000000000E+00 -0.00000000000E+00 -0.27087566989E+02  0.27087566989E+02  0.00000000000E+00 0. -1.
         25    1    1    2    0    0  0.43377279648E+02 -0.53541612199E+02  0.25592886367E+03  0.29304074100E+03  0.12500000000E+03 0.  0.
         25    1    1    2    0    0 -0.43377279648E+02  0.53541612199E+02  0.58846146176E+03  0.60552471841E+03  0.12500000000E+03 0.  0.
</event>
<event>
 4    0  0.2219362E-002  0.2192091E+03  0.7546771E-02  0.1134474E+00
         21   -1    0    0  502  501  0.00000000000E+00  0.00000000000E+00  0.20534087461E+03  0.20534087461E+03  0.00000000000E+00 0.  1.
         21   -1    0    0  501  502 -0.00000000000E+00 -0.00000000000E+00 -0.23401394275E+03  0.23401394275E+03  0.00000000000E+00 0.  1.
         25    1    1    2    0    0  0.25992633265E+02 -0.17284379028E+03 -0.57753852286E+02  0.22251089923E+03  0.12500000000E+03 0.  0.
         25    1    1    2    0    0 -0.25992633265E+02  0.17284379028E+03  0.29080784143E+02  0.21684391813E+03  0.12500000000E+03 0.  0.
</event>
<event>
 4    0  0.2219362E-002  0.2611750E+03  0.7546771E-02  0.1106439E+00
         21   -1    0    0  502  501  0.00000000000E+00  0.00000000000E+00  0.20169258267E+03  0.20169258267E+03  0.00000000000E+00 0. -1.
         21   -1    0    0  501  502 -0.00000000000E+00 -0.00000000000E+00 -0.33819977390E+03  0.33819977390E+03  0.00000000000E+00 0. -1.
         25    1    1    2    0    0 -0.13057874720E+03  0.18684032993E+03 -0.42367172682E+02  0.26340101638E+03  0.12500000000E+03 0.  0.
         25    1    1    2    0    0  0.13057874720E+03 -0.18684032993E+03 -0.94140018546E+02  0.27649134019E+03  0.12500000000E+03 0.  0.
</event>
<event>
 4    0  0.2219362E-002  0.2925725E+03  0.7546771E-02  0.1089014E+00
         21   -1    0    0  502  501  0.00000000000E+00  0.00000000000E+00  0.10558964434E+03  0.10558964434E+03  0.00000000000E+00 0.  1.
         21   -1    0    0  501  502 -0.00000000000E+00 -0.00000000000E+00 -0.81067315108E+03  0.81067315108E+03  0.00000000000E+00 0.  1.
         25    1    1    2    0    0  0.69208292644E+02 -0.10573939915E+03 -0.71642810699E+03  0.73814960597E+03  0.12500000000E+03 0.  0.
         25    1    1    2    0    0 -0.69208292644E+02  0.10573939915E+03  0.11344600248E+02  0.17811318945E+03  0.12500000000E+03 0.  0.
</event>
<event>
 4    0  0.2219362E-002  0.1719560E+03  0.7546771E-02  0.1175823E+00
         21   -1    0    0  502  501  0.00000000000E+00  0.00000000000E+00  0.44647749965E+02  0.44647749965E+02  0.00000000000E+00 0. -1.
         21   -1    0    0  501  502 -0.00000000000E+00 -0.00000000000E+00 -0.66226965555E+03  0.66226965555E+03  0.00000000000E+00 0. -1.
         25    1    1    2    0    0  0.13095839303E+02 -0.11721816200E+03 -0.29713758164E+03  0.34325987376E+03  0.12500000000E+03 0.  0.
         25    1    1    2    0    0 -0.13095839303E+02  0.11721816200E+03 -0.32048432394E+03  0.36365753175E+03  0.12500000000E+03 0.  0.
</event>
<event>
 4    0  0.2219362E-002  0.2816763E+03  0.7546771E-02  0.1094777E+00
         21   -1    0    0  502  501  0.00000000000E+00  0.00000000000E+00  0.35055167455E+03  0.35055167455E+03  0.00000000000E+00 0.  1.
         21   -1    0    0  501  502 -0.00000000000E+00 -0.00000000000E+00 -0.22633335042E+03  0.22633335042E+03  0.00000000000E+00 0.  1.
         25    1    1    2    0    0 -0.92804605193E+02  0.23224737647E+03  0.27157224371E+02  0.28091645281E+03  0.12500000000E+03 0.  0.
         25    1    1    2    0    0  0.92804605193E+02 -0.23224737647E+03  0.97061099762E+02  0.29596857217E+03  0.12500000000E+03 0.  0.
</event>
<event>
 4    0  0.2219362E-002  0.2284133E+03  0.7546771E-02  0.1127762E+00
         21   -1    0    0  502  501  0.00000000000E+00  0.00000000000E+00  0.25010887949E+03  0.25010887949E+03  0.00000000000E+00 0. -1.
         21   -1    0    0  501  502 -0.00000000000E+00 -0.00000000000E+00 -0.20859970501E+03  0.20859970501E+03  0.00000000000E+00 0. -1.
         25    1    1    2    0    0  0.55317050947E+01  0.18806031581E+03  0.54811216876E+02  0.23243612379E+03  0.12500000000E+03 0.  0.
         25    1    1    2    0    0 -0.55317050947E+01 -0.18806031581E+03 -0.13302042396E+02  0.22627246071E+03  0.12500000000E+03 0.  0.
</event>
<event>
 4    0  0.2219362E-002  0.1502606E+03  0.7546771E-02  0.1200153E+00
         21   -1    0    0  502  501  0.00000000000E+00  0.00000000000E+00  0.53983875580E+02  0.53983875580E+02  0.00000000000E+00 0.  1.
         21   -1    0    0  501  502 -0.00000000000E+00 -0.00000000000E+00 -0.41824082622E+03  0.41824082622E+03  0.00000000000E+00 0.  1.
         25    1    1    2    0    0  0.18655373619E+02  0.80213244954E+02 -0.16157599131E+03  0.22025891264E+03  0.12500000000E+03 0.  0.
         25    1    1    2    0    0 -0.18655373619E+02 -0.80213244954E+02 -0.20268095933E+03  0.25196578916E+03  0.12500000000E+03 0.  0.
</event>
<event>
 4    0  0.2219362E-002  0.2160507E+03  0.7546771E-02  0.1136862E+00
         21   -1    0    0  502  501  0.00000000000E+00  0.00000000000E+00  0.44769001697E+03  0.44769001697E+03  0.00000000000E+00 0.  1.
         21   -1    0    0  501  502 -0.00000000000E+00 -0.00000000000E+00 -0.10426390381E+03  0.10426390381E+03  0.00000000000E+00 0.  1.
         25    1    1    2    0    0 -0.16713671916E+03 -0.17441487907E+01  0.24300804083E+03  0.32033674915E+03  0.12500000000E+03 0.  0.
         25    1    1    2    0    0  0.16713671916E+03  0.17441487907E+01  0.10041807232E+03  0.23161717163E+03  0.12500000000E+03 0.  0.
</event>
<event>
 4    0  0.2219362E-002  0.2116622E+03  0.7546771E-02  0.1140256E+00
         21   -1    0    0  502  501  0.00000000000E+00  0.00000000000E+00  0.16992014531E+03  0.16992014531E+03  0.00000000000E+00 0. -1.
         21   -1    0    0  501  502 -0.00000000000E+00 -0.00000000000E+00 -0.26365855272E+03  0.26365855272E+03  0.00000000000E+00 0. -1.
         25    1    1    2    0    0  0.14813005537E+03 -0.42703820330E+02  0.28463572944E+02  0.20050262980E+03  0.12500000000E+03 0.  0.
         25    1    1    2    0    0 -0.14813005537E+03  0.42703820330E+02 -0.12220198035E+03  0.23307606822E+03  0.12500000000E+03 0.  0.
</event>
<event>
 4    0  0.2219362E-002  0.2110426E+03  0.7546771E-02  0.1140743E+00
         21   -1    0    0  502  501  0.00000000000E+00  0.00000000000E+00  0.25797588210E+03  0.25797588210E+03  0.00000000000E+00 0. -1.
         21   -1    0    0  501  502 -0.00000000000E+00 -0.00000000000E+00 -0.17264789747E+03  0.17264789747E+03  0.00000000000E+00 0. -1.
         25    1    1    2    0    0  0.21996781907E+01 -0.14812450646E+03 -0.42500936009E+02  0.19843648243E+03  0.12500000000E+03 0.  0.
         25    1    1    2    0    0 -0.21996781907E+01  0.14812450646E+03  0.12782892064E+03  0.23218729714E+03  0.12500000000E+03 0.  0.
</event>
<event>
 4    0  0.2219362E-002  0.2505943E+03  0.7546771E-02  0.1112930E+00
         21   -1    0    0  502  501  0.00000000000E+00  0.00000000000E+00  0.65968511590E+02  0.65968511590E+02  0.00000000000E+00 0. -1.
         21   -1    0    0  501  502 -0.00000000000E+00 -0.00000000000E+00 -0.95193126580E+03  0.95193126580E+03  0.00000000000E+00 0. -1.
         25    1    1    2    0    0 -0.99286975850E+02  0.17816168676E+03 -0.59459853446E+03  0.64091489871E+03  0.12500000000E+03 0.  0.
         25    1    1    2    0    0  0.99286975850E+02 -0.17816168676E+03 -0.29136421974E+03  0.37698487868E+03  0.12500000000E+03 0.  0.
</event>
<event>
 4    0  0.2219362E-002  0.2658326E+03  0.7546771E-02  0.1103689E+00
         21   -1    0    0  502  501  0.00000000000E+00  0.00000000000E+00  0.21732502582E+03  0.21732502582E+03  0.00000000000E+00 0.  1.
         21   -1    0    0  501  502 -0.00000000000E+00 -0.00000000000E+00 -0.32516727218E+03  0.32516727218E+03  0.00000000000E+00 0.  1.
         25    1    1    2    0    0 -0.36304502234E+02 -0.22290187614E+03 -0.11876624448E+03  0.28413673486E+03  0.12500000000E+03 0.  0.
         25    1    1    2    0    0  0.36304502234E+02  0.22290187614E+03  0.10923998117E+02  0.25835556314E+03  0.12500000000E+03 0.  0.
</event>
<event>
 4    0  0.2219362E-002  0.2311785E+03  0.7546771E-02  0.1125813E+00
         21   -1    0    0  502  501  0.00000000000E+00  0.00000000000E+00  0.77031048301E+03  0.77031048301E+03  0.00000000000E+00 0. -1.
         21   -1    0    0  501  502 -0.00000000000E+00 -0.00000000000E+00 -0.69379189558E+02  0.69379189558E+02  0.00000000000E+00 0. -1.
         25    1    1    2    0    0  0.11512339426E+03 -0.13161465004E+03  0.19590757196E+03  0.29082742093E+03  0.12500000000E+03 0.  0.
         25    1    1    2    0    0 -0.11512339426E+03  0.13161465004E+03  0.50502372149E+03  0.54886225164E+03  0.12500000000E+03 0.  0.
</event>
<event>
 4    0  0.2219362E-002  0.2243824E+03  0.7546771E-02  0.1130657E+00
         21   -1    0    0  502  501  0.00000000000E+00  0.00000000000E+00  0.25376970484E+03  0.25376970484E+03  0.00000000000E+00 0. -1.
         21   -1    0    0  501  502 -0.00000000000E+00 -0.00000000000E+00 -0.19839814768E+03  0.19839814768E+03  0.00000000000E+00 0. -1.
         25    1    1    2    0    0  0.41675352721E+02  0.17041090891E+03  0.90977146308E+02  0.23383445865E+03  0.12500000000E+03 0.  0.
         25    1    1    2    0    0 -0.41675352721E+02 -0.17041090891E+03 -0.35605589143E+02  0.21833339387E+03  0.12500000000E+03 0.  0.
</event>
<event>
 4    0  0.2219362E-002  0.2233365E+03  0.7546771E-02  0.1131420E+00
         21   -1    0    0  502  501  0.00000000000E+00  0.00000000000E+00  0.28493937909E+03  0.28493937909E+03  0.00000000000E+00 0.  1.
         21   -1    0    0  501  502 -0.00000000000E+00 -0.00000000000E+00 -0.17505191145E+03  0.17505191145E+03  0.00000000000E+00 0.  1.
         25    1    1    2    0    0  0.34879527189E+02  0.18168414730E+03  0.49448702728E+02  0.22868293552E+03  0.12500000000E+03 0.  0.
         25    1    1    2    0    0 -0.34879527189E+02 -0.18168414730E+03  0.60438764911E+02  0.23130835501E+03  0.12500000000E+03 0.  0.
</event>
<event>
 4    0  0.2219362E-002  0.2066224E+03  0.7546771E-02  0.1144269E+00
         21   -1    0    0  502  501  0.00000000000E+00  0.00000000000E+00  0.11891026596E+03  0.11891026596E+03  0.00000000000E+00 0.  1.
         21   -1    0    0  501  502 -0.00000000000E+00 -0.00000000000E+00 -0.35903375026E+03  0.35903375026E+03  0.00000000000E+00 0.  1.
         25    1    1    2    0    0  0.44867345546E+02 -0.14934160814E+03 -0.18073236841E+03  0.26945349062E+03  0.12500000000E+03 0.  0.
         25    1    1    2    0    0 -0.44867345546E+02  0.14934160814E+03 -0.59391115882E+02  0.20849052560E+03  0.12500000000E+03 0.  0.
</event>
<event>
 4    0  0.2219362E-002  0.4202800E+03  0.7546771E-02  0.1036975E+00
         21   -1    0    0  502  501  0.00000000000E+00  0.00000000000E+00  0.45023083153E+03  0.45023083153E+03  0.00000000000E+00 0.  1.
         21   -1    0    0  501  502 -0.00000000000E+00 -0.00000000000E+00 -0.39232151831E+03  0.39232151831E+03  0.00000000000E+00 0.  1.
         25    1    1    2    0    0  0.21955636470E+03  0.13528003311E+03 -0.27918996885E+03  0.40009714238E+03  0.12500000000E+03 0.  0.
         25    1    1    2    0    0 -0.21955636470E+03 -0.13528003311E+03  0.33709928206E+03  0.44245520746E+03  0.12500000000E+03 0.  0.
</event>
<event>
 4    0  0.2219362E-002  0.1761205E+03  0.7546771E-02  0.1171611E+00
         21   -1    0    0  502  501  0.00000000000E+00  0.00000000000E+00  0.22598130765E+02  0.22598130765E+02  0.00000000000E+00 0.  1.
         21   -1    0    0  501  502 -0.00000000000E+00 -0.00000000000E+00 -0.13726097869E+04  0.13726097869E+04  0.00000000000E+00 0.  1.
         25    1    1    2    0    0  0.97921589940E+02  0.45259072878E+02 -0.43224159522E+03  0.46270381249E+03  0.12500000000E+03 0.  0.
         25    1    1    2    0    0 -0.97921589940E+02 -0.45259072878E+02 -0.91777006087E+03  0.93250410513E+03  0.12500000000E+03 0.  0.
</event>
<event>
 4    0  0.2219362E-002  0.2602206E+03  0.7546771E-02  0.1107011E+00
         21   -1    0    0  502  501  0.00000000000E+00  0.00000000000E+00  0.99922124629E+03  0.99922124629E+03  0.00000000000E+00 0.  1.
         21   -1    0    0  501  502 -0.00000000000E+00 -0.00000000000E+00 -0.67767552872E+02  0.67767552872E+02  0.00000000000E+00 0.  1.
         25    1    1    2    0    0  0.21267265471E+03  0.58833072701E+02  0.34620417081E+03  0.42915418720E+03  0.12500000000E+03 0.  0.
         25    1    1    2    0    0 -0.21267265471E+03 -0.58833072701E+02  0.58524952261E+03  0.63783461196E+03  0.12500000000E+03 0.  0.
</event>
<event>
 4    0  0.2219362E-002  0.3351903E+03  0.7546771E-02  0.1068863E+00
         21   -1    0    0  502  501  0.00000000000E+00  0.00000000000E+00  0.25371447135E+03  0.25371447135E+03  0.00000000000E+00 0.  1.
         21   -1    0    0  501  502 -0.00000000000E+00 -0.00000000000E+00 -0.44283056306E+03  0.44283056306E+03  0.00000000000E+00 0.  1.
         25    1    1    2    0    0  0.93978427825E+02 -0.10223005553E+03  0.19459205140E+03  0.26976655763E+03  0.12500000000E+03 0.  0.
         25    1    1    2    0    0 -0.93978427825E+02  0.10223005553E+03 -0.38370814311E+03  0.42677847677E+03  0.12500000000E+03 0.  0.
</event>
<event>
 4    0  0.2219362E-002  0.2459321E+03  0.7546771E-02  0.1115903E+00
         21   -1    0    0  502  501  0.00000000000E+00  0.00000000000E+00  0.70099623095E+03  0.70099623095E+03  0.00000000000E+00 0.  1.
         21   -1    0    0  501  502 -0.00000000000E+00 -0.00000000000E+00 -0.86280884606E+02  0.86280884606E+02  0.00000000000E+00 0.  1.
         25    1    1    2    0    0  0.16449570813E+03 -0.13339741425E+03  0.30421023105E+03  0.39118099749E+03  0.12500000000E+03 0.  0.
         25    1    1    2    0    0 -0.16449570813E+03  0.13339741425E+03  0.31050511529E+03  0.39609611806E+03  0.12500000000E+03 0.  0.
</event>
<event>
 4    0  0.2219362E-002  0.2509689E+03  0.7546771E-02  0.1112694E+00
         21   -1    0    0  502  501  0.00000000000E+00  0.00000000000E+00  0.74999147022E+03  0.74999147022E+03  0.00000000000E+00 0.  1.
         21   -1    0    0  501  502 -0.00000000000E+00 -0.00000000000E+00 -0.83981498556E+02  0.83981498556E+02  0.00000000000E+00 0.  1.
         25    1    1    2    0    0  0.17344536046E+03  0.85626213313E+02  0.16730967788E+03  0.28466237859E+03  0.12500000000E+03 0.  0.
         25    1    1    2    0    0 -0.17344536046E+03 -0.85626213313E+02  0.49870029379E+03  0.54931059019E+03  0.12500000000E+03 0.  0.
</event>
<event>
 4    0  0.2219362E-002  0.3853329E+03  0.7546771E-02  0.1048980E+00
         21   -1    0    0  502  501  0.00000000000E+00  0.00000000000E+00  0.62320022349E+02  0.62320022349E+02  0.00000000000E+00 0.  1.
         21   -1    0    0  501  502 -0.00000000000E+00 -0.00000000000E+00 -0.23825639269E+04  0.23825639269E+04  0.00000000000E+00 0.  1.
         25    1    1    2    0    0  0.12075912951E+03 -0.21120078505E+03 -0.29906612117E+03  0.40528272083E+03  0.12500000000E+03 0.  0.
         25    1    1    2    0    0 -0.12075912951E+03  0.21120078505E+03 -0.20211777833E+04  0.20396012284E+04  0.12500000000E+03 0.  0.
</event>
<event>
 4    0  0.2219362E-002  0.2753664E+03  0.7546771E-02  0.1098247E+00
         21   -1    0    0  502  501  0.00000000000E+00  0.00000000000E+00  0.40205026630E+03  0.40205026630E+03  0.00000000000E+00 0. -1.
         21   -1    0    0  501  502 -0.00000000000E+00 -0.00000000000E+00 -0.18859987494E+03  0.18859987494E+03  0.00000000000E+00 0. -1.
         25    1    1    2    0    0  0.13603130015E+03 -0.18809333590E+03  0.19197230734E+03  0.32613185128E+03  0.12500000000E+03 0.  0.
         25    1    1    2    0    0 -0.13603130015E+03  0.18809333590E+03  0.21478084020E+02  0.26451828996E+03  0.12500000000E+03 0.  0.
</event>
<event>
 4    0  0.2219362E-002  0.1810822E+03  0.7546771E-02  0.1166760E+00
         21   -1    0    0  502  501  0.00000000000E+00  0.00000000000E+00  0.54983817517E+02  0.54983817517E+02  0.00000000000E+00 0.  1.
         21   -1    0    0  501  502 -0.00000000000E+00 -0.00000000000E+00 -0.59637086854E+03  0.59637086854E+03  0.00000000000E+00 0.  1.
         25    1    1    2    0    0  0.14170097537E+02 -0.12923749780E+03 -0.24154748826E+03  0.30145200544E+03  0.12500000000E+03 0.  0.
         25    1    1    2    0    0 -0.14170097537E+02  0.12923749780E+03 -0.29983956276E+03  0.34990268061E+03  0.12500000000E+03 0.  0.
</event>
<event>
 4    0  0.2219362E-002  0.2381655E+03  0.7546771E-02  0.1121021E+00
         21   -1    0    0  502  501  0.00000000000E+00  0.00000000000E+00  0.30614488723E+03  0.30614488723E+03  0.00000000000E+00 0. -1.
         21   -1    0    0  501  502 -0.00000000000E+00 -0.00000000000E+00 -0.18528087381E+03  0.18528087381E+03  0.00000000000E+00 0. -1.
         25    1    1    2    0    0  0.29873854696E+02  0.55850088524E+02  0.25911229394E+03  0.29457742692E+03  0.12500000000E+03 0.  0.
         25    1    1    2    0    0 -0.29873854696E+02 -0.55850088524E+02 -0.13824828051E+03  0.19684833412E+03  0.12500000000E+03 0.  0.
</event>
<event>
 4    0  0.2219362E-002  0.3972470E+03  0.7546771E-02  0.1044737E+00
         21   -1    0    0  502  501  0.00000000000E+00  0.00000000000E+00  0.40589865610E+03  0.40589865610E+03  0.00000000000E+00 0. -1.
         21   -1    0    0  501  502 -0.00000000000E+00 -0.00000000000E+00 -0.38877971157E+03  0.38877971157E+03  0.00000000000E+00 0. -1.
         25    1    1    2    0    0  0.54902231312E+02  0.35769727357E+03 -0.97382853533E+02  0.39505697650E+03  0.12500000000E+03 0.  0.
         25    1    1    2    0    0 -0.54902231312E+02 -0.35769727357E+03  0.11450179806E+03  0.39962139117E+03  0.12500000000E+03 0.  0.
</event>
<event>
 4    0  0.2219362E-002  0.1952796E+03  0.7546771E-02  0.1153784E+00
         21   -1    0    0  502  501  0.00000000000E+00  0.00000000000E+00  0.90619432725E+03  0.90619432725E+03  0.00000000000E+00 0. -1.
         21   -1    0    0  501  502 -0.00000000000E+00 -0.00000000000E+00 -0.42081631467E+02  0.42081631467E+02  0.00000000000E+00 0. -1.
         25    1    1    2    0    0 -0.11813075228E+03 -0.19175584511E+02  0.65174036593E+03  0.67432416704E+03  0.12500000000E+03 0.  0.
         25    1    1    2    0    0  0.11813075228E+03  0.19175584511E+02  0.21237232985E+03  0.27395179167E+03  0.12500000000E+03 0.  0.
</event>
<event>
 4    0  0.2219362E-002  0.2042875E+03  0.7546771E-02  0.1146171E+00
         21   -1    0    0  502  501  0.00000000000E+00  0.00000000000E+00  0.68471451154E+02  0.68471451154E+02  0.00000000000E+00 0. -1.
         21   -1    0    0  501  502 -0.00000000000E+00 -0.00000000000E+00 -0.60950063085E+03  0.60950063085E+03  0.00000000000E+00 0. -1.
         25    1    1    2    0    0  0.82564279263E+02  0.11031447383E+03 -0.13047573345E+03  0.22723349305E+03  0.12500000000E+03 0.  0.
         25    1    1    2    0    0 -0.82564279263E+02 -0.11031447383E+03 -0.41055344624E+03  0.45073858895E+03  0.12500000000E+03 0.  0.
</event>
<event>
 4    0  0.2219362E-002  0.2799842E+03  0.7546771E-02  0.1095698E+00
         21   -1    0    0  502  501  0.00000000000E+00  0.00000000000E+00  0.20364894219E+03  0.20364894219E+03  0.00000000000E+00 0.  1.
         21   -1    0    0  501  502 -0.00000000000E+00 -0.00000000000E+00 -0.38493278467E+03  0.38493278467E+03  0.00000000000E+00 0.  1.
         25    1    1    2    0    0  0.12488209511E+03  0.21371346610E+03 -0.49971471716E+02  0.28176431864E+03  0.12500000000E+03 0.  0.
         25    1    1    2    0    0 -0.12488209511E+03 -0.21371346610E+03 -0.13131237077E+03  0.30681740822E+03  0.12500000000E+03 0.  0.
</event>
<event>
 4    0  0.2219362E-002  0.2157643E+03  0.7546771E-02  0.1137081E+00
         21   -1    0    0  502  501  0.00000000000E+00  0.00000000000E+00  0.53829765840E+02  0.53829765840E+02  0.00000000000E+00 0. -1.
         21   -1    0    0  501  502 -0.00000000000E+00 -0.00000000000E+00 -0.86484167051E+03  0.86484167051E+03  0.00000000000E+00 0. -1.
         25    1    1    2    0    0  0.14945858577E+03  0.12729783814E+02 -0.21005101772E+03  0.28678623799E+03  0.12500000000E+03 0.  0.
         25    1    1    2    0    0 -0.14945858577E+03 -0.12729783814E+02 -0.60096088695E+03  0.63188519835E+03  0.12500000000E+03 0.  0.
</event>
<event>
 4    0  0.2219362E-002  0.1901746E+03  0.7546771E-02  0.1158304E+00
         21   -1    0    0  502  501  0.00000000000E+00  0.00000000000E+00  0.87123367822E+02  0.87123367822E+02  0.00000000000E+00 0.  1.
         21   -1    0    0  501  502 -0.00000000000E+00 -0.00000000000E+00 -0.41511690751E+03  0.41511690751E+03  0.00000000000E+00 0.  1.
         25    1    1    2    0    0 -0.45506760926E+02  0.49462238222E+01 -0.34333823913E+03  0.36824105809E+03  0.12500000000E+03 0.  0.
         25    1    1    2    0    0  0.45506760926E+02 -0.49462238222E+01  0.15344699436E+02  0.13399921724E+03  0.12500000000E+03 0.  0.
</event>
<event>
 4    0  0.2219362E-002  0.2142016E+03  0.7546771E-02  0.1138281E+00
         21   -1    0    0  502  501  0.00000000000E+00  0.00000000000E+00  0.16184162982E+03  0.16184162982E+03  0.00000000000E+00 0.  1.
         21   -1    0    0  501  502 -0.00000000000E+00 -0.00000000000E+00 -0.28350141202E+03  0.28350141202E+03  0.00000000000E+00 0.  1.
         25    1    1    2    0    0  0.12341745993E+03 -0.10087713096E+03 -0.13322011619E+03  0.24244724029E+03  0.12500000000E+03 0.  0.
         25    1    1    2    0    0 -0.12341745993E+03  0.10087713096E+03  0.11560333986E+02  0.20289580155E+03  0.12500000000E+03 0.  0.
</event>
<event>
 4    0  0.2219362E-002  0.2528232E+03  0.7546771E-02  0.1111534E+00
         21   -1    0    0  502  501  0.00000000000E+00  0.00000000000E+00  0.39151870326E+03  0.39151870326E+03  0.00000000000E+00 0.  1.
         21   -1    0    0  501  502 -0.00000000000E+00 -0.00000000000E+00 -0.16326054019E+03  0.16326054019E+03  0.00000000000E+00 0.  1.
         25    1    1    2    0    0  0.17180631108E+03 -0.13686162476E+03  0.12157384761E+03  0.28045269348E+03  0.12500000000E+03 0.  0.
         25    1    1    2    0    0 -0.17180631108E+03  0.13686162476E+03  0.10668431545E+03  0.27432654997E+03  0.12500000000E+03 0.  0.
</event>
<event>
 4    0  0.2219362E-002  0.1883512E+03  0.7546771E-02  0.1159957E+00
         21   -1    0    0  502  501  0.00000000000E+00  0.00000000000E+00  0.57044780314E+02  0.57044780314E+02  0.00000000000E+00 0.  1.
         21   -1    0    0  501  502 -0.00000000000E+00 -0.00000000000E+00 -0.62190023315E+03  0.62190023315E+03  0.00000000000E+00 0.  1.
         25    1    1    2    0    0  0.10022477091E+03  0.70784759132E+02 -0.40724111642E+03  0.44331232076E+03  0.12500000000E+03 0.  0.
         25    1    1    2    0    0 -0.10022477091E+03 -0.70784759132E+02 -0.15761433641E+03  0.23563269270E+03  0.12500000000E+03 0.  0.
</event>
<event>
 4    0  0.2219362E-002  0.1922623E+03  0.7546771E-02  0.1156437E+00
         21   -1    0    0  502  501  0.00000000000E+00  0.00000000000E+00  0.61237496574E+02  0.61237496574E+02  0.00000000000E+00 0.  1.
         21   -1    0    0  501  502 -0.00000000000E+00 -0.00000000000E+00 -0.60362978298E+03  0.60362978298E+03  0.00000000000E+00 0.  1.
         25    1    1    2    0    0  0.92826736065E+02 -0.10916378915E+03 -0.22210045471E+03  0.29238185267E+03  0.12500000000E+03 0.  0.
         25    1    1    2    0    0 -0.92826736065E+02  0.10916378915E+03 -0.32029183170E+03  0.37248542689E+03  0.12500000000E+03 0.  0.
</event>
<event>
 4    0  0.2219362E-002  0.2855981E+03  0.7546771E-02  0.1092670E+00
         21   -1    0    0  502  501  0.00000000000E+00  0.00000000000E+00  0.64428450768E+03  0.64428450768E+03  0.00000000000E+00 0. -1.
         21   -1    0    0  501  502 -0.00000000000E+00 -0.00000000000E+00 -0.12659976593E+03  0.12659976593E+03  0.00000000000E+00 0. -1.
         25    1    1    2    0    0 -0.16904637458E+03 -0.28644616950E+02  0.84671493955E+00  0.21218602160E+03  0.12500000000E+03 0.  0.
         25    1    1    2    0    0  0.16904637458E+03  0.28644616950E+02  0.51683802681E+03  0.55869825201E+03  0.12500000000E+03 0.  0.
</event>
<event>
 4    0  0.2219362E-002  0.2442752E+03  0.7546771E-02  0.1116977E+00
         21   -1    0    0  502  501  0.00000000000E+00  0.00000000000E+00  0.31822174388E+03  0.31822174388E+03  0.00000000000E+00 0.  1.
         21   -1    0    0  501  502 -0.00000000000E+00 -0.00000000000E+00 -0.18751190725E+03  0.18751190725E+03  0.00000000000E+00 0.  1.
         25    1    1    2    0    0 -0.10296348339E+03 -0.95996886829E+02 -0.95774794856E+02  0.21122190351E+03  0.12500000000E+03 0.  0.
         25    1    1    2    0    0  0.10296348339E+03  0.95996886829E+02  0.22648463148E+03  0.29451174763E+03  0.12500000000E+03 0.  0.
</event>
<event>
 4    0  0.2219362E-002  0.2501624E+03  0.7546771E-02  0.1113202E+00
         21   -1    0    0  502  501  0.00000000000E+00  0.00000000000E+00  0.85061033254E+02  0.85061033254E+02  0.00000000000E+00 0.  1.
         21   -1    0    0  501  502 -0.00000000000E+00 -0.00000000000E+00 -0.73572138419E+03  0.73572138419E+03  0.00000000000E+00 0.  1.
         25    1    1    2    0    0  0.12661654706E+03  0.17355978564E+03 -0.37177316791E+03  0.44720804729E+03  0.12500000000E+03 0.  0.
         25    1    1    2    0    0 -0.12661654706E+03 -0.17355978564E+03 -0.27888718302E+03  0.37357437015E+03  0.12500000000E+03 0.  0.
</event>
<event>
 4    0  0.2219362E-002  0.2182877E+03  0.7546771E-02  0.1135166E+00
         21   -1    0    0  502  501  0.00000000000E+00  0.00000000000E+00  0.14959247440E+03  0.14959247440E+03  0.00000000000E+00 0. -1.
         21   -1    0    0  501  502 -0.00000000000E+00 -0.00000000000E+00 -0.31852882287E+03  0.31852882287E+03  0.00000000000E+00 0. -1.
         25    1    1    2    0    0  0.83601637375E+02 -0.95004271919E+02 -0.22013936325E+03  0.28302188026E+03  0.12500000000E+03 0.  0.
         25    1    1    2    0    0 -0.83601637375E+02  0.95004271919E+02  0.51203014775E+02  0.18509941701E+03  0.12500000000E+03 0.  0.
</event>
<event>
 4    0  0.2219362E-002  0.1984358E+03  0.7546771E-02  0.1151065E+00
         21   -1    0    0  502  501  0.00000000000E+00  0.00000000000E+00  0.52856941105E+03  0.52856941105E+03  0.00000000000E+00 0.  1.
         21   -1    0    0  501  502 -0.00000000000E+00 -0.00000000000E+00 -0.74496885834E+02  0.74496885834E+02  0.00000000000E+00 0.  1.
         25    1    1    2    0    0  0.10108753753E+02 -0.13736966552E+03  0.12198750538E+03  0.22243777416E+03  0.12500000000E+03 0.  0.
         25    1    1    2    0    0 -0.10108753753E+02  0.13736966552E+03  0.33208501984E+03  0.38062852272E+03  0.12500000000E+03 0.  0.
</event>
<event>
 4    0  0.2219362E-002  0.1651832E+03  0.7546771E-02  0.1182966E+00
         21   -1    0    0  502  501  0.00000000000E+00  0.00000000000E+00  0.14890474470E+03  0.14890474470E+03  0.00000000000E+00 0. -1.
         21   -1    0    0  501  502 -0.00000000000E+00 -0.00000000000E+00 -0.18324132931E+03  0.18324132931E+03  0.00000000000E+00 0. -1.
         25    1    1    2    0    0  0.86274632784E+02  0.47741480909E+02  0.27090905825E+02  0.16149761125E+03  0.12500000000E+03 0.  0.
         25    1    1    2    0    0 -0.86274632784E+02 -0.47741480909E+02 -0.61427490430E+02  0.17064846276E+03  0.12500000000E+03 0.  0.
</event>
<event>
 4    0  0.2219362E-002  0.1372562E+03  0.7546771E-02  0.1217069E+00
         21   -1    0    0  502  501  0.00000000000E+00  0.00000000000E+00  0.31400239539E+03  0.31400239539E+03  0.00000000000E+00 0. -1.
         21   -1    0    0  501  502 -0.00000000000E+00 -0.00000000000E+00 -0.59997172225E+02  0.59997172225E+02  0.00000000000E+00 0. -1.
         25    1    1    2    0    0  0.35379760203E+02 -0.43679902453E+02  0.11693599285E+03  0.18016294773E+03  0.12500000000E+03 0.  0.
         25    1    1    2    0    0 -0.35379760203E+02  0.43679902453E+02  0.13706923031E+03  0.19383661989E+03  0.12500000000E+03 0.  0.
</event>
<event>
 4    0  0.2219362E-002  0.2135245E+03  0.7546771E-02  0.1138805E+00
         21   -1    0    0  502  501  0.00000000000E+00  0.00000000000E+00  0.17535403441E+03  0.17535403441E+03  0.00000000000E+00 0.  1.
         21   -1    0    0  501  502 -0.00000000000E+00 -0.00000000000E+00 -0.26000386695E+03  0.26000386695E+03  0.00000000000E+00 0.  1.
         25    1    1    2    0    0  0.78237042310E+02  0.15331629375E+03 -0.61145039659E+02  0.22133828542E+03  0.12500000000E+03 0.  0.
         25    1    1    2    0    0 -0.78237042310E+02 -0.15331629375E+03 -0.23504792881E+02  0.21401961594E+03  0.12500000000E+03 0.  0.
</event>
<event>
 4    0  0.2219362E-002  0.1974057E+03  0.7546771E-02  0.1151946E+00
         21   -1    0    0  502  501  0.00000000000E+00  0.00000000000E+00  0.47480039949E+03  0.47480039949E+03  0.00000000000E+00 0. -1.
         21   -1    0    0  501  502 -0.00000000000E+00 -0.00000000000E+00 -0.82074544228E+02  0.82074544228E+02  0.00000000000E+00 0. -1.
         25    1    1    2    0    0 -0.33359435255E+02 -0.14900662321E+03  0.20385320491E+03  0.28371985273E+03  0.12500000000E+03 0.  0.
         25    1    1    2    0    0  0.33359435255E+02  0.14900662321E+03  0.18887265035E+03  0.27315509099E+03  0.12500000000E+03 0.  0.
</event>
<event>
 4    0  0.2219362E-002  0.1477631E+03  0.7546771E-02  0.1203249E+00
         21   -1    0    0  502  501  0.00000000000E+00  0.00000000000E+00  0.16373504894E+02  0.16373504894E+02  0.00000000000E+00 0.  1.
         21   -1    0    0  501  502 -0.00000000000E+00 -0.00000000000E+00 -0.13334910514E+04  0.13334910514E+04  0.00000000000E+00 0.  1.
         25    1    1    2    0    0 -0.42312619672E+02 -0.61100357421E+02 -0.77813314446E+03  0.79160583751E+03  0.12500000000E+03 0.  0.
         25    1    1    2    0    0  0.42312619672E+02  0.61100357421E+02 -0.53898440209E+03  0.55825871884E+03  0.12500000000E+03 0.  0.
</event>
<event>
 4    0  0.2219362E-002  0.2234604E+03  0.7546771E-02  0.1131329E+00
         21   -1    0    0  502  501  0.00000000000E+00  0.00000000000E+00  0.48373307929E+02  0.48373307929E+02  0.00000000000E+00 0.  1.
         21   -1    0    0  501  502 -0.00000000000E+00 -0.00000000000E+00 -0.10322751016E+04  0.10322751016E+04  0.00000000000E+00 0.  1.
         25    1    1    2    0    0  0.52248045867E+02  0.15928394693E+03 -0.68247113070E+03  0.71378783842E+03  0.12500000000E+03 0.  0.
         25    1    1    2    0    0 -0.52248045867E+02 -0.15928394693E+03 -0.30143066294E+03  0.36686057107E+03  0.12500000000E+03 0.  0.
</event>
<event>
 4    0  0.2219362E-002  0.2608916E+03  0.7546771E-02  0.1106609E+00
         21   -1    0    0  502  501  0.00000000000E+00  0.00000000000E+00  0.73742797639E+02  0.73742797639E+02  0.00000000000E+00 0. -1.
         21   -1    0    0  501  502 -0.00000000000E+00 -0.00000000000E+00 -0.92299778620E+03  0.92299778620E+03  0.00000000000E+00 0. -1.
         25    1    1    2    0    0  0.18254198912E+03  0.13183342338E+03 -0.50426050115E+03  0.56622017125E+03  0.12500000000E+03 0.  0.
         25    1    1    2    0    0 -0.18254198912E+03 -0.13183342338E+03 -0.34499448741E+03  0.43052041259E+03  0.12500000000E+03 0.  0.
</event>
<event>
 4    0  0.2219362E-002  0.1926280E+03  0.7546771E-02  0.1156112E+00
         21   -1    0    0  502  501  0.00000000000E+00  0.00000000000E+00  0.52789932123E+03  0.52789932123E+03  0.00000000000E+00 0.  1.
         21   -1    0    0  501  502 -0.00000000000E+00 -0.00000000000E+00 -0.70289076329E+02  0.70289076329E+02  0.00000000000E+00 0.  1.
         25    1    1    2    0    0  0.10183403559E+03  0.93048637081E+02  0.30569665337E+03  0.35791572130E+03  0.12500000000E+03 0.  0.
         25    1    1    2    0    0 -0.10183403559E+03 -0.93048637081E+02  0.15191359152E+03  0.24027267626E+03  0.12500000000E+03 0.  0.
</event>
<event>
 4    0  0.2219362E-002  0.2876958E+03  0.7546771E-02  0.1091558E+00
         21   -1    0    0  502  501  0.00000000000E+00  0.00000000000E+00  0.13345042632E+03  0.13345042632E+03  0.00000000000E+00 0.  1.
         21   -1    0    0  501  502 -0.00000000000E+00 -0.00000000000E+00 -0.62022197081E+03  0.62022197081E+03  0.00000000000E+00 0.  1.
         25    1    1    2    0    0 -0.23306975697E+03  0.10672908391E+03 -0.29294002966E+03  0.40884161963E+03  0.12500000000E+03 0.  0.
         25    1    1    2    0    0  0.23306975697E+03 -0.10672908391E+03 -0.19383151483E+03  0.34483077749E+03  0.12500000000E+03 0.  0.
</event>
<event>
 4    0  0.2219362E-002  0.2091733E+03  0.7546771E-02  0.1142222E+00
         21   -1    0    0  502  501  0.00000000000E+00  0.00000000000E+00  0.76786523650E+03  0.76786523650E+03  0.00000000000E+00 0.  1.
         21   -1    0    0  501  502 -0.00000000000E+00 -0.00000000000E+00 -0.56980652093E+02  0.56980652093E+02  0.00000000000E+00 0.  1.
         25    1    1    2    0    0  0.16586210023E+03 -0.18018155540E+02  0.38922493980E+03  0.44153815688E+03  0.12500000000E+03 0.  0.
         25    1    1    2    0    0 -0.16586210023E+03  0.18018155540E+02  0.32165964460E+03  0.38330773171E+03  0.12500000000E+03 0.  0.
</event>
<event>
 4    0  0.2219362E-002  0.1747005E+03  0.7546771E-02  0.1173033E+00
         21   -1    0    0  502  501  0.00000000000E+00  0.00000000000E+00  0.72085270916E+02  0.72085270916E+02  0.00000000000E+00 0. -1.
         21   -1    0    0  501  502 -0.00000000000E+00 -0.00000000000E+00 -0.42339124129E+03  0.42339124129E+03  0.00000000000E+00 0. -1.
         25    1    1    2    0    0 -0.52127966757E+02  0.99065329177E+02 -0.10670472021E+03  0.19885211007E+03  0.12500000000E+03 0.  0.
         25    1    1    2    0    0  0.52127966757E+02 -0.99065329177E+02 -0.24460125017E+03  0.29662440214E+03  0.12500000000E+03 0.  0.
</event>
<event>
 4    0  0.2219362E-002  0.4143059E+03  0.7546771E-02  0.1038936E+00
         21   -1    0    0  502  501  0.00000000000E+00  0.00000000000E+00  0.99956115171E+03  0.99956115171E+03  0.00000000000E+00 0.  1.
         21   -1    0    0  501  502 -0.00000000000E+00 -0.00000000000E+00 -0.17172477888E+03  0.17172477888E+03  0.00000000000E+00 0.  1.
         25    1    1    2    0    0 -0.35604955982E+02 -0.32003876727E+03  0.73728465448E+03  0.81419051037E+03  0.12500000000E+03 0.  0.
         25    1    1    2    0    0  0.35604955982E+02  0.32003876727E+03  0.90551718352E+02  0.35709542022E+03  0.12500000000E+03 0.  0.
</event>
<event>
 4    0  0.2219362E-002  0.3447668E+03  0.7546771E-02  0.1064784E+00
         21   -1    0    0  502  501  0.00000000000E+00  0.00000000000E+00  0.93009338063E+02  0.93009338063E+02  0.00000000000E+00 0.  1.
         21   -1    0    0  501  502 -0.00000000000E+00 -0.00000000000E+00 -0.12779805880E+04  0.12779805880E+04  0.00000000000E+00 0.  1.
         25    1    1    2    0    0 -0.13197126316E+03  0.13706610715E+03 -0.77693847160E+02  0.24055117110E+03  0.12500000000E+03 0.  0.
         25    1    1    2    0    0  0.13197126316E+03 -0.13706610715E+03 -0.11072774028E+04  0.11304387550E+04  0.12500000000E+03 0.  0.
</event>
<event>
 4    0  0.2219362E-002  0.3850961E+03  0.7546771E-02  0.1049066E+00
         21   -1    0    0  502  501  0.00000000000E+00  0.00000000000E+00  0.37196258932E+03  0.37196258932E+03  0.00000000000E+00 0.  1.
         21   -1    0    0  501  502 -0.00000000000E+00 -0.00000000000E+00 -0.39869341379E+03  0.39869341379E+03  0.00000000000E+00 0.  1.
         25    1    1    2    0    0  0.15843727465E+03  0.30883704327E+03 -0.12384631728E+03  0.38916012077E+03  0.12500000000E+03 0.  0.
         25    1    1    2    0    0 -0.15843727465E+03 -0.30883704327E+03  0.97115492811E+02  0.38149588234E+03  0.12500000000E+03 0.  0.
</event>
<event>
 4    0  0.2219362E-002  0.2261606E+03  0.7546771E-02  0.1129372E+00
         21   -1    0    0  502  501  0.00000000000E+00  0.00000000000E+00  0.95267697220E+02  0.95267697220E+02  0.00000000000E+00 0. -1.
         21   -1    0    0  501  502 -0.00000000000E+00 -0.00000000000E+00 -0.53689349656E+03  0.53689349656E+03  0.00000000000E+00 0. -1.
         25    1    1    2    0    0 -0.10202227447E+03 -0.23825352996E+02 -0.43978249457E+03  0.46905205944E+03  0.12500000000E+03 0.  0.
         25    1    1    2    0    0  0.10202227447E+03  0.23825352996E+02 -0.18433047747E+01  0.16310913435E+03  0.12500000000E+03 0.  0.
</event>
<event>
 4    0  0.2219362E-002  0.1763050E+03  0.7546771E-02  0.1171428E+00
         21   -1    0    0  502  501  0.00000000000E+00  0.00000000000E+00  0.58108638320E+02  0.58108638320E+02  0.00000000000E+00 0. -1.
         21   -1    0    0  501  502 -0.00000000000E+00 -0.00000000000E+00 -0.53491982663E+03  0.53491982663E+03  0.00000000000E+00 0. -1.
         25    1    1    2    0    0  0.10298971434E+03 -0.46092087722E+02 -0.32623328259E+03  0.36713010838E+03  0.12500000000E+03 0.  0.
         25    1    1    2    0    0 -0.10298971434E+03  0.46092087722E+02 -0.15057790572E+03  0.22589835657E+03  0.12500000000E+03 0.  0.
</event>
<event>
 4    0  0.2219362E-002  0.3426629E+03  0.7546771E-02  0.1065667E+00
         21   -1    0    0  502  501  0.00000000000E+00  0.00000000000E+00  0.11308241844E+03  0.11308241844E+03  0.00000000000E+00 0.  1.
         21   -1    0    0  501  502 -0.00000000000E+00 -0.00000000000E+00 -0.10383388451E+04  0.10383388451E+04  0.00000000000E+00 0.  1.
         25    1    1    2    0    0 -0.43745811440E+02  0.18851737903E+03 -0.88879434307E+03  0.91816822124E+03  0.12500000000E+03 0.  0.
         25    1    1    2    0    0  0.43745811440E+02 -0.18851737903E+03 -0.36462083612E+02  0.23325304233E+03  0.12500000000E+03 0.  0.
</event>
<event>
 4    0  0.2219362E-002  0.2043927E+03  0.7546771E-02  0.1146085E+00
         21   -1    0    0  502  501  0.00000000000E+00  0.00000000000E+00  0.34220440829E+03  0.34220440829E+03  0.00000000000E+00 0.  1.
         21   -1    0    0  501  502 -0.00000000000E+00 -0.00000000000E+00 -0.12208017102E+03  0.12208017102E+03  0.00000000000E+00 0.  1.
         25    1    1    2    0    0 -0.13091196584E+02  0.13385059839E+03  0.21205372769E+03  0.28049803127E+03  0.12500000000E+03 0.  0.
         25    1    1    2    0    0  0.13091196584E+02 -0.13385059839E+03  0.80705095711E+01  0.18378654804E+03  0.12500000000E+03 0.  0.
</event>
<event>
 4    0  0.2219362E-002  0.1952660E+03  0.7546771E-02  0.1153796E+00
         21   -1    0    0  502  501  0.00000000000E+00  0.00000000000E+00  0.36621765807E+03  0.36621765807E+03  0.00000000000E+00 0.  1.
         21   -1    0    0  501  502 -0.00000000000E+00 -0.00000000000E+00 -0.10411516562E+03  0.10411516562E+03  0.00000000000E+00 0.  1.
         25    1    1    2    0    0  0.62352039356E+02 -0.31922388434E+02 -0.28708708227E+02  0.14613694134E+03  0.12500000000E+03 0.  0.
         25    1    1    2    0    0 -0.62352039356E+02  0.31922388434E+02  0.29081120068E+03  0.32419588236E+03  0.12500000000E+03 0.  0.
</event>
<event>
 4    0  0.2219362E-002  0.2914211E+03  0.7546771E-02  0.1089610E+00
         21   -1    0    0  502  501  0.00000000000E+00  0.00000000000E+00  0.51712374707E+03  0.51712374707E+03  0.00000000000E+00 0. -1.
         21   -1    0    0  501  502 -0.00000000000E+00 -0.00000000000E+00 -0.16422810350E+03  0.16422810350E+03  0.00000000000E+00 0. -1.
         25    1    1    2    0    0  0.21168384026E+03  0.14056489728E+03  0.96025690136E+02  0.29902252714E+03  0.12500000000E+03 0.  0.
         25    1    1    2    0    0 -0.21168384026E+03 -0.14056489728E+03  0.25686995344E+03  0.38232932343E+03  0.12500000000E+03 0.  0.
</event>
<event>
 4    0  0.2219362E-002  0.2636081E+03  0.7546771E-02  0.1104995E+00
         21   -1    0    0  502  501  0.00000000000E+00  0.00000000000E+00  0.80379817750E+03  0.80379817750E+03  0.00000000000E+00 0.  1.
         21   -1    0    0  501  502 -0.00000000000E+00 -0.00000000000E+00 -0.86451108856E+02  0.86451108856E+02  0.00000000000E+00 0.  1.
         25    1    1    2    0    0 -0.19618307604E+02  0.18102657137E+03  0.11567718512E+03  0.24932249937E+03  0.12500000000E+03 0.  0.
         25    1    1    2    0    0  0.19618307604E+02 -0.18102657137E+03  0.60166988352E+03  0.64092678698E+03  0.12500000000E+03 0.  0.
</event>
<event>
 4    0  0.2219362E-002  0.2023099E+03  0.7546771E-02  0.1147805E+00
         21   -1    0    0  502  501  0.00000000000E+00  0.00000000000E+00  0.71914412000E+03  0.71914412000E+03  0.00000000000E+00 0. -1.
         21   -1    0    0  501  502 -0.00000000000E+00 -0.00000000000E+00 -0.56913923261E+02  0.56913923261E+02  0.00000000000E+00 0. -1.
         25    1    1    2    0    0 -0.52005994132E+02 -0.63335405555E+02  0.59261227611E+03  0.61117125818E+03  0.12500000000E+03 0.  0.
         25    1    1    2    0    0  0.52005994132E+02  0.63335405555E+02  0.69617920624E+02  0.16488678508E+03  0.12500000000E+03 0.  0.
</event>
<event>
 4    0  0.2219362E-002  0.2179501E+03  0.7546771E-02  0.1135421E+00
         21   -1    0    0  502  501  0.00000000000E+00  0.00000000000E+00  0.62910670502E+02  0.62910670502E+02  0.00000000000E+00 0. -1.
         21   -1    0    0  501  502 -0.00000000000E+00 -0.00000000000E+00 -0.75507463230E+03  0.75507463230E+03  0.00000000000E+00 0. -1.
         25    1    1    2    0    0  0.88574676250E+02 -0.11889547547E+03 -0.15940943941E+03  0.25103381591E+03  0.12500000000E+03 0.  0.
         25    1    1    2    0    0 -0.88574676250E+02  0.11889547547E+03 -0.53275452239E+03  0.56695148689E+03  0.12500000000E+03 0.  0.
</event>
<event>
 4    0  0.2219362E-002  0.2075385E+03  0.7546771E-02  0.1143530E+00
         21   -1    0    0  502  501  0.00000000000E+00  0.00000000000E+00  0.49627691252E+02  0.49627691252E+02  0.00000000000E+00 0.  1.
         21   -1    0    0  501  502 -0.00000000000E+00 -0.00000000000E+00 -0.86790723222E+03  0.86790723222E+03  0.00000000000E+00 0.  1.
         25    1    1    2    0    0 -0.70272559052E+02 -0.13125926620E+03 -0.24851553621E+03  0.31551893644E+03  0.12500000000E+03 0.  0.
         25    1    1    2    0    0  0.70272559052E+02  0.13125926620E+03 -0.56976400476E+03  0.60201598703E+03  0.12500000000E+03 0.  0.
</event>
<event>
 4    0  0.2219362E-002  0.3027884E+03  0.7546771E-02  0.1083855E+00
         21   -1    0    0  502  501  0.00000000000E+00  0.00000000000E+00  0.12726922899E+04  0.12726922899E+04  0.00000000000E+00 0.  1.
         21   -1    0    0  501  502 -0.00000000000E+00 -0.00000000000E+00 -0.72036910763E+02  0.72036910763E+02  0.00000000000E+00 0.  1.
         25    1    1    2    0    0  0.26916317023E+03  0.22051234024E+02  0.47627813551E+03  0.56160567260E+03  0.12500000000E+03 0.  0.
         25    1    1    2    0    0 -0.26916317023E+03 -0.22051234024E+02  0.72437724364E+03  0.78312352808E+03  0.12500000000E+03 0.  0.
</event>
<event>
 4    0  0.2219362E-002  0.1876271E+03  0.7546771E-02  0.1160619E+00
         21   -1    0    0  502  501  0.00000000000E+00  0.00000000000E+00  0.14485139921E+03  0.14485139921E+03  0.00000000000E+00 0. -1.
         21   -1    0    0  501  502 -0.00000000000E+00 -0.00000000000E+00 -0.24303489747E+03  0.24303489747E+03  0.00000000000E+00 0. -1.
         25    1    1    2    0    0 -0.52984456155E+02 -0.90067879378E+02  0.47096475671E+02  0.16959555864E+03  0.12500000000E+03 0.  0.
         25    1    1    2    0    0  0.52984456155E+02  0.90067879378E+02 -0.14527997393E+03  0.21829073804E+03  0.12500000000E+03 0.  0.
</event>
<event>
 4    0  0.2219362E-002  0.2297770E+03  0.7546771E-02  0.1126797E+00
         21   -1    0    0  502  501  0.00000000000E+00  0.00000000000E+00  0.37423207330E+03  0.37423207330E+03  0.00000000000E+00 0.  1.
         21   -1    0    0  501  502 -0.00000000000E+00 -0.00000000000E+00 -0.14108211924E+03  0.14108211924E+03  0.00000000000E+00 0.  1.
         25    1    1    2    0    0  0.18690206852E+03 -0.20373730744E+00  0.16964661159E+03  0.28166895027E+03  0.12500000000E+03 0.  0.
         25    1    1    2    0    0 -0.18690206852E+03  0.20373730744E+00  0.63503342476E+02  0.23364524226E+03  0.12500000000E+03 0.  0.
</event>
<event>
 4    0  0.2219362E-002  0.1747362E+03  0.7546771E-02  0.1172997E+00
         21   -1    0    0  502  501  0.00000000000E+00  0.00000000000E+00  0.87684392389E+02  0.87684392389E+02  0.00000000000E+00 0. -1.
         21   -1    0    0  501  502 -0.00000000000E+00 -0.00000000000E+00 -0.34821175870E+03  0.34821175870E+03  0.00000000000E+00 0. -1.
         25    1    1    2    0    0  0.54995871638E+02 -0.10638470405E+03 -0.15992434557E+03  0.23567572522E+03  0.12500000000E+03 0.  0.
         25    1    1    2    0    0 -0.54995871638E+02  0.10638470405E+03 -0.10060302074E+03  0.20022042587E+03  0.12500000000E+03 0.  0.
</event>
<event>
 4    0  0.2219362E-002  0.2065931E+03  0.7546771E-02  0.1144293E+00
         21   -1    0    0  502  501  0.00000000000E+00  0.00000000000E+00  0.12609834662E+04  0.12609834662E+04  0.00000000000E+00 0.  1.
         21   -1    0    0  501  502 -0.00000000000E+00 -0.00000000000E+00 -0.33847169322E+02  0.33847169322E+02  0.00000000000E+00 0.  1.
         25    1    1    2    0    0 -0.59445808141E+01  0.51424926694E+02  0.12429985931E+03  0.18372619887E+03  0.12500000000E+03 0.  0.
         25    1    1    2    0    0  0.59445808141E+01 -0.51424926694E+02  0.11028364376E+04  0.11111044367E+04  0.12500000000E+03 0.  0.
</event>
<event>
 4    0  0.2219362E-002  0.3361326E+03  0.7546771E-02  0.1068455E+00
         21   -1    0    0  502  501  0.00000000000E+00  0.00000000000E+00  0.19070597456E+03  0.19070597456E+03  0.00000000000E+00 0.  1.
         21   -1    0    0  501  502 -0.00000000000E+00 -0.00000000000E+00 -0.59245730387E+03  0.59245730387E+03  0.00000000000E+00 0. -1.
         25    1    1    2    0    0  0.16934137127E+03 -0.19889276402E+03 -0.39968966505E+03  0.49357031916E+03  0.12500000000E+03 0.  0.
         25    1    1    2    0    0 -0.16934137127E+03  0.19889276402E+03 -0.20616642479E+01  0.28959295927E+03  0.12500000000E+03 0.  0.
</event>
<event>
 4    0  0.2219362E-002  0.1575878E+03  0.7546771E-02  0.1191447E+00
         21   -1    0    0  502  501  0.00000000000E+00  0.00000000000E+00  0.54704371685E+02  0.54704371685E+02  0.00000000000E+00 0.  1.
         21   -1    0    0  501  502 -0.00000000000E+00 -0.00000000000E+00 -0.45396576447E+03  0.45396576447E+03  0.00000000000E+00 0.  1.
         25    1    1    2    0    0  0.90159051501E+02  0.92713159467E+01 -0.25052186302E+03  0.29428016535E+03  0.12500000000E+03 0.  0.
         25    1    1    2    0    0 -0.90159051501E+02 -0.92713159467E+01 -0.14873952977E+03  0.21438997081E+03  0.12500000000E+03 0.  0.
</event>
<event>
 4    0  0.2219362E-002  0.1755811E+03  0.7546771E-02  0.1172149E+00
         21   -1    0    0  502  501  0.00000000000E+00  0.00000000000E+00  0.98868746266E+02  0.98868746266E+02  0.00000000000E+00 0. -1.
         21   -1    0    0  501  502 -0.00000000000E+00 -0.00000000000E+00 -0.31181470476E+03  0.31181470476E+03  0.00000000000E+00 0. -1.
         25    1    1    2    0    0 -0.11026958890E+02  0.11978847470E+03 -0.74813129461E+02  0.18892558544E+03  0.12500000000E+03 0.  0.
         25    1    1    2    0    0  0.11026958890E+02 -0.11978847470E+03 -0.13813282903E+03  0.22175786559E+03  0.12500000000E+03 0.  0.
</event>
<event>
 4    0  0.2219362E-002  0.2757680E+03  0.7546771E-02  0.1098023E+00
         21   -1    0    0  502  501  0.00000000000E+00  0.00000000000E+00  0.54618264876E+03  0.54618264876E+03  0.00000000000E+00 0.  1.
         21   -1    0    0  501  502 -0.00000000000E+00 -0.00000000000E+00 -0.13923546702E+03  0.13923546702E+03  0.00000000000E+00 0.  1.
         25    1    1    2    0    0 -0.52397808736E+02 -0.74191999993E+02  0.48733388887E+03  0.51124289967E+03  0.12500000000E+03 0.  0.
         25    1    1    2    0    0  0.52397808736E+02  0.74191999993E+02 -0.80386707134E+02  0.17417521611E+03  0.12500000000E+03 0.  0.
</event>
<event>
 4    0  0.2219362E-002  0.2420051E+03  0.7546771E-02  0.1118464E+00
         21   -1    0    0  502  501  0.00000000000E+00  0.00000000000E+00  0.43234065604E+02  0.43234065604E+02  0.00000000000E+00 0.  1.
         21   -1    0    0  501  502 -0.00000000000E+00 -0.00000000000E+00 -0.13546369825E+04  0.13546369825E+04  0.00000000000E+00 0.  1.
         25    1    1    2    0    0  0.16083389001E+03  0.13016110519E+03 -0.62251834227E+03  0.66780501641E+03  0.12500000000E+03 0.  0.
         25    1    1    2    0    0 -0.16083389001E+03 -0.13016110519E+03 -0.68888457467E+03  0.73006603174E+03  0.12500000000E+03 0.  0.
</event>
<event>
 4    0  0.2219362E-002  0.3787706E+03  0.7546771E-02  0.1051389E+00
         21   -1    0    0  502  501  0.00000000000E+00  0.00000000000E+00  0.49335023061E+02  0.49335023061E+02  0.00000000000E+00 0. -1.
         21   -1    0    0  501  502 -0.00000000000E+00 -0.00000000000E+00 -0.29080190341E+04  0.29080190341E+04  0.00000000000E+00 0. -1.
         25    1    1    2    0    0 -0.19655383877E+03  0.57601308631E+02 -0.25734592229E+04  0.25846215766E+04  0.12500000000E+03 0.  0.
         25    1    1    2    0    0  0.19655383877E+03 -0.57601308631E+02 -0.28522478812E+03  0.37273248054E+03  0.12500000000E+03 0.  0.
</event>
<event>
 4    0  0.2219362E-002  0.2138460E+03  0.7546771E-02  0.1138556E+00
         21   -1    0    0  502  501  0.00000000000E+00  0.00000000000E+00  0.15979024552E+03  0.15979024552E+03  0.00000000000E+00 0.  1.
         21   -1    0    0  501  502 -0.00000000000E+00 -0.00000000000E+00 -0.28618845059E+03  0.28618845059E+03  0.00000000000E+00 0.  1.
         25    1    1    2    0    0 -0.12765534323E+03 -0.10529387275E+03 -0.87912214061E+01  0.20756919778E+03  0.12500000000E+03 0.  0.
         25    1    1    2    0    0  0.12765534323E+03  0.10529387275E+03 -0.11760698366E+03  0.23840949834E+03  0.12500000000E+03 0.  0.
</event>
<event>
 4    0  0.2219362E-002  0.2979031E+03  0.7546771E-02  0.1086294E+00
         21   -1    0    0  502  501  0.00000000000E+00  0.00000000000E+00  0.12901920121E+03  0.12901920121E+03  0.00000000000E+00 0.  1.
         21   -1    0    0  501  502 -0.00000000000E+00 -0.00000000000E+00 -0.68785294187E+03  0.68785294187E+03  0.00000000000E+00 0.  1.
         25    1    1    2    0    0 -0.18435446218E+03 -0.68480273812E+02 -0.53387303495E+03  0.58251311837E+03  0.12500000000E+03 0.  0.
         25    1    1    2    0    0  0.18435446218E+03  0.68480273812E+02 -0.24960705708E+02  0.23435902470E+03  0.12500000000E+03 0.  0.
</event>
<event>
 4    0  0.2219362E-002  0.1518284E+03  0.7546771E-02  0.1198244E+00
         21   -1    0    0  502  501  0.00000000000E+00  0.00000000000E+00  0.22476278351E+03  0.22476278351E+03  0.00000000000E+00 0.  1.
         21   -1    0    0  501  502 -0.00000000000E+00 -0.00000000000E+00 -0.10256090078E+03  0.10256090078E+03  0.00000000000E+00 0.  1.
         25    1    1    2    0    0  0.26532386522E+02 -0.17086007303E+02  0.14754451448E+03  0.19593438425E+03  0.12500000000E+03 0.  0.
         25    1    1    2    0    0 -0.26532386522E+02  0.17086007303E+02 -0.25342631753E+02  0.13138930004E+03  0.12500000000E+03 0.  0.
</event>
<event>
 4    0  0.2219362E-002  0.4373509E+03  0.7546771E-02  0.1031563E+00
         21   -1    0    0  502  501  0.00000000000E+00  0.00000000000E+00  0.94330822924E+03  0.94330822924E+03  0.00000000000E+00 0. -1.
         21   -1    0    0  501  502 -0.00000000000E+00 -0.00000000000E+00 -0.20277123661E+03  0.20277123661E+03  0.00000000000E+00 0. -1.
         25    1    1    2    0    0  0.21710999250E+03  0.75705119033E+02  0.82938557572E+03  0.86969733075E+03  0.12500000000E+03 0.  0.
         25    1    1    2    0    0 -0.21710999250E+03 -0.75705119033E+02 -0.88848583093E+02  0.27638213511E+03  0.12500000000E+03 0.  0.
</event>
<event>
 4    0  0.2219362E-002  0.2420063E+03  0.7546771E-02  0.1118463E+00
         21   -1    0    0  502  501  0.00000000000E+00  0.00000000000E+00  0.22950545285E+03  0.22950545285E+03  0.00000000000E+00 0.  1.
         21   -1    0    0  501  502 -0.00000000000E+00 -0.00000000000E+00 -0.25518810883E+03  0.25518810883E+03  0.00000000000E+00 0.  1.
         25    1    1    2    0    0 -0.11997569175E+02  0.13456814904E+03 -0.17019141285E+03  0.25068435414E+03  0.12500000000E+03 0.  0.
         25    1    1    2    0    0  0.11997569175E+02 -0.13456814904E+03  0.14450875688E+03  0.23400920754E+03  0.12500000000E+03 0.  0.
</event>
<event>
 4    0  0.2219362E-002  0.2174031E+03  0.7546771E-02  0.1135834E+00
         21   -1    0    0  502  501  0.00000000000E+00  0.00000000000E+00  0.78735231349E+02  0.78735231349E+02  0.00000000000E+00 0. -1.
         21   -1    0    0  501  502 -0.00000000000E+00 -0.00000000000E+00 -0.60029199359E+03  0.60029199359E+03  0.00000000000E+00 0. -1.
         25    1    1    2    0    0  0.94818170058E+02  0.14691047525E+03 -0.20979120297E+03  0.30035066499E+03  0.12500000000E+03 0.  0.
         25    1    1    2    0    0 -0.94818170058E+02 -0.14691047525E+03 -0.31176555927E+03  0.37867655996E+03  0.12500000000E+03 0.  0.
</event>
<event>
 4    0  0.2219362E-002  0.3244663E+03  0.7546771E-02  0.1073612E+00
         21   -1    0    0  502  501  0.00000000000E+00  0.00000000000E+00  0.67587719578E+02  0.67587719578E+02  0.00000000000E+00 0. -1.
         21   -1    0    0  501  502 -0.00000000000E+00 -0.00000000000E+00 -0.15576550933E+04  0.15576550933E+04  0.00000000000E+00 0. -1.
         25    1    1    2    0    0  0.26050064764E+03  0.10645937314E+03 -0.48889963194E+03  0.57779065037E+03  0.12500000000E+03 0.  0.
         25    1    1    2    0    0 -0.26050064764E+03 -0.10645937314E+03 -0.10011677418E+04  0.10474521625E+04  0.12500000000E+03 0.  0.
</event>
<event>
 4    0  0.2219362E-002  0.2834300E+03  0.7546771E-02  0.1093830E+00
         21   -1    0    0  502  501  0.00000000000E+00  0.00000000000E+00  0.11804726936E+04  0.11804726936E+04  0.00000000000E+00 0. -1.
         21   -1    0    0  501  502 -0.00000000000E+00 -0.00000000000E+00 -0.68051200250E+02  0.68051200250E+02  0.00000000000E+00 0. -1.
         25    1    1    2    0    0 -0.16290744333E+03 -0.13937675572E+03  0.25467484730E+03  0.35559667177E+03  0.12500000000E+03 0.  0.
         25    1    1    2    0    0  0.16290744333E+03  0.13937675572E+03  0.85774664605E+03  0.89292722208E+03  0.12500000000E+03 0.  0.
</event>
<event>
 4    0  0.2219362E-002  0.2505086E+03  0.7546771E-02  0.1112984E+00
         21   -1    0    0  502  501  0.00000000000E+00  0.00000000000E+00  0.25216212336E+02  0.25216212336E+02  0.00000000000E+00 0. -1.
         21   -1    0    0  501  502 -0.00000000000E+00 -0.00000000000E+00 -0.24886588911E+04  0.24886588911E+04  0.00000000000E+00 0. -1.
         25    1    1    2    0    0 -0.20772033115E+03 -0.60386285535E+02 -0.11398425298E+04  0.11669019805E+04  0.12500000000E+03 0.  0.
         25    1    1    2    0    0  0.20772033115E+03  0.60386285535E+02 -0.13236001490E+04  0.13469731229E+04  0.12500000000E+03 0.  0.
</event>
<event>
 4    0  0.2219362E-002  0.2278751E+03  0.7546771E-02  0.1128144E+00
         21   -1    0    0  502  501  0.00000000000E+00  0.00000000000E+00  0.11873282601E+03  0.11873282601E+03  0.00000000000E+00 0. -1.
         21   -1    0    0  501  502 -0.00000000000E+00 -0.00000000000E+00 -0.43734384119E+03  0.43734384119E+03  0.00000000000E+00 0. -1.
         25    1    1    2    0    0  0.18500057726E+03 -0.44376509285E+02 -0.17196095944E+03  0.28528943152E+03  0.12500000000E+03 0.  0.
         25    1    1    2    0    0 -0.18500057726E+03  0.44376509285E+02 -0.14665005574E+03  0.27078723569E+03  0.12500000000E+03 0.  0.
</event>
<event>
 4    0  0.2219362E-002  0.1746943E+03  0.7546771E-02  0.1173039E+00
         21   -1    0    0  502  501  0.00000000000E+00  0.00000000000E+00  0.36012921298E+03  0.36012921298E+03  0.00000000000E+00 0. -1.
         21   -1    0    0  501  502 -0.00000000000E+00 -0.00000000000E+00 -0.84742072478E+02  0.84742072478E+02  0.00000000000E+00 0. -1.
         25    1    1    2    0    0 -0.10957519543E+02 -0.65433477691E+02  0.26811357745E+03  0.30316909085E+03  0.12500000000E+03 0.  0.
         25    1    1    2    0    0  0.10957519543E+02  0.65433477691E+02  0.72735630592E+01  0.14170219461E+03  0.12500000000E+03 0.  0.
</event>
<event>
 4    0  0.2219362E-002  0.2334804E+03  0.7546771E-02  0.1124214E+00
         21   -1    0    0  502  501  0.00000000000E+00  0.00000000000E+00  0.14228718553E+03  0.14228718553E+03  0.00000000000E+00 0.  1.
         21   -1    0    0  501  502 -0.00000000000E+00 -0.00000000000E+00 -0.38312029042E+03  0.38312029042E+03  0.00000000000E+00 0.  1.
         25    1    1    2    0    0  0.17851716569E+02 -0.17098436970E+03 -0.11712855561E+02  0.21287679406E+03  0.12500000000E+03 0.  0.
         25    1    1    2    0    0 -0.17851716569E+02  0.17098436970E+03 -0.22912024933E+03  0.31253068188E+03  0.12500000000E+03 0.  0.
</event>
<event>
 4    0  0.2219362E-002  0.2357906E+03  0.7546771E-02  0.1122629E+00
         21   -1    0    0  502  501  0.00000000000E+00  0.00000000000E+00  0.55573971944E+03  0.55573971944E+03  0.00000000000E+00 0.  1.
         21   -1    0    0  501  502 -0.00000000000E+00 -0.00000000000E+00 -0.10004177976E+03  0.10004177976E+03  0.00000000000E+00 0.  1.
         25    1    1    2    0    0  0.19660942734E+03  0.35404664168E+02  0.21677350633E+03  0.32019448810E+03  0.12500000000E+03 0.  0.
         25    1    1    2    0    0 -0.19660942734E+03 -0.35404664168E+02  0.23892443336E+03  0.33558701110E+03  0.12500000000E+03 0.  0.
</event>
<event>
 4    0  0.2219362E-002  0.1825056E+03  0.7546771E-02  0.1165400E+00
         21   -1    0    0  502  501  0.00000000000E+00  0.00000000000E+00  0.51076373956E+02  0.51076373956E+02  0.00000000000E+00 0.  1.
         21   -1    0    0  501  502 -0.00000000000E+00 -0.00000000000E+00 -0.65212686929E+03  0.65212686929E+03  0.00000000000E+00 0.  1.
         25    1    1    2    0    0  0.35475844412E+02  0.59503689350E+02 -0.51920119424E+03  0.53851100702E+03  0.12500000000E+03 0.  0.
         25    1    1    2    0    0 -0.35475844412E+02 -0.59503689350E+02 -0.81849301096E+02  0.16469223623E+03  0.12500000000E+03 0.  0.
</event>
<event>
 4    0  0.2219362E-002  0.2504437E+03  0.7546771E-02  0.1113025E+00
         21   -1    0    0  502  501  0.00000000000E+00  0.00000000000E+00  0.45126011351E+03  0.45126011351E+03  0.00000000000E+00 0. -1.
         21   -1    0    0  501  502 -0.00000000000E+00 -0.00000000000E+00 -0.13899316192E+03  0.13899316192E+03  0.00000000000E+00 0. -1.
         25    1    1    2    0    0  0.13226319539E+03  0.50107445476E+02  0.35009913741E+03  0.39774202061E+03  0.12500000000E+03 0.  0.
         25    1    1    2    0    0 -0.13226319539E+03 -0.50107445476E+02 -0.37832185820E+02  0.19251125482E+03  0.12500000000E+03 0.  0.
</event>
<event>
 4    0  0.2219362E-002  0.2148746E+03  0.7546771E-02  0.1137763E+00
         21   -1    0    0  502  501  0.00000000000E+00  0.00000000000E+00  0.48098095312E+02  0.48098095312E+02  0.00000000000E+00 0. -1.
         21   -1    0    0  501  502 -0.00000000000E+00 -0.00000000000E+00 -0.95993643681E+03  0.95993643681E+03  0.00000000000E+00 0. -1.
         25    1    1    2    0    0  0.80916377991E+02  0.13261976415E+03 -0.64372598378E+03  0.67390177642E+03  0.12500000000E+03 0.  0.
         25    1    1    2    0    0 -0.80916377991E+02 -0.13261976415E+03 -0.26811235772E+03  0.33413275570E+03  0.12500000000E+03 0.  0.
</event>
<event>
 4    0  0.2219362E-002  0.1839382E+03  0.7546771E-02  0.1164045E+00
         21   -1    0    0  502  501  0.00000000000E+00  0.00000000000E+00  0.27280776347E+02  0.27280776347E+02  0.00000000000E+00 0. -1.
         21   -1    0    0  501  502 -0.00000000000E+00 -0.00000000000E+00 -0.12401875075E+04  0.12401875075E+04  0.00000000000E+00 0. -1.
         25    1    1    2    0    0 -0.13059436450E+02 -0.92335494746E+01 -0.10680867192E+04  0.10754952566E+04  0.12500000000E+03 0.  0.
         25    1    1    2    0    0  0.13059436450E+02  0.92335494746E+01 -0.14482001197E+03  0.19197302723E+03  0.12500000000E+03 0.  0.
</event>
<event>
 4    0  0.2219362E-002  0.2278561E+03  0.7546771E-02  0.1128158E+00
         21   -1    0    0  502  501  0.00000000000E+00  0.00000000000E+00  0.26194030616E+03  0.26194030616E+03  0.00000000000E+00 0.  1.
         21   -1    0    0  501  502 -0.00000000000E+00 -0.00000000000E+00 -0.19820693296E+03  0.19820693296E+03  0.00000000000E+00 0.  1.
         25    1    1    2    0    0 -0.25350352890E+02  0.10172875163E+03  0.19248080230E+03  0.25231971495E+03  0.12500000000E+03 0.  0.
         25    1    1    2    0    0  0.25350352890E+02 -0.10172875163E+03 -0.12874742910E+03  0.20782752416E+03  0.12500000000E+03 0.  0.
</event>
<event>
 4    0  0.2219362E-002  0.1954187E+03  0.7546771E-02  0.1153663E+00
         21   -1    0    0  502  501  0.00000000000E+00  0.00000000000E+00  0.80163302808E+02  0.80163302808E+02  0.00000000000E+00 0. -1.
         21   -1    0    0  501  502 -0.00000000000E+00 -0.00000000000E+00 -0.47638318688E+03  0.47638318688E+03  0.00000000000E+00 0. -1.
         25    1    1    2    0    0 -0.14161936962E+03 -0.48771860446E+02 -0.18195480524E+03  0.26677198386E+03  0.12500000000E+03 0.  0.
         25    1    1    2    0    0  0.14161936962E+03  0.48771860446E+02 -0.21426507884E+03  0.28977450583E+03  0.12500000000E+03 0.  0.
</event>
<event>
 4    0  0.2219362E-002  0.2738681E+03  0.7546771E-02  0.1099086E+00
         21   -1    0    0  502  501  0.00000000000E+00  0.00000000000E+00  0.38425340700E+02  0.38425340700E+02  0.00000000000E+00 0. -1.
         21   -1    0    0  501  502 -0.00000000000E+00 -0.00000000000E+00 -0.19519345572E+04  0.19519345572E+04  0.00000000000E+00 0. -1.
         25    1    1    2    0    0  0.21866911033E+03 -0.89303734424E+02 -0.11744006894E+04  0.12044223994E+04  0.12500000000E+03 0.  0.
         25    1    1    2    0    0 -0.21866911033E+03  0.89303734424E+02 -0.73910852712E+03  0.78593749857E+03  0.12500000000E+03 0.  0.
</event>
<event>
 4    0  0.2219362E-002  0.2684608E+03  0.7546771E-02  0.1102164E+00
         21   -1    0    0  502  501  0.00000000000E+00  0.00000000000E+00  0.41684039972E+02  0.41684039972E+02  0.00000000000E+00 0.  1.
         21   -1    0    0  501  502 -0.00000000000E+00 -0.00000000000E+00 -0.17289877142E+04  0.17289877142E+04  0.00000000000E+00 0.  1.
         25    1    1    2    0    0  0.13255412186E+03  0.11654559108E+03 -0.31917658317E+03  0.38555435579E+03  0.12500000000E+03 0.  0.
         25    1    1    2    0    0 -0.13255412186E+03 -0.11654559108E+03 -0.13681270911E+04  0.13851173984E+04  0.12500000000E+03 0.  0.
</event>
<event>
 4    0  0.2219362E-002  0.1910222E+03  0.7546771E-02  0.1157543E+00
         21   -1    0    0  502  501  0.00000000000E+00  0.00000000000E+00  0.68060514484E+02  0.68060514484E+02  0.00000000000E+00 0.  1.
         21   -1    0    0  501  502 -0.00000000000E+00 -0.00000000000E+00 -0.53613276214E+03  0.53613276214E+03  0.00000000000E+00 0.  1.
         25    1    1    2    0    0  0.71320192440E+02 -0.71851957901E+02 -0.71096708672E+02  0.17586647119E+03  0.12500000000E+03 0.  0.
         25    1    1    2    0    0 -0.71320192440E+02  0.71851957901E+02 -0.39697553899E+03  0.42832680544E+03  0.12500000000E+03 0.  0.
</event>
<event>
 4    0  0.2219362E-002  0.2549467E+03  0.7546771E-02  0.1110218E+00
         21   -1    0    0  502  501  0.00000000000E+00  0.00000000000E+00  0.80060900942E+02  0.80060900942E+02  0.00000000000E+00 0. -1.
         21   -1    0    0  501  502 -0.00000000000E+00 -0.00000000000E+00 -0.81185450104E+03  0.81185450104E+03  0.00000000000E+00 0.  1.
         25    1    1    2    0    0  0.13264401925E+03 -0.14525544986E+03 -0.54666170690E+03  0.59427064823E+03  0.12500000000E+03 0.  0.
         25    1    1    2    0    0 -0.13264401925E+03  0.14525544986E+03 -0.18513189320E+03  0.29764475375E+03  0.12500000000E+03 0.  0.
</event>
<event>
 4    0  0.2219362E-002  0.1478273E+03  0.7546771E-02  0.1203169E+00
         21   -1    0    0  502  501  0.00000000000E+00  0.00000000000E+00  0.60096345051E+02  0.60096345051E+02  0.00000000000E+00 0.  1.
         21   -1    0    0  501  502 -0.00000000000E+00 -0.00000000000E+00 -0.36363109620E+03  0.36363109620E+03  0.00000000000E+00 0.  1.
         25    1    1    2    0    0 -0.75584238308E+02 -0.98481142189E+01 -0.12246804670E+03  0.19087531243E+03  0.12500000000E+03 0.  0.
         25    1    1    2    0    0  0.75584238308E+02  0.98481142189E+01 -0.18106670445E+03  0.23285212882E+03  0.12500000000E+03 0.  0.
</event>
<event>
 4    0  0.2219362E-002  0.2408618E+03  0.7546771E-02  0.1119220E+00
         21   -1    0    0  502  501  0.00000000000E+00  0.00000000000E+00  0.31845878006E+03  0.31845878006E+03  0.00000000000E+00 0. -1.
         21   -1    0    0  501  502 -0.00000000000E+00 -0.00000000000E+00 -0.18217247943E+03  0.18217247943E+03  0.00000000000E+00 0. -1.
         25    1    1    2    0    0 -0.78077115048E+02 -0.13796595811E+03  0.20467219999E+03  0.28748278373E+03  0.12500000000E+03 0.  0.
         25    1    1    2    0    0  0.78077115048E+02  0.13796595811E+03 -0.68385899362E+02  0.21314847577E+03  0.12500000000E+03 0.  0.
</event>
<event>
 4    0  0.2219362E-002  0.1794448E+03  0.7546771E-02  0.1168341E+00
         21   -1    0    0  502  501  0.00000000000E+00  0.00000000000E+00  0.83589535497E+03  0.83589535497E+03  0.00000000000E+00 0.  1.
         21   -1    0    0  501  502 -0.00000000000E+00 -0.00000000000E+00 -0.38522073449E+02  0.38522073449E+02  0.00000000000E+00 0.  1.
         25    1    1    2    0    0 -0.11654088117E+03 -0.28970291200E+02  0.28559827687E+03  0.33408446612E+03  0.12500000000E+03 0.  0.
         25    1    1    2    0    0  0.11654088117E+03  0.28970291200E+02  0.51177500465E+03  0.54033296229E+03  0.12500000000E+03 0.  0.
</event>
<event>
 4    0  0.2219362E-002  0.2174276E+03  0.7546771E-02  0.1135816E+00
         21   -1    0    0  502  501  0.00000000000E+00  0.00000000000E+00  0.95382259269E+02  0.95382259269E+02  0.00000000000E+00 0.  1.
         21   -1    0    0  501  502 -0.00000000000E+00 -0.00000000000E+00 -0.49563455238E+03  0.49563455238E+03  0.00000000000E+00 0.  1.
         25    1    1    2    0    0 -0.56534522782E+01 -0.23532679181E+02 -0.43966937689E+03  0.45773344807E+03  0.12500000000E+03 0.  0.
         25    1    1    2    0    0  0.56534522782E+01  0.23532679181E+02  0.39417083779E+02  0.13328336357E+03  0.12500000000E+03 0.  0.
</event>
<event>
 4    0  0.2219362E-002  0.1767518E+03  0.7546771E-02  0.1170984E+00
         21   -1    0    0  502  501  0.00000000000E+00  0.00000000000E+00  0.79943921050E+02  0.79943921050E+02  0.00000000000E+00 0.  1.
         21   -1    0    0  501  502 -0.00000000000E+00 -0.00000000000E+00 -0.39078874780E+03  0.39078874780E+03  0.00000000000E+00 0.  1.
         25    1    1    2    0    0 -0.76370716695E+00  0.71499532087E+02 -0.29189515933E+03  0.32548510009E+03  0.12500000000E+03 0.  0.
         25    1    1    2    0    0  0.76370716695E+00 -0.71499532087E+02 -0.18949667421E+02  0.14524756877E+03  0.12500000000E+03 0.  0.
</event>
<event>
 4    0  0.2219362E-002  0.1900411E+03  0.7546771E-02  0.1158424E+00
         21   -1    0    0  502  501  0.00000000000E+00  0.00000000000E+00  0.10298764224E+03  0.10298764224E+03  0.00000000000E+00 0.  1.
         21   -1    0    0  501  502 -0.00000000000E+00 -0.00000000000E+00 -0.35067911394E+03  0.35067911394E+03  0.00000000000E+00 0.  1.
         25    1    1    2    0    0  0.40841465817E+02 -0.13499764504E+03 -0.94651846298E+02  0.21089419505E+03  0.12500000000E+03 0.  0.
         25    1    1    2    0    0 -0.40841465817E+02  0.13499764504E+03 -0.15303962540E+03  0.24277256113E+03  0.12500000000E+03 0.  0.
</event>
<event>
 4    0  0.2219362E-002  0.2471560E+03  0.7546771E-02  0.1115115E+00
         21   -1    0    0  502  501  0.00000000000E+00  0.00000000000E+00  0.38476122986E+03  0.38476122986E+03  0.00000000000E+00 0.  1.
         21   -1    0    0  501  502 -0.00000000000E+00 -0.00000000000E+00 -0.15876356471E+03  0.15876356471E+03  0.00000000000E+00 0.  1.
         25    1    1    2    0    0  0.10294241877E+03  0.38376298302E+02 -0.87926266906E+02  0.18821772038E+03  0.12500000000E+03 0.  0.
         25    1    1    2    0    0 -0.10294241877E+03 -0.38376298302E+02  0.31392393206E+03  0.35530707419E+03  0.12500000000E+03 0.  0.
</event>
<event>
 4    0  0.2219362E-002  0.2373612E+03  0.7546771E-02  0.1121563E+00
         21   -1    0    0  502  501  0.00000000000E+00  0.00000000000E+00  0.14022594823E+03  0.14022594823E+03  0.00000000000E+00 0.  1.
         21   -1    0    0  501  502 -0.00000000000E+00 -0.00000000000E+00 -0.40178266222E+03  0.40178266222E+03  0.00000000000E+00 0.  1.
         25    1    1    2    0    0  0.75684483211E+02  0.85561188438E+02 -0.32068645634E+03  0.36264812318E+03  0.12500000000E+03 0.  0.
         25    1    1    2    0    0 -0.75684483211E+02 -0.85561188438E+02  0.59129742348E+02  0.17936048728E+03  0.12500000000E+03 0.  0.
</event>
<event>
 4    0  0.2219362E-002  0.1562346E+03  0.7546771E-02  0.1193015E+00
         21   -1    0    0  502  501  0.00000000000E+00  0.00000000000E+00  0.25692276272E+03  0.25692276272E+03  0.00000000000E+00 0. -1.
         21   -1    0    0  501  502 -0.00000000000E+00 -0.00000000000E+00 -0.95006200226E+02  0.95006200226E+02  0.00000000000E+00 0. -1.
         25    1    1    2    0    0 -0.62470606234E+02 -0.67656915513E+02  0.10060282926E+03  0.18500260570E+03  0.12500000000E+03 0.  0.
         25    1    1    2    0    0  0.62470606234E+02  0.67656915513E+02  0.61313733226E+02  0.16692635724E+03  0.12500000000E+03 0.  0.
</event>
<event>
 4    0  0.2219362E-002  0.1931974E+03  0.7546771E-02  0.1155609E+00
         21   -1    0    0  502  501  0.00000000000E+00  0.00000000000E+00  0.41521085043E+03  0.41521085043E+03  0.00000000000E+00 0. -1.
         21   -1    0    0  501  502 -0.00000000000E+00 -0.00000000000E+00 -0.89894623895E+02  0.89894623895E+02  0.00000000000E+00 0. -1.
         25    1    1    2    0    0  0.66090050946E+00 -0.79767017721E+02  0.76766943047E+00  0.14828622061E+03  0.12500000000E+03 0.  0.
         25    1    1    2    0    0 -0.66090050946E+00  0.79767017721E+02  0.32454855710E+03  0.35681925372E+03  0.12500000000E+03 0.  0.
</event>
<event>
 4    0  0.2219362E-002  0.2285072E+03  0.7546771E-02  0.1127695E+00
         21   -1    0    0  502  501  0.00000000000E+00  0.00000000000E+00  0.50718230684E+02  0.50718230684E+02  0.00000000000E+00 0. -1.
         21   -1    0    0  501  502 -0.00000000000E+00 -0.00000000000E+00 -0.10295220665E+04  0.10295220665E+04  0.00000000000E+00 0. -1.
         25    1    1    2    0    0  0.73685895048E+02 -0.16764212120E+03 -0.62009165043E+03  0.65853788567E+03  0.12500000000E+03 0.  0.
         25    1    1    2    0    0 -0.73685895048E+02  0.16764212120E+03 -0.35871218537E+03  0.42170241149E+03  0.12500000000E+03 0.  0.
</event>
<event>
 4    0  0.2219362E-002  0.1624715E+03  0.7546771E-02  0.1185934E+00
         21   -1    0    0  502  501  0.00000000000E+00  0.00000000000E+00  0.13587677103E+03  0.13587677103E+03  0.00000000000E+00 0.  1.
         21   -1    0    0  501  502 -0.00000000000E+00 -0.00000000000E+00 -0.19427144060E+03  0.19427144060E+03  0.00000000000E+00 0.  1.
         25    1    1    2    0    0  0.97059048401E+02  0.23768923468E+02 -0.57692195433E+02  0.17011410880E+03  0.12500000000E+03 0.  0.
         25    1    1    2    0    0 -0.97059048401E+02 -0.23768923468E+02 -0.70247413877E+00  0.16003410283E+03  0.12500000000E+03 0.  0.
</event>
<event>
 4    0  0.2219362E-002  0.2382680E+03  0.7546771E-02  0.1120952E+00
         21   -1    0    0  502  501  0.00000000000E+00  0.00000000000E+00  0.10535825374E+04  0.10535825374E+04  0.00000000000E+00 0.  1.
         21   -1    0    0  501  502 -0.00000000000E+00 -0.00000000000E+00 -0.53884364626E+02  0.53884364626E+02  0.00000000000E+00 0.  1.
         25    1    1    2    0    0  0.19496884277E+03  0.55975719460E+02  0.50148381015E+03  0.55520909814E+03  0.12500000000E+03 0.  0.
         25    1    1    2    0    0 -0.19496884277E+03 -0.55975719460E+02  0.49821436260E+03  0.55225780385E+03  0.12500000000E+03 0.  0.
</event>
<event>
 4    0  0.2219362E-002  0.4935103E+03  0.7546771E-02  0.1015487E+00
         21   -1    0    0  502  501  0.00000000000E+00  0.00000000000E+00  0.16255806198E+03  0.16255806198E+03  0.00000000000E+00 0.  1.
         21   -1    0    0  501  502 -0.00000000000E+00 -0.00000000000E+00 -0.14982487530E+04  0.14982487530E+04  0.00000000000E+00 0. -1.
         25    1    1    2    0    0  0.34501099429E+03  0.32830610588E+03 -0.72390370303E+03  0.87548789632E+03  0.12500000000E+03 0.  0.
         25    1    1    2    0    0 -0.34501099429E+03 -0.32830610588E+03 -0.61178698803E+03  0.78531891870E+03  0.12500000000E+03 0.  0.
</event>
<event>
 4    0  0.2219362E-002  0.3139151E+03  0.7546771E-02  0.1078484E+00
         21   -1    0    0  502  501  0.00000000000E+00  0.00000000000E+00  0.13867757433E+03  0.13867757433E+03  0.00000000000E+00 0. -1.
         21   -1    0    0  501  502 -0.00000000000E+00 -0.00000000000E+00 -0.71058835315E+03  0.71058835315E+03  0.00000000000E+00 0. -1.
         25    1    1    2    0    0  0.10746099189E+03 -0.25446616521E+03 -0.17592193882E+03  0.35053448129E+03  0.12500000000E+03 0.  0.
         25    1    1    2    0    0 -0.10746099189E+03  0.25446616521E+03 -0.39598884000E+03  0.49873144619E+03  0.12500000000E+03 0.  0.
</event>
<event>
 4    0  0.2219362E-002  0.1902824E+03  0.7546771E-02  0.1158207E+00
         21   -1    0    0  502  501  0.00000000000E+00  0.00000000000E+00  0.67750741840E+02  0.67750741840E+02  0.00000000000E+00 0. -1.
         21   -1    0    0  501  502 -0.00000000000E+00 -0.00000000000E+00 -0.53442051514E+03  0.53442051514E+03  0.00000000000E+00 0. -1.
         25    1    1    2    0    0 -0.87719736634E+02  0.79975698697E+02 -0.10584824016E+03  0.20228621931E+03  0.12500000000E+03 0.  0.
         25    1    1    2    0    0  0.87719736634E+02 -0.79975698697E+02 -0.36082153314E+03  0.39988503767E+03  0.12500000000E+03 0.  0.
</event>
<event>
 4    0  0.2219362E-002  0.4554286E+03  0.7546771E-02  0.1026115E+00
         21   -1    0    0  502  501  0.00000000000E+00  0.00000000000E+00  0.24240906740E+03  0.24240906740E+03  0.00000000000E+00 0. -1.
         21   -1    0    0  501  502 -0.00000000000E+00 -0.00000000000E+00 -0.85564128138E+03  0.85564128138E+03  0.00000000000E+00 0. -1.
         25    1    1    2    0    0  0.28941303317E+03 -0.16856892034E+03  0.33532677424E+02  0.35906103260E+03  0.12500000000E+03 0.  0.
         25    1    1    2    0    0 -0.28941303317E+03  0.16856892034E+03 -0.64676489140E+03  0.73898931618E+03  0.12500000000E+03 0.  0.
</event>
<event>
 4    0  0.2219362E-002  0.2247857E+03  0.7546771E-02  0.1130365E+00
         21   -1    0    0  502  501  0.00000000000E+00  0.00000000000E+00  0.70813199553E+03  0.70813199553E+03  0.00000000000E+00 0.  1.
         21   -1    0    0  501  502 -0.00000000000E+00 -0.00000000000E+00 -0.71354764104E+02  0.71354764104E+02  0.00000000000E+00 0.  1.
         25    1    1    2    0    0  0.76826689888E+02 -0.15196848035E+03  0.45164482892E+03  0.49860285879E+03  0.12500000000E+03 0.  0.
         25    1    1    2    0    0 -0.76826689888E+02  0.15196848035E+03  0.18513240251E+03  0.28088390085E+03  0.12500000000E+03 0.  0.
</event>
<event>
 4    0  0.2219362E-002  0.2731261E+03  0.7546771E-02  0.1099504E+00
         21   -1    0    0  502  501  0.00000000000E+00  0.00000000000E+00  0.17374901584E+03  0.17374901584E+03  0.00000000000E+00 0. -1.
         21   -1    0    0  501  502 -0.00000000000E+00 -0.00000000000E+00 -0.42934257498E+03  0.42934257498E+03  0.00000000000E+00 0. -1.
         25    1    1    2    0    0 -0.14526995768E+03 -0.79207675655E+01 -0.34246848133E+03  0.39252485255E+03  0.12500000000E+03 0.  0.
         25    1    1    2    0    0  0.14526995768E+03  0.79207675655E+01  0.86874922195E+02  0.21056673828E+03  0.12500000000E+03 0.  0.
</event>
<event>
 4    0  0.2219362E-002  0.2243279E+03  0.7546771E-02  0.1130697E+00
         21   -1    0    0  502  501  0.00000000000E+00  0.00000000000E+00  0.38768902434E+02  0.38768902434E+02  0.00000000000E+00 0.  1.
         21   -1    0    0  501  502 -0.00000000000E+00 -0.00000000000E+00 -0.12980252653E+04  0.12980252653E+04  0.00000000000E+00 0.  1.
         25    1    1    2    0    0 -0.82038637699E+02 -0.16576792549E+03 -0.69549395576E+03  0.73044245885E+03  0.12500000000E+03 0.  0.
         25    1    1    2    0    0  0.82038637699E+02  0.16576792549E+03 -0.56376240708E+03  0.60635170886E+03  0.12500000000E+03 0.  0.
</event>
<event>
 4    0  0.2219362E-002  0.1688219E+03  0.7546771E-02  0.1179082E+00
         21   -1    0    0  502  501  0.00000000000E+00  0.00000000000E+00  0.89605298809E+02  0.89605298809E+02  0.00000000000E+00 0. -1.
         21   -1    0    0  501  502 -0.00000000000E+00 -0.00000000000E+00 -0.31807100256E+03  0.31807100256E+03  0.00000000000E+00 0. -1.
         25    1    1    2    0    0 -0.10928830310E+03  0.30493478175E+02 -0.11249911976E+03  0.20286655060E+03  0.12500000000E+03 0.  0.
         25    1    1    2    0    0  0.10928830310E+03 -0.30493478175E+02 -0.11596658399E+03  0.20480975076E+03  0.12500000000E+03 0.  0.
</event>
<event>
 4    0  0.2219362E-002  0.2806286E+03  0.7546771E-02  0.1095346E+00
         21   -1    0    0  502  501  0.00000000000E+00  0.00000000000E+00  0.67628785123E+03  0.67628785123E+03  0.00000000000E+00 0. -1.
         21   -1    0    0  501  502 -0.00000000000E+00 -0.00000000000E+00 -0.11644802489E+03  0.11644802489E+03  0.00000000000E+00 0. -1.
         25    1    1    2    0    0 -0.88119546954E+02  0.21413060923E+02 -0.51034293594E+02  0.16264400652E+03  0.12500000000E+03 0.  0.
         25    1    1    2    0    0  0.88119546954E+02 -0.21413060923E+02  0.61087411993E+03  0.63009186960E+03  0.12500000000E+03 0.  0.
</event>
<event>
 4    0  0.2219362E-002  0.2056659E+03  0.7546771E-02  0.1145045E+00
         21   -1    0    0  502  501  0.00000000000E+00  0.00000000000E+00  0.68168172447E+02  0.68168172447E+02  0.00000000000E+00 0. -1.
         21   -1    0    0  501  502 -0.00000000000E+00 -0.00000000000E+00 -0.62050185632E+03  0.62050185632E+03  0.00000000000E+00 0. -1.
         25    1    1    2    0    0  0.14090173732E+03 -0.75557159073E+02 -0.22035411512E+03  0.29957156059E+03  0.12500000000E+03 0.  0.
         25    1    1    2    0    0 -0.14090173732E+03  0.75557159073E+02 -0.33197956875E+03  0.38909846818E+03  0.12500000000E+03 0.  0.
</event>
<event>
 4    0  0.2219362E-002  0.2952724E+03  0.7546771E-02  0.1087628E+00
         21   -1    0    0  502  501  0.00000000000E+00  0.00000000000E+00  0.15869503739E+03  0.15869503739E+03  0.00000000000E+00 0. -1.
         21   -1    0    0  501  502 -0.00000000000E+00 -0.00000000000E+00 -0.54939199534E+03  0.54939199534E+03  0.00000000000E+00 0. -1.
         25    1    1    2    0    0 -0.43458519542E+02 -0.24029463427E+03 -0.64380393059E+02  0.28178003689E+03  0.12500000000E+03 0.  0.
         25    1    1    2    0    0  0.43458519542E+02  0.24029463427E+03 -0.32631656489E+03  0.42630699584E+03  0.12500000000E+03 0.  0.
</event>
<event>
 4    0  0.2219362E-002  0.2000064E+03  0.7546771E-02  0.1149734E+00
         21   -1    0    0  502  501  0.00000000000E+00  0.00000000000E+00  0.61475880973E+03  0.61475880973E+03  0.00000000000E+00 0. -1.
         21   -1    0    0  501  502 -0.00000000000E+00 -0.00000000000E+00 -0.65070317328E+02  0.65070317328E+02  0.00000000000E+00 0. -1.
         25    1    1    2    0    0  0.36987907607E+02 -0.15550363797E+02  0.53128370881E+03  0.54726346340E+03  0.12500000000E+03 0.  0.
         25    1    1    2    0    0 -0.36987907607E+02  0.15550363797E+02  0.18404783596E+02  0.13256566366E+03  0.12500000000E+03 0.  0.
</event>
<event>
 4    0  0.2219362E-002  0.1813295E+03  0.7546771E-02  0.1166523E+00
         21   -1    0    0  502  501  0.00000000000E+00  0.00000000000E+00  0.59537767813E+03  0.59537767813E+03  0.00000000000E+00 0. -1.
         21   -1    0    0  501  502 -0.00000000000E+00 -0.00000000000E+00 -0.55226071390E+02  0.55226071390E+02  0.00000000000E+00 0. -1.
         25    1    1    2    0    0  0.79410518934E+02  0.23661711825E+01  0.45774851014E+03  0.48111363296E+03  0.12500000000E+03 0.  0.
         25    1    1    2    0    0 -0.79410518934E+02 -0.23661711825E+01  0.82403096605E+02  0.16949011657E+03  0.12500000000E+03 0.  0.
</event>
<event>
 4    0  0.2219362E-002  0.4352422E+03  0.7546771E-02  0.1032217E+00
         21   -1    0    0  502  501  0.00000000000E+00  0.00000000000E+00  0.30256497309E+03  0.30256497309E+03  0.00000000000E+00 0. -1.
         21   -1    0    0  501  502 -0.00000000000E+00 -0.00000000000E+00 -0.62609942768E+03  0.62609942768E+03  0.00000000000E+00 0. -1.
         25    1    1    2    0    0  0.10965569162E+03  0.72741582227E+02 -0.58380189146E+03  0.61136352276E+03  0.12500000000E+03 0.  0.
         25    1    1    2    0    0 -0.10965569162E+03 -0.72741582227E+02  0.26026743687E+03  0.31730087801E+03  0.12500000000E+03 0.  0.
</event>
<event>
 4    0  0.2219362E-002  0.3030214E+03  0.7546771E-02  0.1083740E+00
         21   -1    0    0  502  501  0.00000000000E+00  0.00000000000E+00  0.48860481315E+02  0.48860481315E+02  0.00000000000E+00 0. -1.
         21   -1    0    0  501  502 -0.00000000000E+00 -0.00000000000E+00 -0.18792681656E+04  0.18792681656E+04  0.00000000000E+00 0. -1.
         25    1    1    2    0    0 -0.10711086968E+03  0.69919692210E+02 -0.13696657041E+03  0.22526949010E+03  0.12500000000E+03 0.  0.
         25    1    1    2    0    0  0.10711086968E+03 -0.69919692210E+02 -0.16934411138E+04  0.17028591568E+04  0.12500000000E+03 0.  0.
</event>
<event>
 4    0  0.2219362E-002  0.1413954E+03  0.7546771E-02  0.1211464E+00
         21   -1    0    0  502  501  0.00000000000E+00  0.00000000000E+00  0.11173762829E+02  0.11173762829E+02  0.00000000000E+00 0.  1.
         21   -1    0    0  501  502 -0.00000000000E+00 -0.00000000000E+00 -0.17892497130E+04  0.17892497130E+04  0.00000000000E+00 0.  1.
         25    1    1    2    0    0  0.81765445723E+01 -0.55495601983E+02 -0.66656698605E+03  0.68050214151E+03  0.12500000000E+03 0.  0.
         25    1    1    2    0    0 -0.81765445723E+01  0.55495601983E+02 -0.11115089641E+04  0.11199213343E+04  0.12500000000E+03 0.  0.
</event>
<event>
 4    0  0.2219362E-002  0.2353641E+03  0.7546771E-02  0.1122920E+00
         21   -1    0    0  502  501  0.00000000000E+00  0.00000000000E+00  0.36514252355E+02  0.36514252355E+02  0.00000000000E+00 0.  1.
         21   -1    0    0  501  502 -0.00000000000E+00 -0.00000000000E+00 -0.15171138473E+04  0.15171138473E+04  0.00000000000E+00 0.  1.
         25    1    1    2    0    0  0.17345059670E+03 -0.80302432678E+02 -0.92809922140E+03  0.95578593574E+03  0.12500000000E+03 0.  0.
         25    1    1    2    0    0 -0.17345059670E+03  0.80302432678E+02 -0.55250037356E+03  0.59784216393E+03  0.12500000000E+03 0.  0.
</event>
<event>
 4    0  0.2219362E-002  0.2689235E+03  0.7546771E-02  0.1101897E+00
         21   -1    0    0  502  501  0.00000000000E+00  0.00000000000E+00  0.30304543561E+03  0.30304543561E+03  0.00000000000E+00 0.  1.
         21   -1    0    0  501  502 -0.00000000000E+00 -0.00000000000E+00 -0.23864360905E+03  0.23864360905E+03  0.00000000000E+00 0.  1.
         25    1    1    2    0    0 -0.10419260988E+03  0.84526592795E+02  0.23031399688E+03  0.29439833900E+03  0.12500000000E+03 0.  0.
         25    1    1    2    0    0  0.10419260988E+03 -0.84526592795E+02 -0.16591217033E+03  0.24729070566E+03  0.12500000000E+03 0.  0.
</event>
<event>
 4    0  0.2219362E-002  0.3030900E+03  0.7546771E-02  0.1083706E+00
         21   -1    0    0  502  501  0.00000000000E+00  0.00000000000E+00  0.25385013293E+03  0.25385013293E+03  0.00000000000E+00 0. -1.
         21   -1    0    0  501  502 -0.00000000000E+00 -0.00000000000E+00 -0.36188112433E+03  0.36188112433E+03  0.00000000000E+00 0. -1.
         25    1    1    2    0    0 -0.78497970800E+02 -0.22239435828E+03  0.91834486342E+02  0.28227602607E+03  0.12500000000E+03 0.  0.
         25    1    1    2    0    0  0.78497970800E+02  0.22239435828E+03 -0.19986547774E+03  0.33345523119E+03  0.12500000000E+03 0.  0.
</event>
<event>
 4    0  0.2219362E-002  0.2195068E+03  0.7546771E-02  0.1134251E+00
         21   -1    0    0  502  501  0.00000000000E+00  0.00000000000E+00  0.89801938143E+03  0.89801938143E+03  0.00000000000E+00 0. -1.
         21   -1    0    0  501  502 -0.00000000000E+00 -0.00000000000E+00 -0.53654992149E+02  0.53654992149E+02  0.00000000000E+00 0. -1.
         25    1    1    2    0    0  0.17047259185E+03 -0.18575750568E+02  0.54389084786E+03  0.58382207690E+03  0.12500000000E+03 0.  0.
         25    1    1    2    0    0 -0.17047259185E+03  0.18575750568E+02  0.30047354142E+03  0.36785229668E+03  0.12500000000E+03 0.  0.
</event>
<event>
 4    0  0.2219362E-002  0.3585184E+03  0.7546771E-02  0.1059172E+00
         21   -1    0    0  502  501  0.00000000000E+00  0.00000000000E+00  0.45574492855E+03  0.45574492855E+03  0.00000000000E+00 0.  1.
         21   -1    0    0  501  502 -0.00000000000E+00 -0.00000000000E+00 -0.28203376670E+03  0.28203376670E+03  0.00000000000E+00 0.  1.
         25    1    1    2    0    0 -0.28237143031E+03 -0.11842480053E+03  0.22925107578E+03  0.40241659233E+03  0.12500000000E+03 0.  0.
         25    1    1    2    0    0  0.28237143031E+03  0.11842480053E+03 -0.55539913941E+02  0.33536210292E+03  0.12500000000E+03 0.  0.
</event>
<event>
 4    0  0.2219362E-002  0.1673779E+03  0.7546771E-02  0.1180610E+00
         21   -1    0    0  502  501  0.00000000000E+00  0.00000000000E+00  0.13994308819E+02  0.13994308819E+02  0.00000000000E+00 0. -1.
         21   -1    0    0  501  502 -0.00000000000E+00 -0.00000000000E+00 -0.20019101748E+04  0.20019101748E+04  0.00000000000E+00 0. -1.
         25    1    1    2    0    0 -0.92124704680E+02 -0.42926633071E+02 -0.72058941657E+03  0.73837914672E+03  0.12500000000E+03 0.  0.
         25    1    1    2    0    0  0.92124704680E+02  0.42926633071E+02 -0.12673264494E+04  0.12775253369E+04  0.12500000000E+03 0.  0.
</event>
<event>
 4    0  0.2219362E-002  0.2491713E+03  0.7546771E-02  0.1113830E+00
         21   -1    0    0  502  501  0.00000000000E+00  0.00000000000E+00  0.21269633932E+04  0.21269633932E+04  0.00000000000E+00 0.  1.
         21   -1    0    0  501  502 -0.00000000000E+00 -0.00000000000E+00 -0.29190130173E+02  0.29190130173E+02  0.00000000000E+00 0.  1.
         25    1    1    2    0    0 -0.74359156196E+02 -0.62967768977E+02  0.18807642431E+04  0.18874303596E+04  0.12500000000E+03 0.  0.
         25    1    1    2    0    0  0.74359156196E+02  0.62967768977E+02  0.21700901990E+03  0.26872316379E+03  0.12500000000E+03 0.  0.
</event>
<event>
 4    0  0.2219362E-002  0.1953264E+03  0.7546771E-02  0.1153743E+00
         21   -1    0    0  502  501  0.00000000000E+00  0.00000000000E+00  0.55361280825E+03  0.55361280825E+03  0.00000000000E+00 0. -1.
         21   -1    0    0  501  502 -0.00000000000E+00 -0.00000000000E+00 -0.68915301934E+02  0.68915301934E+02  0.00000000000E+00 0. -1.
         25    1    1    2    0    0 -0.27286678090E+02  0.11947546601E+03  0.38043265467E+03  0.41877554193E+03  0.12500000000E+03 0.  0.
         25    1    1    2    0    0  0.27286678090E+02 -0.11947546601E+03  0.10426485164E+03  0.20375256825E+03  0.12500000000E+03 0.  0.
</event>
<event>
 4    0  0.2219362E-002  0.2296740E+03  0.7546771E-02  0.1126869E+00
         21   -1    0    0  502  501  0.00000000000E+00  0.00000000000E+00  0.66357836297E+02  0.66357836297E+02  0.00000000000E+00 0.  1.
         21   -1    0    0  501  502 -0.00000000000E+00 -0.00000000000E+00 -0.79493496558E+03  0.79493496558E+03  0.00000000000E+00 0.  1.
         25    1    1    2    0    0 -0.66832667661E+02 -0.60405710558E+02 -0.68364862350E+03  0.70079661511E+03  0.12500000000E+03 0.  0.
         25    1    1    2    0    0  0.66832667661E+02  0.60405710558E+02 -0.44928505781E+02  0.16049618677E+03  0.12500000000E+03 0.  0.
</event>
<event>
 4    0  0.2219362E-002  0.1531110E+03  0.7546771E-02  0.1196702E+00
         21   -1    0    0  502  501  0.00000000000E+00  0.00000000000E+00  0.20535047696E+03  0.20535047696E+03  0.00000000000E+00 0. -1.
         21   -1    0    0  501  502 -0.00000000000E+00 -0.00000000000E+00 -0.11416074963E+03  0.11416074963E+03  0.00000000000E+00 0. -1.
         25    1    1    2    0    0  0.44184565580E+02  0.75811590249E+02  0.34246680696E+02  0.15651679843E+03  0.12500000000E+03 0.  0.
         25    1    1    2    0    0 -0.44184565580E+02 -0.75811590249E+02  0.56943046634E+02  0.16299442816E+03  0.12500000000E+03 0.  0.
</event>
<event>
 4    0  0.2219362E-002  0.2044721E+03  0.7546771E-02  0.1146020E+00
         21   -1    0    0  502  501  0.00000000000E+00  0.00000000000E+00  0.87252160676E+02  0.87252160676E+02  0.00000000000E+00 0. -1.
         21   -1    0    0  501  502 -0.00000000000E+00 -0.00000000000E+00 -0.47917263957E+03  0.47917263957E+03  0.00000000000E+00 0. -1.
         25    1    1    2    0    0  0.71641589631E+02 -0.14404080167E+03 -0.17182711939E+03  0.26651421889E+03  0.12500000000E+03 0.  0.
         25    1    1    2    0    0 -0.71641589631E+02  0.14404080167E+03 -0.22009335951E+03  0.29991058136E+03  0.12500000000E+03 0.  0.
</event>
<event>
 4    0  0.2219362E-002  0.2350627E+03  0.7546771E-02  0.1123126E+00
         21   -1    0    0  502  501  0.00000000000E+00  0.00000000000E+00  0.90277457130E+02  0.90277457130E+02  0.00000000000E+00 0. -1.
         21   -1    0    0  501  502 -0.00000000000E+00 -0.00000000000E+00 -0.61205165734E+03  0.61205165734E+03  0.00000000000E+00 0. -1.
         25    1    1    2    0    0  0.81223500683E+02  0.37801579666E+01 -0.53234459557E+03  0.55283570352E+03  0.12500000000E+03 0.  0.
         25    1    1    2    0    0 -0.81223500683E+02 -0.37801579666E+01  0.10570395363E+02  0.14949341094E+03  0.12500000000E+03 0.  0.
</event>
<event>
 4    0  0.2219362E-002  0.2059335E+03  0.7546771E-02  0.1144827E+00
         21   -1    0    0  502  501  0.00000000000E+00  0.00000000000E+00  0.50860471858E+02  0.50860471858E+02  0.00000000000E+00 0. -1.
         21   -1    0    0  501  502 -0.00000000000E+00 -0.00000000000E+00 -0.83382289673E+03  0.83382289673E+03  0.00000000000E+00 0. -1.
         25    1    1    2    0    0  0.12722156307E+03  0.54676577240E+02 -0.20411639470E+03  0.27652008389E+03  0.12500000000E+03 0.  0.
         25    1    1    2    0    0 -0.12722156307E+03 -0.54676577240E+02 -0.57884603018E+03  0.60816328471E+03  0.12500000000E+03 0.  0.
</event>
<event>
 4    0  0.2219362E-002  0.1745567E+03  0.7546771E-02  0.1173178E+00
         21   -1    0    0  502  501  0.00000000000E+00  0.00000000000E+00  0.12746077177E+03  0.12746077177E+03  0.00000000000E+00 0. -1.
         21   -1    0    0  501  502 -0.00000000000E+00 -0.00000000000E+00 -0.23905425746E+03  0.23905425746E+03  0.00000000000E+00 0. -1.
         25    1    1    2    0    0  0.94955167897E+02  0.37078748594E+02 -0.12585944174E+03  0.20458962970E+03  0.12500000000E+03 0.  0.
         25    1    1    2    0    0 -0.94955167897E+02 -0.37078748594E+02  0.14265956050E+02  0.16192539952E+03  0.12500000000E+03 0.  0.
</event>
<event>
 4    0  0.2219362E-002  0.1693385E+03  0.7546771E-02  0.1178539E+00
         21   -1    0    0  502  501  0.00000000000E+00  0.00000000000E+00  0.40440860928E+03  0.40440860928E+03  0.00000000000E+00 0.  1.
         21   -1    0    0  501  502 -0.00000000000E+00 -0.00000000000E+00 -0.70907347648E+02  0.70907347648E+02  0.00000000000E+00 0.  1.
         25    1    1    2    0    0 -0.10074586804E+03  0.52475297670E+02  0.14972574615E+03  0.22571261784E+03  0.12500000000E+03 0.  0.
         25    1    1    2    0    0  0.10074586804E+03 -0.52475297670E+02  0.18377551549E+03  0.24960333909E+03  0.12500000000E+03 0.  0.
</event>
<event>
 4    0  0.2219362E-002  0.1649866E+03  0.7546771E-02  0.1183179E+00
         21   -1    0    0  502  501  0.00000000000E+00  0.00000000000E+00  0.29194534557E+03  0.29194534557E+03  0.00000000000E+00 0.  1.
         21   -1    0    0  501  502 -0.00000000000E+00 -0.00000000000E+00 -0.93238659321E+02  0.93238659321E+02  0.00000000000E+00 0.  1.
         25    1    1    2    0    0  0.76655602183E+02  0.62552570915E+02  0.49736293355E+02  0.16699582136E+03  0.12500000000E+03 0.  0.
         25    1    1    2    0    0 -0.76655602183E+02 -0.62552570915E+02  0.14897039289E+03  0.21818818353E+03  0.12500000000E+03 0.  0.
</event>
<event>
 4    0  0.2219362E-002  0.2948351E+03  0.7546771E-02  0.1087851E+00
         21   -1    0    0  502  501  0.00000000000E+00  0.00000000000E+00  0.11660922270E+04  0.11660922270E+04  0.00000000000E+00 0.  1.
         21   -1    0    0  501  502 -0.00000000000E+00 -0.00000000000E+00 -0.74546179783E+02  0.74546179783E+02  0.00000000000E+00 0.  1.
         25    1    1    2    0    0 -0.60999913321E+02 -0.23348832051E+03  0.30528706973E+03  0.40873338521E+03  0.12500000000E+03 0.  0.
         25    1    1    2    0    0  0.60999913321E+02  0.23348832051E+03  0.78625897748E+03  0.83190502157E+03  0.12500000000E+03 0.  0.
</event>
<event>
 4    0  0.2219362E-002  0.2021113E+03  0.7546771E-02  0.1147970E+00
         21   -1    0    0  502  501  0.00000000000E+00  0.00000000000E+00  0.37774983905E+03  0.37774983905E+03  0.00000000000E+00 0. -1.
         21   -1    0    0  501  502 -0.00000000000E+00 -0.00000000000E+00 -0.10813768773E+03  0.10813768773E+03  0.00000000000E+00 0. -1.
         25    1    1    2    0    0 -0.11608960905E+03 -0.43551993484E+01  0.26498218602E+03  0.31517665522E+03  0.12500000000E+03 0.  0.
         25    1    1    2    0    0  0.11608960905E+03  0.43551993484E+01  0.46299652949E+01  0.17071087156E+03  0.12500000000E+03 0.  0.
</event>
<event>
 4    0  0.2219362E-002  0.2211848E+03  0.7546771E-02  0.1133003E+00
         21   -1    0    0  502  501  0.00000000000E+00  0.00000000000E+00  0.79570066544E+03  0.79570066544E+03  0.00000000000E+00 0.  1.
         21   -1    0    0  501  502 -0.00000000000E+00 -0.00000000000E+00 -0.61483800901E+02  0.61483800901E+02  0.00000000000E+00 0.  1.
         25    1    1    2    0    0  0.14058242844E+03 -0.59549211864E+02  0.17345191356E+03  0.26271675648E+03  0.12500000000E+03 0.  0.
         25    1    1    2    0    0 -0.14058242844E+03  0.59549211864E+02  0.56076495099E+03  0.59446770987E+03  0.12500000000E+03 0.  0.
</event>
<event>
 4    0  0.2219362E-002  0.1916794E+03  0.7546771E-02  0.1156955E+00
         21   -1    0    0  502  501  0.00000000000E+00  0.00000000000E+00  0.71302769096E+03  0.71302769096E+03  0.00000000000E+00 0.  1.
         21   -1    0    0  501  502 -0.00000000000E+00 -0.00000000000E+00 -0.51528168269E+02  0.51528168269E+02  0.00000000000E+00 0.  1.
         25    1    1    2    0    0 -0.12586327340E+03 -0.63375141277E+02  0.40148741962E+03  0.44348068756E+03  0.12500000000E+03 0.  0.
         25    1    1    2    0    0  0.12586327340E+03  0.63375141277E+02  0.26001210307E+03  0.32107517167E+03  0.12500000000E+03 0.  0.
</event>
<event>
 4    0  0.2219362E-002  0.2164861E+03  0.7546771E-02  0.1136530E+00
         21   -1    0    0  502  501  0.00000000000E+00  0.00000000000E+00  0.29010173084E+03  0.29010173084E+03  0.00000000000E+00 0.  1.
         21   -1    0    0  501  502 -0.00000000000E+00 -0.00000000000E+00 -0.16155095231E+03  0.16155095231E+03  0.00000000000E+00 0. -1.
         25    1    1    2    0    0  0.12025438453E+03  0.71548900662E+02  0.17691982865E+03  0.25788754905E+03  0.12500000000E+03 0.  0.
         25    1    1    2    0    0 -0.12025438453E+03 -0.71548900662E+02 -0.48369050120E+02  0.19376513410E+03  0.12500000000E+03 0.  0.
</event>
<event>
 4    0  0.2219362E-002  0.2036214E+03  0.7546771E-02  0.1146719E+00
         21   -1    0    0  502  501  0.00000000000E+00  0.00000000000E+00  0.77079834404E+03  0.77079834404E+03  0.00000000000E+00 0. -1.
         21   -1    0    0  501  502 -0.00000000000E+00 -0.00000000000E+00 -0.53790562182E+02  0.53790562182E+02  0.00000000000E+00 0. -1.
         25    1    1    2    0    0 -0.34711289990E+02  0.10160285818E+03  0.60070915255E+03  0.62290007257E+03  0.12500000000E+03 0.  0.
         25    1    1    2    0    0  0.34711289990E+02 -0.10160285818E+03  0.11629862931E+03  0.20168883366E+03  0.12500000000E+03 0.  0.
</event>
<event>
 4    0  0.2219362E-002  0.2420617E+03  0.7546771E-02  0.1118427E+00
         21   -1    0    0  502  501  0.00000000000E+00  0.00000000000E+00  0.29520416952E+03  0.29520416952E+03  0.00000000000E+00 0. -1.
         21   -1    0    0  501  502 -0.00000000000E+00 -0.00000000000E+00 -0.19848596741E+03  0.19848596741E+03  0.00000000000E+00 0. -1.
         25    1    1    2    0    0  0.11566480527E+03  0.14251773520E+03  0.14659140966E+03  0.26608963417E+03  0.12500000000E+03 0.  0.
         25    1    1    2    0    0 -0.11566480527E+03 -0.14251773520E+03 -0.49873207555E+02  0.22760050276E+03  0.12500000000E+03 0.  0.
</event>
<event>
 4    0  0.2219362E-002  0.1917379E+03  0.7546771E-02  0.1156903E+00
         21   -1    0    0  502  501  0.00000000000E+00  0.00000000000E+00  0.47729781254E+02  0.47729781254E+02  0.00000000000E+00 0. -1.
         21   -1    0    0  501  502 -0.00000000000E+00 -0.00000000000E+00 -0.77024074140E+03  0.77024074140E+03  0.00000000000E+00 0. -1.
         25    1    1    2    0    0 -0.70997238679E+02 -0.12539295598E+03 -0.40252977563E+03  0.44544272536E+03  0.12500000000E+03 0.  0.
         25    1    1    2    0    0  0.70997238679E+02  0.12539295598E+03 -0.31998118452E+03  0.37252779730E+03  0.12500000000E+03 0.  0.
</event>
<event>
 4    0  0.2219362E-002  0.1836783E+03  0.7546771E-02  0.1164290E+00
         21   -1    0    0  502  501  0.00000000000E+00  0.00000000000E+00  0.34336446623E+03  0.34336446623E+03  0.00000000000E+00 0. -1.
         21   -1    0    0  501  502 -0.00000000000E+00 -0.00000000000E+00 -0.98256282280E+02  0.98256282280E+02  0.00000000000E+00 0. -1.
         25    1    1    2    0    0 -0.11195836672E+03  0.26244584193E+02  0.20661291087E+03  0.26746466872E+03  0.12500000000E+03 0.  0.
         25    1    1    2    0    0  0.11195836672E+03 -0.26244584193E+02  0.38495273086E+02  0.17415607979E+03  0.12500000000E+03 0.  0.
</event>
<event>
 4    0  0.2219362E-002  0.1314887E+03  0.7546771E-02  0.1225263E+00
         21   -1    0    0  502  501  0.00000000000E+00  0.00000000000E+00  0.10106048160E+03  0.10106048160E+03  0.00000000000E+00 0. -1.
         21   -1    0    0  501  502 -0.00000000000E+00 -0.00000000000E+00 -0.17107852004E+03  0.17107852004E+03  0.00000000000E+00 0. -1.
         25    1    1    2    0    0 -0.22862369486E+01 -0.18060498122E+02 -0.72789382224E+02  0.14578992639E+03  0.12500000000E+03 0.  0.
         25    1    1    2    0    0  0.22862369486E+01  0.18060498122E+02  0.27713437804E+01  0.12634907526E+03  0.12500000000E+03 0.  0.
</event>
<event>
 4    0  0.2219362E-002  0.2253175E+03  0.7546771E-02  0.1129980E+00
         21   -1    0    0  502  501  0.00000000000E+00  0.00000000000E+00  0.11806258309E+04  0.11806258309E+04  0.00000000000E+00 0. -1.
         21   -1    0    0  501  502 -0.00000000000E+00 -0.00000000000E+00 -0.43000885896E+02  0.43000885896E+02  0.00000000000E+00 0. -1.
         25    1    1    2    0    0 -0.15509589229E+02  0.17215909522E+03  0.37181174487E+03  0.42865869295E+03  0.12500000000E+03 0.  0.
         25    1    1    2    0    0  0.15509589229E+02 -0.17215909522E+03  0.76581320011E+03  0.79496802382E+03  0.12500000000E+03 0.  0.
</event>
<event>
 4    0  0.2219362E-002  0.2149913E+03  0.7546771E-02  0.1137673E+00
         21   -1    0    0  502  501  0.00000000000E+00  0.00000000000E+00  0.94076047525E+03  0.94076047525E+03  0.00000000000E+00 0. -1.
         21   -1    0    0  501  502 -0.00000000000E+00 -0.00000000000E+00 -0.49131821968E+02  0.49131821968E+02  0.00000000000E+00 0. -1.
         25    1    1    2    0    0 -0.16111419784E+03 -0.64031217396E+02  0.49923725305E+03  0.54306594110E+03  0.12500000000E+03 0.  0.
         25    1    1    2    0    0  0.16111419784E+03  0.64031217396E+02  0.39239140023E+03  0.44682635612E+03  0.12500000000E+03 0.  0.
</event>
<event>
 4    0  0.2219362E-002  0.2664900E+03  0.7546771E-02  0.1103305E+00
         21   -1    0    0  502  501  0.00000000000E+00  0.00000000000E+00  0.77549596170E+02  0.77549596170E+02  0.00000000000E+00 0. -1.
         21   -1    0    0  501  502 -0.00000000000E+00 -0.00000000000E+00 -0.91576118084E+03  0.91576118084E+03  0.00000000000E+00 0. -1.
         25    1    1    2    0    0 -0.10064451534E+03 -0.21270228869E+03 -0.42750847920E+03  0.50374604899E+03  0.12500000000E+03 0.  0.
         25    1    1    2    0    0  0.10064451534E+03  0.21270228869E+03 -0.41070310546E+03  0.48956472802E+03  0.12500000000E+03 0.  0.
</event>
<event>
 4    0  0.2219362E-002  0.2515204E+03  0.7546771E-02  0.1112348E+00
         21   -1    0    0  502  501  0.00000000000E+00  0.00000000000E+00  0.14310475362E+03  0.14310475362E+03  0.00000000000E+00 0. -1.
         21   -1    0    0  501  502 -0.00000000000E+00 -0.00000000000E+00 -0.44207121473E+03  0.44207121473E+03  0.00000000000E+00 0. -1.
         25    1    1    2    0    0 -0.97356645212E+02  0.10303596071E+03 -0.34254092701E+03  0.39122118072E+03  0.12500000000E+03 0.  0.
         25    1    1    2    0    0  0.97356645212E+02 -0.10303596071E+03  0.43574465894E+02  0.19395478763E+03  0.12500000000E+03 0.  0.
</event>
<event>
 4    0  0.2219362E-002  0.1959518E+03  0.7546771E-02  0.1153200E+00
         21   -1    0    0  502  501  0.00000000000E+00  0.00000000000E+00  0.65802652723E+02  0.65802652723E+02  0.00000000000E+00 0. -1.
         21   -1    0    0  501  502 -0.00000000000E+00 -0.00000000000E+00 -0.58351918301E+03  0.58351918301E+03  0.00000000000E+00 0. -1.
         25    1    1    2    0    0  0.22164562755E+02  0.28928361667E+02 -0.16234374523E+02  0.13121231980E+03  0.12500000000E+03 0.  0.
         25    1    1    2    0    0 -0.22164562755E+02 -0.28928361667E+02 -0.50148215576E+03  0.51810951593E+03  0.12500000000E+03 0.  0.
</event>
<event>
 4    0  0.2219362E-002  0.1910577E+03  0.7546771E-02  0.1157511E+00
         21   -1    0    0  502  501  0.00000000000E+00  0.00000000000E+00  0.14931193049E+03  0.14931193049E+03  0.00000000000E+00 0. -1.
         21   -1    0    0  501  502 -0.00000000000E+00 -0.00000000000E+00 -0.24447494620E+03  0.24447494620E+03  0.00000000000E+00 0. -1.
         25    1    1    2    0    0 -0.11785955138E+02 -0.68595986015E+02  0.82910464404E+02  0.16535858957E+03  0.12500000000E+03 0.  0.
         25    1    1    2    0    0  0.11785955138E+02  0.68595986015E+02 -0.17807348011E+03  0.22842828712E+03  0.12500000000E+03 0.  0.
</event>
<event>
 4    0  0.2219362E-002  0.2446897E+03  0.7546771E-02  0.1116708E+00
         21   -1    0    0  502  501  0.00000000000E+00  0.00000000000E+00  0.15724351250E+04  0.15724351250E+04  0.00000000000E+00 0.  1.
         21   -1    0    0  501  502 -0.00000000000E+00 -0.00000000000E+00 -0.38076632307E+02  0.38076632307E+02  0.00000000000E+00 0.  1.
         25    1    1    2    0    0 -0.65464325397E+01  0.20891957756E+03  0.84490286552E+03  0.87930432606E+03  0.12500000000E+03 0.  0.
         25    1    1    2    0    0  0.65464325397E+01 -0.20891957756E+03  0.68945562716E+03  0.73120743123E+03  0.12500000000E+03 0.  0.
</event>
<event>
 4    0  0.2219362E-002  0.2318739E+03  0.7546771E-02  0.1125328E+00
         21   -1    0    0  502  501  0.00000000000E+00  0.00000000000E+00  0.10150498348E+03  0.10150498348E+03  0.00000000000E+00 0. -1.
         21   -1    0    0  501  502 -0.00000000000E+00 -0.00000000000E+00 -0.52968340821E+03  0.52968340821E+03  0.00000000000E+00 0. -1.
         25    1    1    2    0    0  0.11141105943E+03  0.73727146878E+02 -0.40797399876E+03  0.44711955897E+03  0.12500000000E+03 0.  0.
         25    1    1    2    0    0 -0.11141105943E+03 -0.73727146878E+02 -0.20204425963E+02  0.18406883272E+03  0.12500000000E+03 0.  0.
</event>
<event>
 4    0  0.2219362E-002  0.2155990E+03  0.7546771E-02  0.1137207E+00
         21   -1    0    0  502  501  0.00000000000E+00  0.00000000000E+00  0.13379242142E+03  0.13379242142E+03  0.00000000000E+00 0. -1.
         21   -1    0    0  501  502 -0.00000000000E+00 -0.00000000000E+00 -0.34742576561E+03  0.34742576561E+03  0.00000000000E+00 0. -1.
         25    1    1    2    0    0 -0.17835160268E+02 -0.14754736228E+03 -0.23072150936E+01  0.19421287367E+03  0.12500000000E+03 0.  0.
         25    1    1    2    0    0  0.17835160268E+02  0.14754736228E+03 -0.21132612910E+03  0.28700531336E+03  0.12500000000E+03 0.  0.
</event>
<event>
 4    0  0.2219362E-002  0.1432323E+03  0.7546771E-02  0.1209045E+00
         21   -1    0    0  502  501  0.00000000000E+00  0.00000000000E+00  0.30896432496E+02  0.30896432496E+02  0.00000000000E+00 0. -1.
         21   -1    0    0  501  502 -0.00000000000E+00 -0.00000000000E+00 -0.66400873576E+03  0.66400873576E+03  0.00000000000E+00 0. -1.
         25    1    1    2    0    0  0.27520081337E+02  0.85704436914E+01 -0.16199472581E+03  0.20663518232E+03  0.12500000000E+03 0.  0.
         25    1    1    2    0    0 -0.27520081337E+02 -0.85704436914E+01 -0.47111757745E+03  0.48826998594E+03  0.12500000000E+03 0.  0.
</event>
<event>
 4    0  0.2219362E-002  0.1620988E+03  0.7546771E-02  0.1186347E+00
         21   -1    0    0  502  501  0.00000000000E+00  0.00000000000E+00  0.31988960188E+03  0.31988960188E+03  0.00000000000E+00 0. -1.
         21   -1    0    0  501  502 -0.00000000000E+00 -0.00000000000E+00 -0.82140914245E+02  0.82140914245E+02  0.00000000000E+00 0. -1.
         25    1    1    2    0    0  0.98381449333E+02 -0.12181358811E+02  0.15446544686E+03  0.22206275993E+03  0.12500000000E+03 0.  0.
         25    1    1    2    0    0 -0.98381449333E+02  0.12181358811E+02  0.83283240781E+02  0.17996775620E+03  0.12500000000E+03 0.  0.
</event>
<event>
 4    0  0.2219362E-002  0.2202427E+03  0.7546771E-02  0.1133702E+00
         21   -1    0    0  502  501  0.00000000000E+00  0.00000000000E+00  0.13255754113E+03  0.13255754113E+03  0.00000000000E+00 0. -1.
         21   -1    0    0  501  502 -0.00000000000E+00 -0.00000000000E+00 -0.36593043964E+03  0.36593043964E+03  0.00000000000E+00 0. -1.
         25    1    1    2    0    0  0.14510412493E+03 -0.10708123397E+03 -0.95207149619E+02  0.23918820849E+03  0.12500000000E+03 0.  0.
         25    1    1    2    0    0 -0.14510412493E+03  0.10708123397E+03 -0.13816574889E+03  0.25929977229E+03  0.12500000000E+03 0.  0.
</event>
<event>
 4    0  0.2219362E-002  0.2138443E+03  0.7546771E-02  0.1138557E+00
         21   -1    0    0  502  501  0.00000000000E+00  0.00000000000E+00  0.24248653478E+03  0.24248653478E+03  0.00000000000E+00 0. -1.
         21   -1    0    0  501  502 -0.00000000000E+00 -0.00000000000E+00 -0.18858523710E+03  0.18858523710E+03  0.00000000000E+00 0. -1.
         25    1    1    2    0    0 -0.11000250810E+03 -0.12978767777E+03  0.61263856448E+02  0.21982641605E+03  0.12500000000E+03 0.  0.
         25    1    1    2    0    0  0.11000250810E+03  0.12978767777E+03 -0.73625587650E+01  0.21124535583E+03  0.12500000000E+03 0.  0.
</event>
<event>
 4    0  0.2219362E-002  0.1767648E+03  0.7546771E-02  0.1170971E+00
         21   -1    0    0  502  501  0.00000000000E+00  0.00000000000E+00  0.17112823319E+03  0.17112823319E+03  0.00000000000E+00 0. -1.
         21   -1    0    0  501  502 -0.00000000000E+00 -0.00000000000E+00 -0.18258697815E+03  0.18258697815E+03  0.00000000000E+00 0. -1.
         25    1    1    2    0    0  0.92482829470E+00 -0.40010155389E+02  0.11273516702E+03  0.17301989979E+03  0.12500000000E+03 0.  0.
         25    1    1    2    0    0 -0.92482829470E+00  0.40010155389E+02 -0.12419391198E+03  0.18069531155E+03  0.12500000000E+03 0.  0.
</event>
<event>
 4    0  0.2219362E-002  0.1811279E+03  0.7546771E-02  0.1166716E+00
         21   -1    0    0  502  501  0.00000000000E+00  0.00000000000E+00  0.19856314886E+03  0.19856314886E+03  0.00000000000E+00 0.  1.
         21   -1    0    0  501  502 -0.00000000000E+00 -0.00000000000E+00 -0.16522354829E+03  0.16522354829E+03  0.00000000000E+00 0.  1.
         25    1    1    2    0    0  0.67956942396E+02  0.10857533344E+03  0.44636352665E+02  0.18445637162E+03  0.12500000000E+03 0.  0.
         25    1    1    2    0    0 -0.67956942396E+02 -0.10857533344E+03 -0.11296752095E+02  0.17933032554E+03  0.12500000000E+03 0.  0.
</event>
<event>
 4    0  0.2219362E-002  0.1772097E+03  0.7546771E-02  0.1170531E+00
         21   -1    0    0  502  501  0.00000000000E+00  0.00000000000E+00  0.48191485626E+02  0.48191485626E+02  0.00000000000E+00 0.  1.
         21   -1    0    0  501  502 -0.00000000000E+00 -0.00000000000E+00 -0.65163521069E+03  0.65163521069E+03  0.00000000000E+00 0.  1.
         25    1    1    2    0    0 -0.66219618361E+02 -0.56950266902E+02 -0.47997992065E+03  0.50362098346E+03  0.12500000000E+03 0.  0.
         25    1    1    2    0    0  0.66219618361E+02  0.56950266902E+02 -0.12346380441E+03  0.19620571285E+03  0.12500000000E+03 0.  0.
</event>
<event>
 4    0  0.2219362E-002  0.3669325E+03  0.7546771E-02  0.1055872E+00
         21   -1    0    0  502  501  0.00000000000E+00  0.00000000000E+00  0.65694577487E+03  0.65694577487E+03  0.00000000000E+00 0. -1.
         21   -1    0    0  501  502 -0.00000000000E+00 -0.00000000000E+00 -0.20494760644E+03  0.20494760644E+03  0.00000000000E+00 0. -1.
         25    1    1    2    0    0  0.31853240243E+03  0.12632690810E+03  0.17912240494E+03  0.40636340270E+03  0.12500000000E+03 0.  0.
         25    1    1    2    0    0 -0.31853240243E+03 -0.12632690810E+03  0.27287576350E+03  0.45552997861E+03  0.12500000000E+03 0.  0.
</event>
<event>
 4    0  0.2219362E-002  0.2313233E+03  0.7546771E-02  0.1125712E+00
         21   -1    0    0  502  501  0.00000000000E+00  0.00000000000E+00  0.62080743650E+03  0.62080743650E+03  0.00000000000E+00 0. -1.
         21   -1    0    0  501  502 -0.00000000000E+00 -0.00000000000E+00 -0.86194949897E+02  0.86194949897E+02  0.00000000000E+00 0. -1.
         25    1    1    2    0    0 -0.25176620526E+02 -0.19135760820E+03  0.22883188121E+03  0.32440811687E+03  0.12500000000E+03 0.  0.
         25    1    1    2    0    0  0.25176620526E+02  0.19135760820E+03  0.30578060540E+03  0.38259426953E+03  0.12500000000E+03 0.  0.
</event>
<event>
 4    0  0.2219362E-002  0.1626367E+03  0.7546771E-02  0.1185752E+00
         21   -1    0    0  502  501  0.00000000000E+00  0.00000000000E+00  0.42335773422E+02  0.42335773422E+02  0.00000000000E+00 0. -1.
         21   -1    0    0  501  502 -0.00000000000E+00 -0.00000000000E+00 -0.62478343839E+03  0.62478343839E+03  0.00000000000E+00 0. -1.
         25    1    1    2    0    0  0.82717461447E+02 -0.54542801452E+02 -0.22608900921E+03  0.27669177021E+03  0.12500000000E+03 0.  0.
         25    1    1    2    0    0 -0.82717461447E+02  0.54542801452E+02 -0.35635865576E+03  0.39042744160E+03  0.12500000000E+03 0.  0.
</event>
<event>
 4    0  0.2219362E-002  0.1609259E+03  0.7546771E-02  0.1187655E+00
         21   -1    0    0  502  501  0.00000000000E+00  0.00000000000E+00  0.58905212252E+02  0.58905212252E+02  0.00000000000E+00 0.  1.
         21   -1    0    0  501  502 -0.00000000000E+00 -0.00000000000E+00 -0.43964089796E+03  0.43964089796E+03  0.00000000000E+00 0.  1.
         25    1    1    2    0    0 -0.47378872946E+02 -0.64000320848E+02 -0.28749033759E+03  0.32344472925E+03  0.12500000000E+03 0.  0.
         25    1    1    2    0    0  0.47378872946E+02  0.64000320848E+02 -0.93245348122E+02  0.17510138097E+03  0.12500000000E+03 0.  0.
</event>
<event>
 4    0  0.2219362E-002  0.2212683E+03  0.7546771E-02  0.1132941E+00
         21   -1    0    0  502  501  0.00000000000E+00  0.00000000000E+00  0.71712532448E+02  0.71712532448E+02  0.00000000000E+00 0.  1.
         21   -1    0    0  501  502 -0.00000000000E+00 -0.00000000000E+00 -0.68272139400E+03  0.68272139400E+03  0.00000000000E+00 0.  1.
         25    1    1    2    0    0  0.96385120490E+02 -0.15497677003E+03 -0.29668067319E+03  0.37007068588E+03  0.12500000000E+03 0.  0.
         25    1    1    2    0    0 -0.96385120490E+02  0.15497677003E+03 -0.31432818836E+03  0.38436324057E+03  0.12500000000E+03 0.  0.
</event>
<event>
 4    0  0.2219362E-002  0.3510327E+03  0.7546771E-02  0.1062192E+00
         21   -1    0    0  502  501  0.00000000000E+00  0.00000000000E+00  0.12375484235E+04  0.12375484235E+04  0.00000000000E+00 0.  1.
         21   -1    0    0  501  502 -0.00000000000E+00 -0.00000000000E+00 -0.99571011968E+02  0.99571011968E+02  0.00000000000E+00 0.  1.
         25    1    1    2    0    0 -0.21122774093E+03 -0.24853106119E+03  0.50262658965E+03  0.61208115111E+03  0.12500000000E+03 0.  0.
         25    1    1    2    0    0  0.21122774093E+03  0.24853106119E+03  0.63535082184E+03  0.72503828432E+03  0.12500000000E+03 0.  0.
</event>
<event>
 4    0  0.2219362E-002  0.1864399E+03  0.7546771E-02  0.1161712E+00
         21   -1    0    0  502  501  0.00000000000E+00  0.00000000000E+00  0.13626019984E+03  0.13626019984E+03  0.00000000000E+00 0. -1.
         21   -1    0    0  501  502 -0.00000000000E+00 -0.00000000000E+00 -0.25509895752E+03  0.25509895752E+03  0.00000000000E+00 0. -1.
         25    1    1    2    0    0  0.59446806029E+02 -0.61893850511E+02 -0.17328590044E+03  0.23025588976E+03  0.12500000000E+03 0.  0.
         25    1    1    2    0    0 -0.59446806029E+02  0.61893850511E+02  0.54447142764E+02  0.16110326761E+03  0.12500000000E+03 0.  0.
</event>
<event>
 4    0  0.2219362E-002  0.2436477E+03  0.7546771E-02  0.1117386E+00
         21   -1    0    0  502  501  0.00000000000E+00  0.00000000000E+00  0.10670031133E+04  0.10670031133E+04  0.00000000000E+00 0. -1.
         21   -1    0    0  501  502 -0.00000000000E+00 -0.00000000000E+00 -0.55636412843E+02  0.55636412843E+02  0.00000000000E+00 0.  1.
         25    1    1    2    0    0  0.73324548364E+02 -0.19416174564E+03  0.56504644721E+03  0.61479895931E+03  0.12500000000E+03 0.  0.
         25    1    1    2    0    0 -0.73324548364E+02  0.19416174564E+03  0.44632025321E+03  0.50784056680E+03  0.12500000000E+03 0.  0.
</event>
<event>
 4    0  0.2219362E-002  0.1870812E+03  0.7546771E-02  0.1161121E+00
         21   -1    0    0  502  501  0.00000000000E+00  0.00000000000E+00  0.17768704849E+04  0.17768704849E+04  0.00000000000E+00 0.  1.
         21   -1    0    0  501  502 -0.00000000000E+00 -0.00000000000E+00 -0.19697191737E+02  0.19697191737E+02  0.00000000000E+00 0.  1.
         25    1    1    2    0    0 -0.71431888214E+02  0.61556947034E+02  0.13701933150E+04  0.13791107617E+04  0.12500000000E+03 0.  0.
         25    1    1    2    0    0  0.71431888214E+02 -0.61556947034E+02  0.38697997810E+03  0.41745691494E+03  0.12500000000E+03 0.  0.
</event>
<event>
 4    0  0.2219362E-002  0.2173823E+03  0.7546771E-02  0.1135850E+00
         21   -1    0    0  502  501  0.00000000000E+00  0.00000000000E+00  0.61730421366E+03  0.61730421366E+03  0.00000000000E+00 0. -1.
         21   -1    0    0  501  502 -0.00000000000E+00 -0.00000000000E+00 -0.76550677321E+02  0.76550677321E+02  0.00000000000E+00 0. -1.
         25    1    1    2    0    0  0.51952068747E+02  0.16666968889E+03  0.21620307450E+03  0.30470735479E+03  0.12500000000E+03 0.  0.
         25    1    1    2    0    0 -0.51952068747E+02 -0.16666968889E+03  0.32455046184E+03  0.38914753619E+03  0.12500000000E+03 0.  0.
</event>
<event>
 4    0  0.2219362E-002  0.3082352E+03  0.7546771E-02  0.1081195E+00
         21   -1    0    0  502  501  0.00000000000E+00  0.00000000000E+00  0.55972559609E+02  0.55972559609E+02  0.00000000000E+00 0. -1.
         21   -1    0    0  501  502 -0.00000000000E+00 -0.00000000000E+00 -0.16974198290E+04  0.16974198290E+04  0.00000000000E+00 0. -1.
         25    1    1    2    0    0  0.27196525068E+03 -0.55812821784E+02 -0.95724036768E+03  0.10044970334E+04  0.12500000000E+03 0.  0.
         25    1    1    2    0    0 -0.27196525068E+03  0.55812821784E+02 -0.68420690169E+03  0.74889535516E+03  0.12500000000E+03 0.  0.
</event>
<event>
 4    0  0.2219362E-002  0.1700649E+03  0.7546771E-02  0.1177780E+00
         21   -1    0    0  502  501  0.00000000000E+00  0.00000000000E+00  0.10032032700E+03  0.10032032700E+03  0.00000000000E+00 0. -1.
         21   -1    0    0  501  502 -0.00000000000E+00 -0.00000000000E+00 -0.28829719266E+03  0.28829719266E+03  0.00000000000E+00 0. -1.
         25    1    1    2    0    0 -0.59911050318E+02 -0.22836238006E+02 -0.20349662750E+03  0.24727859818E+03  0.12500000000E+03 0.  0.
         25    1    1    2    0    0  0.59911050318E+02  0.22836238006E+02  0.15519761843E+02  0.14133892148E+03  0.12500000000E+03 0.  0.
</event>
<event>
 4    0  0.2219362E-002  0.2750393E+03  0.7546771E-02  0.1098430E+00
         21   -1    0    0  502  501  0.00000000000E+00  0.00000000000E+00  0.32320982244E+03  0.32320982244E+03  0.00000000000E+00 0.  1.
         21   -1    0    0  501  502 -0.00000000000E+00 -0.00000000000E+00 -0.23404797747E+03  0.23404797747E+03  0.00000000000E+00 0.  1.
         25    1    1    2    0    0 -0.23518584713E+02 -0.23900444727E+03  0.93641853835E+02  0.28647870153E+03  0.12500000000E+03 0.  0.
         25    1    1    2    0    0  0.23518584713E+02  0.23900444727E+03 -0.44800088675E+01  0.27077909838E+03  0.12500000000E+03 0.  0.
</event>
<event>
 4    0  0.2219362E-002  0.2096502E+03  0.7546771E-02  0.1141843E+00
         21   -1    0    0  502  501  0.00000000000E+00  0.00000000000E+00  0.12118553495E+04  0.12118553495E+04  0.00000000000E+00 0. -1.
         21   -1    0    0  501  502 -0.00000000000E+00 -0.00000000000E+00 -0.36269346296E+02  0.36269346296E+02  0.00000000000E+00 0. -1.
         25    1    1    2    0    0 -0.15981923355E+03 -0.47365436945E+02  0.65712669314E+03  0.68936649386E+03  0.12500000000E+03 0.  0.
         25    1    1    2    0    0  0.15981923355E+03  0.47365436945E+02  0.51845931003E+03  0.55875820189E+03  0.12500000000E+03 0.  0.
</event>
<event>
 4    0  0.2219362E-002  0.2166843E+03  0.7546771E-02  0.1136379E+00
         21   -1    0    0  502  501  0.00000000000E+00  0.00000000000E+00  0.27255110780E+03  0.27255110780E+03  0.00000000000E+00 0.  1.
         21   -1    0    0  501  502 -0.00000000000E+00 -0.00000000000E+00 -0.17226888760E+03  0.17226888760E+03  0.00000000000E+00 0.  1.
         25    1    1    2    0    0  0.14803540627E+02 -0.16954495241E+03  0.10003040206E+03  0.23365726404E+03  0.12500000000E+03 0.  0.
         25    1    1    2    0    0 -0.14803540627E+02  0.16954495241E+03  0.25181813135E+00  0.21116273136E+03  0.12500000000E+03 0.  0.
</event>
<event>
 4    0  0.2219362E-002  0.2190546E+03  0.7546771E-02  0.1134590E+00
         21   -1    0    0  502  501  0.00000000000E+00  0.00000000000E+00  0.52985065553E+03  0.52985065553E+03  0.00000000000E+00 0.  1.
         21   -1    0    0  501  502 -0.00000000000E+00 -0.00000000000E+00 -0.90563102025E+02  0.90563102025E+02  0.00000000000E+00 0.  1.
         25    1    1    2    0    0  0.10982914678E+03 -0.13334358063E+03  0.29068947740E+03  0.36051119851E+03  0.12500000000E+03 0.  0.
         25    1    1    2    0    0 -0.10982914678E+03  0.13334358063E+03  0.14859807610E+03  0.25990255904E+03  0.12500000000E+03 0.  0.
</event>
<event>
 4    0  0.2219362E-002  0.2212711E+03  0.7546771E-02  0.1132939E+00
         21   -1    0    0  502  501  0.00000000000E+00  0.00000000000E+00  0.89312921579E+02  0.89312921579E+02  0.00000000000E+00 0. -1.
         21   -1    0    0  501  502 -0.00000000000E+00 -0.00000000000E+00 -0.54819483305E+03  0.54819483305E+03  0.00000000000E+00 0. -1.
         25    1    1    2    0    0  0.90874587137E+01 -0.14449230107E+03 -0.69187172412E+02  0.20340224139E+03  0.12500000000E+03 0.  0.
         25    1    1    2    0    0 -0.90874587137E+01  0.14449230107E+03 -0.38969473906E+03  0.43410551324E+03  0.12500000000E+03 0.  0.
</event>
<event>
 4    0  0.2219362E-002  0.2385177E+03  0.7546771E-02  0.1120784E+00
         21   -1    0    0  502  501  0.00000000000E+00  0.00000000000E+00  0.23546888664E+04  0.23546888664E+04  0.00000000000E+00 0. -1.
         21   -1    0    0  501  502 -0.00000000000E+00 -0.00000000000E+00 -0.24160605238E+02  0.24160605238E+02  0.00000000000E+00 0. -1.
         25    1    1    2    0    0  0.87498829643E+02  0.79714075040E+02  0.34199465711E+03  0.38287821098E+03  0.12500000000E+03 0.  0.
         25    1    1    2    0    0 -0.87498829643E+02 -0.79714075040E+02  0.19885336040E+04  0.19959712607E+04  0.12500000000E+03 0.  0.
</event>
<event>
 4    0  0.2219362E-002  0.2951336E+03  0.7546771E-02  0.1087699E+00
         21   -1    0    0  502  501  0.00000000000E+00  0.00000000000E+00  0.54397540374E+03  0.54397540374E+03  0.00000000000E+00 0. -1.
         21   -1    0    0  501  502 -0.00000000000E+00 -0.00000000000E+00 -0.16012458189E+03  0.16012458189E+03  0.00000000000E+00 0. -1.
         25    1    1    2    0    0 -0.25374586406E+03  0.74474288516E+02  0.14503183946E+03  0.32648524872E+03  0.12500000000E+03 0.  0.
         25    1    1    2    0    0  0.25374586406E+03 -0.74474288516E+02  0.23881898240E+03  0.37761473691E+03  0.12500000000E+03 0.  0.
</event>
<event>
 4    0  0.2219362E-002  0.2551907E+03  0.7546771E-02  0.1110068E+00
         21   -1    0    0  502  501  0.00000000000E+00  0.00000000000E+00  0.43062212694E+02  0.43062212694E+02  0.00000000000E+00 0.  1.
         21   -1    0    0  501  502 -0.00000000000E+00 -0.00000000000E+00 -0.15122839794E+04  0.15122839794E+04  0.00000000000E+00 0.  1.
         25    1    1    2    0    0 -0.19685563153E+03  0.36008914974E+02 -0.43839117170E+03  0.49785600432E+03  0.12500000000E+03 0.  0.
         25    1    1    2    0    0  0.19685563153E+03 -0.36008914974E+02 -0.10308305950E+04  0.10574901877E+04  0.12500000000E+03 0.  0.
</event>
<event>
 4    0  0.2219362E-002  0.2117061E+03  0.7546771E-02  0.1140222E+00
         21   -1    0    0  502  501  0.00000000000E+00  0.00000000000E+00  0.97747196611E+02  0.97747196611E+02  0.00000000000E+00 0.  1.
         21   -1    0    0  501  502 -0.00000000000E+00 -0.00000000000E+00 -0.45852453135E+03  0.45852453135E+03  0.00000000000E+00 0.  1.
         25    1    1    2    0    0 -0.92161455395E+01 -0.17058107795E+03 -0.17590521718E+03  0.27522806348E+03  0.12500000000E+03 0.  0.
         25    1    1    2    0    0  0.92161455395E+01  0.17058107795E+03 -0.18487211756E+03  0.28104366448E+03  0.12500000000E+03 0.  0.
</event>
<event>
 4    0  0.2219362E-002  0.2304523E+03  0.7546771E-02  0.1126322E+00
         21   -1    0    0  502  501  0.00000000000E+00  0.00000000000E+00  0.10156360830E+04  0.10156360830E+04  0.00000000000E+00 0. -1.
         21   -1    0    0  501  502 -0.00000000000E+00 -0.00000000000E+00 -0.52290631500E+02  0.52290631500E+02  0.00000000000E+00 0. -1.
         25    1    1    2    0    0  0.92144079478E+02 -0.14689118744E+03  0.28214349802E+03  0.35397387729E+03  0.12500000000E+03 0.  0.
         25    1    1    2    0    0 -0.92144079478E+02  0.14689118744E+03  0.68120195346E+03  0.71395283719E+03  0.12500000000E+03 0.  0.
</event>
<event>
 4    0  0.2219362E-002  0.2715131E+03  0.7546771E-02  0.1100417E+00
         21   -1    0    0  502  501  0.00000000000E+00  0.00000000000E+00  0.59265518974E+03  0.59265518974E+03  0.00000000000E+00 0.  1.
         21   -1    0    0  501  502 -0.00000000000E+00 -0.00000000000E+00 -0.12438824643E+03  0.12438824643E+03  0.00000000000E+00 0.  1.
         25    1    1    2    0    0 -0.19387302635E+03  0.13709829155E+03  0.28876356796E+03  0.39419803408E+03  0.12500000000E+03 0.  0.
         25    1    1    2    0    0  0.19387302635E+03 -0.13709829155E+03  0.17950337535E+03  0.32284540209E+03  0.12500000000E+03 0.  0.
</event>
<event>
 4    0  0.2219362E-002  0.2241834E+03  0.7546771E-02  0.1130802E+00
         21   -1    0    0  502  501  0.00000000000E+00  0.00000000000E+00  0.57563565765E+02  0.57563565765E+02  0.00000000000E+00 0. -1.
         21   -1    0    0  501  502 -0.00000000000E+00 -0.00000000000E+00 -0.87309025341E+03  0.87309025341E+03  0.00000000000E+00 0. -1.
         25    1    1    2    0    0 -0.28265329224E+02 -0.17644268231E+03 -0.29986453445E+03  0.37077579209E+03  0.12500000000E+03 0.  0.
         25    1    1    2    0    0  0.28265329224E+02  0.17644268231E+03 -0.51566215320E+03  0.55987802709E+03  0.12500000000E+03 0.  0.
</event>
<event>
 4    0  0.2219362E-002  0.2306273E+03  0.7546771E-02  0.1126199E+00
         21   -1    0    0  502  501  0.00000000000E+00  0.00000000000E+00  0.94965917866E+03  0.94965917866E+03  0.00000000000E+00 0. -1.
         21   -1    0    0  501  502 -0.00000000000E+00 -0.00000000000E+00 -0.56008448544E+02  0.56008448544E+02  0.00000000000E+00 0. -1.
         25    1    1    2    0    0  0.65036021348E+02 -0.12719095259E+03  0.73240739975E+03  0.75660612058E+03  0.12500000000E+03 0.  0.
         25    1    1    2    0    0 -0.65036021348E+02  0.12719095259E+03  0.16124333037E+03  0.24906150663E+03  0.12500000000E+03 0.  0.
</event>
<event>
 4    0  0.2219362E-002  0.1804819E+03  0.7546771E-02  0.1167337E+00
         21   -1    0    0  502  501  0.00000000000E+00  0.00000000000E+00  0.96675640677E+03  0.96675640677E+03  0.00000000000E+00 0.  1.
         21   -1    0    0  501  502 -0.00000000000E+00 -0.00000000000E+00 -0.33693830240E+02  0.33693830240E+02  0.00000000000E+00 0.  1.
         25    1    1    2    0    0 -0.97720471001E+02 -0.14252493623E+02  0.70164960930E+03  0.71950649633E+03  0.12500000000E+03 0.  0.
         25    1    1    2    0    0  0.97720471001E+02  0.14252493623E+02  0.23141296723E+03  0.28094374069E+03  0.12500000000E+03 0.  0.
</event>
<event>
 4    0  0.2219362E-002  0.2393278E+03  0.7546771E-02  0.1120241E+00
         21   -1    0    0  502  501  0.00000000000E+00  0.00000000000E+00  0.19105834971E+03  0.19105834971E+03  0.00000000000E+00 0.  1.
         21   -1    0    0  501  502 -0.00000000000E+00 -0.00000000000E+00 -0.29979222274E+03  0.29979222274E+03  0.00000000000E+00 0.  1.
         25    1    1    2    0    0  0.64210375432E+02 -0.56977205388E+02  0.13550827317E+03  0.20336387670E+03  0.12500000000E+03 0.  0.
         25    1    1    2    0    0 -0.64210375432E+02  0.56977205388E+02 -0.24424214621E+03  0.28748669575E+03  0.12500000000E+03 0.  0.
</event>
<event>
 4    0  0.2219362E-002  0.3153914E+03  0.7546771E-02  0.1077790E+00
         21   -1    0    0  502  501  0.00000000000E+00  0.00000000000E+00  0.22451501597E+03  0.22451501597E+03  0.00000000000E+00 0.  1.
         21   -1    0    0  501  502 -0.00000000000E+00 -0.00000000000E+00 -0.44305171367E+03  0.44305171367E+03  0.00000000000E+00 0.  1.
         25    1    1    2    0    0  0.12583156099E+02 -0.14999403785E+03  0.15252329042E+03  0.24808244865E+03  0.12500000000E+03 0.  0.
         25    1    1    2    0    0 -0.12583156099E+02  0.14999403785E+03 -0.37105998813E+03  0.41948428099E+03  0.12500000000E+03 0.  0.
</event>
<event>
 4    0  0.2219362E-002  0.2348081E+03  0.7546771E-02  0.1123301E+00
         21   -1    0    0  502  501  0.00000000000E+00  0.00000000000E+00  0.36350610250E+03  0.36350610250E+03  0.00000000000E+00 0. -1.
         21   -1    0    0  501  502 -0.00000000000E+00 -0.00000000000E+00 -0.15167520819E+03  0.15167520819E+03  0.00000000000E+00 0. -1.
         25    1    1    2    0    0 -0.45733614489E+02  0.28719672290E+02  0.31577020085E+03  0.34387818020E+03  0.12500000000E+03 0.  0.
         25    1    1    2    0    0  0.45733614489E+02 -0.28719672290E+02 -0.10393930654E+03  0.17130313049E+03  0.12500000000E+03 0.  0.
</event>
<event>
 4    0  0.2219362E-002  0.1898572E+03  0.7546771E-02  0.1158590E+00
         21   -1    0    0  502  501  0.00000000000E+00  0.00000000000E+00  0.50313212180E+03  0.50313212180E+03  0.00000000000E+00 0.  1.
         21   -1    0    0  501  502 -0.00000000000E+00 -0.00000000000E+00 -0.71642701307E+02  0.71642701307E+02  0.00000000000E+00 0.  1.
         25    1    1    2    0    0  0.10212136168E+02 -0.64232136033E+02  0.23137114033E+02  0.14279489161E+03  0.12500000000E+03 0.  0.
         25    1    1    2    0    0 -0.10212136168E+02  0.64232136033E+02  0.40835230646E+03  0.43197993150E+03  0.12500000000E+03 0.  0.
</event>
<event>
 4    0  0.2219362E-002  0.4503767E+03  0.7546771E-02  0.1027610E+00
         21   -1    0    0  502  501  0.00000000000E+00  0.00000000000E+00  0.99372042030E+03  0.99372042030E+03  0.00000000000E+00 0. -1.
         21   -1    0    0  501  502 -0.00000000000E+00 -0.00000000000E+00 -0.20412098288E+03  0.20412098288E+03  0.00000000000E+00 0. -1.
         25    1    1    2    0    0  0.24271203158E+03 -0.16056196535E+03 -0.31002675103E+02  0.31823802547E+03  0.12500000000E+03 0.  0.
         25    1    1    2    0    0 -0.24271203158E+03  0.16056196535E+03  0.82060211253E+03  0.87960337771E+03  0.12500000000E+03 0.  0.
</event>
<event>
 4    0  0.2219362E-002  0.2524579E+03  0.7546771E-02  0.1111761E+00
         21   -1    0    0  502  501  0.00000000000E+00  0.00000000000E+00  0.27247767423E+02  0.27247767423E+02  0.00000000000E+00 0.  1.
         21   -1    0    0  501  502 -0.00000000000E+00 -0.00000000000E+00 -0.23390896987E+04  0.23390896987E+04  0.00000000000E+00 0.  1.
         25    1    1    2    0    0 -0.14667278502E+03  0.74419022092E+02 -0.47581689922E+03  0.51872711352E+03  0.12500000000E+03 0.  0.
         25    1    1    2    0    0  0.14667278502E+03 -0.74419022092E+02 -0.18360250321E+04  0.18476103526E+04  0.12500000000E+03 0.  0.
</event>
<event>
 4    0  0.2219362E-002  0.2766253E+03  0.7546771E-02  0.1097547E+00
         21   -1    0    0  502  501  0.00000000000E+00  0.00000000000E+00  0.29629563221E+03  0.29629563221E+03  0.00000000000E+00 0.  1.
         21   -1    0    0  501  502 -0.00000000000E+00 -0.00000000000E+00 -0.25826090849E+03  0.25826090849E+03  0.00000000000E+00 0.  1.
         25    1    1    2    0    0 -0.21021322076E+03  0.94034285923E+02 -0.69874166374E+02  0.27118157061E+03  0.12500000000E+03 0.  0.
         25    1    1    2    0    0  0.21021322076E+03 -0.94034285923E+02  0.10790889009E+03  0.28337497009E+03  0.12500000000E+03 0.  0.
</event>
<event>
 4    0  0.2219362E-002  0.1920111E+03  0.7546771E-02  0.1156660E+00
         21   -1    0    0  502  501  0.00000000000E+00  0.00000000000E+00  0.81769586690E+03  0.81769586690E+03  0.00000000000E+00 0.  1.
         21   -1    0    0  501  502 -0.00000000000E+00 -0.00000000000E+00 -0.45087999374E+02  0.45087999374E+02  0.00000000000E+00 0.  1.
         25    1    1    2    0    0 -0.96736740334E+02 -0.79828090885E+01  0.63058107062E+03  0.65013783831E+03  0.12500000000E+03 0.  0.
         25    1    1    2    0    0  0.96736740334E+02  0.79828090885E+01  0.14202679690E+03  0.21264602797E+03  0.12500000000E+03 0.  0.
</event>
<event>
 4    0  0.2219362E-002  0.2807266E+03  0.7546771E-02  0.1095293E+00
         21   -1    0    0  502  501  0.00000000000E+00  0.00000000000E+00  0.64288768553E+03  0.64288768553E+03  0.00000000000E+00 0. -1.
         21   -1    0    0  501  502 -0.00000000000E+00 -0.00000000000E+00 -0.12258353662E+03  0.12258353662E+03  0.00000000000E+00 0. -1.
         25    1    1    2    0    0 -0.55270323425E+02  0.15678028778E+03  0.51720364318E+03  0.55745804848E+03  0.12500000000E+03 0.  0.
         25    1    1    2    0    0  0.55270323425E+02 -0.15678028778E+03  0.31005057278E+01  0.20801317368E+03  0.12500000000E+03 0.  0.
</event>
<event>
 4    0  0.2219362E-002  0.2482062E+03  0.7546771E-02  0.1114444E+00
         21   -1    0    0  502  501  0.00000000000E+00  0.00000000000E+00  0.24158531722E+03  0.24158531722E+03  0.00000000000E+00 0. -1.
         21   -1    0    0  501  502 -0.00000000000E+00 -0.00000000000E+00 -0.25500852033E+03  0.25500852033E+03  0.00000000000E+00 0. -1.
         25    1    1    2    0    0 -0.13010925691E+03 -0.10470446438E+03 -0.14125935412E+03  0.25193381814E+03  0.12500000000E+03 0.  0.
         25    1    1    2    0    0  0.13010925691E+03  0.10470446438E+03  0.12783615102E+03  0.24466001942E+03  0.12500000000E+03 0.  0.
</event>
<event>
 4    0  0.2219362E-002  0.2739526E+03  0.7546771E-02  0.1099038E+00
         21   -1    0    0  502  501  0.00000000000E+00  0.00000000000E+00  0.40070586836E+02  0.40070586836E+02  0.00000000000E+00 0.  1.
         21   -1    0    0  501  502 -0.00000000000E+00 -0.00000000000E+00 -0.18729460693E+04  0.18729460693E+04  0.00000000000E+00 0. -1.
         25    1    1    2    0    0  0.15627295740E+03 -0.18708644843E+03 -0.91094850904E+03  0.95124905389E+03  0.12500000000E+03 0.  0.
         25    1    1    2    0    0 -0.15627295740E+03  0.18708644843E+03 -0.92192697337E+03  0.96176760220E+03  0.12500000000E+03 0.  0.
</event>
<event>
 4    0  0.2219362E-002  0.1935930E+03  0.7546771E-02  0.1155260E+00
         21   -1    0    0  502  501  0.00000000000E+00  0.00000000000E+00  0.26046245750E+02  0.26046245750E+02  0.00000000000E+00 0. -1.
         21   -1    0    0  501  502 -0.00000000000E+00 -0.00000000000E+00 -0.14389110437E+04  0.14389110437E+04  0.00000000000E+00 0. -1.
         25    1    1    2    0    0  0.13573670424E+03  0.48656338552E+02 -0.82969530044E+03  0.85135843434E+03  0.12500000000E+03 0.  0.
         25    1    1    2    0    0 -0.13573670424E+03 -0.48656338552E+02 -0.58316949751E+03  0.61359885511E+03  0.12500000000E+03 0.  0.
</event>
<event>
 4    0  0.2219362E-002  0.2569699E+03  0.7546771E-02  0.1108978E+00
         21   -1    0    0  502  501  0.00000000000E+00  0.00000000000E+00  0.67088413463E+02  0.67088413463E+02  0.00000000000E+00 0. -1.
         21   -1    0    0  501  502 -0.00000000000E+00 -0.00000000000E+00 -0.98427625964E+03  0.98427625964E+03  0.00000000000E+00 0. -1.
         25    1    1    2    0    0  0.20865329970E+03 -0.82154846076E+02 -0.48127389989E+03  0.54546785875E+03  0.12500000000E+03 0.  0.
         25    1    1    2    0    0 -0.20865329970E+03  0.82154846076E+02 -0.43591394628E+03  0.50589681435E+03  0.12500000000E+03 0.  0.
</event>
<event>
 4    0  0.2219362E-002  0.2585372E+03  0.7546771E-02  0.1108025E+00
         21   -1    0    0  502  501  0.00000000000E+00  0.00000000000E+00  0.20081262262E+03  0.20081262262E+03  0.00000000000E+00 0.  1.
         21   -1    0    0  501  502 -0.00000000000E+00 -0.00000000000E+00 -0.33285489799E+03  0.33285489799E+03  0.00000000000E+00 0.  1.
         25    1    1    2    0    0 -0.10778710703E+03 -0.43631346847E+02  0.13436053636E+03  0.21725447890E+03  0.12500000000E+03 0.  0.
         25    1    1    2    0    0  0.10778710703E+03  0.43631346847E+02 -0.26640281174E+03  0.31641304172E+03  0.12500000000E+03 0.  0.
</event>
<event>
 4    0  0.2219362E-002  0.4262504E+03  0.7546771E-02  0.1035051E+00
         21   -1    0    0  502  501  0.00000000000E+00  0.00000000000E+00  0.24752486239E+03  0.24752486239E+03  0.00000000000E+00 0. -1.
         21   -1    0    0  501  502 -0.00000000000E+00 -0.00000000000E+00 -0.73402500940E+03  0.73402500940E+03  0.00000000000E+00 0. -1.
         25    1    1    2    0    0  0.16079464930E+01 -0.18722985796E+03  0.17348927509E+03  0.28422022056E+03  0.12500000000E+03 0.  0.
         25    1    1    2    0    0 -0.16079464930E+01  0.18722985796E+03 -0.65998942210E+03  0.69732965123E+03  0.12500000000E+03 0.  0.
</event>
<event>
 4    0  0.2219362E-002  0.2133700E+03  0.7546771E-02  0.1138925E+00
         21   -1    0    0  502  501  0.00000000000E+00  0.00000000000E+00  0.63204072986E+02  0.63204072986E+02  0.00000000000E+00 0.  1.
         21   -1    0    0  501  502 -0.00000000000E+00 -0.00000000000E+00 -0.72031396876E+03  0.72031396876E+03  0.00000000000E+00 0.  1.
         25    1    1    2    0    0 -0.81463439787E+02  0.14965605202E+03 -0.38266564739E+03  0.43713982159E+03  0.12500000000E+03 0.  0.
         25    1    1    2    0    0  0.81463439787E+02 -0.14965605202E+03 -0.27444424839E+03  0.34637822016E+03  0.12500000000E+03 0.  0.
</event>
<event>
 4    0  0.2219362E-002  0.3708855E+03  0.7546771E-02  0.1054355E+00
         21   -1    0    0  502  501  0.00000000000E+00  0.00000000000E+00  0.17119491940E+04  0.17119491940E+04  0.00000000000E+00 0. -1.
         21   -1    0    0  501  502 -0.00000000000E+00 -0.00000000000E+00 -0.80350559707E+02  0.80350559707E+02  0.00000000000E+00 0. -1.
         25    1    1    2    0    0 -0.19726387689E+02  0.28442778258E+03  0.13029154065E+04  0.13395901800E+04  0.12500000000E+03 0.  0.
         25    1    1    2    0    0  0.19726387689E+02 -0.28442778258E+03  0.32868322775E+03  0.45270957365E+03  0.12500000000E+03 0.  0.
</event>
<event>
 4    0  0.2219362E-002  0.2081594E+03  0.7546771E-02  0.1143032E+00
         21   -1    0    0  502  501  0.00000000000E+00  0.00000000000E+00  0.20402343563E+04  0.20402343563E+04  0.00000000000E+00 0.  1.
         21   -1    0    0  501  502 -0.00000000000E+00 -0.00000000000E+00 -0.21237923078E+02  0.21237923078E+02  0.00000000000E+00 0.  1.
         25    1    1    2    0    0 -0.85883034049E+02  0.14174667413E+03  0.10857804398E+04  0.11054465969E+04  0.12500000000E+03 0.  0.
         25    1    1    2    0    0  0.85883034049E+02 -0.14174667413E+03  0.93321599341E+03  0.95602568246E+03  0.12500000000E+03 0.  0.
</event>
<event>
 4    0  0.2219362E-002  0.3146632E+03  0.7546771E-02  0.1078132E+00
         21   -1    0    0  502  501  0.00000000000E+00  0.00000000000E+00  0.59643124823E+03  0.59643124823E+03  0.00000000000E+00 0. -1.
         21   -1    0    0  501  502 -0.00000000000E+00 -0.00000000000E+00 -0.16600891961E+03  0.16600891961E+03  0.00000000000E+00 0. -1.
         25    1    1    2    0    0 -0.14669546160E+03 -0.63385735148E+02  0.50660730133E+03  0.54572270214E+03  0.12500000000E+03 0.  0.
         25    1    1    2    0    0  0.14669546160E+03  0.63385735148E+02 -0.76184972709E+02  0.21671746570E+03  0.12500000000E+03 0.  0.
</event>
<event>
 4    0  0.2219362E-002  0.1611798E+03  0.7546771E-02  0.1187371E+00
         21   -1    0    0  502  501  0.00000000000E+00  0.00000000000E+00  0.11547831461E+03  0.11547831461E+03  0.00000000000E+00 0.  1.
         21   -1    0    0  501  502 -0.00000000000E+00 -0.00000000000E+00 -0.22496789508E+03  0.22496789508E+03  0.00000000000E+00 0.  1.
         25    1    1    2    0    0 -0.66713414912E+02 -0.76178160898E+02 -0.44177307235E+02  0.16682453777E+03  0.12500000000E+03 0.  0.
         25    1    1    2    0    0  0.66713414912E+02  0.76178160898E+02 -0.65312273226E+02  0.17362167192E+03  0.12500000000E+03 0.  0.
</event>
