<event>
 5    0  0.5785631E-005  0.2845456E+03  0.7546771E-02  0.1093232E+00
         21   -1    0    0  502  501  0.00000000000E+00  0.00000000000E+00  0.33209380409E+03  0.33209380409E+03  0.00000000000E+00 0.  1.
         21   -1    0    0  501  502 -0.00000000000E+00 -0.00000000000E+00 -0.24380520890E+03  0.24380520890E+03  0.00000000000E+00 0.  1.
         25    1    1    2    0    0 -0.97356422159E+02  0.10667407545E+03  0.11672759745E+03  0.22384808088E+03  0.12500000000E+03 0.  0.
         25    1    1    2    0    0 -0.28924773304E+02 -0.10752381733E+03  0.18083248117E+02  0.16837463486E+03  0.12500000000E+03 0.  0.
         25    1    1    2    0    0  0.12628119546E+03  0.84974187927E+00 -0.46522250380E+02  0.18367629724E+03  0.12500000000E+03 0.  0.
</event>
<event>
 5    0  0.5510933E-005  0.3225658E+03  0.7546771E-02  0.1074474E+00
         21   -1    0    0  502  501  0.00000000000E+00  0.00000000000E+00  0.29015569445E+03  0.29015569445E+03  0.00000000000E+00 0.  1.
         21   -1    0    0  501  502 -0.00000000000E+00 -0.00000000000E+00 -0.35859606898E+03  0.35859606898E+03  0.00000000000E+00 0.  1.
         25    1    1    2    0    0  0.98179487498E+02 -0.41968081716E+02 -0.78783927733E+02  0.18229766569E+03  0.12500000000E+03 0.  0.
         25    1    1    2    0    0  0.25214640699E+02  0.19490182467E+03  0.16329931191E+02  0.23348268891E+03  0.12500000000E+03 0.  0.
         25    1    1    2    0    0 -0.12339412820E+03 -0.15293374296E+03 -0.59863779839E+01  0.23297140883E+03  0.12500000000E+03 0.  0.
</event>
<event>
 5    0  0.5510933E-005  0.3396294E+03  0.7546771E-02  0.1066954E+00
         21   -1    0    0  502  501  0.00000000000E+00  0.00000000000E+00  0.17713475676E+03  0.17713475676E+03  0.00000000000E+00 0.  1.
         21   -1    0    0  501  502 -0.00000000000E+00 -0.00000000000E+00 -0.65118848941E+03  0.65118848941E+03  0.00000000000E+00 0.  1.
         25    1    1    2    0    0 -0.18366380088E+03  0.42423622867E+02 -0.34332731944E+03  0.41113355957E+03  0.12500000000E+03 0.  0.
         25    1    1    2    0    0  0.13204727174E+03  0.35380475667E+02  0.36154872050E+02  0.18873376700E+03  0.12500000000E+03 0.  0.
         25    1    1    2    0    0  0.51616529133E+02 -0.77804098534E+02 -0.16688128526E+03  0.22845591959E+03  0.12500000000E+03 0.  0.
</event>
<event>
 5    0  0.5510933E-005  0.2958616E+03  0.7546771E-02  0.1087328E+00
         21   -1    0    0  502  501  0.00000000000E+00  0.00000000000E+00  0.86374632877E+02  0.86374632877E+02  0.00000000000E+00 0. -1.
         21   -1    0    0  501  502 -0.00000000000E+00 -0.00000000000E+00 -0.10134233233E+04  0.10134233233E+04  0.00000000000E+00 0. -1.
         25    1    1    2    0    0  0.13957677991E+03  0.74442335347E+01 -0.43811456967E+03  0.47655689089E+03  0.12500000000E+03 0.  0.
         25    1    1    2    0    0 -0.28216890055E+02  0.11191077722E+03 -0.29534823980E+03  0.34084570952E+03  0.12500000000E+03 0.  0.
         25    1    1    2    0    0 -0.11135988985E+03 -0.11935501075E+03 -0.19358588098E+03  0.28239535580E+03  0.12500000000E+03 0.  0.
</event>
<event>
 5    0  0.5510933E-005  0.2651023E+03  0.7546771E-02  0.1104116E+00
         21   -1    0    0  502  501  0.00000000000E+00  0.00000000000E+00  0.42487640756E+03  0.42487640756E+03  0.00000000000E+00 0.  1.
         21   -1    0    0  501  502 -0.00000000000E+00 -0.00000000000E+00 -0.16541104795E+03  0.16541104795E+03  0.00000000000E+00 0.  1.
         25    1    1    2    0    0  0.16212605555E+02 -0.17572869566E+02  0.67002711528E+02  0.14382634555E+03  0.12500000000E+03 0.  0.
         25    1    1    2    0    0  0.10035207533E+03  0.12082858845E+03  0.12094097476E+03  0.23435401892E+03  0.12500000000E+03 0.  0.
         25    1    1    2    0    0 -0.11656468089E+03 -0.10325571888E+03  0.71521673320E+02  0.21210709103E+03  0.12500000000E+03 0.  0.
</event>
<event>
 5    0  0.5510933E-005  0.3736736E+03  0.7546771E-02  0.1053297E+00
         21   -1    0    0  502  501  0.00000000000E+00  0.00000000000E+00  0.19485846828E+03  0.19485846828E+03  0.00000000000E+00 0. -1.
         21   -1    0    0  501  502 -0.00000000000E+00 -0.00000000000E+00 -0.71658128922E+03  0.71658128922E+03  0.00000000000E+00 0. -1.
         25    1    1    2    0    0 -0.15769850748E+02 -0.22913731390E+03 -0.44214978615E+02  0.26520286791E+03  0.12500000000E+03 0.  0.
         25    1    1    2    0    0 -0.44733494884E+02  0.23956170558E+03 -0.21174392931E+03  0.34619559204E+03  0.12500000000E+03 0.  0.
         25    1    1    2    0    0  0.60503345632E+02 -0.10424391682E+02 -0.26576391301E+03  0.30004129755E+03  0.12500000000E+03 0.  0.
</event>
<event>
 5    0  0.5510933E-005  0.4624391E+03  0.7546771E-02  0.1024076E+00
         21   -1    0    0  502  501  0.00000000000E+00  0.00000000000E+00  0.23769269861E+03  0.23769269861E+03  0.00000000000E+00 0.  1.
         21   -1    0    0  501  502 -0.00000000000E+00 -0.00000000000E+00 -0.89969079847E+03  0.89969079847E+03  0.00000000000E+00 0.  1.
         25    1    1    2    0    0  0.23324109604E+03 -0.59624342719E+02 -0.11291147516E+02  0.27149394310E+03  0.12500000000E+03 0.  0.
         25    1    1    2    0    0 -0.30835955552E+02  0.23988546766E+03 -0.29162465585E+03  0.39895592946E+03  0.12500000000E+03 0.  0.
         25    1    1    2    0    0 -0.20240514049E+03 -0.18026112494E+03 -0.35908229649E+03  0.46693362453E+03  0.12500000000E+03 0.  0.
</event>
<event>
 5    0  0.5510933E-005  0.2653350E+03  0.7546771E-02  0.1103980E+00
         21   -1    0    0  502  501  0.00000000000E+00  0.00000000000E+00  0.14348521383E+03  0.14348521383E+03  0.00000000000E+00 0. -1.
         21   -1    0    0  501  502 -0.00000000000E+00 -0.00000000000E+00 -0.49066153541E+03  0.49066153541E+03  0.00000000000E+00 0. -1.
         25    1    1    2    0    0 -0.23532588892E+02 -0.67683997154E+02 -0.22301868585E+03  0.26551316436E+03  0.12500000000E+03 0.  0.
         25    1    1    2    0    0  0.14043920460E+02 -0.17830367714E+02 -0.16804671113E+03  0.21066525778E+03  0.12500000000E+03 0.  0.
         25    1    1    2    0    0  0.94886684321E+01  0.85514364868E+02  0.43889075391E+02  0.15796832710E+03  0.12500000000E+03 0.  0.
</event>
<event>
 5    0  0.5510933E-005  0.2134034E+03  0.7546771E-02  0.1138899E+00
         21   -1    0    0  502  501  0.00000000000E+00  0.00000000000E+00  0.10156486439E+03  0.10156486439E+03  0.00000000000E+00 0. -1.
         21   -1    0    0  501  502 -0.00000000000E+00 -0.00000000000E+00 -0.44839350093E+03  0.44839350093E+03  0.00000000000E+00 0. -1.
         25    1    1    2    0    0  0.24268254468E+02 -0.20628570216E+02 -0.51510029956E+02  0.13889841349E+03  0.12500000000E+03 0.  0.
         25    1    1    2    0    0 -0.25070219377E+02  0.65519771242E+02 -0.99666479647E+02  0.17458454539E+03  0.12500000000E+03 0.  0.
         25    1    1    2    0    0  0.80196490912E+00 -0.44891201026E+02 -0.19565212694E+03  0.23647540644E+03  0.12500000000E+03 0.  0.
</event>
<event>
 5    0  0.5510933E-005  0.3719858E+03  0.7546771E-02  0.1053936E+00
         21   -1    0    0  502  501  0.00000000000E+00  0.00000000000E+00  0.14104307312E+03  0.14104307312E+03  0.00000000000E+00 0.  1.
         21   -1    0    0  501  502 -0.00000000000E+00 -0.00000000000E+00 -0.98107215661E+03  0.98107215661E+03  0.00000000000E+00 0.  1.
         25    1    1    2    0    0 -0.17620337348E+03  0.44689757221E+02 -0.20013147832E+03  0.29786307566E+03  0.12500000000E+03 0.  0.
         25    1    1    2    0    0  0.15921263746E+03  0.11826723672E+03 -0.55292441687E+03  0.60057157274E+03  0.12500000000E+03 0.  0.
         25    1    1    2    0    0  0.16990736017E+02 -0.16295699394E+03 -0.86973188296E+02  0.22368058134E+03  0.12500000000E+03 0.  0.
</event>
<event>
 5    0  0.5510933E-005  0.2449518E+03  0.7546771E-02  0.1116537E+00
         21   -1    0    0  502  501  0.00000000000E+00  0.00000000000E+00  0.20529667015E+03  0.20529667015E+03  0.00000000000E+00 0.  1.
         21   -1    0    0  501  502 -0.00000000000E+00 -0.00000000000E+00 -0.29226674497E+03  0.29226674497E+03  0.00000000000E+00 0.  1.
         25    1    1    2    0    0  0.11736413027E+02  0.53299317871E+02 -0.17423439793E+03  0.22127174718E+03  0.12500000000E+03 0.  0.
         25    1    1    2    0    0  0.13571141514E+02 -0.45291239034E+02  0.54822245308E+02  0.14445051331E+03  0.12500000000E+03 0.  0.
         25    1    1    2    0    0 -0.25307554541E+02 -0.80080788369E+01  0.32442077808E+02  0.13184115464E+03  0.12500000000E+03 0.  0.
</event>
<event>
 5    0  0.5510933E-005  0.3724718E+03  0.7546771E-02  0.1053752E+00
         21   -1    0    0  502  501  0.00000000000E+00  0.00000000000E+00  0.24202238509E+03  0.24202238509E+03  0.00000000000E+00 0.  1.
         21   -1    0    0  501  502 -0.00000000000E+00 -0.00000000000E+00 -0.57323310177E+03  0.57323310177E+03  0.00000000000E+00 0.  1.
         25    1    1    2    0    0  0.97179713771E+02  0.91034409753E+02 -0.60614598941E+02  0.19243255996E+03  0.12500000000E+03 0.  0.
         25    1    1    2    0    0 -0.50840515657E+02 -0.24953542991E+03 -0.20556589666E+01  0.28369334596E+03  0.12500000000E+03 0.  0.
         25    1    1    2    0    0 -0.46339198114E+02  0.15850102015E+03 -0.26854045877E+03  0.33912958094E+03  0.12500000000E+03 0.  0.
</event>
<event>
 5    0  0.5917413E-005  0.5596844E+03  0.7546771E-02  0.9992769E-01
         21   -1    0    0  502  501  0.00000000000E+00  0.00000000000E+00  0.13908005428E+04  0.13908005428E+04  0.00000000000E+00 0.  1.
         21   -1    0    0  501  502 -0.00000000000E+00 -0.00000000000E+00 -0.22522753919E+03  0.22522753919E+03  0.00000000000E+00 0.  1.
         25    1    1    2    0    0  0.39730562514E+03 -0.97802881877E+02  0.33798914743E+03  0.54523281930E+03  0.12500000000E+03 0.  0.
         25    1    1    2    0    0 -0.24647104698E+03  0.91265152343E+02  0.82493673998E+03  0.87477021554E+03  0.12500000000E+03 0.  0.
         25    1    1    2    0    0 -0.15083457815E+03  0.65377295338E+01  0.26471161781E+01  0.19602504712E+03  0.12500000000E+03 0.  0.
</event>
<event>
 5    0  0.5510933E-005  0.2965869E+03  0.7546771E-02  0.1086959E+00
         21   -1    0    0  502  501  0.00000000000E+00  0.00000000000E+00  0.38777837014E+03  0.38777837014E+03  0.00000000000E+00 0.  1.
         21   -1    0    0  501  502 -0.00000000000E+00 -0.00000000000E+00 -0.22684038207E+03  0.22684038207E+03  0.00000000000E+00 0.  1.
         25    1    1    2    0    0 -0.14226036122E+03  0.11193117410E+03  0.12228658298E+02  0.22032053512E+03  0.12500000000E+03 0.  0.
         25    1    1    2    0    0  0.33943868235E+02  0.44953778561E+02  0.60422154651E+02  0.14982945361E+03  0.12500000000E+03 0.  0.
         25    1    1    2    0    0  0.10831649299E+03 -0.15688495266E+03  0.88287175120E+02  0.24446876347E+03  0.12500000000E+03 0.  0.
</event>
<event>
 5    0  0.5510933E-005  0.2389245E+03  0.7546771E-02  0.1120511E+00
         21   -1    0    0  502  501  0.00000000000E+00  0.00000000000E+00  0.11756084268E+03  0.11756084268E+03  0.00000000000E+00 0.  1.
         21   -1    0    0  501  502 -0.00000000000E+00 -0.00000000000E+00 -0.48557763648E+03  0.48557763648E+03  0.00000000000E+00 0.  1.
         25    1    1    2    0    0 -0.20551576815E+02  0.21367930823E+01 -0.31795927580E+02  0.13062509026E+03  0.12500000000E+03 0.  0.
         25    1    1    2    0    0  0.22790017188E+02 -0.11397633458E+02 -0.15928382372E+02  0.12856128615E+03  0.12500000000E+03 0.  0.
         25    1    1    2    0    0 -0.22384403729E+01  0.92608403762E+01 -0.32029248384E+03  0.34395210275E+03  0.12500000000E+03 0.  0.
</event>
<event>
 5    0  0.5510933E-005  0.2522126E+03  0.7546771E-02  0.1111914E+00
         21   -1    0    0  502  501  0.00000000000E+00  0.00000000000E+00  0.30469980010E+02  0.30469980010E+02  0.00000000000E+00 0. -1.
         21   -1    0    0  501  502 -0.00000000000E+00 -0.00000000000E+00 -0.20876677595E+04  0.20876677595E+04  0.00000000000E+00 0. -1.
         25    1    1    2    0    0 -0.23112181972E+02 -0.13612978712E+03 -0.57900402358E+03  0.60822376739E+03  0.12500000000E+03 0.  0.
         25    1    1    2    0    0  0.25559358464E+02  0.13081292466E+03 -0.87463588019E+03  0.89352013127E+03  0.12500000000E+03 0.  0.
         25    1    1    2    0    0 -0.24471764917E+01  0.53168624602E+01 -0.60355787572E+03  0.61639384086E+03  0.12500000000E+03 0.  0.
</event>
<event>
 5    0  0.5510933E-005  0.2263873E+03  0.7546771E-02  0.1129209E+00
         21   -1    0    0  502  501  0.00000000000E+00  0.00000000000E+00  0.20612911867E+03  0.20612911867E+03  0.00000000000E+00 0. -1.
         21   -1    0    0  501  502 -0.00000000000E+00 -0.00000000000E+00 -0.24863651567E+03  0.24863651567E+03  0.00000000000E+00 0. -1.
         25    1    1    2    0    0  0.56931498312E+02 -0.66454119268E+02 -0.91935082285E+02  0.17814153031E+03  0.12500000000E+03 0.  0.
         25    1    1    2    0    0  0.19897295660E+01  0.22552712334E+02  0.27539155939E+02  0.12998457204E+03  0.12500000000E+03 0.  0.
         25    1    1    2    0    0 -0.58921227878E+02  0.43901406933E+02  0.21888529354E+02  0.14663953199E+03  0.12500000000E+03 0.  0.
</event>
<event>
 5    0  0.5510933E-005  0.3241362E+03  0.7546771E-02  0.1073761E+00
         21   -1    0    0  502  501  0.00000000000E+00  0.00000000000E+00  0.80137477407E+03  0.80137477407E+03  0.00000000000E+00 0. -1.
         21   -1    0    0  501  502 -0.00000000000E+00 -0.00000000000E+00 -0.13110501856E+03  0.13110501856E+03  0.00000000000E+00 0.  1.
         25    1    1    2    0    0  0.11736592747E+03  0.15593989593E+03  0.28276661684E+03  0.36561451239E+03  0.12500000000E+03 0.  0.
         25    1    1    2    0    0 -0.19200622699E+02 -0.18781069377E+02  0.19585483601E+01  0.12786801160E+03  0.12500000000E+03 0.  0.
         25    1    1    2    0    0 -0.98165304766E+02 -0.13715882655E+03  0.38554459031E+03  0.43899726864E+03  0.12500000000E+03 0.  0.
</event>
<event>
 5    0  0.5510933E-005  0.2063008E+03  0.7546771E-02  0.1144529E+00
         21   -1    0    0  502  501  0.00000000000E+00  0.00000000000E+00  0.11598028214E+04  0.11598028214E+04  0.00000000000E+00 0. -1.
         21   -1    0    0  501  502 -0.00000000000E+00 -0.00000000000E+00 -0.36695920615E+02  0.36695920615E+02  0.00000000000E+00 0. -1.
         25    1    1    2    0    0 -0.22229022912E+02 -0.19500276949E+02  0.29210682096E+03  0.31910152790E+03  0.12500000000E+03 0.  0.
         25    1    1    2    0    0  0.63445072720E+01  0.65485414060E+02  0.33462815789E+03  0.36322113963E+03  0.12500000000E+03 0.  0.
         25    1    1    2    0    0  0.15884515640E+02 -0.45985137111E+02  0.49637192193E+03  0.51417607447E+03  0.12500000000E+03 0.  0.
</event>
<event>
 5    0  0.5510933E-005  0.3445135E+03  0.7546771E-02  0.1064890E+00
         21   -1    0    0  502  501  0.00000000000E+00  0.00000000000E+00  0.24504924666E+03  0.24504924666E+03  0.00000000000E+00 0. -1.
         21   -1    0    0  501  502 -0.00000000000E+00 -0.00000000000E+00 -0.48434993080E+03  0.48434993080E+03  0.00000000000E+00 0. -1.
         25    1    1    2    0    0  0.12951180239E+03 -0.36731952280E+02 -0.31291057314E+03  0.36285061673E+03  0.12500000000E+03 0.  0.
         25    1    1    2    0    0 -0.10698077392E+03 -0.28460774440E+02 -0.53562509079E+02  0.17535348314E+03  0.12500000000E+03 0.  0.
         25    1    1    2    0    0 -0.22531028475E+02  0.65192726720E+02  0.12717239808E+03  0.19119507759E+03  0.12500000000E+03 0.  0.
</event>
<event>
 5    0  0.5510933E-005  0.3035547E+03  0.7546771E-02  0.1083477E+00
         21   -1    0    0  502  501  0.00000000000E+00  0.00000000000E+00  0.75357186575E+02  0.75357186575E+02  0.00000000000E+00 0. -1.
         21   -1    0    0  501  502 -0.00000000000E+00 -0.00000000000E+00 -0.12227823077E+04  0.12227823077E+04  0.00000000000E+00 0. -1.
         25    1    1    2    0    0  0.11735226574E+03 -0.60498888075E+02 -0.72530808825E+03  0.74774895026E+03  0.12500000000E+03 0.  0.
         25    1    1    2    0    0 -0.87479182807E+02  0.32245300103E+02 -0.63464533529E+02  0.16836007193E+03  0.12500000000E+03 0.  0.
         25    1    1    2    0    0 -0.29873082928E+02  0.28253587973E+02 -0.35865249933E+03  0.38203047207E+03  0.12500000000E+03 0.  0.
</event>
<event>
 5    0  0.6055832E-005  0.3788102E+03  0.7546771E-02  0.1051374E+00
         21   -1    0    0  502  501  0.00000000000E+00  0.00000000000E+00  0.12650097037E+04  0.12650097037E+04  0.00000000000E+00 0.  1.
         21   -1    0    0  501  502 -0.00000000000E+00 -0.00000000000E+00 -0.11343564580E+03  0.11343564580E+03  0.00000000000E+00 0.  1.
         25    1    1    2    0    0  0.24012384502E+02 -0.44367241706E+01  0.66612927194E+03  0.67819575792E+03  0.12500000000E+03 0.  0.
         25    1    1    2    0    0 -0.70304652642E+00  0.20469634842E+03  0.35813096827E+03  0.43102654183E+03  0.12500000000E+03 0.  0.
         25    1    1    2    0    0 -0.23309337975E+02 -0.20025962425E+03  0.12731381771E+03  0.26922304976E+03  0.12500000000E+03 0.  0.
</event>
<event>
 5    0  0.5510933E-005  0.2735766E+03  0.7546771E-02  0.1099250E+00
         21   -1    0    0  502  501  0.00000000000E+00  0.00000000000E+00  0.21578163154E+03  0.21578163154E+03  0.00000000000E+00 0.  1.
         21   -1    0    0  501  502 -0.00000000000E+00 -0.00000000000E+00 -0.34685129754E+03  0.34685129754E+03  0.00000000000E+00 0.  1.
         25    1    1    2    0    0  0.90272612480E+02  0.11226689191E+02  0.95343525637E+02  0.18163306691E+03  0.12500000000E+03 0.  0.
         25    1    1    2    0    0  0.27712827676E+02 -0.21393761978E+02 -0.12973783334E+03  0.18352819748E+03  0.12500000000E+03 0.  0.
         25    1    1    2    0    0 -0.11798544016E+03  0.10167072787E+02 -0.96675358297E+02  0.19747166470E+03  0.12500000000E+03 0.  0.
</event>
<event>
 5    0  0.5510933E-005  0.2293788E+03  0.7546771E-02  0.1127078E+00
         21   -1    0    0  502  501  0.00000000000E+00  0.00000000000E+00  0.51917913204E+03  0.51917913204E+03  0.00000000000E+00 0. -1.
         21   -1    0    0  501  502 -0.00000000000E+00 -0.00000000000E+00 -0.10134199274E+03  0.10134199274E+03  0.00000000000E+00 0. -1.
         25    1    1    2    0    0 -0.88628434677E+01  0.75978108812E+01  0.21248953696E+03  0.24680575366E+03  0.12500000000E+03 0.  0.
         25    1    1    2    0    0 -0.31490385432E+02 -0.17565924635E+02  0.20403091586E+03  0.24197896749E+03  0.12500000000E+03 0.  0.
         25    1    1    2    0    0  0.40353228900E+02  0.99681137537E+01  0.13166864850E+01  0.13173640362E+03  0.12500000000E+03 0.  0.
</event>
<event>
 5    0  0.5510933E-005  0.4509550E+03  0.7546771E-02  0.1027438E+00
         21   -1    0    0  502  501  0.00000000000E+00  0.00000000000E+00  0.52325673776E+03  0.52325673776E+03  0.00000000000E+00 0. -1.
         21   -1    0    0  501  502 -0.00000000000E+00 -0.00000000000E+00 -0.38864361122E+03  0.38864361122E+03  0.00000000000E+00 0. -1.
         25    1    1    2    0    0 -0.31108200767E+03  0.55560119787E+02 -0.14144100574E+03  0.36808898450E+03  0.12500000000E+03 0.  0.
         25    1    1    2    0    0  0.91685285636E+02  0.29618120548E+02  0.22121010055E+03  0.27173945840E+03  0.12500000000E+03 0.  0.
         25    1    1    2    0    0  0.21939672203E+03 -0.85178240335E+02  0.54844031728E+02  0.27207190608E+03  0.12500000000E+03 0.  0.
</event>
<event>
 5    0  0.5510933E-005  0.3494931E+03  0.7546771E-02  0.1062823E+00
         21   -1    0    0  502  501  0.00000000000E+00  0.00000000000E+00  0.19210562328E+04  0.19210562328E+04  0.00000000000E+00 0. -1.
         21   -1    0    0  501  502 -0.00000000000E+00 -0.00000000000E+00 -0.63582439724E+02  0.63582439724E+02  0.00000000000E+00 0. -1.
         25    1    1    2    0    0 -0.40155647525E+01 -0.44197616401E+02  0.10354569066E+04  0.10439183682E+04  0.12500000000E+03 0.  0.
         25    1    1    2    0    0 -0.46283800205E+02 -0.38661695016E+02  0.42256263659E+02  0.14507759524E+03  0.12500000000E+03 0.  0.
         25    1    1    2    0    0  0.50299364958E+02  0.82859311417E+02  0.77976062278E+03  0.79564270904E+03  0.12500000000E+03 0.  0.
</event>
<event>
 5    0  0.5510933E-005  0.3895974E+03  0.7546771E-02  0.1047442E+00
         21   -1    0    0  502  501  0.00000000000E+00  0.00000000000E+00  0.31461802116E+03  0.31461802116E+03  0.00000000000E+00 0.  1.
         21   -1    0    0  501  502 -0.00000000000E+00 -0.00000000000E+00 -0.48244570427E+03  0.48244570427E+03  0.00000000000E+00 0.  1.
         25    1    1    2    0    0  0.14154813300E+03 -0.93856071235E+02 -0.14144547632E+03  0.25392254495E+03  0.12500000000E+03 0.  0.
         25    1    1    2    0    0 -0.29510808749E+03  0.10459995436E+03 -0.58789405987E+02  0.34221503183E+03  0.12500000000E+03 0.  0.
         25    1    1    2    0    0  0.15355995449E+03 -0.10743883126E+02  0.32407199202E+02  0.20092614864E+03  0.12500000000E+03 0.  0.
</event>
<event>
 5    0  0.5510933E-005  0.2706009E+03  0.7546771E-02  0.1100936E+00
         21   -1    0    0  502  501  0.00000000000E+00  0.00000000000E+00  0.11951228390E+04  0.11951228390E+04  0.00000000000E+00 0.  1.
         21   -1    0    0  501  502 -0.00000000000E+00 -0.00000000000E+00 -0.61269704388E+02  0.61269704388E+02  0.00000000000E+00 0.  1.
         25    1    1    2    0    0  0.13876731126E+02 -0.14716388681E+03  0.56313512645E+03  0.59547959150E+03  0.12500000000E+03 0.  0.
         25    1    1    2    0    0  0.49119348482E+02  0.53808402888E+02  0.15296297123E+03  0.21054862902E+03  0.12500000000E+03 0.  0.
         25    1    1    2    0    0 -0.62996079608E+02  0.93355483924E+02  0.41775503689E+03  0.45036432283E+03  0.12500000000E+03 0.  0.
</event>
<event>
 5    0  0.5510933E-005  0.2958779E+03  0.7546771E-02  0.1087320E+00
         21   -1    0    0  502  501  0.00000000000E+00  0.00000000000E+00  0.73426626515E+02  0.73426626515E+02  0.00000000000E+00 0.  1.
         21   -1    0    0  501  502 -0.00000000000E+00 -0.00000000000E+00 -0.11922614507E+04  0.11922614507E+04  0.00000000000E+00 0.  1.
         25    1    1    2    0    0  0.14113479101E+03  0.47275727686E+02 -0.26816177275E+03  0.33119444444E+03  0.12500000000E+03 0.  0.
         25    1    1    2    0    0 -0.10165268602E+03 -0.11021723552E+03 -0.25394503871E+03  0.32030327857E+03  0.12500000000E+03 0.  0.
         25    1    1    2    0    0 -0.39482104991E+02  0.62941507836E+02 -0.59672801271E+03  0.61419035419E+03  0.12500000000E+03 0.  0.
</event>
<event>
 5    0  0.5510933E-005  0.2461942E+03  0.7546771E-02  0.1115734E+00
         21   -1    0    0  502  501  0.00000000000E+00  0.00000000000E+00  0.84545345863E+02  0.84545345863E+02  0.00000000000E+00 0.  1.
         21   -1    0    0  501  502 -0.00000000000E+00 -0.00000000000E+00 -0.71691207758E+03  0.71691207758E+03  0.00000000000E+00 0.  1.
         25    1    1    2    0    0 -0.95376423531E+02  0.63107297308E+02 -0.39511860251E+03  0.42991034320E+03  0.12500000000E+03 0.  0.
         25    1    1    2    0    0  0.61687328594E+02 -0.15123822805E+02 -0.76777043262E+02  0.15985546878E+03  0.12500000000E+03 0.  0.
         25    1    1    2    0    0  0.33689094937E+02 -0.47983474504E+02 -0.16047108595E+03  0.21169161147E+03  0.12500000000E+03 0.  0.
</event>
<event>
 5    0  0.5510933E-005  0.3066741E+03  0.7546771E-02  0.1081951E+00
         21   -1    0    0  502  501  0.00000000000E+00  0.00000000000E+00  0.24813054667E+03  0.24813054667E+03  0.00000000000E+00 0.  1.
         21   -1    0    0  501  502 -0.00000000000E+00 -0.00000000000E+00 -0.37903027402E+03  0.37903027402E+03  0.00000000000E+00 0.  1.
         25    1    1    2    0    0 -0.10821102041E+03 -0.13122448418E+03 -0.40917710205E+02  0.21500871888E+03  0.12500000000E+03 0.  0.
         25    1    1    2    0    0 -0.82170621918E+02  0.74807843160E+02 -0.29308181820E+02  0.16980045355E+03  0.12500000000E+03 0.  0.
         25    1    1    2    0    0  0.19038164233E+03  0.56416641017E+02 -0.60673835320E+02  0.24235164825E+03  0.12500000000E+03 0.  0.
</event>
<event>
 5    0  0.5510933E-005  0.2583552E+03  0.7546771E-02  0.1108136E+00
         21   -1    0    0  502  501  0.00000000000E+00  0.00000000000E+00  0.10845934356E+03  0.10845934356E+03  0.00000000000E+00 0.  1.
         21   -1    0    0  501  502 -0.00000000000E+00 -0.00000000000E+00 -0.61541407859E+03  0.61541407859E+03  0.00000000000E+00 0.  1.
         25    1    1    2    0    0  0.88681263248E+02 -0.19077067494E+02 -0.23973773973E+02  0.15629473054E+03  0.12500000000E+03 0.  0.
         25    1    1    2    0    0 -0.33269078351E+02  0.60275405244E+02 -0.15975118432E+03  0.21420876953E+03  0.12500000000E+03 0.  0.
         25    1    1    2    0    0 -0.55412184897E+02 -0.41198337750E+02 -0.32322977673E+03  0.35336992208E+03  0.12500000000E+03 0.  0.
</event>
<event>
 5    0  0.5510933E-005  0.4317682E+03  0.7546771E-02  0.1033303E+00
         21   -1    0    0  502  501  0.00000000000E+00  0.00000000000E+00  0.46423691917E+03  0.46423691917E+03  0.00000000000E+00 0.  1.
         21   -1    0    0  501  502 -0.00000000000E+00 -0.00000000000E+00 -0.40157038901E+03  0.40157038901E+03  0.00000000000E+00 0.  1.
         25    1    1    2    0    0 -0.21086272775E+02  0.11938503427E+03  0.13416635268E+03  0.21982499289E+03  0.12500000000E+03 0.  0.
         25    1    1    2    0    0  0.21938062721E+03 -0.25506549404E+03 -0.10280920351E+03  0.37333764634E+03  0.12500000000E+03 0.  0.
         25    1    1    2    0    0 -0.19829435443E+03  0.13568045978E+03  0.31309380988E+02  0.27264466894E+03  0.12500000000E+03 0.  0.
</event>
<event>
 5    0  0.5510933E-005  0.3780868E+03  0.7546771E-02  0.1051643E+00
         21   -1    0    0  502  501  0.00000000000E+00  0.00000000000E+00  0.63808714333E+02  0.63808714333E+02  0.00000000000E+00 0.  1.
         21   -1    0    0  501  502 -0.00000000000E+00 -0.00000000000E+00 -0.22402834551E+04  0.22402834551E+04  0.00000000000E+00 0.  1.
         25    1    1    2    0    0 -0.42756744054E+02  0.11290639378E+03 -0.71384374193E+03  0.73469305210E+03  0.12500000000E+03 0.  0.
         25    1    1    2    0    0 -0.20559593126E+03 -0.17622956165E+02 -0.93294867093E+03  0.96363814688E+03  0.12500000000E+03 0.  0.
         25    1    1    2    0    0  0.24835267531E+03 -0.95283437610E+02 -0.52968232788E+03  0.60576097042E+03  0.12500000000E+03 0.  0.
</event>
<event>
 5    0  0.5510933E-005  0.3187887E+03  0.7546771E-02  0.1076208E+00
         21   -1    0    0  502  501  0.00000000000E+00  0.00000000000E+00  0.48664060663E+02  0.48664060663E+02  0.00000000000E+00 0.  1.
         21   -1    0    0  501  502 -0.00000000000E+00 -0.00000000000E+00 -0.20883226168E+04  0.20883226168E+04  0.00000000000E+00 0.  1.
         25    1    1    2    0    0  0.10008232754E+03 -0.69901501964E+02 -0.10347932838E+04  0.10494402472E+04  0.12500000000E+03 0.  0.
         25    1    1    2    0    0 -0.19242195662E+03  0.49914662736E+02 -0.77159978473E+03  0.80654132612E+03  0.12500000000E+03 0.  0.
         25    1    1    2    0    0  0.92339629087E+02  0.19986839228E+02 -0.23326548762E+03  0.28100510415E+03  0.12500000000E+03 0.  0.
</event>
<event>
 5    0  0.5510933E-005  0.2412132E+03  0.7546771E-02  0.1118987E+00
         21   -1    0    0  502  501  0.00000000000E+00  0.00000000000E+00  0.29673218828E+03  0.29673218828E+03  0.00000000000E+00 0. -1.
         21   -1    0    0  501  502 -0.00000000000E+00 -0.00000000000E+00 -0.19608185973E+03  0.19608185973E+03  0.00000000000E+00 0. -1.
         25    1    1    2    0    0 -0.15942349427E+02  0.75540518179E+02  0.87297664534E+01  0.14717926897E+03  0.12500000000E+03 0.  0.
         25    1    1    2    0    0  0.41925043490E+02 -0.13713078198E+03  0.67157304967E+02  0.20173662099E+03  0.12500000000E+03 0.  0.
         25    1    1    2    0    0 -0.25982694063E+02  0.61590263805E+02  0.24763257127E+02  0.14389815805E+03  0.12500000000E+03 0.  0.
</event>
<event>
 5    0  0.5510933E-005  0.2576257E+03  0.7546771E-02  0.1108578E+00
         21   -1    0    0  502  501  0.00000000000E+00  0.00000000000E+00  0.93235026641E+02  0.93235026641E+02  0.00000000000E+00 0.  1.
         21   -1    0    0  501  502 -0.00000000000E+00 -0.00000000000E+00 -0.71186782063E+03  0.71186782063E+03  0.00000000000E+00 0.  1.
         25    1    1    2    0    0 -0.17582074480E+02 -0.36687537063E+02 -0.11568765528E+03  0.17511064589E+03  0.12500000000E+03 0.  0.
         25    1    1    2    0    0 -0.13182116287E+03  0.32477435689E+02 -0.24552718359E+03  0.30714849941E+03  0.12500000000E+03 0.  0.
         25    1    1    2    0    0  0.14940323735E+03  0.42101013739E+01 -0.25741795512E+03  0.32284370197E+03  0.12500000000E+03 0.  0.
</event>
<event>
 5    0  0.5510933E-005  0.2739766E+03  0.7546771E-02  0.1099025E+00
         21   -1    0    0  502  501  0.00000000000E+00  0.00000000000E+00  0.59308779714E+03  0.59308779714E+03  0.00000000000E+00 0.  1.
         21   -1    0    0  501  502 -0.00000000000E+00 -0.00000000000E+00 -0.12656332312E+03  0.12656332312E+03  0.00000000000E+00 0.  1.
         25    1    1    2    0    0 -0.13231597228E+03  0.34229126282E+02  0.26606762662E+03  0.32418533518E+03  0.12500000000E+03 0.  0.
         25    1    1    2    0    0  0.10195648187E+03 -0.10136946717E+03  0.79017218731E+02  0.20625133679E+03  0.12500000000E+03 0.  0.
         25    1    1    2    0    0  0.30359490410E+02  0.67140340893E+02  0.12143962867E+03  0.18921444829E+03  0.12500000000E+03 0.  0.
</event>
<event>
 5    0  0.5510933E-005  0.2778320E+03  0.7546771E-02  0.1096879E+00
         21   -1    0    0  502  501  0.00000000000E+00  0.00000000000E+00  0.25825740327E+03  0.25825740327E+03  0.00000000000E+00 0.  1.
         21   -1    0    0  501  502 -0.00000000000E+00 -0.00000000000E+00 -0.29889033556E+03  0.29889033556E+03  0.00000000000E+00 0.  1.
         25    1    1    2    0    0 -0.72969461760E+02  0.59280044174E+02  0.30286076382E+02  0.15931388015E+03  0.12500000000E+03 0.  0.
         25    1    1    2    0    0 -0.51072045241E+02 -0.23721677971E+02 -0.14853037887E+03  0.20213199959E+03  0.12500000000E+03 0.  0.
         25    1    1    2    0    0  0.12404150700E+03 -0.35558366203E+02  0.77611370194E+02  0.19570185909E+03  0.12500000000E+03 0.  0.
</event>
<event>
 5    0  0.5510933E-005  0.4704806E+03  0.7546771E-02  0.1021785E+00
         21   -1    0    0  502  501  0.00000000000E+00  0.00000000000E+00  0.10137865518E+03  0.10137865518E+03  0.00000000000E+00 0. -1.
         21   -1    0    0  501  502 -0.00000000000E+00 -0.00000000000E+00 -0.21834183605E+04  0.21834183605E+04  0.00000000000E+00 0. -1.
         25    1    1    2    0    0 -0.29799279114E+03 -0.16120646381E+03 -0.97356945052E+03  0.10383880308E+04  0.12500000000E+03 0.  0.
         25    1    1    2    0    0  0.25352992282E+03 -0.37157600289E+02 -0.84071013628E+03  0.88773680912E+03  0.12500000000E+03 0.  0.
         25    1    1    2    0    0  0.44462868323E+02  0.19836406410E+03 -0.26776011851E+03  0.35867217574E+03  0.12500000000E+03 0.  0.
</event>
<event>
 5    0  0.5510933E-005  0.3067531E+03  0.7546771E-02  0.1081913E+00
         21   -1    0    0  502  501  0.00000000000E+00  0.00000000000E+00  0.11535382013E+04  0.11535382013E+04  0.00000000000E+00 0. -1.
         21   -1    0    0  501  502 -0.00000000000E+00 -0.00000000000E+00 -0.81572929575E+02  0.81572929575E+02  0.00000000000E+00 0. -1.
         25    1    1    2    0    0 -0.77358744667E+02 -0.14372371784E+03  0.44488368170E+03  0.49008914769E+03  0.12500000000E+03 0.  0.
         25    1    1    2    0    0 -0.41391470621E+02  0.12378809642E+03  0.14204256175E+03  0.22986482115E+03  0.12500000000E+03 0.  0.
         25    1    1    2    0    0  0.11875021529E+03  0.19935621425E+02  0.48503902823E+03  0.51515716198E+03  0.12500000000E+03 0.  0.
</event>
<event>
 5    0  0.5510933E-005  0.3785257E+03  0.7546771E-02  0.1051480E+00
         21   -1    0    0  502  501  0.00000000000E+00  0.00000000000E+00  0.33695363690E+03  0.33695363690E+03  0.00000000000E+00 0. -1.
         21   -1    0    0  501  502 -0.00000000000E+00 -0.00000000000E+00 -0.42522672856E+03  0.42522672856E+03  0.00000000000E+00 0. -1.
         25    1    1    2    0    0 -0.58753871992E+02  0.21366885521E+03  0.88018521270E+02  0.26921860494E+03  0.12500000000E+03 0.  0.
         25    1    1    2    0    0  0.35662594844E+02 -0.24794834282E+03 -0.90305140580E+01  0.28010132374E+03  0.12500000000E+03 0.  0.
         25    1    1    2    0    0  0.23091277149E+02  0.34279487606E+02 -0.16726109887E+03  0.21286043678E+03  0.12500000000E+03 0.  0.
</event>
<event>
 5    0  0.5510933E-005  0.3131461E+03  0.7546771E-02  0.1078848E+00
         21   -1    0    0  502  501  0.00000000000E+00  0.00000000000E+00  0.69033476263E+03  0.69033476263E+03  0.00000000000E+00 0.  1.
         21   -1    0    0  501  502 -0.00000000000E+00 -0.00000000000E+00 -0.14204773459E+03  0.14204773459E+03  0.00000000000E+00 0.  1.
         25    1    1    2    0    0 -0.68554644329E+02  0.14625585706E+03  0.25407458539E+03  0.32598989237E+03  0.12500000000E+03 0.  0.
         25    1    1    2    0    0  0.17472218573E+03 -0.76488509974E+02  0.20696857492E+03  0.30795994115E+03  0.12500000000E+03 0.  0.
         25    1    1    2    0    0 -0.10616754140E+03 -0.69767347091E+02  0.87243867723E+02  0.19843266370E+03  0.12500000000E+03 0.  0.
</event>
<event>
 5    0  0.5510933E-005  0.4978790E+03  0.7546771E-02  0.1014334E+00
         21   -1    0    0  502  501  0.00000000000E+00  0.00000000000E+00  0.43791832926E+03  0.43791832926E+03  0.00000000000E+00 0.  1.
         21   -1    0    0  501  502 -0.00000000000E+00 -0.00000000000E+00 -0.56604949940E+03  0.56604949940E+03  0.00000000000E+00 0.  1.
         25    1    1    2    0    0  0.16563844592E+02  0.33757303046E+03 -0.16338576331E+02  0.36072407865E+03  0.12500000000E+03 0.  0.
         25    1    1    2    0    0 -0.10294133218E+03  0.44988236855E+02  0.83466969483E+02  0.18765019137E+03  0.12500000000E+03 0.  0.
         25    1    1    2    0    0  0.86377487583E+02 -0.38256126732E+03 -0.19525956330E+03  0.45559355864E+03  0.12500000000E+03 0.  0.
</event>
<event>
 5    0  0.5510933E-005  0.3074247E+03  0.7546771E-02  0.1081587E+00
         21   -1    0    0  502  501  0.00000000000E+00  0.00000000000E+00  0.65545688226E+03  0.65545688226E+03  0.00000000000E+00 0.  1.
         21   -1    0    0  501  502 -0.00000000000E+00 -0.00000000000E+00 -0.14418943325E+03  0.14418943325E+03  0.00000000000E+00 0.  1.
         25    1    1    2    0    0  0.57045148876E+02 -0.86543352353E+02  0.43288589765E+02  0.16805595155E+03  0.12500000000E+03 0.  0.
         25    1    1    2    0    0  0.78376458460E+00  0.11386308322E+03  0.46097074419E+03  0.49100350610E+03  0.12500000000E+03 0.  0.
         25    1    1    2    0    0 -0.57828913461E+02 -0.27319730862E+02  0.70081150487E+01  0.14058685786E+03  0.12500000000E+03 0.  0.
</event>
<event>
 5    0  0.5510933E-005  0.3346079E+03  0.7546771E-02  0.1069116E+00
         21   -1    0    0  502  501  0.00000000000E+00  0.00000000000E+00  0.49040216739E+03  0.49040216739E+03  0.00000000000E+00 0.  1.
         21   -1    0    0  501  502 -0.00000000000E+00 -0.00000000000E+00 -0.22830739585E+03  0.22830739585E+03  0.00000000000E+00 0.  1.
         25    1    1    2    0    0  0.14035657507E+03 -0.32175665228E+02  0.10919727953E+03  0.21973685957E+03  0.12500000000E+03 0.  0.
         25    1    1    2    0    0 -0.74137199868E+02  0.11101138330E+02  0.27479314104E+03  0.31105599181E+03  0.12500000000E+03 0.  0.
         25    1    1    2    0    0 -0.66219375201E+02  0.21074526898E+02 -0.12189564904E+03  0.18791671184E+03  0.12500000000E+03 0.  0.
</event>
<event>
 5    0  0.5510933E-005  0.2455328E+03  0.7546771E-02  0.1116161E+00
         21   -1    0    0  502  501  0.00000000000E+00  0.00000000000E+00  0.41776239784E+02  0.41776239784E+02  0.00000000000E+00 0.  1.
         21   -1    0    0  501  502 -0.00000000000E+00 -0.00000000000E+00 -0.14430772820E+04  0.14430772820E+04  0.00000000000E+00 0.  1.
         25    1    1    2    0    0  0.26220616922E+02 -0.37268217965E+02 -0.29904191910E+03  0.32730339167E+03  0.12500000000E+03 0.  0.
         25    1    1    2    0    0  0.33797656416E+02 -0.76549336081E+02 -0.71648816994E+03  0.73210817513E+03  0.12500000000E+03 0.  0.
         25    1    1    2    0    0 -0.60018273338E+02  0.11381755405E+03 -0.38577095323E+03  0.42544195503E+03  0.12500000000E+03 0.  0.
</event>
<event>
 5    0  0.5510933E-005  0.3527271E+03  0.7546771E-02  0.1061501E+00
         21   -1    0    0  502  501  0.00000000000E+00  0.00000000000E+00  0.84373814404E+02  0.84373814404E+02  0.00000000000E+00 0. -1.
         21   -1    0    0  501  502 -0.00000000000E+00 -0.00000000000E+00 -0.14745851598E+04  0.14745851598E+04  0.00000000000E+00 0. -1.
         25    1    1    2    0    0  0.17426950082E+03  0.11538683444E+03 -0.32842093588E+03  0.40886341436E+03  0.12500000000E+03 0.  0.
         25    1    1    2    0    0 -0.22018078042E+03 -0.15829484762E+03 -0.78691671914E+03  0.84166487256E+03  0.12500000000E+03 0.  0.
         25    1    1    2    0    0  0.45911279598E+02  0.42908013188E+02 -0.27487369034E+03  0.30843068724E+03  0.12500000000E+03 0.  0.
</event>
<event>
 5    0  0.5510933E-005  0.2547739E+03  0.7546771E-02  0.1110324E+00
         21   -1    0    0  502  501  0.00000000000E+00  0.00000000000E+00  0.13089247756E+04  0.13089247756E+04  0.00000000000E+00 0. -1.
         21   -1    0    0  501  502 -0.00000000000E+00 -0.00000000000E+00 -0.49590136462E+02  0.49590136462E+02  0.00000000000E+00 0. -1.
         25    1    1    2    0    0  0.27927019626E+02 -0.32556239675E+02  0.29575444113E+03  0.32393751961E+03  0.12500000000E+03 0.  0.
         25    1    1    2    0    0 -0.76488226251E+02  0.10503731488E+03  0.75501039948E+03  0.77624029114E+03  0.12500000000E+03 0.  0.
         25    1    1    2    0    0  0.48561206625E+02 -0.72481075206E+02  0.20856979854E+03  0.25833710132E+03  0.12500000000E+03 0.  0.
</event>
<event>
 5    0  0.5510933E-005  0.2858485E+03  0.7546771E-02  0.1092537E+00
         21   -1    0    0  502  501  0.00000000000E+00  0.00000000000E+00  0.61308990208E+03  0.61308990208E+03  0.00000000000E+00 0. -1.
         21   -1    0    0  501  502 -0.00000000000E+00 -0.00000000000E+00 -0.13327472554E+03  0.13327472554E+03  0.00000000000E+00 0. -1.
         25    1    1    2    0    0  0.11932767220E+03 -0.69928008505E+01  0.41615982228E+03  0.45066838174E+03  0.12500000000E+03 0.  0.
         25    1    1    2    0    0 -0.64036425536E+02  0.31680517325E+02  0.26660424798E+01  0.14400148178E+03  0.12500000000E+03 0.  0.
         25    1    1    2    0    0 -0.55291246668E+02 -0.24687716474E+02  0.60989311776E+02  0.15169476409E+03  0.12500000000E+03 0.  0.
</event>
<event>
 5    0  0.5510933E-005  0.3182535E+03  0.7546771E-02  0.1076456E+00
         21   -1    0    0  502  501  0.00000000000E+00  0.00000000000E+00  0.36004610983E+03  0.36004610983E+03  0.00000000000E+00 0.  1.
         21   -1    0    0  501  502 -0.00000000000E+00 -0.00000000000E+00 -0.28131202746E+03  0.28131202746E+03  0.00000000000E+00 0.  1.
         25    1    1    2    0    0  0.12124524953E+03  0.42730394687E+02  0.30715476791E+02  0.18191959124E+03  0.12500000000E+03 0.  0.
         25    1    1    2    0    0 -0.21020804942E+03  0.10480602366E+02  0.13038963976E+03  0.27735126686E+03  0.12500000000E+03 0.  0.
         25    1    1    2    0    0  0.88962799898E+02 -0.53210997053E+02 -0.82371034186E+02  0.18208727920E+03  0.12500000000E+03 0.  0.
</event>
<event>
 5    0  0.6263032E-005  0.3414414E+03  0.7546771E-02  0.1066184E+00
         21   -1    0    0  502  501  0.00000000000E+00  0.00000000000E+00  0.63993615476E+03  0.63993615476E+03  0.00000000000E+00 0. -1.
         21   -1    0    0  501  502 -0.00000000000E+00 -0.00000000000E+00 -0.18217787300E+03  0.18217787300E+03  0.00000000000E+00 0. -1.
         25    1    1    2    0    0 -0.70399175325E+02 -0.96870686815E+02  0.78391553847E+02  0.19002686538E+03  0.12500000000E+03 0.  0.
         25    1    1    2    0    0  0.37395533748E+02  0.55852398439E+02  0.45511712602E+03  0.47673316935E+03  0.12500000000E+03 0.  0.
         25    1    1    2    0    0  0.33003641577E+02  0.41018288376E+02 -0.75750398115E+02  0.15535399304E+03  0.12500000000E+03 0.  0.
</event>
<event>
 5    0  0.5510933E-005  0.4867046E+03  0.7546771E-02  0.1017309E+00
         21   -1    0    0  502  501  0.00000000000E+00  0.00000000000E+00  0.46507292699E+03  0.46507292699E+03  0.00000000000E+00 0.  1.
         21   -1    0    0  501  502 -0.00000000000E+00 -0.00000000000E+00 -0.50934248108E+03  0.50934248108E+03  0.00000000000E+00 0.  1.
         25    1    1    2    0    0  0.50516239290E+02 -0.47436141327E+02 -0.17560479384E+02  0.14399808461E+03  0.12500000000E+03 0.  0.
         25    1    1    2    0    0 -0.14374455254E+03  0.39574015244E+03  0.47125871489E+02  0.44172232500E+03  0.12500000000E+03 0.  0.
         25    1    1    2    0    0  0.93228313247E+02 -0.34830401111E+03 -0.73834946191E+02  0.38869499846E+03  0.12500000000E+03 0.  0.
</event>
<event>
 5    0  0.5672634E-005  0.4043453E+03  0.7546771E-02  0.1042285E+00
         21   -1    0    0  502  501  0.00000000000E+00  0.00000000000E+00  0.38936649823E+03  0.38936649823E+03  0.00000000000E+00 0.  1.
         21   -1    0    0  501  502 -0.00000000000E+00 -0.00000000000E+00 -0.41990028127E+03  0.41990028127E+03  0.00000000000E+00 0.  1.
         25    1    1    2    0    0  0.19404916693E+03  0.53099328296E+02  0.27565574787E+02  0.23845225678E+03  0.12500000000E+03 0.  0.
         25    1    1    2    0    0 -0.68605905561E+02 -0.33786692800E+01 -0.26070372443E+03  0.29716934165E+03  0.12500000000E+03 0.  0.
         25    1    1    2    0    0 -0.12544326137E+03 -0.49720659016E+02  0.20260436661E+03  0.27364518107E+03  0.12500000000E+03 0.  0.
</event>
<event>
 5    0  0.5510933E-005  0.4091192E+03  0.7546771E-02  0.1040667E+00
         21   -1    0    0  502  501  0.00000000000E+00  0.00000000000E+00  0.20951970536E+04  0.20951970536E+04  0.00000000000E+00 0. -1.
         21   -1    0    0  501  502 -0.00000000000E+00 -0.00000000000E+00 -0.79886782448E+02  0.79886782448E+02  0.00000000000E+00 0. -1.
         25    1    1    2    0    0 -0.17395443605E+03 -0.11814408953E+03  0.85722476861E+03  0.89144684398E+03  0.12500000000E+03 0.  0.
         25    1    1    2    0    0  0.20872361801E+03  0.25045009871E+03  0.58437842843E+03  0.68074514194E+03  0.12500000000E+03 0.  0.
         25    1    1    2    0    0 -0.34769181966E+02 -0.13230600918E+03  0.57370707415E+03  0.60289185018E+03  0.12500000000E+03 0.  0.
</event>
<event>
 5    0  0.5510933E-005  0.5980702E+03  0.7546771E-02  0.9909418E-01
         21   -1    0    0  502  501  0.00000000000E+00  0.00000000000E+00  0.27273592913E+03  0.27273592913E+03  0.00000000000E+00 0.  1.
         21   -1    0    0  501  502 -0.00000000000E+00 -0.00000000000E+00 -0.13114808747E+04  0.13114808747E+04  0.00000000000E+00 0.  1.
         25    1    1    2    0    0  0.35683614977E+03 -0.38021407618E+03 -0.35387221820E+03  0.64245258838E+03  0.12500000000E+03 0.  0.
         25    1    1    2    0    0 -0.36981539987E+03  0.31149135182E+03 -0.48759266265E+03  0.69796983954E+03  0.12500000000E+03 0.  0.
         25    1    1    2    0    0  0.12979250105E+02  0.68722724363E+02 -0.19728006468E+03  0.24379437585E+03  0.12500000000E+03 0.  0.
</event>
<event>
 5    0  0.5510933E-005  0.5361806E+03  0.7546771E-02  0.1004744E+00
         21   -1    0    0  502  501  0.00000000000E+00  0.00000000000E+00  0.10338735509E+04  0.10338735509E+04  0.00000000000E+00 0. -1.
         21   -1    0    0  501  502 -0.00000000000E+00 -0.00000000000E+00 -0.27807043129E+03  0.27807043129E+03  0.00000000000E+00 0. -1.
         25    1    1    2    0    0  0.60687766776E+02  0.16217404856E+03  0.11755954855E+03  0.24377997153E+03  0.12500000000E+03 0.  0.
         25    1    1    2    0    0 -0.41895318225E+03 -0.17102702523E+03  0.42247337782E+03  0.63157008103E+03  0.12500000000E+03 0.  0.
         25    1    1    2    0    0  0.35826541548E+03  0.88529766736E+01  0.21577019328E+03  0.43659392968E+03  0.12500000000E+03 0.  0.
</event>
<event>
 5    0  0.5510933E-005  0.4743296E+03  0.7546771E-02  0.1020705E+00
         21   -1    0    0  502  501  0.00000000000E+00  0.00000000000E+00  0.36487955325E+03  0.36487955325E+03  0.00000000000E+00 0.  1.
         21   -1    0    0  501  502 -0.00000000000E+00 -0.00000000000E+00 -0.61661043744E+03  0.61661043744E+03  0.00000000000E+00 0. -1.
         25    1    1    2    0    0  0.12288779629E+03  0.69654856031E+02 -0.25261933542E+03  0.31526931039E+03  0.12500000000E+03 0.  0.
         25    1    1    2    0    0 -0.35337356303E+02  0.26676590984E+03  0.58790589077E+01  0.29676984810E+03  0.12500000000E+03 0.  0.
         25    1    1    2    0    0 -0.87550439986E+02 -0.33642076587E+03 -0.49906076765E+01  0.36945083221E+03  0.12500000000E+03 0.  0.
</event>
<event>
 5    0  0.5510933E-005  0.2806502E+03  0.7546771E-02  0.1095334E+00
         21   -1    0    0  502  501  0.00000000000E+00  0.00000000000E+00  0.49709476281E+02  0.49709476281E+02  0.00000000000E+00 0.  1.
         21   -1    0    0  501  502 -0.00000000000E+00 -0.00000000000E+00 -0.15844968501E+04  0.15844968501E+04  0.00000000000E+00 0.  1.
         25    1    1    2    0    0  0.23564657310E+02 -0.11364421498E+03 -0.21796635505E+03  0.27677541908E+03  0.12500000000E+03 0.  0.
         25    1    1    2    0    0  0.73516884920E+00  0.36615872081E+02 -0.26661060556E+03  0.29672795210E+03  0.12500000000E+03 0.  0.
         25    1    1    2    0    0 -0.24299826159E+02  0.77028342896E+02 -0.10502104132E+04  0.10607029552E+04  0.12500000000E+03 0.  0.
</event>
<event>
 5    0  0.5510933E-005  0.2412735E+03  0.7546771E-02  0.1118947E+00
         21   -1    0    0  502  501  0.00000000000E+00  0.00000000000E+00  0.89506632670E+03  0.89506632670E+03  0.00000000000E+00 0.  1.
         21   -1    0    0  501  502 -0.00000000000E+00 -0.00000000000E+00 -0.65037521702E+02  0.65037521702E+02  0.00000000000E+00 0.  1.
         25    1    1    2    0    0  0.90502198106E+02  0.75678103098E+02  0.29746719217E+03  0.34355429494E+03  0.12500000000E+03 0.  0.
         25    1    1    2    0    0 -0.68028285295E+01 -0.52770522763E+00  0.33200527454E+03  0.35482257435E+03  0.12500000000E+03 0.  0.
         25    1    1    2    0    0 -0.83699369577E+02 -0.75150397871E+02  0.20055633828E+03  0.26172697911E+03  0.12500000000E+03 0.  0.
</event>
<event>
 5    0  0.5510933E-005  0.4473320E+03  0.7546771E-02  0.1028521E+00
         21   -1    0    0  502  501  0.00000000000E+00  0.00000000000E+00  0.32052007973E+03  0.32052007973E+03  0.00000000000E+00 0. -1.
         21   -1    0    0  501  502 -0.00000000000E+00 -0.00000000000E+00 -0.62431619010E+03  0.62431619010E+03  0.00000000000E+00 0.  1.
         25    1    1    2    0    0 -0.74291005635E+02  0.29779908080E+02 -0.13897144995E+03  0.20333238882E+03  0.12500000000E+03 0.  0.
         25    1    1    2    0    0  0.26466497937E+03 -0.17702357652E+03 -0.28465239458E+03  0.44501335225E+03  0.12500000000E+03 0.  0.
         25    1    1    2    0    0 -0.19037397373E+03  0.14724366844E+03  0.11982773415E+03  0.29649052876E+03  0.12500000000E+03 0.  0.
</event>
<event>
 5    0  0.5510933E-005  0.3223404E+03  0.7546771E-02  0.1074577E+00
         21   -1    0    0  502  501  0.00000000000E+00  0.00000000000E+00  0.26336158883E+03  0.26336158883E+03  0.00000000000E+00 0. -1.
         21   -1    0    0  501  502 -0.00000000000E+00 -0.00000000000E+00 -0.39452725023E+03  0.39452725023E+03  0.00000000000E+00 0. -1.
         25    1    1    2    0    0 -0.89135391064E+02 -0.94201985994E+02 -0.56265719257E+02  0.18870602340E+03  0.12500000000E+03 0.  0.
         25    1    1    2    0    0  0.39886753481E+02 -0.30922527780E+02  0.13468448539E+03  0.19055725238E+03  0.12500000000E+03 0.  0.
         25    1    1    2    0    0  0.49248637582E+02  0.12512451377E+03 -0.20958442753E+03  0.27862556328E+03  0.12500000000E+03 0.  0.
</event>
<event>
 5    0  0.5510933E-005  0.4623993E+03  0.7546771E-02  0.1024088E+00
         21   -1    0    0  502  501  0.00000000000E+00  0.00000000000E+00  0.11033381763E+03  0.11033381763E+03  0.00000000000E+00 0. -1.
         21   -1    0    0  501  502 -0.00000000000E+00 -0.00000000000E+00 -0.19378750011E+04  0.19378750011E+04  0.00000000000E+00 0. -1.
         25    1    1    2    0    0  0.19928918221E+03  0.94770046179E+02 -0.11885478003E+03  0.28008748372E+03  0.12500000000E+03 0.  0.
         25    1    1    2    0    0 -0.28570707822E+02 -0.12682716966E+03 -0.12380159099E+04  0.12510834543E+04  0.12500000000E+03 0.  0.
         25    1    1    2    0    0 -0.17071847439E+03  0.32057123486E+02 -0.47067049354E+03  0.51703788077E+03  0.12500000000E+03 0.  0.
</event>
<event>
 5    0  0.5510933E-005  0.2903552E+03  0.7546771E-02  0.1090164E+00
         21   -1    0    0  502  501  0.00000000000E+00  0.00000000000E+00  0.18191458352E+03  0.18191458352E+03  0.00000000000E+00 0. -1.
         21   -1    0    0  501  502 -0.00000000000E+00 -0.00000000000E+00 -0.46343815029E+03  0.46343815029E+03  0.00000000000E+00 0. -1.
         25    1    1    2    0    0  0.37147143109E+02 -0.74743435449E+02 -0.27066674362E+03  0.30959970525E+03  0.12500000000E+03 0.  0.
         25    1    1    2    0    0 -0.38021545198E+02  0.13631814900E+03 -0.40913924597E+02  0.19320254882E+03  0.12500000000E+03 0.  0.
         25    1    1    2    0    0  0.87440208861E+00 -0.61574713548E+02  0.30057101444E+02  0.14255047974E+03  0.12500000000E+03 0.  0.
</event>
<event>
 5    0  0.5510933E-005  0.3439767E+03  0.7546771E-02  0.1065115E+00
         21   -1    0    0  502  501  0.00000000000E+00  0.00000000000E+00  0.77988447769E+03  0.77988447769E+03  0.00000000000E+00 0.  1.
         21   -1    0    0  501  502 -0.00000000000E+00 -0.00000000000E+00 -0.15171470177E+03  0.15171470177E+03  0.00000000000E+00 0.  1.
         25    1    1    2    0    0  0.21363514763E+03 -0.97031575961E+02  0.36550399851E+03  0.45196601195E+03  0.12500000000E+03 0.  0.
         25    1    1    2    0    0 -0.53401020933E+02  0.63290401315E+02  0.22473673786E+03  0.27016466327E+03  0.12500000000E+03 0.  0.
         25    1    1    2    0    0 -0.16023412669E+03  0.33741174646E+02  0.37929039552E+02  0.20946850423E+03  0.12500000000E+03 0.  0.
</event>
<event>
 5    0  0.5510933E-005  0.8477043E+03  0.7546771E-02  0.9493423E-01
         21   -1    0    0  502  501  0.00000000000E+00  0.00000000000E+00  0.47098420961E+03  0.47098420961E+03  0.00000000000E+00 0.  1.
         21   -1    0    0  501  502 -0.00000000000E+00 -0.00000000000E+00 -0.15257467920E+04  0.15257467920E+04  0.00000000000E+00 0.  1.
         25    1    1    2    0    0 -0.12161107460E+03 -0.23794741802E+03 -0.14177498998E+02  0.29535441200E+03  0.12500000000E+03 0.  0.
         25    1    1    2    0    0 -0.26002402842E+03 -0.31222422316E+03 -0.91474805597E+03  0.10087048462E+04  0.12500000000E+03 0.  0.
         25    1    1    2    0    0  0.38163510302E+03  0.55017164118E+03 -0.12583702743E+03  0.69267174339E+03  0.12500000000E+03 0.  0.
</event>
<event>
 5    0  0.5510933E-005  0.2887017E+03  0.7546771E-02  0.1091029E+00
         21   -1    0    0  502  501  0.00000000000E+00  0.00000000000E+00  0.25181979658E+03  0.25181979658E+03  0.00000000000E+00 0.  1.
         21   -1    0    0  501  502 -0.00000000000E+00 -0.00000000000E+00 -0.33098530461E+03  0.33098530461E+03  0.00000000000E+00 0.  1.
         25    1    1    2    0    0  0.27238614479E+02 -0.35710077954E+02 -0.16549198073E+02  0.13385076669E+03  0.12500000000E+03 0.  0.
         25    1    1    2    0    0 -0.18995600050E+03 -0.33037983225E+01 -0.75685809184E+02  0.23968216229E+03  0.12500000000E+03 0.  0.
         25    1    1    2    0    0  0.16271738602E+03  0.39013876276E+02  0.13069499226E+02  0.20927217222E+03  0.12500000000E+03 0.  0.
</event>
<event>
 5    0  0.5510933E-005  0.2480687E+03  0.7546771E-02  0.1114531E+00
         21   -1    0    0  502  501  0.00000000000E+00  0.00000000000E+00  0.36661306228E+03  0.36661306228E+03  0.00000000000E+00 0.  1.
         21   -1    0    0  501  502 -0.00000000000E+00 -0.00000000000E+00 -0.16785562827E+03  0.16785562827E+03  0.00000000000E+00 0.  1.
         25    1    1    2    0    0 -0.46643861291E+02  0.32521601823E+02  0.21833234979E+02  0.13905033093E+03  0.12500000000E+03 0.  0.
         25    1    1    2    0    0  0.80684208585E+02  0.10313984432E+02  0.20754907833E+03  0.25557374612E+03  0.12500000000E+03 0.  0.
         25    1    1    2    0    0 -0.34040347294E+02 -0.42835586255E+02 -0.30624879296E+02  0.13984461350E+03  0.12500000000E+03 0.  0.
</event>
<event>
 5    0  0.5510933E-005  0.3442903E+03  0.7546771E-02  0.1064983E+00
         21   -1    0    0  502  501  0.00000000000E+00  0.00000000000E+00  0.43195366789E+03  0.43195366789E+03  0.00000000000E+00 0. -1.
         21   -1    0    0  501  502 -0.00000000000E+00 -0.00000000000E+00 -0.27441783655E+03  0.27441783655E+03  0.00000000000E+00 0. -1.
         25    1    1    2    0    0 -0.43666118279E+02 -0.10869367086E+03  0.68913712011E+02  0.18464870342E+03  0.12500000000E+03 0.  0.
         25    1    1    2    0    0  0.46587212190E+02  0.23477807897E+03 -0.75011387193E+02  0.28025492487E+03  0.12500000000E+03 0.  0.
         25    1    1    2    0    0 -0.29210939111E+01 -0.12608440811E+03  0.16363350652E+03  0.24146787615E+03  0.12500000000E+03 0.  0.
</event>
<event>
 5    0  0.5510933E-005  0.3536975E+03  0.7546771E-02  0.1061108E+00
         21   -1    0    0  502  501  0.00000000000E+00  0.00000000000E+00  0.72808626109E+03  0.72808626109E+03  0.00000000000E+00 0. -1.
         21   -1    0    0  501  502 -0.00000000000E+00 -0.00000000000E+00 -0.17182291244E+03  0.17182291244E+03  0.00000000000E+00 0. -1.
         25    1    1    2    0    0  0.12652754512E+03  0.18355429945E+03  0.35428281668E+03  0.43685548493E+03  0.12500000000E+03 0.  0.
         25    1    1    2    0    0  0.32514100628E+02 -0.17610051399E+02 -0.34499427617E+01  0.13040008725E+03  0.12500000000E+03 0.  0.
         25    1    1    2    0    0 -0.15904164575E+03 -0.16594424805E+03  0.20543047472E+03  0.33265360134E+03  0.12500000000E+03 0.  0.
</event>
<event>
 5    0  0.5870108E-005  0.2899337E+03  0.7546771E-02  0.1090384E+00
         21   -1    0    0  502  501  0.00000000000E+00  0.00000000000E+00  0.12807409138E+04  0.12807409138E+04  0.00000000000E+00 0. -1.
         21   -1    0    0  501  502 -0.00000000000E+00 -0.00000000000E+00 -0.65635073431E+02  0.65635073431E+02  0.00000000000E+00 0. -1.
         25    1    1    2    0    0 -0.82346438292E+02 -0.17261228599E+02  0.21593500773E+03  0.26330934939E+03  0.12500000000E+03 0.  0.
         25    1    1    2    0    0 -0.12364030317E+03  0.15547571636E+02  0.39639288064E+03  0.43391354827E+03  0.12500000000E+03 0.  0.
         25    1    1    2    0    0  0.20598674147E+03  0.17136569631E+01  0.60277795199E+03  0.64915308956E+03  0.12500000000E+03 0.  0.
</event>
<event>
 5    0  0.5510933E-005  0.2313520E+03  0.7546771E-02  0.1125692E+00
         21   -1    0    0  502  501  0.00000000000E+00  0.00000000000E+00  0.44267061545E+03  0.44267061545E+03  0.00000000000E+00 0.  1.
         21   -1    0    0  501  502 -0.00000000000E+00 -0.00000000000E+00 -0.12091105316E+03  0.12091105316E+03  0.00000000000E+00 0.  1.
         25    1    1    2    0    0 -0.41545055322E+01  0.42196467464E+01  0.10191559828E+03  0.16139037923E+03  0.12500000000E+03 0.  0.
         25    1    1    2    0    0  0.12366905339E+02  0.63049377085E+02  0.20644727548E+00  0.14054610247E+03  0.12500000000E+03 0.  0.
         25    1    1    2    0    0 -0.82123998070E+01 -0.67269023831E+02  0.21963751674E+03  0.26164518691E+03  0.12500000000E+03 0.  0.
</event>
<event>
 5    0  0.5510933E-005  0.2986944E+03  0.7546771E-02  0.1085895E+00
         21   -1    0    0  502  501  0.00000000000E+00  0.00000000000E+00  0.53355536859E+02  0.53355536859E+02  0.00000000000E+00 0. -1.
         21   -1    0    0  501  502 -0.00000000000E+00 -0.00000000000E+00 -0.16721476383E+04  0.16721476383E+04  0.00000000000E+00 0. -1.
         25    1    1    2    0    0 -0.47301818756E+02  0.17821930119E+03 -0.45809890222E+03  0.50939099480E+03  0.12500000000E+03 0.  0.
         25    1    1    2    0    0  0.52610723437E+02 -0.67010805303E+02 -0.26698054532E+03  0.30685818846E+03  0.12500000000E+03 0.  0.
         25    1    1    2    0    0 -0.53089046809E+01 -0.11120849589E+03 -0.89371265394E+03  0.90925399193E+03  0.12500000000E+03 0.  0.
</event>
<event>
 5    0  0.5510933E-005  0.3617134E+03  0.7546771E-02  0.1057907E+00
         21   -1    0    0  502  501  0.00000000000E+00  0.00000000000E+00  0.20436379475E+03  0.20436379475E+03  0.00000000000E+00 0.  1.
         21   -1    0    0  501  502 -0.00000000000E+00 -0.00000000000E+00 -0.64021409506E+03  0.64021409506E+03  0.00000000000E+00 0.  1.
         25    1    1    2    0    0 -0.11468702366E+03 -0.80433482633E+02 -0.41806266987E+03  0.45828381431E+03  0.12500000000E+03 0.  0.
         25    1    1    2    0    0  0.69850600284E+02 -0.80599252497E+02 -0.56985528979E+02  0.17391864873E+03  0.12500000000E+03 0.  0.
         25    1    1    2    0    0  0.44836423373E+02  0.16103273513E+03  0.39197898530E+02  0.21237542677E+03  0.12500000000E+03 0.  0.
</event>
<event>
 5    0  0.5510933E-005  0.3192336E+03  0.7546771E-02  0.1076003E+00
         21   -1    0    0  502  501  0.00000000000E+00  0.00000000000E+00  0.48469794315E+03  0.48469794315E+03  0.00000000000E+00 0.  1.
         21   -1    0    0  501  502 -0.00000000000E+00 -0.00000000000E+00 -0.21025485289E+03  0.21025485289E+03  0.00000000000E+00 0.  1.
         25    1    1    2    0    0  0.12289911434E+03  0.53709262370E+02  0.21811271185E+03  0.28493338211E+03  0.12500000000E+03 0.  0.
         25    1    1    2    0    0  0.41762116199E+02 -0.89265333024E+02 -0.60052905635E+02  0.17012855582E+03  0.12500000000E+03 0.  0.
         25    1    1    2    0    0 -0.16466123054E+03  0.35556070654E+02  0.11638328404E+03  0.23989085812E+03  0.12500000000E+03 0.  0.
</event>
<event>
 5    0  0.5510933E-005  0.3705697E+03  0.7546771E-02  0.1054475E+00
         21   -1    0    0  502  501  0.00000000000E+00  0.00000000000E+00  0.96957130006E+03  0.96957130006E+03  0.00000000000E+00 0.  1.
         21   -1    0    0  501  502 -0.00000000000E+00 -0.00000000000E+00 -0.14163159342E+03  0.14163159342E+03  0.00000000000E+00 0.  1.
         25    1    1    2    0    0  0.20892142365E+02  0.17715426953E+03  0.22939143352E+02  0.21902356294E+03  0.12500000000E+03 0.  0.
         25    1    1    2    0    0 -0.56353172566E+02 -0.34907802956E+02  0.57499571692E+03  0.59214804672E+03  0.12500000000E+03 0.  0.
         25    1    1    2    0    0  0.35461030202E+02 -0.14224646657E+03  0.23000484637E+03  0.30003128382E+03  0.12500000000E+03 0.  0.
</event>
<event>
 5    0  0.5510933E-005  0.2774284E+03  0.7546771E-02  0.1097102E+00
         21   -1    0    0  502  501  0.00000000000E+00  0.00000000000E+00  0.18731574489E+03  0.18731574489E+03  0.00000000000E+00 0. -1.
         21   -1    0    0  501  502 -0.00000000000E+00 -0.00000000000E+00 -0.41089172895E+03  0.41089172895E+03  0.00000000000E+00 0. -1.
         25    1    1    2    0    0 -0.57528392624E+02 -0.37011901046E+01 -0.27999431208E+03  0.31200164994E+03  0.12500000000E+03 0.  0.
         25    1    1    2    0    0 -0.14511537297E+02  0.37869982318E+02  0.38025426760E+02  0.13680516568E+03  0.12500000000E+03 0.  0.
         25    1    1    2    0    0  0.72039929921E+02 -0.34168792213E+02  0.18392901259E+02  0.14940065824E+03  0.12500000000E+03 0.  0.
</event>
<event>
 5    0  0.5510933E-005  0.5879344E+03  0.7546771E-02  0.9930759E-01
         21   -1    0    0  502  501  0.00000000000E+00  0.00000000000E+00  0.34807934466E+03  0.34807934466E+03  0.00000000000E+00 0. -1.
         21   -1    0    0  501  502 -0.00000000000E+00 -0.00000000000E+00 -0.99306921787E+03  0.99306921787E+03  0.00000000000E+00 0. -1.
         25    1    1    2    0    0  0.90593424467E+02  0.18358060327E+03 -0.32748459014E+02  0.24208772794E+03  0.12500000000E+03 0.  0.
         25    1    1    2    0    0 -0.34671699655E+03 -0.32521365786E+03 -0.60661646529E+03  0.78075933227E+03  0.12500000000E+03 0.  0.
         25    1    1    2    0    0  0.25612357208E+03  0.14163305459E+03 -0.56249488975E+01  0.31830150232E+03  0.12500000000E+03 0.  0.
</event>
<event>
 5    0  0.5510933E-005  0.2352131E+03  0.7546771E-02  0.1123023E+00
         21   -1    0    0  502  501  0.00000000000E+00  0.00000000000E+00  0.33981150457E+03  0.33981150457E+03  0.00000000000E+00 0. -1.
         21   -1    0    0  501  502 -0.00000000000E+00 -0.00000000000E+00 -0.16281145386E+03  0.16281145386E+03  0.00000000000E+00 0. -1.
         25    1    1    2    0    0 -0.53641906297E+02  0.46341220074E+02  0.77283169768E+02  0.16316449099E+03  0.12500000000E+03 0.  0.
         25    1    1    2    0    0  0.20114890989E+02 -0.10832260535E+03  0.10306811391E+03  0.19592455633E+03  0.12500000000E+03 0.  0.
         25    1    1    2    0    0  0.33527015308E+02  0.61981385279E+02 -0.33512329731E+01  0.14353391111E+03  0.12500000000E+03 0.  0.
</event>
<event>
 5    0  0.5510933E-005  0.3154609E+03  0.7546771E-02  0.1077757E+00
         21   -1    0    0  502  501  0.00000000000E+00  0.00000000000E+00  0.12186389628E+03  0.12186389628E+03  0.00000000000E+00 0.  1.
         21   -1    0    0  501  502 -0.00000000000E+00 -0.00000000000E+00 -0.81661259296E+03  0.81661259296E+03  0.00000000000E+00 0.  1.
         25    1    1    2    0    0  0.53766869586E+02 -0.43052789238E+02 -0.15963882263E+03  0.21413540720E+03  0.12500000000E+03 0.  0.
         25    1    1    2    0    0 -0.49890747671E+02 -0.17985542358E+03 -0.31585608370E+03  0.38759144173E+03  0.12500000000E+03 0.  0.
         25    1    1    2    0    0 -0.38761219150E+01  0.22290821282E+03 -0.21925379035E+03  0.33674964030E+03  0.12500000000E+03 0.  0.
</event>
<event>
 5    0  0.5510933E-005  0.3000096E+03  0.7546771E-02  0.1085236E+00
         21   -1    0    0  502  501  0.00000000000E+00  0.00000000000E+00  0.93936279115E+02  0.93936279115E+02  0.00000000000E+00 0.  1.
         21   -1    0    0  501  502 -0.00000000000E+00 -0.00000000000E+00 -0.95815761970E+03  0.95815761970E+03  0.00000000000E+00 0.  1.
         25    1    1    2    0    0 -0.43686443442E+02 -0.82529112400E+02 -0.18172520180E+03  0.23951744969E+03  0.12500000000E+03 0.  0.
         25    1    1    2    0    0 -0.12472986743E+01 -0.63273646414E+02 -0.47953641366E+02  0.14808666991E+03  0.12500000000E+03 0.  0.
         25    1    1    2    0    0  0.44933742117E+02  0.14580275881E+03 -0.63454249742E+03  0.66448977922E+03  0.12500000000E+03 0.  0.
</event>
<event>
 5    0  0.5510933E-005  0.2849035E+03  0.7546771E-02  0.1093040E+00
         21   -1    0    0  502  501  0.00000000000E+00  0.00000000000E+00  0.72811955404E+03  0.72811955404E+03  0.00000000000E+00 0.  1.
         21   -1    0    0  501  502 -0.00000000000E+00 -0.00000000000E+00 -0.11147897870E+03  0.11147897870E+03  0.00000000000E+00 0.  1.
         25    1    1    2    0    0 -0.59373590032E+02 -0.61835725033E+02  0.56374469253E+02  0.16171567910E+03  0.12500000000E+03 0.  0.
         25    1    1    2    0    0  0.20137239571E+02  0.10431797276E+03  0.88452189453E+02  0.18637740657E+03  0.12500000000E+03 0.  0.
         25    1    1    2    0    0  0.39236350462E+02 -0.42482247731E+02  0.47181391664E+03  0.49150544707E+03  0.12500000000E+03 0.  0.
</event>
<event>
 5    0  0.5510933E-005  0.5115326E+03  0.7546771E-02  0.1010812E+00
         21   -1    0    0  502  501  0.00000000000E+00  0.00000000000E+00  0.41542414118E+03  0.41542414118E+03  0.00000000000E+00 0. -1.
         21   -1    0    0  501  502 -0.00000000000E+00 -0.00000000000E+00 -0.62987566632E+03  0.62987566632E+03  0.00000000000E+00 0. -1.
         25    1    1    2    0    0 -0.36209155363E+03  0.17793094673E+03 -0.43317716931E+02  0.42458348957E+03  0.12500000000E+03 0.  0.
         25    1    1    2    0    0  0.29316699051E+03 -0.45239181429E+02  0.50220120599E+02  0.32579215518E+03  0.12500000000E+03 0.  0.
         25    1    1    2    0    0  0.68924563116E+02 -0.13269176530E+03 -0.22135392880E+03  0.29492416275E+03  0.12500000000E+03 0.  0.
</event>
<event>
 5    0  0.5510933E-005  0.2940490E+03  0.7546771E-02  0.1088254E+00
         21   -1    0    0  502  501  0.00000000000E+00  0.00000000000E+00  0.45384769216E+03  0.45384769216E+03  0.00000000000E+00 0. -1.
         21   -1    0    0  501  502 -0.00000000000E+00 -0.00000000000E+00 -0.19051507194E+03  0.19051507194E+03  0.00000000000E+00 0. -1.
         25    1    1    2    0    0 -0.35295132636E+01 -0.64324124650E+02  0.40645816488E+02  0.14638009726E+03  0.12500000000E+03 0.  0.
         25    1    1    2    0    0  0.71423196323E+02  0.54557820783E+02  0.29896522707E+03  0.33627821187E+03  0.12500000000E+03 0.  0.
         25    1    1    2    0    0 -0.67893683059E+02  0.97663038673E+01 -0.76278423332E+02  0.16170445497E+03  0.12500000000E+03 0.  0.
</event>
<event>
 5    0  0.5510933E-005  0.2273184E+03  0.7546771E-02  0.1128542E+00
         21   -1    0    0  502  501  0.00000000000E+00  0.00000000000E+00  0.58361353586E+02  0.58361353586E+02  0.00000000000E+00 0. -1.
         21   -1    0    0  501  502 -0.00000000000E+00 -0.00000000000E+00 -0.88540886069E+03  0.88540886069E+03  0.00000000000E+00 0. -1.
         25    1    1    2    0    0 -0.23354274265E+01 -0.22305774824E+02 -0.43280056376E+03  0.45104803492E+03  0.12500000000E+03 0.  0.
         25    1    1    2    0    0  0.46901390931E+02 -0.44744906409E+02 -0.24155010062E+03  0.27959488234E+03  0.12500000000E+03 0.  0.
         25    1    1    2    0    0 -0.44565963504E+02  0.67050681234E+02 -0.15269684273E+03  0.21312729702E+03  0.12500000000E+03 0.  0.
</event>
<event>
 5    0  0.5510933E-005  0.5832537E+03  0.7546771E-02  0.9940771E-01
         21   -1    0    0  502  501  0.00000000000E+00  0.00000000000E+00  0.24326007428E+03  0.24326007428E+03  0.00000000000E+00 0. -1.
         21   -1    0    0  501  502 -0.00000000000E+00 -0.00000000000E+00 -0.13984412913E+04  0.13984412913E+04  0.00000000000E+00 0. -1.
         25    1    1    2    0    0 -0.28628231617E+03  0.46036272860E+02  0.29504962919E+02  0.31713159068E+03  0.12500000000E+03 0.  0.
         25    1    1    2    0    0  0.75160645279E+02 -0.23917867088E+03 -0.56964118963E+03  0.63480047584E+03  0.12500000000E+03 0.  0.
         25    1    1    2    0    0  0.21112167089E+03  0.19314239802E+03 -0.61504499033E+03  0.68976929909E+03  0.12500000000E+03 0.  0.
</event>
<event>
 5    0  0.5510933E-005  0.2724775E+03  0.7546771E-02  0.1099870E+00
         21   -1    0    0  502  501  0.00000000000E+00  0.00000000000E+00  0.10117079135E+04  0.10117079135E+04  0.00000000000E+00 0.  1.
         21   -1    0    0  501  502 -0.00000000000E+00 -0.00000000000E+00 -0.73384783636E+02  0.73384783636E+02  0.00000000000E+00 0.  1.
         25    1    1    2    0    0 -0.59918353300E+02 -0.42796223892E+02  0.66194392271E+03  0.67765513549E+03  0.12500000000E+03 0.  0.
         25    1    1    2    0    0  0.81957375258E+02  0.43316617707E+02  0.21769389438E+03  0.26759852836E+03  0.12500000000E+03 0.  0.
         25    1    1    2    0    0 -0.22039021958E+02 -0.52039381534E+00  0.58685312787E+02  0.13983903330E+03  0.12500000000E+03 0.  0.
</event>
<event>
 5    0  0.5510933E-005  0.3096016E+03  0.7546771E-02  0.1080537E+00
         21   -1    0    0  502  501  0.00000000000E+00  0.00000000000E+00  0.55493466356E+03  0.55493466356E+03  0.00000000000E+00 0. -1.
         21   -1    0    0  501  502 -0.00000000000E+00 -0.00000000000E+00 -0.17272869323E+03  0.17272869323E+03  0.00000000000E+00 0. -1.
         25    1    1    2    0    0  0.16838199769E+03  0.78546024809E+02  0.11190464401E+01  0.22393799906E+03  0.12500000000E+03 0.  0.
         25    1    1    2    0    0 -0.12047628753E+03 -0.31458123427E+02  0.27423667352E+03  0.32609032873E+03  0.12500000000E+03 0.  0.
         25    1    1    2    0    0 -0.47905710156E+02 -0.47087901382E+02  0.10685025037E+03  0.17763502899E+03  0.12500000000E+03 0.  0.
</event>
<event>
 5    0  0.6377863E-005  0.4915791E+03  0.7546771E-02  0.1016001E+00
         21   -1    0    0  502  501  0.00000000000E+00  0.00000000000E+00  0.64227210776E+03  0.64227210776E+03  0.00000000000E+00 0.  1.
         21   -1    0    0  501  502 -0.00000000000E+00 -0.00000000000E+00 -0.37624242173E+03  0.37624242173E+03  0.00000000000E+00 0.  1.
         25    1    1    2    0    0 -0.11340581725E+03 -0.13993804252E+03 -0.58716589127E+02  0.22697174487E+03  0.12500000000E+03 0.  0.
         25    1    1    2    0    0  0.14175988591E+03 -0.14651754834E+03  0.40254316437E+03  0.46821923968E+03  0.12500000000E+03 0.  0.
         25    1    1    2    0    0 -0.28354068658E+02  0.28645559086E+03 -0.77796889212E+02  0.32332354494E+03  0.12500000000E+03 0.  0.
</event>
<event>
 5    0  0.5510933E-005  0.4236736E+03  0.7546771E-02  0.1035877E+00
         21   -1    0    0  502  501  0.00000000000E+00  0.00000000000E+00  0.12674859586E+03  0.12674859586E+03  0.00000000000E+00 0.  1.
         21   -1    0    0  501  502 -0.00000000000E+00 -0.00000000000E+00 -0.14161837160E+04  0.14161837160E+04  0.00000000000E+00 0.  1.
         25    1    1    2    0    0  0.11965990883E+03  0.20428849614E+03 -0.21855612005E+03  0.34560680121E+03  0.12500000000E+03 0.  0.
         25    1    1    2    0    0  0.12977142778E+03 -0.15441984471E+03 -0.35125190771E+03  0.42389741044E+03  0.12500000000E+03 0.  0.
         25    1    1    2    0    0 -0.24943133662E+03 -0.49868651424E+02 -0.71962709234E+03  0.77342810016E+03  0.12500000000E+03 0.  0.
</event>
<event>
 5    0  0.5510933E-005  0.5828193E+03  0.7546771E-02  0.9941706E-01
         21   -1    0    0  502  501  0.00000000000E+00  0.00000000000E+00  0.18235199728E+04  0.18235199728E+04  0.00000000000E+00 0.  1.
         21   -1    0    0  501  502 -0.00000000000E+00 -0.00000000000E+00 -0.18627619089E+03  0.18627619089E+03  0.00000000000E+00 0.  1.
         25    1    1    2    0    0  0.18694208747E+03  0.35607189212E+02  0.13273343010E+04  0.13467206698E+04  0.12500000000E+03 0.  0.
         25    1    1    2    0    0 -0.22255694546E+03  0.19257547664E+03  0.20766273713E+03  0.38126856751E+03  0.12500000000E+03 0.  0.
         25    1    1    2    0    0  0.35614857989E+02 -0.22818266585E+03  0.10224674375E+03  0.28180692630E+03  0.12500000000E+03 0.  0.
</event>
<event>
 5    0  0.5510933E-005  0.3950433E+03  0.7546771E-02  0.1045510E+00
         21   -1    0    0  502  501  0.00000000000E+00  0.00000000000E+00  0.15815173183E+03  0.15815173183E+03  0.00000000000E+00 0. -1.
         21   -1    0    0  501  502 -0.00000000000E+00 -0.00000000000E+00 -0.98676911156E+03  0.98676911156E+03  0.00000000000E+00 0. -1.
         25    1    1    2    0    0 -0.15521718066E+03 -0.27646957425E+03 -0.46773309182E+03  0.57872881718E+03  0.12500000000E+03 0.  0.
         25    1    1    2    0    0  0.41598874991E+02  0.11779722363E+03 -0.25776618252E+03  0.31253008998E+03  0.12500000000E+03 0.  0.
         25    1    1    2    0    0  0.11361830567E+03  0.15867235061E+03 -0.10311810539E+03  0.25366193623E+03  0.12500000000E+03 0.  0.
</event>
<event>
 5    0  0.5510933E-005  0.4702415E+03  0.7546771E-02  0.1021852E+00
         21   -1    0    0  502  501  0.00000000000E+00  0.00000000000E+00  0.53129397554E+03  0.53129397554E+03  0.00000000000E+00 0.  1.
         21   -1    0    0  501  502 -0.00000000000E+00 -0.00000000000E+00 -0.41620480270E+03  0.41620480270E+03  0.00000000000E+00 0.  1.
         25    1    1    2    0    0 -0.25431787992E+03 -0.56459661611E+02 -0.22315505450E+03  0.36508691539E+03  0.12500000000E+03 0.  0.
         25    1    1    2    0    0  0.10462741336E+03 -0.12338618171E+03  0.18686390113E+03  0.27697321713E+03  0.12500000000E+03 0.  0.
         25    1    1    2    0    0  0.14969046656E+03  0.17984584332E+03  0.15138032621E+03  0.30543864572E+03  0.12500000000E+03 0.  0.
</event>
<event>
 5    0  0.8039497E-005  0.2853653E+03  0.7546771E-02  0.1092794E+00
         21   -1    0    0  502  501  0.00000000000E+00  0.00000000000E+00  0.62784989098E+03  0.62784989098E+03  0.00000000000E+00 0. -1.
         21   -1    0    0  501  502 -0.00000000000E+00 -0.00000000000E+00 -0.12970192529E+03  0.12970192529E+03  0.00000000000E+00 0. -1.
         25    1    1    2    0    0  0.15195795427E+03  0.90775268904E+01  0.34948685073E+03  0.40117288068E+03  0.12500000000E+03 0.  0.
         25    1    1    2    0    0 -0.12269884043E+02 -0.10420034225E+02  0.16699942667E+02  0.12713384779E+03  0.12500000000E+03 0.  0.
         25    1    1    2    0    0 -0.13968807023E+03  0.13425073343E+01  0.13196117229E+03  0.22924508781E+03  0.12500000000E+03 0.  0.
</event>
<event>
 5    0  0.5510933E-005  0.2727461E+03  0.7546771E-02  0.1099718E+00
         21   -1    0    0  502  501  0.00000000000E+00  0.00000000000E+00  0.25752632407E+03  0.25752632407E+03  0.00000000000E+00 0.  1.
         21   -1    0    0  501  502 -0.00000000000E+00 -0.00000000000E+00 -0.28886526806E+03  0.28886526806E+03  0.00000000000E+00 0.  1.
         25    1    1    2    0    0  0.26912249031E+02  0.53329161996E+01 -0.97293739015E+02  0.16076000994E+03  0.12500000000E+03 0.  0.
         25    1    1    2    0    0  0.18037235775E+02 -0.12288456993E+03  0.10344478261E+03  0.20433252911E+03  0.12500000000E+03 0.  0.
         25    1    1    2    0    0 -0.44949484805E+02  0.11755165373E+03 -0.37489987581E+02  0.18129905308E+03  0.12500000000E+03 0.  0.
</event>
<event>
 5    0  0.5510933E-005  0.5371850E+03  0.7546771E-02  0.1004504E+00
         21   -1    0    0  502  501  0.00000000000E+00  0.00000000000E+00  0.11129447822E+04  0.11129447822E+04  0.00000000000E+00 0.  1.
         21   -1    0    0  501  502 -0.00000000000E+00 -0.00000000000E+00 -0.25928306468E+03  0.25928306468E+03  0.00000000000E+00 0.  1.
         25    1    1    2    0    0  0.41620528985E+03 -0.10176687252E+03  0.30315076878E+03  0.53954492700E+03  0.12500000000E+03 0.  0.
         25    1    1    2    0    0  0.33274392137E+02 -0.29041200819E+02  0.68459337037E+02  0.14920541996E+03  0.12500000000E+03 0.  0.
         25    1    1    2    0    0 -0.44947968199E+03  0.13080807334E+03  0.48205161173E+03  0.68347749996E+03  0.12500000000E+03 0.  0.
</event>
<event>
 5    0  0.5510933E-005  0.4650709E+03  0.7546771E-02  0.1023321E+00
         21   -1    0    0  502  501  0.00000000000E+00  0.00000000000E+00  0.35718545946E+03  0.35718545946E+03  0.00000000000E+00 0.  1.
         21   -1    0    0  501  502 -0.00000000000E+00 -0.00000000000E+00 -0.60554234165E+03  0.60554234165E+03  0.00000000000E+00 0.  1.
         25    1    1    2    0    0  0.83275845723E+02  0.31543989339E+02 -0.76838427273E+02  0.17163634129E+03  0.12500000000E+03 0.  0.
         25    1    1    2    0    0  0.20237594697E+03  0.29338826983E+02  0.19288531206E+03  0.30764676870E+03  0.12500000000E+03 0.  0.
         25    1    1    2    0    0 -0.28565179270E+03 -0.60882816322E+02 -0.36440376698E+03  0.48344469113E+03  0.12500000000E+03 0.  0.
</event>
<event>
 5    0  0.5510933E-005  0.3034918E+03  0.7546771E-02  0.1083508E+00
         21   -1    0    0  502  501  0.00000000000E+00  0.00000000000E+00  0.39807627343E+03  0.39807627343E+03  0.00000000000E+00 0.  1.
         21   -1    0    0  501  502 -0.00000000000E+00 -0.00000000000E+00 -0.23138094425E+03  0.23138094425E+03  0.00000000000E+00 0.  1.
         25    1    1    2    0    0  0.39833374848E+02 -0.18716751991E+03 -0.24500388595E+02  0.22987746149E+03  0.12500000000E+03 0.  0.
         25    1    1    2    0    0 -0.63618430639E+02  0.60913782607E+02  0.24627869368E+02  0.15488487847E+03  0.12500000000E+03 0.  0.
         25    1    1    2    0    0  0.23785055791E+02  0.12625373730E+03  0.16656784841E+03  0.24469487773E+03  0.12500000000E+03 0.  0.
</event>
<event>
 5    0  0.5510933E-005  0.3223583E+03  0.7546771E-02  0.1074569E+00
         21   -1    0    0  502  501  0.00000000000E+00  0.00000000000E+00  0.31032418291E+03  0.31032418291E+03  0.00000000000E+00 0. -1.
         21   -1    0    0  501  502 -0.00000000000E+00 -0.00000000000E+00 -0.33485905670E+03  0.33485905670E+03  0.00000000000E+00 0. -1.
         25    1    1    2    0    0 -0.15758679875E+03 -0.16253204103E+02 -0.38578615372E+02  0.20545334105E+03  0.12500000000E+03 0.  0.
         25    1    1    2    0    0  0.13648696821E+02  0.15763305053E+03  0.17121287595E+02  0.20236749747E+03  0.12500000000E+03 0.  0.
         25    1    1    2    0    0  0.14393810193E+03 -0.14137984643E+03 -0.30775460095E+01  0.23736240109E+03  0.12500000000E+03 0.  0.
</event>
<event>
 5    0  0.5510933E-005  0.2863904E+03  0.7546771E-02  0.1092249E+00
         21   -1    0    0  502  501  0.00000000000E+00  0.00000000000E+00  0.51281208422E+03  0.51281208422E+03  0.00000000000E+00 0.  1.
         21   -1    0    0  501  502 -0.00000000000E+00 -0.00000000000E+00 -0.15994056027E+03  0.15994056027E+03  0.00000000000E+00 0.  1.
         25    1    1    2    0    0  0.20474452346E+02  0.60803079826E+02 -0.20807964894E+02  0.14203587265E+03  0.12500000000E+03 0.  0.
         25    1    1    2    0    0 -0.89556343248E+01  0.25033225161E+02  0.35524500379E+03  0.37753261907E+03  0.12500000000E+03 0.  0.
         25    1    1    2    0    0 -0.11518818021E+02 -0.85836304987E+02  0.18434485061E+02  0.15318415278E+03  0.12500000000E+03 0.  0.
</event>
<event>
 5    0  0.5739487E-005  0.2888974E+03  0.7546771E-02  0.1090926E+00
         21   -1    0    0  502  501  0.00000000000E+00  0.00000000000E+00  0.96968806068E+03  0.96968806068E+03  0.00000000000E+00 0. -1.
         21   -1    0    0  501  502 -0.00000000000E+00 -0.00000000000E+00 -0.86070703410E+02  0.86070703410E+02  0.00000000000E+00 0. -1.
         25    1    1    2    0    0  0.10883550963E+03  0.15238843302E+03  0.27510030382E+03  0.35548921198E+03  0.12500000000E+03 0.  0.
         25    1    1    2    0    0 -0.30256501225E+02 -0.11602788990E+03  0.20116617613E+03  0.26546328846E+03  0.12500000000E+03 0.  0.
         25    1    1    2    0    0 -0.78579008402E+02 -0.36360543119E+02  0.40735087732E+03  0.43480626365E+03  0.12500000000E+03 0.  0.
</event>
<event>
 5    0  0.5510933E-005  0.6031398E+03  0.7546771E-02  0.9898913E-01
         21   -1    0    0  502  501  0.00000000000E+00  0.00000000000E+00  0.16748032113E+03  0.16748032113E+03  0.00000000000E+00 0.  1.
         21   -1    0    0  501  502 -0.00000000000E+00 -0.00000000000E+00 -0.21720615630E+04  0.21720615630E+04  0.00000000000E+00 0.  1.
         25    1    1    2    0    0 -0.15698563101E+03  0.19262920611E+03 -0.33878842232E+03  0.43835270558E+03  0.12500000000E+03 0.  0.
         25    1    1    2    0    0  0.40777073399E+03  0.27457163458E+01 -0.14137133705E+04  0.14766499261E+04  0.12500000000E+03 0.  0.
         25    1    1    2    0    0 -0.25078510297E+03 -0.19537492246E+03 -0.25207944906E+03  0.42453925241E+03  0.12500000000E+03 0.  0.
</event>
<event>
 5    0  0.5510933E-005  0.3509197E+03  0.7546771E-02  0.1062238E+00
         21   -1    0    0  502  501  0.00000000000E+00  0.00000000000E+00  0.85418874862E+02  0.85418874862E+02  0.00000000000E+00 0.  1.
         21   -1    0    0  501  502 -0.00000000000E+00 -0.00000000000E+00 -0.14416557815E+04  0.14416557815E+04  0.00000000000E+00 0.  1.
         25    1    1    2    0    0  0.90595248264E+02 -0.87426634256E+02 -0.53982185553E+03  0.56822843214E+03  0.12500000000E+03 0.  0.
         25    1    1    2    0    0  0.18648047843E+00 -0.13799309455E+03 -0.53545748550E+03  0.56690550156E+03  0.12500000000E+03 0.  0.
         25    1    1    2    0    0 -0.90781728743E+02  0.22541972881E+03 -0.28095756561E+03  0.39194072267E+03  0.12500000000E+03 0.  0.
</event>
<event>
 5    0  0.5510933E-005  0.2725879E+03  0.7546771E-02  0.1099808E+00
         21   -1    0    0  502  501  0.00000000000E+00  0.00000000000E+00  0.10470634933E+03  0.10470634933E+03  0.00000000000E+00 0.  1.
         21   -1    0    0  501  502 -0.00000000000E+00 -0.00000000000E+00 -0.70964331291E+03  0.70964331291E+03  0.00000000000E+00 0.  1.
         25    1    1    2    0    0  0.23292552878E+02 -0.19509504826E+01 -0.97199266289E+02  0.16005950954E+03  0.12500000000E+03 0.  0.
         25    1    1    2    0    0  0.15863677655E+02  0.48257126285E+01 -0.50784911521E+03  0.52326921139E+03  0.12500000000E+03 0.  0.
         25    1    1    2    0    0 -0.39156230533E+02 -0.28747621459E+01  0.11141791669E+00  0.13102094131E+03  0.12500000000E+03 0.  0.
</event>
<event>
 5    0  0.5510933E-005  0.2529305E+03  0.7546771E-02  0.1111467E+00
         21   -1    0    0  502  501  0.00000000000E+00  0.00000000000E+00  0.93181270142E+02  0.93181270142E+02  0.00000000000E+00 0.  1.
         21   -1    0    0  501  502 -0.00000000000E+00 -0.00000000000E+00 -0.68655253769E+03  0.68655253769E+03  0.00000000000E+00 0.  1.
         25    1    1    2    0    0  0.60918252149E+02 -0.66159889219E+02 -0.63162267485E+02  0.16644108994E+03  0.12500000000E+03 0.  0.
         25    1    1    2    0    0  0.26042235796E+02 -0.22531732952E+02 -0.26275988343E+03  0.29300790667E+03  0.12500000000E+03 0.  0.
         25    1    1    2    0    0 -0.86960487945E+02  0.88691622171E+02 -0.26744911663E+03  0.32028481122E+03  0.12500000000E+03 0.  0.
</event>
<event>
 5    0  0.5510933E-005  0.3782235E+03  0.7546771E-02  0.1051592E+00
         21   -1    0    0  502  501  0.00000000000E+00  0.00000000000E+00  0.21444143493E+03  0.21444143493E+03  0.00000000000E+00 0. -1.
         21   -1    0    0  501  502 -0.00000000000E+00 -0.00000000000E+00 -0.66709588719E+03  0.66709588719E+03  0.00000000000E+00 0. -1.
         25    1    1    2    0    0 -0.17735700957E+03 -0.24952491743E+02 -0.82708365444E+02  0.23354616118E+03  0.12500000000E+03 0.  0.
         25    1    1    2    0    0 -0.72130930174E+02  0.14797894609E+03 -0.23931729260E+03  0.31622524585E+03  0.12500000000E+03 0.  0.
         25    1    1    2    0    0  0.24948793974E+03 -0.12302645435E+03 -0.13062879421E+03  0.33176591510E+03  0.12500000000E+03 0.  0.
</event>
<event>
 5    0  0.5510933E-005  0.3787458E+03  0.7546771E-02  0.1051398E+00
         21   -1    0    0  502  501  0.00000000000E+00  0.00000000000E+00  0.99738997691E+02  0.99738997691E+02  0.00000000000E+00 0.  1.
         21   -1    0    0  501  502 -0.00000000000E+00 -0.00000000000E+00 -0.14382375385E+04  0.14382375385E+04  0.00000000000E+00 0.  1.
         25    1    1    2    0    0  0.49429462496E+02 -0.52674560554E+02 -0.67628194893E+03  0.69152017724E+03  0.12500000000E+03 0.  0.
         25    1    1    2    0    0  0.52348882544E+02 -0.18371681564E+03 -0.20352227381E+03  0.30584079157E+03  0.12500000000E+03 0.  0.
         25    1    1    2    0    0 -0.10177834504E+03  0.23639137620E+03 -0.45869431809E+03  0.54061556739E+03  0.12500000000E+03 0.  0.
</event>
<event>
 5    0  0.5510933E-005  0.2377588E+03  0.7546771E-02  0.1121295E+00
         21   -1    0    0  502  501  0.00000000000E+00  0.00000000000E+00  0.18015114009E+04  0.18015114009E+04  0.00000000000E+00 0. -1.
         21   -1    0    0  501  502 -0.00000000000E+00 -0.00000000000E+00 -0.31378778520E+02  0.31378778520E+02  0.00000000000E+00 0. -1.
         25    1    1    2    0    0  0.85417310612E+02  0.38083885114E+02  0.89034530142E+03  0.90392823554E+03  0.12500000000E+03 0.  0.
         25    1    1    2    0    0 -0.61849925673E+02 -0.72129248996E+02  0.59220316288E+03  0.61266436814E+03  0.12500000000E+03 0.  0.
         25    1    1    2    0    0 -0.23567384939E+02  0.34045363883E+02  0.28758415809E+03  0.31629757574E+03  0.12500000000E+03 0.  0.
</event>
<event>
 5    0  0.5510933E-005  0.4168697E+03  0.7546771E-02  0.1038090E+00
         21   -1    0    0  502  501  0.00000000000E+00  0.00000000000E+00  0.25578705162E+03  0.25578705162E+03  0.00000000000E+00 0. -1.
         21   -1    0    0  501  502 -0.00000000000E+00 -0.00000000000E+00 -0.67939455464E+03  0.67939455464E+03  0.00000000000E+00 0. -1.
         25    1    1    2    0    0  0.12099009216E+03  0.18429511804E+03 -0.11563885048E+03  0.27856890830E+03  0.12500000000E+03 0.  0.
         25    1    1    2    0    0 -0.28928004925E+03 -0.15202558653E+03 -0.11077088014E+03  0.36700124487E+03  0.12500000000E+03 0.  0.
         25    1    1    2    0    0  0.16828995709E+03 -0.32269531511E+02 -0.19719777240E+03  0.28961145309E+03  0.12500000000E+03 0.  0.
</event>
<event>
 5    0  0.5510933E-005  0.2250143E+03  0.7546771E-02  0.1130199E+00
         21   -1    0    0  502  501  0.00000000000E+00  0.00000000000E+00  0.18495064734E+03  0.18495064734E+03  0.00000000000E+00 0.  1.
         21   -1    0    0  501  502 -0.00000000000E+00 -0.00000000000E+00 -0.27375645789E+03  0.27375645789E+03  0.00000000000E+00 0.  1.
         25    1    1    2    0    0 -0.48890966008E+01  0.25658062319E+02  0.74468264143E+02  0.14782679660E+03  0.12500000000E+03 0.  0.
         25    1    1    2    0    0  0.36555872674E+02 -0.68857533826E+01 -0.10801430177E+03  0.16933940715E+03  0.12500000000E+03 0.  0.
         25    1    1    2    0    0 -0.31666776074E+02 -0.18772308937E+02 -0.55259772916E+02  0.14154090148E+03  0.12500000000E+03 0.  0.
</event>
<event>
 5    0  0.5510933E-005  0.3186035E+03  0.7546771E-02  0.1076294E+00
         21   -1    0    0  502  501  0.00000000000E+00  0.00000000000E+00  0.56234367985E+03  0.56234367985E+03  0.00000000000E+00 0.  1.
         21   -1    0    0  501  502 -0.00000000000E+00 -0.00000000000E+00 -0.18050912616E+03  0.18050912616E+03  0.00000000000E+00 0.  1.
         25    1    1    2    0    0  0.15142739669E+03 -0.87180912824E+01 -0.46747471069E+02  0.20203115511E+03  0.12500000000E+03 0.  0.
         25    1    1    2    0    0 -0.27705575151E+00  0.38836668925E+02  0.15559453259E+03  0.20332983595E+03  0.12500000000E+03 0.  0.
         25    1    1    2    0    0 -0.15115034094E+03 -0.30118577643E+02  0.27298749216E+03  0.33749181496E+03  0.12500000000E+03 0.  0.
</event>
<event>
 5    0  0.5510933E-005  0.3375007E+03  0.7546771E-02  0.1067865E+00
         21   -1    0    0  502  501  0.00000000000E+00  0.00000000000E+00  0.12432044572E+03  0.12432044572E+03  0.00000000000E+00 0. -1.
         21   -1    0    0  501  502 -0.00000000000E+00 -0.00000000000E+00 -0.91623473033E+03  0.91623473033E+03  0.00000000000E+00 0. -1.
         25    1    1    2    0    0  0.12709000979E+03 -0.13096372172E+03 -0.47058487640E+03  0.51997931968E+03  0.12500000000E+03 0.  0.
         25    1    1    2    0    0 -0.17596231807E+03  0.96902845616E+02 -0.29743595124E+03  0.38006057933E+03  0.12500000000E+03 0.  0.
         25    1    1    2    0    0  0.48872308274E+02  0.34060876099E+02 -0.23893456969E+02  0.14051527704E+03  0.12500000000E+03 0.  0.
</event>
<event>
 5    0  0.5510933E-005  0.2959803E+03  0.7546771E-02  0.1087267E+00
         21   -1    0    0  502  501  0.00000000000E+00  0.00000000000E+00  0.13885449914E+03  0.13885449914E+03  0.00000000000E+00 0.  1.
         21   -1    0    0  501  502 -0.00000000000E+00 -0.00000000000E+00 -0.63090750765E+03  0.63090750765E+03  0.00000000000E+00 0.  1.
         25    1    1    2    0    0  0.42907677409E+02  0.12126932684E+03 -0.33100924649E+03  0.37648298723E+03  0.12500000000E+03 0.  0.
         25    1    1    2    0    0 -0.10668889096E+03 -0.13930296689E+03 -0.11666138442E+03  0.24499533598E+03  0.12500000000E+03 0.  0.
         25    1    1    2    0    0  0.63781213553E+02  0.18033640044E+02 -0.44382377604E+02  0.14828368358E+03  0.12500000000E+03 0.  0.
</event>
<event>
 5    0  0.5510933E-005  0.4072257E+03  0.7546771E-02  0.1041306E+00
         21   -1    0    0  502  501  0.00000000000E+00  0.00000000000E+00  0.64967661380E+02  0.64967661380E+02  0.00000000000E+00 0. -1.
         21   -1    0    0  501  502 -0.00000000000E+00 -0.00000000000E+00 -0.25525438064E+04  0.25525438064E+04  0.00000000000E+00 0.  1.
         25    1    1    2    0    0  0.15288543688E+01 -0.11798332748E+03 -0.15996813420E+04  0.16088902383E+04  0.12500000000E+03 0.  0.
         25    1    1    2    0    0 -0.13504863990E+03  0.17184452850E+03 -0.68684344701E+03  0.73153783075E+03  0.12500000000E+03 0.  0.
         25    1    1    2    0    0  0.13351978554E+03 -0.53861201021E+02 -0.20105135605E+03  0.27708339877E+03  0.12500000000E+03 0.  0.
</event>
<event>
 5    0  0.5510933E-005  0.4777290E+03  0.7546771E-02  0.1019761E+00
         21   -1    0    0  502  501  0.00000000000E+00  0.00000000000E+00  0.54296666825E+03  0.54296666825E+03  0.00000000000E+00 0.  1.
         21   -1    0    0  501  502 -0.00000000000E+00 -0.00000000000E+00 -0.42032965828E+03  0.42032965828E+03  0.00000000000E+00 0.  1.
         25    1    1    2    0    0  0.12625329748E+03  0.43653340996E+02 -0.24150076295E+02  0.18453654243E+03  0.12500000000E+03 0.  0.
         25    1    1    2    0    0 -0.21187220823E+03  0.19694718115E+03 -0.16590173238E+03  0.35612695712E+03  0.12500000000E+03 0.  0.
         25    1    1    2    0    0  0.85618910751E+02 -0.24060052214E+03  0.31268881865E+03  0.42263282698E+03  0.12500000000E+03 0.  0.
</event>
<event>
 5    0  0.5510933E-005  0.2198331E+03  0.7546771E-02  0.1134008E+00
         21   -1    0    0  502  501  0.00000000000E+00  0.00000000000E+00  0.29384759010E+03  0.29384759010E+03  0.00000000000E+00 0. -1.
         21   -1    0    0  501  502 -0.00000000000E+00 -0.00000000000E+00 -0.16446142961E+03  0.16446142961E+03  0.00000000000E+00 0. -1.
         25    1    1    2    0    0  0.65912664161E+02 -0.14843500992E+02 -0.33225538990E+02  0.14592376523E+03  0.12500000000E+03 0.  0.
         25    1    1    2    0    0 -0.32940736264E+02  0.27266951561E+02  0.52657904477E+02  0.14221966691E+03  0.12500000000E+03 0.  0.
         25    1    1    2    0    0 -0.32971927898E+02 -0.12423450569E+02  0.10995379501E+03  0.17016558756E+03  0.12500000000E+03 0.  0.
</event>
<event>
 5    0  0.5510933E-005  0.3242717E+03  0.7546771E-02  0.1073700E+00
         21   -1    0    0  502  501  0.00000000000E+00  0.00000000000E+00  0.65233187665E+02  0.65233187665E+02  0.00000000000E+00 0.  1.
         21   -1    0    0  501  502 -0.00000000000E+00 -0.00000000000E+00 -0.16119424402E+04  0.16119424402E+04  0.00000000000E+00 0.  1.
         25    1    1    2    0    0 -0.46423594479E+02 -0.17014533522E+02 -0.59402269600E+02  0.14696351285E+03  0.12500000000E+03 0.  0.
         25    1    1    2    0    0 -0.35069802208E+02 -0.79236537223E+02 -0.38960422761E+03  0.41824009137E+03  0.12500000000E+03 0.  0.
         25    1    1    2    0    0  0.81493396687E+02  0.96251070745E+02 -0.10977027553E+04  0.11119720237E+04  0.12500000000E+03 0.  0.
</event>
<event>
 5    0  0.5510933E-005  0.2414568E+03  0.7546771E-02  0.1118826E+00
         21   -1    0    0  502  501  0.00000000000E+00  0.00000000000E+00  0.15349212542E+03  0.15349212542E+03  0.00000000000E+00 0. -1.
         21   -1    0    0  501  502 -0.00000000000E+00 -0.00000000000E+00 -0.37983304210E+03  0.37983304210E+03  0.00000000000E+00 0. -1.
         25    1    1    2    0    0 -0.71524913652E+02  0.11048330850E+03 -0.33441329399E+02  0.18456894983E+03  0.12500000000E+03 0.  0.
         25    1    1    2    0    0  0.31580845494E+02 -0.51380657483E+02 -0.54560059628E+02  0.14912787088E+03  0.12500000000E+03 0.  0.
         25    1    1    2    0    0  0.39944068158E+02 -0.59102651020E+02 -0.13833952765E+03  0.19962834681E+03  0.12500000000E+03 0.  0.
</event>
<event>
 5    0  0.5510933E-005  0.3975395E+03  0.7546771E-02  0.1044635E+00
         21   -1    0    0  502  501  0.00000000000E+00  0.00000000000E+00  0.36654868262E+03  0.36654868262E+03  0.00000000000E+00 0. -1.
         21   -1    0    0  501  502 -0.00000000000E+00 -0.00000000000E+00 -0.43115043892E+03  0.43115043892E+03  0.00000000000E+00 0. -1.
         25    1    1    2    0    0  0.35457910942E+02 -0.18147099892E+03 -0.11229091888E+02  0.22347277105E+03  0.12500000000E+03 0.  0.
         25    1    1    2    0    0  0.65033608200E+02  0.97595222748E+02  0.19964949440E+03  0.26313327101E+03  0.12500000000E+03 0.  0.
         25    1    1    2    0    0 -0.10049151914E+03  0.83875776171E+02 -0.25302215882E+03  0.31109307948E+03  0.12500000000E+03 0.  0.
</event>
<event>
 5    0  0.5510933E-005  0.4253127E+03  0.7546771E-02  0.1035351E+00
         21   -1    0    0  502  501  0.00000000000E+00  0.00000000000E+00  0.71518772804E+03  0.71518772804E+03  0.00000000000E+00 0. -1.
         21   -1    0    0  501  502 -0.00000000000E+00 -0.00000000000E+00 -0.25292789020E+03  0.25292789020E+03  0.00000000000E+00 0. -1.
         25    1    1    2    0    0 -0.21893920547E+03 -0.20648091605E+03  0.35362576254E+03  0.48087932407E+03  0.12500000000E+03 0.  0.
         25    1    1    2    0    0  0.25531750250E+02 -0.33339817723E+02  0.78327699353E+02  0.15337419014E+03  0.12500000000E+03 0.  0.
         25    1    1    2    0    0  0.19340745522E+03  0.23982073377E+03  0.30306375941E+02  0.33386210403E+03  0.12500000000E+03 0.  0.
</event>
<event>
 5    0  0.5510933E-005  0.3042994E+03  0.7546771E-02  0.1083111E+00
         21   -1    0    0  502  501  0.00000000000E+00  0.00000000000E+00  0.15516055876E+04  0.15516055876E+04  0.00000000000E+00 0.  1.
         21   -1    0    0  501  502 -0.00000000000E+00 -0.00000000000E+00 -0.59678887678E+02  0.59678887678E+02  0.00000000000E+00 0.  1.
         25    1    1    2    0    0  0.57449600245E+02 -0.77059420223E+02  0.17692311548E+03  0.23699240411E+03  0.12500000000E+03 0.  0.
         25    1    1    2    0    0 -0.72698246582E+02  0.36882625672E+02  0.11643397573E+04  0.11738643165E+04  0.12500000000E+03 0.  0.
         25    1    1    2    0    0  0.15248646338E+02  0.40176794550E+02  0.15066382718E+03  0.20042775471E+03  0.12500000000E+03 0.  0.
</event>
<event>
 5    0  0.5510933E-005  0.5502511E+03  0.7546771E-02  0.1001436E+00
         21   -1    0    0  502  501  0.00000000000E+00  0.00000000000E+00  0.22924447632E+03  0.22924447632E+03  0.00000000000E+00 0.  1.
         21   -1    0    0  501  502 -0.00000000000E+00 -0.00000000000E+00 -0.13207571881E+04  0.13207571881E+04  0.00000000000E+00 0.  1.
         25    1    1    2    0    0 -0.22176939802E+03  0.23828265852E+03  0.19634325214E+02  0.34924317885E+03  0.12500000000E+03 0.  0.
         25    1    1    2    0    0  0.46977024905E+02  0.97400845324E+00 -0.33251635124E+03  0.35832933651E+03  0.12500000000E+03 0.  0.
         25    1    1    2    0    0  0.17479237311E+03 -0.23925666697E+03 -0.77863068574E+03  0.84242914904E+03  0.12500000000E+03 0.  0.
</event>
<event>
 5    0  0.5510933E-005  0.2071592E+03  0.7546771E-02  0.1143836E+00
         21   -1    0    0  502  501  0.00000000000E+00  0.00000000000E+00  0.38634134017E+03  0.38634134017E+03  0.00000000000E+00 0.  1.
         21   -1    0    0  501  502 -0.00000000000E+00 -0.00000000000E+00 -0.11108038458E+03  0.11108038458E+03  0.00000000000E+00 0.  1.
         25    1    1    2    0    0  0.13486389270E+02 -0.74630218546E+02  0.12730221386E+03  0.19386182159E+03  0.12500000000E+03 0.  0.
         25    1    1    2    0    0 -0.12427118958E+02  0.56219882903E+02  0.63411318026E+02  0.15152921756E+03  0.12500000000E+03 0.  0.
         25    1    1    2    0    0 -0.10592703124E+01  0.18410335643E+02  0.84547423701E+02  0.15203068561E+03  0.12500000000E+03 0.  0.
</event>
<event>
 5    0  0.5510933E-005  0.3140738E+03  0.7546771E-02  0.1078410E+00
         21   -1    0    0  502  501  0.00000000000E+00  0.00000000000E+00  0.11133292980E+03  0.11133292980E+03  0.00000000000E+00 0. -1.
         21   -1    0    0  501  502 -0.00000000000E+00 -0.00000000000E+00 -0.88601222581E+03  0.88601222581E+03  0.00000000000E+00 0. -1.
         25    1    1    2    0    0  0.17922096493E+03 -0.79822047188E+02 -0.40868058995E+03  0.47025156894E+03  0.12500000000E+03 0.  0.
         25    1    1    2    0    0 -0.51039338707E+02 -0.57815608069E+02 -0.97698803970E+02  0.17640213981E+03  0.12500000000E+03 0.  0.
         25    1    1    2    0    0 -0.12818162622E+03  0.13763765526E+03 -0.26829990209E+03  0.35069144687E+03  0.12500000000E+03 0.  0.
</event>
<event>
 5    0  0.5510933E-005  0.2740843E+03  0.7546771E-02  0.1098965E+00
         21   -1    0    0  502  501  0.00000000000E+00  0.00000000000E+00  0.51838685823E+03  0.51838685823E+03  0.00000000000E+00 0. -1.
         21   -1    0    0  501  502 -0.00000000000E+00 -0.00000000000E+00 -0.14491534572E+03  0.14491534572E+03  0.00000000000E+00 0. -1.
         25    1    1    2    0    0 -0.46736090699E+02 -0.66525646241E+02  0.15734054915E+03  0.21677401179E+03  0.12500000000E+03 0.  0.
         25    1    1    2    0    0  0.33463457991E+02 -0.60415116460E+02 -0.26474341117E+02  0.14524351984E+03  0.12500000000E+03 0.  0.
         25    1    1    2    0    0  0.13272632708E+02  0.12694076270E+03  0.24260530448E+03  0.30128467232E+03  0.12500000000E+03 0.  0.
</event>
<event>
 5    0  0.5601868E-005  0.2921271E+03  0.7546771E-02  0.1089244E+00
         21   -1    0    0  502  501  0.00000000000E+00  0.00000000000E+00  0.64254038859E+03  0.64254038859E+03  0.00000000000E+00 0.  1.
         21   -1    0    0  501  502 -0.00000000000E+00 -0.00000000000E+00 -0.13281378179E+03  0.13281378179E+03  0.00000000000E+00 0.  1.
         25    1    1    2    0    0  0.75885307391E+02  0.13460001848E+03  0.18340389260E+03  0.27043988736E+03  0.12500000000E+03 0.  0.
         25    1    1    2    0    0 -0.92026148262E+02 -0.39753227265E+02  0.21461375853E+02  0.16166236945E+03  0.12500000000E+03 0.  0.
         25    1    1    2    0    0  0.16140840871E+02 -0.94846791216E+02  0.30486133835E+03  0.34325191357E+03  0.12500000000E+03 0.  0.
</event>
<event>
 5    0  0.5510933E-005  0.3139180E+03  0.7546771E-02  0.1078483E+00
         21   -1    0    0  502  501  0.00000000000E+00  0.00000000000E+00  0.98544394684E+02  0.98544394684E+02  0.00000000000E+00 0.  1.
         21   -1    0    0  501  502 -0.00000000000E+00 -0.00000000000E+00 -0.10000010038E+04  0.10000010038E+04  0.00000000000E+00 0.  1.
         25    1    1    2    0    0 -0.35078926126E+02  0.72786559720E+02 -0.13986385443E+03  0.20424326699E+03  0.12500000000E+03 0.  0.
         25    1    1    2    0    0  0.15186843152E+02  0.15917374702E+03 -0.29488673932E+03  0.35798060139E+03  0.12500000000E+03 0.  0.
         25    1    1    2    0    0  0.19892082974E+02 -0.23196030674E+03 -0.46670601533E+03  0.53632153007E+03  0.12500000000E+03 0.  0.
</event>
<event>
 5    0  0.5510933E-005  0.3626774E+03  0.7546771E-02  0.1057529E+00
         21   -1    0    0  502  501  0.00000000000E+00  0.00000000000E+00  0.90808052397E+03  0.90808052397E+03  0.00000000000E+00 0. -1.
         21   -1    0    0  501  502 -0.00000000000E+00 -0.00000000000E+00 -0.14484935244E+03  0.14484935244E+03  0.00000000000E+00 0. -1.
         25    1    1    2    0    0 -0.91389315773E+02 -0.12352070425E+03  0.12260566412E+03  0.23295175528E+03  0.12500000000E+03 0.  0.
         25    1    1    2    0    0 -0.10307023517E+03  0.76042499776E+02  0.52988277760E+03  0.55929124180E+03  0.12500000000E+03 0.  0.
         25    1    1    2    0    0  0.19445955095E+03  0.47478204471E+02  0.11074272980E+03  0.26068687934E+03  0.12500000000E+03 0.  0.
</event>
<event>
 5    0  0.5510933E-005  0.2152567E+03  0.7546771E-02  0.1137470E+00
         21   -1    0    0  502  501  0.00000000000E+00  0.00000000000E+00  0.22737985192E+02  0.22737985192E+02  0.00000000000E+00 0. -1.
         21   -1    0    0  501  502 -0.00000000000E+00 -0.00000000000E+00 -0.20377996759E+04  0.20377996759E+04  0.00000000000E+00 0. -1.
         25    1    1    2    0    0  0.69224224397E+02 -0.24657329359E+02 -0.48267254989E+03  0.50398191193E+03  0.12500000000E+03 0.  0.
         25    1    1    2    0    0 -0.50851983192E+02 -0.57541516583E+00 -0.58005013017E+03  0.59554127381E+03  0.12500000000E+03 0.  0.
         25    1    1    2    0    0 -0.18372241205E+02  0.25232744525E+02 -0.95233901063E+03  0.96101447534E+03  0.12500000000E+03 0.  0.
</event>
<event>
 5    0  0.5510933E-005  0.4034146E+03  0.7546771E-02  0.1042604E+00
         21   -1    0    0  502  501  0.00000000000E+00  0.00000000000E+00  0.10956276467E+04  0.10956276467E+04  0.00000000000E+00 0.  1.
         21   -1    0    0  501  502 -0.00000000000E+00 -0.00000000000E+00 -0.14853889695E+03  0.14853889695E+03  0.00000000000E+00 0.  1.
         25    1    1    2    0    0  0.10860285943E+03 -0.62223609525E+02  0.13042883857E+03  0.21977952723E+03  0.12500000000E+03 0.  0.
         25    1    1    2    0    0 -0.25958909120E+03 -0.15343116660E+03  0.40958127221E+03  0.52374558490E+03  0.12500000000E+03 0.  0.
         25    1    1    2    0    0  0.15098623177E+03  0.21565477613E+03  0.40707863897E+03  0.50064143152E+03  0.12500000000E+03 0.  0.
</event>
<event>
 5    0  0.5510933E-005  0.3192751E+03  0.7546771E-02  0.1075983E+00
         21   -1    0    0  502  501  0.00000000000E+00  0.00000000000E+00  0.92777459948E+02  0.92777459948E+02  0.00000000000E+00 0. -1.
         21   -1    0    0  501  502 -0.00000000000E+00 -0.00000000000E+00 -0.10987215251E+04  0.10987215251E+04  0.00000000000E+00 0. -1.
         25    1    1    2    0    0  0.20690000714E+03  0.39442741867E+02 -0.50004241147E+03  0.55680405540E+03  0.12500000000E+03 0.  0.
         25    1    1    2    0    0 -0.15917687931E+03 -0.54430812383E+02 -0.43424654654E+03  0.48217741074E+03  0.12500000000E+03 0.  0.
         25    1    1    2    0    0 -0.47723127834E+02  0.14988070516E+02 -0.71655107097E+02  0.15251751887E+03  0.12500000000E+03 0.  0.
</event>
<event>
 5    0  0.5510933E-005  0.2967853E+03  0.7546771E-02  0.1086859E+00
         21   -1    0    0  502  501  0.00000000000E+00  0.00000000000E+00  0.21545117236E+03  0.21545117236E+03  0.00000000000E+00 0.  1.
         21   -1    0    0  501  502 -0.00000000000E+00 -0.00000000000E+00 -0.40882350353E+03  0.40882350353E+03  0.00000000000E+00 0.  1.
         25    1    1    2    0    0  0.84584201263E+02  0.55038051954E+02  0.15128820481E+02  0.16136156753E+03  0.12500000000E+03 0.  0.
         25    1    1    2    0    0 -0.80431399123E+02  0.10171932413E+03 -0.94531711172E+01  0.18036183995E+03  0.12500000000E+03 0.  0.
         25    1    1    2    0    0 -0.41528021399E+01 -0.15675737608E+03 -0.19904798053E+03  0.28255126840E+03  0.12500000000E+03 0.  0.
</event>
<event>
 5    0  0.6577425E-005  0.6729581E+03  0.7546771E-02  0.9764629E-01
         21   -1    0    0  502  501  0.00000000000E+00  0.00000000000E+00  0.80400403009E+03  0.80400403009E+03  0.00000000000E+00 0.  1.
         21   -1    0    0  501  502 -0.00000000000E+00 -0.00000000000E+00 -0.56327150019E+03  0.56327150019E+03  0.00000000000E+00 0.  1.
         25    1    1    2    0    0  0.23852156189E+03  0.35576858839E+03 -0.15238000960E+03  0.47149601408E+03  0.12500000000E+03 0.  0.
         25    1    1    2    0    0 -0.34004707515E+03  0.50281211354E+02  0.14534388545E+03  0.39358615140E+03  0.12500000000E+03 0.  0.
         25    1    1    2    0    0  0.10152551327E+03 -0.40604979975E+03  0.24776865405E+03  0.50219336480E+03  0.12500000000E+03 0.  0.
</event>
<event>
 5    0  0.5510933E-005  0.3866198E+03  0.7546771E-02  0.1048514E+00
         21   -1    0    0  502  501  0.00000000000E+00  0.00000000000E+00  0.22389327391E+03  0.22389327391E+03  0.00000000000E+00 0.  1.
         21   -1    0    0  501  502 -0.00000000000E+00 -0.00000000000E+00 -0.66761660770E+03  0.66761660770E+03  0.00000000000E+00 0.  1.
         25    1    1    2    0    0  0.23529101786E+03  0.15903442033E+03 -0.54647548198E+02  0.31506374666E+03  0.12500000000E+03 0.  0.
         25    1    1    2    0    0 -0.12953169578E+03 -0.75447073994E+02 -0.68414982057E+02  0.20682439642E+03  0.12500000000E+03 0.  0.
         25    1    1    2    0    0 -0.10575932208E+03 -0.83587346334E+02 -0.32066080353E+03  0.36962173853E+03  0.12500000000E+03 0.  0.
</event>
<event>
 5    0  0.5510933E-005  0.3545520E+03  0.7546771E-02  0.1060762E+00
         21   -1    0    0  502  501  0.00000000000E+00  0.00000000000E+00  0.33877917837E+03  0.33877917837E+03  0.00000000000E+00 0. -1.
         21   -1    0    0  501  502 -0.00000000000E+00 -0.00000000000E+00 -0.37105914067E+03  0.37105914067E+03  0.00000000000E+00 0. -1.
         25    1    1    2    0    0  0.14952703455E+03  0.10504610281E+03  0.10834505462E+03  0.24648867851E+03  0.12500000000E+03 0.  0.
         25    1    1    2    0    0 -0.20375292928E+03 -0.13998358255E+03 -0.19456684086E+02  0.27769447623E+03  0.12500000000E+03 0.  0.
         25    1    1    2    0    0  0.54225894737E+02  0.34937479740E+02 -0.12116833282E+03  0.18565516429E+03  0.12500000000E+03 0.  0.
</event>
<event>
 5    0  0.5510933E-005  0.3424962E+03  0.7546771E-02  0.1065738E+00
         21   -1    0    0  502  501  0.00000000000E+00  0.00000000000E+00  0.24710516314E+04  0.24710516314E+04  0.00000000000E+00 0. -1.
         21   -1    0    0  501  502 -0.00000000000E+00 -0.00000000000E+00 -0.47471155487E+02  0.47471155487E+02  0.00000000000E+00 0. -1.
         25    1    1    2    0    0  0.57136832823E+02 -0.16446519059E+02  0.81782354087E+03  0.82945491116E+03  0.12500000000E+03 0.  0.
         25    1    1    2    0    0  0.19920636007E+02 -0.20172492050E+03  0.10125593770E+04  0.10401880923E+04  0.12500000000E+03 0.  0.
         25    1    1    2    0    0 -0.77057468830E+02  0.21817143956E+03  0.59319755804E+03  0.64887978348E+03  0.12500000000E+03 0.  0.
</event>
<event>
 5    0  0.5510933E-005  0.3889148E+03  0.7546771E-02  0.1047687E+00
         21   -1    0    0  502  501  0.00000000000E+00  0.00000000000E+00  0.74961525519E+03  0.74961525519E+03  0.00000000000E+00 0.  1.
         21   -1    0    0  501  502 -0.00000000000E+00 -0.00000000000E+00 -0.20177644044E+03  0.20177644044E+03  0.00000000000E+00 0.  1.
         25    1    1    2    0    0 -0.18584908396E+02 -0.10469421449E+03  0.24084762049E+03  0.29144271077E+03  0.12500000000E+03 0.  0.
         25    1    1    2    0    0 -0.21173934444E+02  0.27079124621E+03  0.15073517910E+02  0.29938010199E+03  0.12500000000E+03 0.  0.
         25    1    1    2    0    0  0.39758842840E+02 -0.16609703172E+03  0.29191767635E+03  0.36056888287E+03  0.12500000000E+03 0.  0.
</event>
<event>
 5    0  0.5510933E-005  0.3741568E+03  0.7546771E-02  0.1053115E+00
         21   -1    0    0  502  501  0.00000000000E+00  0.00000000000E+00  0.54220647708E+03  0.54220647708E+03  0.00000000000E+00 0. -1.
         21   -1    0    0  501  502 -0.00000000000E+00 -0.00000000000E+00 -0.25819189425E+03  0.25819189425E+03  0.00000000000E+00 0. -1.
         25    1    1    2    0    0 -0.38980391111E+02 -0.11337939632E+03 -0.42298506153E+01  0.17325487017E+03  0.12500000000E+03 0.  0.
         25    1    1    2    0    0  0.87548905595E+02  0.12487538009E+03 -0.96499810473E+02  0.21953561179E+03  0.12500000000E+03 0.  0.
         25    1    1    2    0    0 -0.48568514483E+02 -0.11495983767E+02  0.38474424393E+03  0.40760788937E+03  0.12500000000E+03 0.  0.
</event>
<event>
 5    0  0.5510933E-005  0.3469277E+03  0.7546771E-02  0.1063883E+00
         21   -1    0    0  502  501  0.00000000000E+00  0.00000000000E+00  0.56027478770E+03  0.56027478770E+03  0.00000000000E+00 0. -1.
         21   -1    0    0  501  502 -0.00000000000E+00 -0.00000000000E+00 -0.21482107299E+03  0.21482107299E+03  0.00000000000E+00 0.  1.
         25    1    1    2    0    0  0.21755176400E+03  0.13153025218E+03  0.13984993758E+03  0.31593034406E+03  0.12500000000E+03 0.  0.
         25    1    1    2    0    0 -0.51082080912E+02 -0.44519878449E+02 -0.15790988867E+02  0.14305856807E+03  0.12500000000E+03 0.  0.
         25    1    1    2    0    0 -0.16646968309E+03 -0.87010373727E+02  0.22139476600E+03  0.31610694857E+03  0.12500000000E+03 0.  0.
</event>
<event>
 5    0  0.5510933E-005  0.3320039E+03  0.7546771E-02  0.1070254E+00
         21   -1    0    0  502  501  0.00000000000E+00  0.00000000000E+00  0.63834917903E+03  0.63834917903E+03  0.00000000000E+00 0.  1.
         21   -1    0    0  501  502 -0.00000000000E+00 -0.00000000000E+00 -0.17267440908E+03  0.17267440908E+03  0.00000000000E+00 0.  1.
         25    1    1    2    0    0 -0.17627301690E+03 -0.75444248194E+01  0.23300146918E+02  0.21747871546E+03  0.12500000000E+03 0.  0.
         25    1    1    2    0    0 -0.23457873891E+02  0.83805626736E+01  0.52176524871E+02  0.13772398275E+03  0.12500000000E+03 0.  0.
         25    1    1    2    0    0  0.19973089079E+03 -0.83613785417E+00  0.39019809816E+03  0.45582088990E+03  0.12500000000E+03 0.  0.
</event>
<event>
 5    0  0.5510933E-005  0.2461993E+03  0.7546771E-02  0.1115731E+00
         21   -1    0    0  502  501  0.00000000000E+00  0.00000000000E+00  0.27737977624E+04  0.27737977624E+04  0.00000000000E+00 0. -1.
         21   -1    0    0  501  502 -0.00000000000E+00 -0.00000000000E+00 -0.21852376905E+02  0.21852376905E+02  0.00000000000E+00 0. -1.
         25    1    1    2    0    0 -0.50366470516E+02 -0.29277042246E+02  0.61906854924E+03  0.63424348260E+03  0.12500000000E+03 0.  0.
         25    1    1    2    0    0  0.20139167857E+01  0.93028810183E+02  0.16202770285E+04  0.16277533795E+04  0.12500000000E+03 0.  0.
         25    1    1    2    0    0  0.48352553730E+02 -0.63751767936E+02  0.51259980772E+03  0.53365327718E+03  0.12500000000E+03 0.  0.
</event>
<event>
 5    0  0.5510933E-005  0.2789193E+03  0.7546771E-02  0.1096281E+00
         21   -1    0    0  502  501  0.00000000000E+00  0.00000000000E+00  0.10080603401E+04  0.10080603401E+04  0.00000000000E+00 0. -1.
         21   -1    0    0  501  502 -0.00000000000E+00 -0.00000000000E+00 -0.77173903735E+02  0.77173903735E+02  0.00000000000E+00 0. -1.
         25    1    1    2    0    0  0.98935146285E+02 -0.10337218256E+03  0.44781946629E+03  0.48645785602E+03  0.12500000000E+03 0.  0.
         25    1    1    2    0    0 -0.58545607650E+01  0.12173428978E+03  0.14835028333E+03  0.22909893006E+03  0.12500000000E+03 0.  0.
         25    1    1    2    0    0 -0.93080585520E+02 -0.18362107221E+02  0.33471668671E+03  0.36967745772E+03  0.12500000000E+03 0.  0.
</event>
<event>
 5    0  0.5510933E-005  0.2451026E+03  0.7546771E-02  0.1116440E+00
         21   -1    0    0  502  501  0.00000000000E+00  0.00000000000E+00  0.40304217192E+03  0.40304217192E+03  0.00000000000E+00 0.  1.
         21   -1    0    0  501  502 -0.00000000000E+00 -0.00000000000E+00 -0.14905456737E+03  0.14905456737E+03  0.00000000000E+00 0.  1.
         25    1    1    2    0    0  0.74799541895E+01  0.44169430606E+00  0.19341841589E+03  0.23041664093E+03  0.12500000000E+03 0.  0.
         25    1    1    2    0    0 -0.92947184365E+02 -0.36921733886E+02  0.34388602026E+02  0.16373750170E+03  0.12500000000E+03 0.  0.
         25    1    1    2    0    0  0.85467230175E+02  0.36480039580E+02  0.26180586628E+02  0.15794259665E+03  0.12500000000E+03 0.  0.
</event>
<event>
 5    0  0.5510933E-005  0.2887912E+03  0.7546771E-02  0.1090982E+00
         21   -1    0    0  502  501  0.00000000000E+00  0.00000000000E+00  0.40075997885E+03  0.40075997885E+03  0.00000000000E+00 0.  1.
         21   -1    0    0  501  502 -0.00000000000E+00 -0.00000000000E+00 -0.20810556165E+03  0.20810556165E+03  0.00000000000E+00 0.  1.
         25    1    1    2    0    0 -0.13750951877E+03 -0.75713385393E+02  0.14903343600E+03  0.24995469494E+03  0.12500000000E+03 0.  0.
         25    1    1    2    0    0  0.11485479037E+03  0.13307480651E+03  0.40637935980E+02  0.21949252570E+03  0.12500000000E+03 0.  0.
         25    1    1    2    0    0  0.22654728395E+02 -0.57361421115E+02  0.29830452177E+01  0.13941831985E+03  0.12500000000E+03 0.  0.
</event>
<event>
 5    0  0.5510933E-005  0.4497602E+03  0.7546771E-02  0.1027794E+00
         21   -1    0    0  502  501  0.00000000000E+00  0.00000000000E+00  0.28086437882E+03  0.28086437882E+03  0.00000000000E+00 0. -1.
         21   -1    0    0  501  502 -0.00000000000E+00 -0.00000000000E+00 -0.72022036540E+03  0.72022036540E+03  0.00000000000E+00 0. -1.
         25    1    1    2    0    0 -0.92713062356E+02  0.35475529129E+03 -0.39000368870E+03  0.54970438040E+03  0.12500000000E+03 0.  0.
         25    1    1    2    0    0  0.28138726110E+02 -0.16927129929E+03 -0.51945988501E+02  0.21855879391E+03  0.12500000000E+03 0.  0.
         25    1    1    2    0    0  0.64574336246E+02 -0.18548399199E+03  0.25936906139E+01  0.23282156992E+03  0.12500000000E+03 0.  0.
</event>
<event>
 5    0  0.5510933E-005  0.2577248E+03  0.7546771E-02  0.1108518E+00
         21   -1    0    0  502  501  0.00000000000E+00  0.00000000000E+00  0.70290590404E+03  0.70290590404E+03  0.00000000000E+00 0. -1.
         21   -1    0    0  501  502 -0.00000000000E+00 -0.00000000000E+00 -0.94496368686E+02  0.94496368686E+02  0.00000000000E+00 0. -1.
         25    1    1    2    0    0  0.84427946001E+01 -0.45408628041E+02  0.22819775843E+03  0.26425828508E+03  0.12500000000E+03 0.  0.
         25    1    1    2    0    0  0.20788168671E+02  0.14730689491E+03  0.28072807701E+03  0.34141576189E+03  0.12500000000E+03 0.  0.
         25    1    1    2    0    0 -0.29230963271E+02 -0.10189826686E+03  0.99483699913E+02  0.19172822576E+03  0.12500000000E+03 0.  0.
</event>
<event>
 5    0  0.5510933E-005  0.3318889E+03  0.7546771E-02  0.1070304E+00
         21   -1    0    0  502  501  0.00000000000E+00  0.00000000000E+00  0.14000729394E+04  0.14000729394E+04  0.00000000000E+00 0.  1.
         21   -1    0    0  501  502 -0.00000000000E+00 -0.00000000000E+00 -0.78674642694E+02  0.78674642694E+02  0.00000000000E+00 0.  1.
         25    1    1    2    0    0 -0.34918183128E+02  0.58871199127E+02  0.54721038120E+03  0.56546379096E+03  0.12500000000E+03 0.  0.
         25    1    1    2    0    0  0.20040676923E+03  0.61510156405E+02  0.41339029822E+03  0.48006552798E+03  0.12500000000E+03 0.  0.
         25    1    1    2    0    0 -0.16548858610E+03 -0.12038135553E+03  0.36079761730E+03  0.43321826316E+03  0.12500000000E+03 0.  0.
</event>
<event>
 5    0  0.5510933E-005  0.3139907E+03  0.7546771E-02  0.1078449E+00
         21   -1    0    0  502  501  0.00000000000E+00  0.00000000000E+00  0.97142160378E+02  0.97142160378E+02  0.00000000000E+00 0. -1.
         21   -1    0    0  501  502 -0.00000000000E+00 -0.00000000000E+00 -0.10149058559E+04  0.10149058559E+04  0.00000000000E+00 0. -1.
         25    1    1    2    0    0  0.29271883201E+02  0.41353322200E+02 -0.18102496550E+02  0.13608688689E+03  0.12500000000E+03 0.  0.
         25    1    1    2    0    0  0.87916447346E+01  0.95050524513E+02 -0.21932529083E+03  0.26988975235E+03  0.12500000000E+03 0.  0.
         25    1    1    2    0    0 -0.38063527936E+02 -0.13640384671E+03 -0.68033590816E+03  0.70607137705E+03  0.12500000000E+03 0.  0.
</event>
<event>
 5    0  0.5510933E-005  0.4172320E+03  0.7546771E-02  0.1037971E+00
         21   -1    0    0  502  501  0.00000000000E+00  0.00000000000E+00  0.15969288931E+04  0.15969288931E+04  0.00000000000E+00 0.  1.
         21   -1    0    0  501  502 -0.00000000000E+00 -0.00000000000E+00 -0.10901083571E+03  0.10901083571E+03  0.00000000000E+00 0.  1.
         25    1    1    2    0    0 -0.18196878870E+02  0.55314740787E+02 -0.21288116593E+02  0.13953146906E+03  0.12500000000E+03 0.  0.
         25    1    1    2    0    0  0.64961064808E+02  0.30952015553E+02  0.12764699127E+04  0.12845927001E+04  0.12500000000E+03 0.  0.
         25    1    1    2    0    0 -0.46764185938E+02 -0.86266756340E+02  0.23273626134E+03  0.28181555968E+03  0.12500000000E+03 0.  0.
</event>
<event>
 5    0  0.8103644E-005  0.6675150E+03  0.7546771E-02  0.9774457E-01
         21   -1    0    0  502  501  0.00000000000E+00  0.00000000000E+00  0.40455029070E+03  0.40455029070E+03  0.00000000000E+00 0. -1.
         21   -1    0    0  501  502 -0.00000000000E+00 -0.00000000000E+00 -0.11014114121E+04  0.11014114121E+04  0.00000000000E+00 0. -1.
         25    1    1    2    0    0  0.21949076864E+02 -0.29058581306E+03 -0.27215473504E+03  0.41786968845E+03  0.12500000000E+03 0.  0.
         25    1    1    2    0    0  0.15978565345E+03  0.35211961430E+03 -0.65017465134E+03  0.76672795375E+03  0.12500000000E+03 0.  0.
         25    1    1    2    0    0 -0.18173473031E+03 -0.61533801248E+02  0.22546826501E+03  0.32136406057E+03  0.12500000000E+03 0.  0.
</event>
<event>
 5    0  0.5510933E-005  0.3683611E+03  0.7546771E-02  0.1055321E+00
         21   -1    0    0  502  501  0.00000000000E+00  0.00000000000E+00  0.25804078434E+04  0.25804078434E+04  0.00000000000E+00 0.  1.
         21   -1    0    0  501  502 -0.00000000000E+00 -0.00000000000E+00 -0.52584678474E+02  0.52584678474E+02  0.00000000000E+00 0.  1.
         25    1    1    2    0    0 -0.12558181468E+03  0.15793299991E+03  0.14826516960E+04  0.15015307777E+04  0.12500000000E+03 0.  0.
         25    1    1    2    0    0  0.13921114610E+03 -0.19145878365E+03  0.88765910147E+03  0.92714609930E+03  0.12500000000E+03 0.  0.
         25    1    1    2    0    0 -0.13629331425E+02  0.33525783734E+02  0.15751236747E+03  0.20431564491E+03  0.12500000000E+03 0.  0.
</event>
<event>
 5    0  0.5510933E-005  0.2900416E+03  0.7546771E-02  0.1090327E+00
         21   -1    0    0  502  501  0.00000000000E+00  0.00000000000E+00  0.59283037633E+02  0.59283037633E+02  0.00000000000E+00 0.  1.
         21   -1    0    0  501  502 -0.00000000000E+00 -0.00000000000E+00 -0.14190250609E+04  0.14190250609E+04  0.00000000000E+00 0.  1.
         25    1    1    2    0    0 -0.10855514954E+03 -0.16240914811E+03 -0.58780917535E+03  0.63190630516E+03  0.12500000000E+03 0.  0.
         25    1    1    2    0    0  0.11600017118E+03  0.53332327094E+02 -0.35014036042E+03  0.39309496158E+03  0.12500000000E+03 0.  0.
         25    1    1    2    0    0 -0.74450216390E+01  0.10907682102E+03 -0.42179248748E+03  0.45330683176E+03  0.12500000000E+03 0.  0.
</event>
<event>
 5    0  0.5510933E-005  0.2306772E+03  0.7546771E-02  0.1126164E+00
         21   -1    0    0  502  501  0.00000000000E+00  0.00000000000E+00  0.20532195763E+03  0.20532195763E+03  0.00000000000E+00 0. -1.
         21   -1    0    0  501  502 -0.00000000000E+00 -0.00000000000E+00 -0.25916359635E+03  0.25916359635E+03  0.00000000000E+00 0. -1.
         25    1    1    2    0    0  0.75750966429E+02  0.42002029247E+02  0.14445205657E+01  0.15208374672E+03  0.12500000000E+03 0.  0.
         25    1    1    2    0    0 -0.66434627069E+02 -0.93690257631E+02 -0.12448134233E+02  0.17020981198E+03  0.12500000000E+03 0.  0.
         25    1    1    2    0    0 -0.93163393605E+01  0.51688228384E+02 -0.42838025049E+02  0.14219199528E+03  0.12500000000E+03 0.  0.
</event>
<event>
 5    0  0.5510933E-005  0.5405419E+03  0.7546771E-02  0.1003707E+00
         21   -1    0    0  502  501  0.00000000000E+00  0.00000000000E+00  0.60845740113E+03  0.60845740113E+03  0.00000000000E+00 0.  1.
         21   -1    0    0  501  502 -0.00000000000E+00 -0.00000000000E+00 -0.48020706832E+03  0.48020706832E+03  0.00000000000E+00 0.  1.
         25    1    1    2    0    0  0.21062777912E+03  0.26797668382E+03  0.37414453972E+03  0.52132974308E+03  0.12500000000E+03 0.  0.
         25    1    1    2    0    0  0.30862979904E+02 -0.16221771974E+03 -0.41827743506E+02  0.21128575970E+03  0.12500000000E+03 0.  0.
         25    1    1    2    0    0 -0.24149075902E+03 -0.10575896409E+03 -0.20406646341E+03  0.35604896667E+03  0.12500000000E+03 0.  0.
</event>
<event>
 5    0  0.5510933E-005  0.2297659E+03  0.7546771E-02  0.1126805E+00
         21   -1    0    0  502  501  0.00000000000E+00  0.00000000000E+00  0.12172152771E+04  0.12172152771E+04  0.00000000000E+00 0. -1.
         21   -1    0    0  501  502 -0.00000000000E+00 -0.00000000000E+00 -0.43371432237E+02  0.43371432237E+02  0.00000000000E+00 0. -1.
         25    1    1    2    0    0  0.26294311035E+02  0.62617043519E+02  0.36406851347E+03  0.39087487439E+03  0.12500000000E+03 0.  0.
         25    1    1    2    0    0  0.10225664293E+02  0.53666908302E+02  0.27174611608E+03  0.30406521153E+03  0.12500000000E+03 0.  0.
         25    1    1    2    0    0 -0.36519975327E+02 -0.11628395182E+03  0.53802921528E+03  0.56564662338E+03  0.12500000000E+03 0.  0.
</event>
<event>
 5    0  0.5510933E-005  0.2684901E+03  0.7546771E-02  0.1102147E+00
         21   -1    0    0  502  501  0.00000000000E+00  0.00000000000E+00  0.43195450978E+03  0.43195450978E+03  0.00000000000E+00 0.  1.
         21   -1    0    0  501  502 -0.00000000000E+00 -0.00000000000E+00 -0.16688549395E+03  0.16688549395E+03  0.00000000000E+00 0.  1.
         25    1    1    2    0    0 -0.64883867440E+02 -0.36554891712E+02  0.12850680189E+03  0.19412669702E+03  0.12500000000E+03 0.  0.
         25    1    1    2    0    0  0.90071611728E+01 -0.87937166120E+01 -0.76744947702E+02  0.14721835960E+03  0.12500000000E+03 0.  0.
         25    1    1    2    0    0  0.55876706267E+02  0.45348608324E+02  0.21330716165E+03  0.25749494711E+03  0.12500000000E+03 0.  0.
</event>
<event>
 5    0  0.5510933E-005  0.2504155E+03  0.7546771E-02  0.1113043E+00
         21   -1    0    0  502  501  0.00000000000E+00  0.00000000000E+00  0.56708762309E+02  0.56708762309E+02  0.00000000000E+00 0. -1.
         21   -1    0    0  501  502 -0.00000000000E+00 -0.00000000000E+00 -0.11057889213E+04  0.11057889213E+04  0.00000000000E+00 0. -1.
         25    1    1    2    0    0  0.45051855159E+02  0.10779316065E+03 -0.43473252986E+03  0.46718990534E+03  0.12500000000E+03 0.  0.
         25    1    1    2    0    0 -0.58559847593E+02 -0.14854483240E+02 -0.14564185812E+03  0.20121248038E+03  0.12500000000E+03 0.  0.
         25    1    1    2    0    0  0.13507992434E+02 -0.92938677405E+02 -0.46870577098E+03  0.49409529786E+03  0.12500000000E+03 0.  0.
</event>
<event>
 5    0  0.5510933E-005  0.2725301E+03  0.7546771E-02  0.1099840E+00
         21   -1    0    0  502  501  0.00000000000E+00  0.00000000000E+00  0.88351460289E+02  0.88351460289E+02  0.00000000000E+00 0. -1.
         21   -1    0    0  501  502 -0.00000000000E+00 -0.00000000000E+00 -0.84064974668E+03  0.84064974668E+03  0.00000000000E+00 0. -1.
         25    1    1    2    0    0 -0.43704325659E+02 -0.47687972649E+01 -0.16511531795E+03  0.21170941815E+03  0.12500000000E+03 0.  0.
         25    1    1    2    0    0  0.83452966881E+01  0.14612573985E+03 -0.42279486678E+03  0.46454588062E+03  0.12500000000E+03 0.  0.
         25    1    1    2    0    0  0.35359028971E+02 -0.14135694259E+03 -0.16438810166E+03  0.25274590821E+03  0.12500000000E+03 0.  0.
</event>
<event>
 5    0  0.5510933E-005  0.3785474E+03  0.7546771E-02  0.1051472E+00
         21   -1    0    0  502  501  0.00000000000E+00  0.00000000000E+00  0.27412729072E+03  0.27412729072E+03  0.00000000000E+00 0. -1.
         21   -1    0    0  501  502 -0.00000000000E+00 -0.00000000000E+00 -0.52274304660E+03  0.52274304660E+03  0.00000000000E+00 0. -1.
         25    1    1    2    0    0 -0.22087224747E+03  0.18004584541E+03 -0.21092199808E+03  0.37591773758E+03  0.12500000000E+03 0.  0.
         25    1    1    2    0    0  0.10229246156E+03 -0.81798641866E+01 -0.68528706332E+02  0.17564692272E+03  0.12500000000E+03 0.  0.
         25    1    1    2    0    0  0.11857978591E+03 -0.17186598123E+03  0.30834948537E+02  0.24530567702E+03  0.12500000000E+03 0.  0.
</event>
<event>
 5    0  0.5510933E-005  0.2729121E+03  0.7546771E-02  0.1099624E+00
         21   -1    0    0  502  501  0.00000000000E+00  0.00000000000E+00  0.11237243176E+03  0.11237243176E+03  0.00000000000E+00 0. -1.
         21   -1    0    0  501  502 -0.00000000000E+00 -0.00000000000E+00 -0.66280489197E+03  0.66280489197E+03  0.00000000000E+00 0. -1.
         25    1    1    2    0    0  0.11973637555E+03  0.64308837753E+02 -0.26484392317E+03  0.32286178139E+03  0.12500000000E+03 0.  0.
         25    1    1    2    0    0  0.29315827930E+02 -0.72083921918E+02 -0.17392040499E+03  0.22787895216E+03  0.12500000000E+03 0.  0.
         25    1    1    2    0    0 -0.14905220348E+03  0.77750841651E+01 -0.11166813205E+03  0.22443659018E+03  0.12500000000E+03 0.  0.
</event>
<event>
 5    0  0.5510933E-005  0.4284667E+03  0.7546771E-02  0.1034345E+00
         21   -1    0    0  502  501  0.00000000000E+00  0.00000000000E+00  0.14951113965E+03  0.14951113965E+03  0.00000000000E+00 0. -1.
         21   -1    0    0  501  502 -0.00000000000E+00 -0.00000000000E+00 -0.12278933392E+04  0.12278933392E+04  0.00000000000E+00 0. -1.
         25    1    1    2    0    0  0.16786241721E+03  0.75499718352E+02 -0.34466772644E+03  0.41024241643E+03  0.12500000000E+03 0.  0.
         25    1    1    2    0    0  0.13729982199E+03  0.14313404567E+03 -0.27712677320E+03  0.36299152135E+03  0.12500000000E+03 0.  0.
         25    1    1    2    0    0 -0.30516223920E+03 -0.21863376402E+03 -0.45658769993E+03  0.60417054110E+03  0.12500000000E+03 0.  0.
</event>
<event>
 5    0  0.5510933E-005  0.3306603E+03  0.7546771E-02  0.1070845E+00
         21   -1    0    0  502  501  0.00000000000E+00  0.00000000000E+00  0.49563929890E+03  0.49563929890E+03  0.00000000000E+00 0. -1.
         21   -1    0    0  501  502 -0.00000000000E+00 -0.00000000000E+00 -0.22059637782E+03  0.22059637782E+03  0.00000000000E+00 0. -1.
         25    1    1    2    0    0 -0.21975952456E+03  0.50318197535E+02  0.24665006855E+03  0.35677363405E+03  0.12500000000E+03 0.  0.
         25    1    1    2    0    0  0.16624527083E+03 -0.54196887563E+02 -0.18112905731E+02  0.21570319898E+03  0.12500000000E+03 0.  0.
         25    1    1    2    0    0  0.53514253731E+02  0.38786900282E+01  0.46505758258E+02  0.14375884369E+03  0.12500000000E+03 0.  0.
</event>
<event>
 5    0  0.5510933E-005  0.2631705E+03  0.7546771E-02  0.1105253E+00
         21   -1    0    0  502  501  0.00000000000E+00  0.00000000000E+00  0.89704231182E+03  0.89704231182E+03  0.00000000000E+00 0. -1.
         21   -1    0    0  501  502 -0.00000000000E+00 -0.00000000000E+00 -0.77207841566E+02  0.77207841566E+02  0.00000000000E+00 0. -1.
         25    1    1    2    0    0 -0.93874243588E+02 -0.49686994907E+01  0.15945367015E+03  0.22335517569E+03  0.12500000000E+03 0.  0.
         25    1    1    2    0    0  0.23917880970E+00 -0.81016883155E+02  0.45583119817E+03  0.47955278520E+03  0.12500000000E+03 0.  0.
         25    1    1    2    0    0  0.93635064779E+02  0.85985582645E+02  0.20454960193E+03  0.27134219250E+03  0.12500000000E+03 0.  0.
</event>
<event>
 5    0  0.5510933E-005  0.2444648E+03  0.7546771E-02  0.1116854E+00
         21   -1    0    0  502  501  0.00000000000E+00  0.00000000000E+00  0.52661430269E+03  0.52661430269E+03  0.00000000000E+00 0.  1.
         21   -1    0    0  501  502 -0.00000000000E+00 -0.00000000000E+00 -0.11348538969E+03  0.11348538969E+03  0.00000000000E+00 0.  1.
         25    1    1    2    0    0 -0.30378209588E+02 -0.64315663417E+02  0.16006777458E+02  0.14470852464E+03  0.12500000000E+03 0.  0.
         25    1    1    2    0    0 -0.82305961817E+00  0.21591256907E+02  0.30776731468E+03  0.33288523516E+03  0.12500000000E+03 0.  0.
         25    1    1    2    0    0  0.31201269206E+02  0.42724406510E+02  0.89354820859E+02  0.16250593258E+03  0.12500000000E+03 0.  0.
</event>
<event>
 5    0  0.5510933E-005  0.4579541E+03  0.7546771E-02  0.1025376E+00
         21   -1    0    0  502  501  0.00000000000E+00  0.00000000000E+00  0.10875305844E+04  0.10875305844E+04  0.00000000000E+00 0.  1.
         21   -1    0    0  501  502 -0.00000000000E+00 -0.00000000000E+00 -0.19284237336E+03  0.19284237336E+03  0.00000000000E+00 0.  1.
         25    1    1    2    0    0  0.32347659615E+02 -0.27012657077E+03  0.78264206106E+02  0.30945924009E+03  0.12500000000E+03 0.  0.
         25    1    1    2    0    0 -0.16935996815E+03  0.21684223685E+02  0.27480677770E+03  0.34683824679E+03  0.12500000000E+03 0.  0.
         25    1    1    2    0    0  0.13701230853E+03  0.24844234708E+03  0.54161722719E+03  0.62407547084E+03  0.12500000000E+03 0.  0.
</event>
<event>
 5    0  0.5510933E-005  0.3112389E+03  0.7546771E-02  0.1079754E+00
         21   -1    0    0  502  501  0.00000000000E+00  0.00000000000E+00  0.21542515545E+03  0.21542515545E+03  0.00000000000E+00 0. -1.
         21   -1    0    0  501  502 -0.00000000000E+00 -0.00000000000E+00 -0.44966739608E+03  0.44966739608E+03  0.00000000000E+00 0. -1.
         25    1    1    2    0    0 -0.19996129651E+03  0.59168334353E+02 -0.13871229795E+03  0.27991340356E+03  0.12500000000E+03 0.  0.
         25    1    1    2    0    0  0.10708300464E+03 -0.60662930063E+01  0.42850130716E+02  0.17019019800E+03  0.12500000000E+03 0.  0.
         25    1    1    2    0    0  0.92878291870E+02 -0.53102041347E+02 -0.13838007339E+03  0.21498894997E+03  0.12500000000E+03 0.  0.
</event>
<event>
 5    0  0.5510933E-005  0.3139480E+03  0.7546771E-02  0.1078469E+00
         21   -1    0    0  502  501  0.00000000000E+00  0.00000000000E+00  0.11117950297E+04  0.11117950297E+04  0.00000000000E+00 0.  1.
         21   -1    0    0  501  502 -0.00000000000E+00 -0.00000000000E+00 -0.88652446411E+02  0.88652446411E+02  0.00000000000E+00 0.  1.
         25    1    1    2    0    0 -0.57365522096E+02 -0.70385730998E+02  0.11415826219E+03  0.19209909703E+03  0.12500000000E+03 0.  0.
         25    1    1    2    0    0 -0.72121411027E+02 -0.61328874039E+02  0.14897030212E+03  0.21628656832E+03  0.12500000000E+03 0.  0.
         25    1    1    2    0    0  0.12948693312E+03  0.13171460504E+03  0.76001401894E+03  0.79206181073E+03  0.12500000000E+03 0.  0.
</event>
<event>
 5    0  0.5510933E-005  0.2321950E+03  0.7546771E-02  0.1125104E+00
         21   -1    0    0  502  501  0.00000000000E+00  0.00000000000E+00  0.87078589753E+02  0.87078589753E+02  0.00000000000E+00 0. -1.
         21   -1    0    0  501  502 -0.00000000000E+00 -0.00000000000E+00 -0.61914785090E+03  0.61914785090E+03  0.00000000000E+00 0. -1.
         25    1    1    2    0    0  0.44967954705E+02  0.65981093851E+02 -0.29226109520E+03  0.32774558649E+03  0.12500000000E+03 0.  0.
         25    1    1    2    0    0 -0.59646632998E+02 -0.18908976716E+02 -0.55527059485E+02  0.15041118497E+03  0.12500000000E+03 0.  0.
         25    1    1    2    0    0  0.14678678292E+02 -0.47072117135E+02 -0.18428110646E+03  0.22806966919E+03  0.12500000000E+03 0.  0.
</event>
<event>
 5    0  0.5510933E-005  0.3269865E+03  0.7546771E-02  0.1072478E+00
         21   -1    0    0  502  501  0.00000000000E+00  0.00000000000E+00  0.68989274759E+03  0.68989274759E+03  0.00000000000E+00 0.  1.
         21   -1    0    0  501  502 -0.00000000000E+00 -0.00000000000E+00 -0.15498088222E+03  0.15498088222E+03  0.00000000000E+00 0.  1.
         25    1    1    2    0    0 -0.15708258600E+03  0.42541318068E+02  0.34478039015E+03  0.40122714265E+03  0.12500000000E+03 0.  0.
         25    1    1    2    0    0 -0.73281504809E+01  0.25183999321E+02  0.18677195629E+03  0.22626687621E+03  0.12500000000E+03 0.  0.
         25    1    1    2    0    0  0.16441073648E+03 -0.67725317389E+02  0.33595189215E+01  0.21737961094E+03  0.12500000000E+03 0.  0.
</event>
<event>
 5    0  0.5510933E-005  0.3987954E+03  0.7546771E-02  0.1044198E+00
         21   -1    0    0  502  501  0.00000000000E+00  0.00000000000E+00  0.16047471253E+03  0.16047471253E+03  0.00000000000E+00 0.  1.
         21   -1    0    0  501  502 -0.00000000000E+00 -0.00000000000E+00 -0.99104588194E+03  0.99104588194E+03  0.00000000000E+00 0.  1.
         25    1    1    2    0    0 -0.92400945392E+02 -0.29907521075E+02 -0.14340481573E+03  0.21359385689E+03  0.12500000000E+03 0.  0.
         25    1    1    2    0    0  0.17401029857E+03 -0.39272468764E+02  0.13461868394E+02  0.21823870580E+03  0.12500000000E+03 0.  0.
         25    1    1    2    0    0 -0.81609353173E+02  0.69179989839E+02 -0.70062822208E+03  0.71968803178E+03  0.12500000000E+03 0.  0.
</event>
<event>
 5    0  0.5510933E-005  0.2434171E+03  0.7546771E-02  0.1117537E+00
         21   -1    0    0  502  501  0.00000000000E+00  0.00000000000E+00  0.43246724926E+03  0.43246724926E+03  0.00000000000E+00 0.  1.
         21   -1    0    0  501  502 -0.00000000000E+00 -0.00000000000E+00 -0.13700897604E+03  0.13700897604E+03  0.00000000000E+00 0.  1.
         25    1    1    2    0    0  0.76440597575E+02  0.77388966535E+02  0.92107992739E+02  0.18958137943E+03  0.12500000000E+03 0.  0.
         25    1    1    2    0    0 -0.48282243684E+02 -0.66134508388E+02  0.20199674730E+03  0.25126208265E+03  0.12500000000E+03 0.  0.
         25    1    1    2    0    0 -0.28158353891E+02 -0.11254458147E+02  0.13535331757E+01  0.12863276322E+03  0.12500000000E+03 0.  0.
</event>
<event>
 5    0  0.5510933E-005  0.2488275E+03  0.7546771E-02  0.1114048E+00
         21   -1    0    0  502  501  0.00000000000E+00  0.00000000000E+00  0.47097087013E+03  0.47097087013E+03  0.00000000000E+00 0. -1.
         21   -1    0    0  501  502 -0.00000000000E+00 -0.00000000000E+00 -0.13146278989E+03  0.13146278989E+03  0.00000000000E+00 0. -1.
         25    1    1    2    0    0 -0.17112436363E+02 -0.48691641847E+02  0.58515375492E+02  0.14735250467E+03  0.12500000000E+03 0.  0.
         25    1    1    2    0    0 -0.10097916767E+03 -0.93892918839E+01  0.19890359827E+03  0.25587612728E+03  0.12500000000E+03 0.  0.
         25    1    1    2    0    0  0.11809160404E+03  0.58080933731E+02  0.82089106474E+02  0.19920502807E+03  0.12500000000E+03 0.  0.
</event>
<event>
 5    0  0.5510933E-005  0.2957298E+03  0.7546771E-02  0.1087395E+00
         21   -1    0    0  502  501  0.00000000000E+00  0.00000000000E+00  0.88689437653E+03  0.88689437653E+03  0.00000000000E+00 0.  1.
         21   -1    0    0  501  502 -0.00000000000E+00 -0.00000000000E+00 -0.98609393402E+02  0.98609393402E+02  0.00000000000E+00 0.  1.
         25    1    1    2    0    0  0.30281745044E+01  0.27574852013E+02  0.34953693694E+03  0.37225073887E+03  0.12500000000E+03 0.  0.
         25    1    1    2    0    0  0.72892915313E+02  0.14316620551E+03  0.21482235196E+03  0.29594523548E+03  0.12500000000E+03 0.  0.
         25    1    1    2    0    0 -0.75921089817E+02 -0.17074105752E+03  0.22392569423E+03  0.31730779559E+03  0.12500000000E+03 0.  0.
</event>
<event>
 5    0  0.5510933E-005  0.2625032E+03  0.7546771E-02  0.1105649E+00
         21   -1    0    0  502  501  0.00000000000E+00  0.00000000000E+00  0.58172625221E+02  0.58172625221E+02  0.00000000000E+00 0.  1.
         21   -1    0    0  501  502 -0.00000000000E+00 -0.00000000000E+00 -0.11845421103E+04  0.11845421103E+04  0.00000000000E+00 0.  1.
         25    1    1    2    0    0  0.69155093285E+02  0.88017578173E+02 -0.33402276351E+03  0.37379904700E+03  0.12500000000E+03 0.  0.
         25    1    1    2    0    0 -0.16744585651E+02  0.30748347980E+02 -0.56012269936E+03  0.57496806902E+03  0.12500000000E+03 0.  0.
         25    1    1    2    0    0 -0.52410507634E+02 -0.11876592615E+03 -0.23222402225E+03  0.29394761954E+03  0.12500000000E+03 0.  0.
</event>
<event>
 5    0  0.5510933E-005  0.3264946E+03  0.7546771E-02  0.1072699E+00
         21   -1    0    0  502  501  0.00000000000E+00  0.00000000000E+00  0.16509106966E+04  0.16509106966E+04  0.00000000000E+00 0.  1.
         21   -1    0    0  501  502 -0.00000000000E+00 -0.00000000000E+00 -0.64569655338E+02  0.64569655338E+02  0.00000000000E+00 0.  1.
         25    1    1    2    0    0 -0.17043519692E+03  0.48551571981E+02  0.47261526958E+03  0.51999577357E+03  0.12500000000E+03 0.  0.
         25    1    1    2    0    0  0.19802609097E+02 -0.13788894093E+03  0.29835616793E+03  0.35220293341E+03  0.12500000000E+03 0.  0.
         25    1    1    2    0    0  0.15063258783E+03  0.89337368949E+02  0.81536960374E+03  0.84328164495E+03  0.12500000000E+03 0.  0.
</event>
<event>
 5    0  0.5510933E-005  0.2652163E+03  0.7546771E-02  0.1104049E+00
         21   -1    0    0  502  501  0.00000000000E+00  0.00000000000E+00  0.53443325747E+03  0.53443325747E+03  0.00000000000E+00 0. -1.
         21   -1    0    0  501  502 -0.00000000000E+00 -0.00000000000E+00 -0.13161549211E+03  0.13161549211E+03  0.00000000000E+00 0. -1.
         25    1    1    2    0    0  0.93685644364E+02  0.60059183201E+02  0.90968324534E+02  0.19048449153E+03  0.12500000000E+03 0.  0.
         25    1    1    2    0    0  0.64816773126E+01 -0.12778188802E+03  0.11383879711E+03  0.21202475038E+03  0.12500000000E+03 0.  0.
         25    1    1    2    0    0 -0.10016732168E+03  0.67722704818E+02  0.19801064371E+03  0.26353950767E+03  0.12500000000E+03 0.  0.
</event>
<event>
 5    0  0.5510933E-005  0.2330301E+03  0.7546771E-02  0.1124525E+00
         21   -1    0    0  502  501  0.00000000000E+00  0.00000000000E+00  0.27462318506E+03  0.27462318506E+03  0.00000000000E+00 0.  1.
         21   -1    0    0  501  502 -0.00000000000E+00 -0.00000000000E+00 -0.19773655083E+03  0.19773655083E+03  0.00000000000E+00 0.  1.
         25    1    1    2    0    0 -0.37029063952E+02  0.49858462456E+02  0.42302531688E+02  0.14584759869E+03  0.12500000000E+03 0.  0.
         25    1    1    2    0    0 -0.55168916716E+02 -0.28682707763E+02  0.83030987675E+02  0.16243599358E+03  0.12500000000E+03 0.  0.
         25    1    1    2    0    0  0.92197980668E+02 -0.21175754693E+02 -0.48446885131E+02  0.16407614362E+03  0.12500000000E+03 0.  0.
</event>
<event>
 5    0  0.5510933E-005  0.3258796E+03  0.7546771E-02  0.1072975E+00
         21   -1    0    0  502  501  0.00000000000E+00  0.00000000000E+00  0.69937490632E+03  0.69937490632E+03  0.00000000000E+00 0. -1.
         21   -1    0    0  501  502 -0.00000000000E+00 -0.00000000000E+00 -0.15184635336E+03  0.15184635336E+03  0.00000000000E+00 0. -1.
         25    1    1    2    0    0 -0.14609951858E+03 -0.11138392931E+03  0.86531751264E+02  0.23846214168E+03  0.12500000000E+03 0.  0.
         25    1    1    2    0    0  0.22492709250E+02 -0.40873843968E+02  0.30448432580E+03  0.33243389982E+03  0.12500000000E+03 0.  0.
         25    1    1    2    0    0  0.12360680933E+03  0.15225777327E+03  0.15651247590E+03  0.28032521818E+03  0.12500000000E+03 0.  0.
</event>
<event>
 5    0  0.5510933E-005  0.5293581E+03  0.7546771E-02  0.1006388E+00
         21   -1    0    0  502  501  0.00000000000E+00  0.00000000000E+00  0.14892729255E+04  0.14892729255E+04  0.00000000000E+00 0. -1.
         21   -1    0    0  501  502 -0.00000000000E+00 -0.00000000000E+00 -0.18815893499E+03  0.18815893499E+03  0.00000000000E+00 0. -1.
         25    1    1    2    0    0  0.24649571282E+03  0.42467315083E+02  0.31329812964E+03  0.41993371778E+03  0.12500000000E+03 0.  0.
         25    1    1    2    0    0  0.10554101042E+03 -0.12072472464E+02  0.83792686276E+03  0.85383316685E+03  0.12500000000E+03 0.  0.
         25    1    1    2    0    0 -0.35203672325E+03 -0.30394842619E+02  0.14988899809E+03  0.40366497584E+03  0.12500000000E+03 0.  0.
</event>
<event>
 5    0  0.5510933E-005  0.3137315E+03  0.7546771E-02  0.1078571E+00
         21   -1    0    0  502  501  0.00000000000E+00  0.00000000000E+00  0.11469846057E+04  0.11469846057E+04  0.00000000000E+00 0.  1.
         21   -1    0    0  501  502 -0.00000000000E+00 -0.00000000000E+00 -0.85814078627E+02  0.85814078627E+02  0.00000000000E+00 0.  1.
         25    1    1    2    0    0 -0.11429179317E+03 -0.19168319434E+03  0.32463598066E+03  0.41330204562E+03  0.12500000000E+03 0.  0.
         25    1    1    2    0    0  0.32442514749E+02  0.15355217125E+03  0.35150445288E+03  0.40473592187E+03  0.12500000000E+03 0.  0.
         25    1    1    2    0    0  0.81849278417E+02  0.38131023086E+02  0.38503009353E+03  0.41476071683E+03  0.12500000000E+03 0.  0.
</event>
<event>
 5    0  0.5896505E-005  0.2843841E+03  0.7546771E-02  0.1093318E+00
         21   -1    0    0  502  501  0.00000000000E+00  0.00000000000E+00  0.31168293720E+03  0.31168293720E+03  0.00000000000E+00 0. -1.
         21   -1    0    0  501  502 -0.00000000000E+00 -0.00000000000E+00 -0.25947620803E+03  0.25947620803E+03  0.00000000000E+00 0. -1.
         25    1    1    2    0    0 -0.33205176807E+02  0.26377089103E+02  0.19657039108E+03  0.23677680048E+03  0.12500000000E+03 0.  0.
         25    1    1    2    0    0 -0.57253951497E+02  0.19764121889E+02 -0.84394376398E+02  0.16253013949E+03  0.12500000000E+03 0.  0.
         25    1    1    2    0    0  0.90459128303E+02 -0.46141210992E+02 -0.59969285513E+02  0.17185220525E+03  0.12500000000E+03 0.  0.
</event>
<event>
 5    0  0.5510933E-005  0.2121708E+03  0.7546771E-02  0.1139858E+00
         21   -1    0    0  502  501  0.00000000000E+00  0.00000000000E+00  0.34025378385E+02  0.34025378385E+02  0.00000000000E+00 0.  1.
         21   -1    0    0  501  502 -0.00000000000E+00 -0.00000000000E+00 -0.13230253107E+04  0.13230253107E+04  0.00000000000E+00 0.  1.
         25    1    1    2    0    0 -0.16887594925E+02  0.14171099298E+02 -0.57730482270E+03  0.59109379056E+03  0.12500000000E+03 0.  0.
         25    1    1    2    0    0 -0.26658171677E+02 -0.53027179906E+02 -0.27273745309E+03  0.30583207523E+03  0.12500000000E+03 0.  0.
         25    1    1    2    0    0  0.43545766602E+02  0.38856080608E+02 -0.43895765650E+03  0.46012482327E+03  0.12500000000E+03 0.  0.
</event>
<event>
 5    0  0.5510933E-005  0.3729512E+03  0.7546771E-02  0.1053570E+00
         21   -1    0    0  502  501  0.00000000000E+00  0.00000000000E+00  0.16418298263E+04  0.16418298263E+04  0.00000000000E+00 0. -1.
         21   -1    0    0  501  502 -0.00000000000E+00 -0.00000000000E+00 -0.84718039456E+02  0.84718039456E+02  0.00000000000E+00 0. -1.
         25    1    1    2    0    0  0.11531866649E+03 -0.79099932140E+02  0.54970818742E+02  0.19545328091E+03  0.12500000000E+03 0.  0.
         25    1    1    2    0    0 -0.56746567961E+02  0.38849520739E+02  0.94444295688E+03  0.95515807961E+03  0.12500000000E+03 0.  0.
         25    1    1    2    0    0 -0.58572098529E+02  0.40250411402E+02  0.55769801119E+03  0.57593650520E+03  0.12500000000E+03 0.  0.
</event>
<event>
 5    0  0.5510933E-005  0.2363795E+03  0.7546771E-02  0.1122228E+00
         21   -1    0    0  502  501  0.00000000000E+00  0.00000000000E+00  0.15334666521E+03  0.15334666521E+03  0.00000000000E+00 0.  1.
         21   -1    0    0  501  502 -0.00000000000E+00 -0.00000000000E+00 -0.36437215259E+03  0.36437215259E+03  0.00000000000E+00 0.  1.
         25    1    1    2    0    0  0.45427432603E+02 -0.66474233539E+02 -0.20590970744E+02  0.15010484147E+03  0.12500000000E+03 0.  0.
         25    1    1    2    0    0 -0.45400004905E+02  0.32147756222E+02 -0.19464173592E+03  0.23791814567E+03  0.12500000000E+03 0.  0.
         25    1    1    2    0    0 -0.27427698626E-01  0.34326477317E+02  0.42072192884E+01  0.12969583066E+03  0.12500000000E+03 0.  0.
</event>
<event>
 5    0  0.5510933E-005  0.3219799E+03  0.7546771E-02  0.1074742E+00
         21   -1    0    0  502  501  0.00000000000E+00  0.00000000000E+00  0.80514034289E+02  0.80514034289E+02  0.00000000000E+00 0. -1.
         21   -1    0    0  501  502 -0.00000000000E+00 -0.00000000000E+00 -0.12876149142E+04  0.12876149142E+04  0.00000000000E+00 0. -1.
         25    1    1    2    0    0 -0.89612763615E+02  0.11018661772E+03 -0.59439169152E+03  0.62377722071E+03  0.12500000000E+03 0.  0.
         25    1    1    2    0    0  0.16843374504E+03 -0.35899528715E+02 -0.17197307354E+03  0.27360270586E+03  0.12500000000E+03 0.  0.
         25    1    1    2    0    0 -0.78820981429E+02 -0.74287089004E+02 -0.44073611487E+03  0.47074902194E+03  0.12500000000E+03 0.  0.
</event>
<event>
 5    0  0.5510933E-005  0.4867658E+03  0.7546771E-02  0.1017292E+00
         21   -1    0    0  502  501  0.00000000000E+00  0.00000000000E+00  0.33234241225E+03  0.33234241225E+03  0.00000000000E+00 0.  1.
         21   -1    0    0  501  502 -0.00000000000E+00 -0.00000000000E+00 -0.71294219044E+03  0.71294219044E+03  0.00000000000E+00 0.  1.
         25    1    1    2    0    0 -0.18974254722E+03  0.21497839416E+03  0.73832068300E+01  0.31288569146E+03  0.12500000000E+03 0.  0.
         25    1    1    2    0    0 -0.16520158597E+02  0.20190724403E+02  0.83772835475E+02  0.15272023100E+03  0.12500000000E+03 0.  0.
         25    1    1    2    0    0  0.20626270582E+03 -0.23516911856E+03 -0.47175582049E+03  0.57967868022E+03  0.12500000000E+03 0.  0.
</event>
<event>
 5    0  0.5510933E-005  0.2801555E+03  0.7546771E-02  0.1095604E+00
         21   -1    0    0  502  501  0.00000000000E+00  0.00000000000E+00  0.52112838695E+02  0.52112838695E+02  0.00000000000E+00 0. -1.
         21   -1    0    0  501  502 -0.00000000000E+00 -0.00000000000E+00 -0.15060996862E+04  0.15060996862E+04  0.00000000000E+00 0. -1.
         25    1    1    2    0    0  0.54060112114E+02 -0.99442923024E+02 -0.29789394458E+03  0.34231154360E+03  0.12500000000E+03 0.  0.
         25    1    1    2    0    0  0.63221314867E+02 -0.50453555989E+02 -0.44668487797E+03  0.47084485361E+03  0.12500000000E+03 0.  0.
         25    1    1    2    0    0 -0.11728142698E+03  0.14989647901E+03 -0.70940802495E+03  0.74505612769E+03  0.12500000000E+03 0.  0.
</event>
<event>
 5    0  0.5510933E-005  0.3185847E+03  0.7546771E-02  0.1076303E+00
         21   -1    0    0  502  501  0.00000000000E+00  0.00000000000E+00  0.60743624058E+03  0.60743624058E+03  0.00000000000E+00 0. -1.
         21   -1    0    0  501  502 -0.00000000000E+00 -0.00000000000E+00 -0.16708949817E+03  0.16708949817E+03  0.00000000000E+00 0. -1.
         25    1    1    2    0    0 -0.71059198775E+02  0.15866831752E+03  0.21413473121E+03  0.30282623372E+03  0.12500000000E+03 0.  0.
         25    1    1    2    0    0  0.13376659132E+03 -0.19569590235E+03  0.16431318954E+03  0.31434727835E+03  0.12500000000E+03 0.  0.
         25    1    1    2    0    0 -0.62707392549E+02  0.37027584827E+02  0.61898821665E+02  0.15735222668E+03  0.12500000000E+03 0.  0.
</event>
<event>
 5    0  0.5510933E-005  0.3323224E+03  0.7546771E-02  0.1070114E+00
         21   -1    0    0  502  501  0.00000000000E+00  0.00000000000E+00  0.52084475464E+03  0.52084475464E+03  0.00000000000E+00 0.  1.
         21   -1    0    0  501  502 -0.00000000000E+00 -0.00000000000E+00 -0.21203668431E+03  0.21203668431E+03  0.00000000000E+00 0.  1.
         25    1    1    2    0    0 -0.15816517046E+03 -0.81334896195E+02 -0.77640983468E+02  0.23083480847E+03  0.12500000000E+03 0.  0.
         25    1    1    2    0    0  0.12246299719E+03  0.23722644817E+02  0.18821845498E+03  0.25809133336E+03  0.12500000000E+03 0.  0.
         25    1    1    2    0    0  0.35702173274E+02  0.57612251378E+02  0.19823059882E+03  0.24395529712E+03  0.12500000000E+03 0.  0.
</event>
<event>
 5    0  0.5510933E-005  0.2517497E+03  0.7546771E-02  0.1112204E+00
         21   -1    0    0  502  501  0.00000000000E+00  0.00000000000E+00  0.74870335705E+03  0.74870335705E+03  0.00000000000E+00 0. -1.
         21   -1    0    0  501  502 -0.00000000000E+00 -0.00000000000E+00 -0.84650216204E+02  0.84650216204E+02  0.00000000000E+00 0. -1.
         25    1    1    2    0    0  0.27541816960E+02  0.29719591429E+02  0.17715754471E+03  0.22057108025E+03  0.12500000000E+03 0.  0.
         25    1    1    2    0    0 -0.63753657500E+02  0.49283549650E+02  0.61449880155E+02  0.16091763384E+03  0.12500000000E+03 0.  0.
         25    1    1    2    0    0  0.36211840540E+02 -0.79003141079E+02  0.42544571599E+03  0.45186485916E+03  0.12500000000E+03 0.  0.
</event>
<event>
 5    0  0.5977731E-005  0.2814329E+03  0.7546771E-02  0.1094909E+00
         21   -1    0    0  502  501  0.00000000000E+00  0.00000000000E+00  0.20598703976E+03  0.20598703976E+03  0.00000000000E+00 0. -1.
         21   -1    0    0  501  502 -0.00000000000E+00 -0.00000000000E+00 -0.38451189872E+03  0.38451189872E+03  0.00000000000E+00 0. -1.
         25    1    1    2    0    0  0.62176428083E+02 -0.41850894087E+02 -0.53852551241E+02  0.15537857903E+03  0.12500000000E+03 0.  0.
         25    1    1    2    0    0  0.95855711488E+02 -0.76962551398E+02 -0.94796507514E+02  0.19930612028E+03  0.12500000000E+03 0.  0.
         25    1    1    2    0    0 -0.15803213957E+03  0.11881344549E+03 -0.29875800206E+02  0.23581423919E+03  0.12500000000E+03 0.  0.
</event>
<event>
 5    0  0.5510933E-005  0.3317746E+03  0.7546771E-02  0.1070354E+00
         21   -1    0    0  502  501  0.00000000000E+00  0.00000000000E+00  0.62071411693E+03  0.62071411693E+03  0.00000000000E+00 0.  1.
         21   -1    0    0  501  502 -0.00000000000E+00 -0.00000000000E+00 -0.17733510554E+03  0.17733510554E+03  0.00000000000E+00 0.  1.
         25    1    1    2    0    0 -0.16148186554E+03 -0.25421749062E+00  0.50298168355E+02  0.21031253711E+03  0.12500000000E+03 0.  0.
         25    1    1    2    0    0  0.16059560348E+01 -0.13804437662E+03  0.21462144653E+03  0.28415874845E+03  0.12500000000E+03 0.  0.
         25    1    1    2    0    0  0.15987590951E+03  0.13829859411E+03  0.17845939650E+03  0.30357793691E+03  0.12500000000E+03 0.  0.
</event>
<event>
 5    0  0.5510933E-005  0.3107225E+03  0.7546771E-02  0.1080000E+00
         21   -1    0    0  502  501  0.00000000000E+00  0.00000000000E+00  0.17607557489E+03  0.17607557489E+03  0.00000000000E+00 0.  1.
         21   -1    0    0  501  502 -0.00000000000E+00 -0.00000000000E+00 -0.54833556221E+03  0.54833556221E+03  0.00000000000E+00 0.  1.
         25    1    1    2    0    0  0.26569737361E+01  0.10739282690E+03 -0.20390273316E+03  0.26218619981E+03  0.12500000000E+03 0.  0.
         25    1    1    2    0    0 -0.68786053278E+02  0.54748187393E+02  0.44916136995E+02  0.15928384887E+03  0.12500000000E+03 0.  0.
         25    1    1    2    0    0  0.66129079542E+02 -0.16214101430E+03 -0.21327339116E+03  0.30294108843E+03  0.12500000000E+03 0.  0.
</event>
<event>
 5    0  0.5510933E-005  0.3765462E+03  0.7546771E-02  0.1052218E+00
         21   -1    0    0  502  501  0.00000000000E+00  0.00000000000E+00  0.44074999178E+03  0.44074999178E+03  0.00000000000E+00 0. -1.
         21   -1    0    0  501  502 -0.00000000000E+00 -0.00000000000E+00 -0.32169495059E+03  0.32169495059E+03  0.00000000000E+00 0. -1.
         25    1    1    2    0    0  0.85540498556E+02 -0.20344967338E+03  0.33224837093E+02  0.25580820216E+03  0.12500000000E+03 0.  0.
         25    1    1    2    0    0 -0.43751783869E+02  0.23815199940E+03  0.19244151930E+03  0.33360055719E+03  0.12500000000E+03 0.  0.
         25    1    1    2    0    0 -0.41788714688E+02 -0.34702326016E+02 -0.10661131520E+03  0.17303618302E+03  0.12500000000E+03 0.  0.
</event>
<event>
 5    0  0.5510933E-005  0.3647661E+03  0.7546771E-02  0.1056712E+00
         21   -1    0    0  502  501  0.00000000000E+00  0.00000000000E+00  0.20158291966E+04  0.20158291966E+04  0.00000000000E+00 0.  1.
         21   -1    0    0  501  502 -0.00000000000E+00 -0.00000000000E+00 -0.66004742307E+02  0.66004742307E+02  0.00000000000E+00 0.  1.
         25    1    1    2    0    0  0.86541279435E+02  0.83255735326E+02  0.85506218333E+03  0.87245472540E+03  0.12500000000E+03 0.  0.
         25    1    1    2    0    0  0.29077232499E+02  0.64274426049E+02  0.90058906519E+03  0.91195523555E+03  0.12500000000E+03 0.  0.
         25    1    1    2    0    0 -0.11561851193E+03 -0.14753016137E+03  0.19417320572E+03  0.29742397791E+03  0.12500000000E+03 0.  0.
</event>
<event>
 5    0  0.5510933E-005  0.3039196E+03  0.7546771E-02  0.1083297E+00
         21   -1    0    0  502  501  0.00000000000E+00  0.00000000000E+00  0.18112350136E+03  0.18112350136E+03  0.00000000000E+00 0. -1.
         21   -1    0    0  501  502 -0.00000000000E+00 -0.00000000000E+00 -0.50996766908E+03  0.50996766908E+03  0.00000000000E+00 0. -1.
         25    1    1    2    0    0  0.11788815454E+02 -0.10394566791E+03 -0.70821845290E+02  0.17772003775E+03  0.12500000000E+03 0.  0.
         25    1    1    2    0    0  0.37777385294E+02  0.20485968627E+03 -0.24454976284E+03  0.34470887485E+03  0.12500000000E+03 0.  0.
         25    1    1    2    0    0 -0.49566200748E+02 -0.10091401836E+03 -0.13472559596E+02  0.16866225784E+03  0.12500000000E+03 0.  0.
</event>
<event>
 5    0  0.5510933E-005  0.2989869E+03  0.7546771E-02  0.1085748E+00
         21   -1    0    0  502  501  0.00000000000E+00  0.00000000000E+00  0.10550221510E+04  0.10550221510E+04  0.00000000000E+00 0.  1.
         21   -1    0    0  501  502 -0.00000000000E+00 -0.00000000000E+00 -0.84731083054E+02  0.84731083054E+02  0.00000000000E+00 0.  1.
         25    1    1    2    0    0 -0.75421971760E+02  0.14416324020E+03  0.21029034071E+03  0.29380017196E+03  0.12500000000E+03 0.  0.
         25    1    1    2    0    0 -0.52455335131E+02 -0.13550477641E+03  0.36470835342E+03  0.41200763302E+03  0.12500000000E+03 0.  0.
         25    1    1    2    0    0  0.12787730689E+03 -0.86584637880E+01  0.39529237382E+03  0.43394542907E+03  0.12500000000E+03 0.  0.
</event>
<event>
 5    0  0.5510933E-005  0.2106340E+03  0.7546771E-02  0.1141065E+00
         21   -1    0    0  502  501  0.00000000000E+00  0.00000000000E+00  0.14689851840E+02  0.14689851840E+02  0.00000000000E+00 0. -1.
         21   -1    0    0  501  502 -0.00000000000E+00 -0.00000000000E+00 -0.30202259013E+04  0.30202259013E+04  0.00000000000E+00 0. -1.
         25    1    1    2    0    0 -0.64607114563E+01 -0.74097987040E+01 -0.57374975078E+03  0.58729074778E+03  0.12500000000E+03 0.  0.
         25    1    1    2    0    0 -0.64377730387E+01  0.42515254305E+02 -0.16238121277E+04  0.16291837889E+04  0.12500000000E+03 0.  0.
         25    1    1    2    0    0  0.12898484495E+02 -0.35105455601E+02 -0.80797417093E+03  0.81844121646E+03  0.12500000000E+03 0.  0.
</event>
<event>
 5    0  0.5510933E-005  0.2931271E+03  0.7546771E-02  0.1088728E+00
         21   -1    0    0  502  501  0.00000000000E+00  0.00000000000E+00  0.18052317896E+04  0.18052317896E+04  0.00000000000E+00 0.  1.
         21   -1    0    0  501  502 -0.00000000000E+00 -0.00000000000E+00 -0.47596926172E+02  0.47596926172E+02  0.00000000000E+00 0.  1.
         25    1    1    2    0    0  0.12640571461E+03  0.13892131068E+03  0.51452119524E+03  0.56181366626E+03  0.12500000000E+03 0.  0.
         25    1    1    2    0    0 -0.26150479510E+02 -0.13722072081E+03  0.71103165621E+03  0.73532604328E+03  0.12500000000E+03 0.  0.
         25    1    1    2    0    0 -0.10025523510E+03 -0.17005898767E+01  0.53208201200E+03  0.55568900625E+03  0.12500000000E+03 0.  0.
</event>
<event>
 5    0  0.5523779E-005  0.2736474E+03  0.7546771E-02  0.1099210E+00
         21   -1    0    0  502  501  0.00000000000E+00  0.00000000000E+00  0.48215121553E+03  0.48215121553E+03  0.00000000000E+00 0. -1.
         21   -1    0    0  501  502 -0.00000000000E+00 -0.00000000000E+00 -0.15530998426E+03  0.15530998426E+03  0.00000000000E+00 0. -1.
         25    1    1    2    0    0  0.24428966548E+01  0.80549073975E+02  0.14028681402E+03  0.20444928772E+03  0.12500000000E+03 0.  0.
         25    1    1    2    0    0  0.10910198837E+03  0.55454971825E+02  0.86530442107E+02  0.19516919628E+03  0.12500000000E+03 0.  0.
         25    1    1    2    0    0 -0.11154488502E+03 -0.13600404580E+03  0.10002397515E+03  0.23784271579E+03  0.12500000000E+03 0.  0.
</event>
<event>
 5    0  0.5510933E-005  0.5175318E+03  0.7546771E-02  0.1009302E+00
         21   -1    0    0  502  501  0.00000000000E+00  0.00000000000E+00  0.34428213383E+03  0.34428213383E+03  0.00000000000E+00 0. -1.
         21   -1    0    0  501  502 -0.00000000000E+00 -0.00000000000E+00 -0.77796425326E+03  0.77796425326E+03  0.00000000000E+00 0. -1.
         25    1    1    2    0    0 -0.33809350518E+03  0.20559329562E+02  0.57315824734E+02  0.36556806212E+03  0.12500000000E+03 0.  0.
         25    1    1    2    0    0  0.39426465108E+03  0.57153926330E+02 -0.37248400536E+03  0.55953598690E+03  0.12500000000E+03 0.  0.
         25    1    1    2    0    0 -0.56171145901E+02 -0.77713255892E+02 -0.11851393879E+03  0.19714233808E+03  0.12500000000E+03 0.  0.
</event>
<event>
 5    0  0.5510933E-005  0.3485315E+03  0.7546771E-02  0.1063219E+00
         21   -1    0    0  502  501  0.00000000000E+00  0.00000000000E+00  0.34175283906E+03  0.34175283906E+03  0.00000000000E+00 0. -1.
         21   -1    0    0  501  502 -0.00000000000E+00 -0.00000000000E+00 -0.35544455644E+03  0.35544455644E+03  0.00000000000E+00 0. -1.
         25    1    1    2    0    0 -0.18750469202E+03 -0.15905845881E+03 -0.55136631220E+02  0.28128748808E+03  0.12500000000E+03 0.  0.
         25    1    1    2    0    0  0.13393477466E+03 -0.25085024557E+02  0.17182235896E+02  0.18570948159E+03  0.12500000000E+03 0.  0.
         25    1    1    2    0    0  0.53569917355E+02  0.18414348337E+03  0.24262677949E+02  0.23020042583E+03  0.12500000000E+03 0.  0.
</event>
<event>
 5    0  0.5510933E-005  0.3525373E+03  0.7546771E-02  0.1061578E+00
         21   -1    0    0  502  501  0.00000000000E+00  0.00000000000E+00  0.47909583099E+03  0.47909583099E+03  0.00000000000E+00 0.  1.
         21   -1    0    0  501  502 -0.00000000000E+00 -0.00000000000E+00 -0.25941055407E+03  0.25941055407E+03  0.00000000000E+00 0.  1.
         25    1    1    2    0    0  0.13995426132E+03 -0.13631155122E+03 -0.22777906276E+01  0.23194443858E+03  0.12500000000E+03 0.  0.
         25    1    1    2    0    0 -0.33739611624E+02 -0.27590546899E+02 -0.56722333638E+02  0.14402091100E+03  0.12500000000E+03 0.  0.
         25    1    1    2    0    0 -0.10621464970E+03  0.16390209812E+03  0.27868540119E+03  0.36254103549E+03  0.12500000000E+03 0.  0.
</event>
<event>
 5    0  0.5510933E-005  0.3886360E+03  0.7546771E-02  0.1047787E+00
         21   -1    0    0  502  501  0.00000000000E+00  0.00000000000E+00  0.70770248050E+03  0.70770248050E+03  0.00000000000E+00 0. -1.
         21   -1    0    0  501  502 -0.00000000000E+00 -0.00000000000E+00 -0.21342011469E+03  0.21342011469E+03  0.00000000000E+00 0. -1.
         25    1    1    2    0    0  0.16939837534E+03  0.18975442432E+02  0.69801477842E+02  0.22260530832E+03  0.12500000000E+03 0.  0.
         25    1    1    2    0    0  0.20088790249E+02 -0.15185147638E+03  0.38465098711E+03  0.43248562087E+03  0.12500000000E+03 0.  0.
         25    1    1    2    0    0 -0.18948716558E+03  0.13287603395E+03  0.39829900860E+02  0.26603166601E+03  0.12500000000E+03 0.  0.
</event>
<event>
 5    0  0.5510933E-005  0.2795160E+03  0.7546771E-02  0.1095954E+00
         21   -1    0    0  502  501  0.00000000000E+00  0.00000000000E+00  0.63917627779E+03  0.63917627779E+03  0.00000000000E+00 0. -1.
         21   -1    0    0  501  502 -0.00000000000E+00 -0.00000000000E+00 -0.12223415915E+03  0.12223415915E+03  0.00000000000E+00 0. -1.
         25    1    1    2    0    0  0.69086367337E+01  0.12390657669E+03  0.10247176769E+03  0.20377937134E+03  0.12500000000E+03 0.  0.
         25    1    1    2    0    0  0.10002137981E+03 -0.71526111678E+02  0.30912659395E+03  0.35539346105E+03  0.12500000000E+03 0.  0.
         25    1    1    2    0    0 -0.10693001655E+03 -0.52380465016E+02  0.10534375701E+03  0.20223760455E+03  0.12500000000E+03 0.  0.
</event>
<event>
 5    0  0.5510933E-005  0.2995141E+03  0.7546771E-02  0.1085484E+00
         21   -1    0    0  502  501  0.00000000000E+00  0.00000000000E+00  0.18967322802E+03  0.18967322802E+03  0.00000000000E+00 0. -1.
         21   -1    0    0  501  502 -0.00000000000E+00 -0.00000000000E+00 -0.47296455733E+03  0.47296455733E+03  0.00000000000E+00 0. -1.
         25    1    1    2    0    0 -0.13470981060E+02  0.10858301125E+03 -0.11858330711E+03  0.20410472407E+03  0.12500000000E+03 0.  0.
         25    1    1    2    0    0  0.51556336897E+02 -0.70278519368E+00  0.82816753600E+02  0.15856280919E+03  0.12500000000E+03 0.  0.
         25    1    1    2    0    0 -0.38085355837E+02 -0.10788022606E+03 -0.24752477580E+03  0.29997025209E+03  0.12500000000E+03 0.  0.
</event>
<event>
 5    0  0.5510933E-005  0.2929417E+03  0.7546771E-02  0.1088823E+00
         21   -1    0    0  502  501  0.00000000000E+00  0.00000000000E+00  0.35845414540E+03  0.35845414540E+03  0.00000000000E+00 0.  1.
         21   -1    0    0  501  502 -0.00000000000E+00 -0.00000000000E+00 -0.23940250969E+03  0.23940250969E+03  0.00000000000E+00 0.  1.
         25    1    1    2    0    0 -0.73828400102E+02  0.10924179698E+03  0.22141386522E+02  0.18302907929E+03  0.12500000000E+03 0.  0.
         25    1    1    2    0    0  0.74942394347E+02 -0.19964099178E+03  0.39985520240E+02  0.25039315066E+03  0.12500000000E+03 0.  0.
         25    1    1    2    0    0 -0.11139942457E+01  0.90399194797E+02  0.56924728952E+02  0.16443442513E+03  0.12500000000E+03 0.  0.
</event>
<event>
 5    0  0.5510933E-005  0.2356956E+03  0.7546771E-02  0.1122694E+00
         21   -1    0    0  502  501  0.00000000000E+00  0.00000000000E+00  0.36574102697E+03  0.36574102697E+03  0.00000000000E+00 0. -1.
         21   -1    0    0  501  502 -0.00000000000E+00 -0.00000000000E+00 -0.15188998988E+03  0.15188998988E+03  0.00000000000E+00 0. -1.
         25    1    1    2    0    0  0.30398883110E+02 -0.53848540274E+02  0.78173672730E+02  0.15987457738E+03  0.12500000000E+03 0.  0.
         25    1    1    2    0    0  0.39966652213E+02 -0.63285391956E+02  0.64929736307E+02  0.15950938775E+03  0.12500000000E+03 0.  0.
         25    1    1    2    0    0 -0.70365535323E+02  0.11713393223E+03  0.70747628045E+02  0.19824705172E+03  0.12500000000E+03 0.  0.
</event>
<event>
 5    0  0.5510933E-005  0.2937740E+03  0.7546771E-02  0.1088395E+00
         21   -1    0    0  502  501  0.00000000000E+00  0.00000000000E+00  0.47368040516E+03  0.47368040516E+03  0.00000000000E+00 0.  1.
         21   -1    0    0  501  502 -0.00000000000E+00 -0.00000000000E+00 -0.18219703212E+03  0.18219703212E+03  0.00000000000E+00 0.  1.
         25    1    1    2    0    0  0.37228309402E+02 -0.15495642384E+02  0.36258947872E+03  0.38564516337E+03  0.12500000000E+03 0.  0.
         25    1    1    2    0    0 -0.39777882571E+02  0.68211855360E+01 -0.60018640908E+02  0.14441622406E+03  0.12500000000E+03 0.  0.
         25    1    1    2    0    0  0.25495731686E+01  0.86744568480E+01 -0.11087464783E+02  0.12581604985E+03  0.12500000000E+03 0.  0.
</event>
<event>
 5    0  0.5510933E-005  0.2076448E+03  0.7546771E-02  0.1143445E+00
         21   -1    0    0  502  501  0.00000000000E+00  0.00000000000E+00  0.10465019182E+03  0.10465019182E+03  0.00000000000E+00 0. -1.
         21   -1    0    0  501  502 -0.00000000000E+00 -0.00000000000E+00 -0.41200478114E+03  0.41200478114E+03  0.00000000000E+00 0. -1.
         25    1    1    2    0    0  0.18275293635E+02 -0.16597114079E+02 -0.11796466849E+03  0.17363788056E+03  0.12500000000E+03 0.  0.
         25    1    1    2    0    0 -0.59204307332E+02  0.53724838568E+02 -0.11247016951E+03  0.18618820402E+03  0.12500000000E+03 0.  0.
         25    1    1    2    0    0  0.40929013697E+02 -0.37127724488E+02 -0.76919751319E+02  0.15682888838E+03  0.12500000000E+03 0.  0.
</event>
<event>
 5    0  0.5510933E-005  0.3727203E+03  0.7546771E-02  0.1053658E+00
         21   -1    0    0  502  501  0.00000000000E+00  0.00000000000E+00  0.71071217412E+03  0.71071217412E+03  0.00000000000E+00 0.  1.
         21   -1    0    0  501  502 -0.00000000000E+00 -0.00000000000E+00 -0.19546648894E+03  0.19546648894E+03  0.00000000000E+00 0.  1.
         25    1    1    2    0    0  0.91606239653E+02 -0.21316368428E+03  0.12700367446E+02  0.26384987924E+03  0.12500000000E+03 0.  0.
         25    1    1    2    0    0  0.47842816332E+02  0.13930248051E+03  0.19293802641E+03  0.27302783408E+03  0.12500000000E+03 0.  0.
         25    1    1    2    0    0 -0.13944905599E+03  0.73861203772E+02  0.30960729133E+03  0.36930094974E+03  0.12500000000E+03 0.  0.
</event>
<event>
 5    0  0.5510933E-005  0.2167595E+03  0.7546771E-02  0.1136322E+00
         21   -1    0    0  502  501  0.00000000000E+00  0.00000000000E+00  0.29151334388E+03  0.29151334388E+03  0.00000000000E+00 0.  1.
         21   -1    0    0  501  502 -0.00000000000E+00 -0.00000000000E+00 -0.16117502040E+03  0.16117502040E+03  0.00000000000E+00 0.  1.
         25    1    1    2    0    0 -0.50564368887E+02  0.13811858952E+02  0.97628391466E+02  0.16704438233E+03  0.12500000000E+03 0.  0.
         25    1    1    2    0    0 -0.22050453777E+02 -0.33090103114E+02 -0.15398847847E+02  0.13207309321E+03  0.12500000000E+03 0.  0.
         25    1    1    2    0    0  0.72614822665E+02  0.19278244162E+02  0.48108779865E+02  0.15357088874E+03  0.12500000000E+03 0.  0.
</event>
<event>
 5    0  0.5510933E-005  0.2317941E+03  0.7546771E-02  0.1125383E+00
         21   -1    0    0  502  501  0.00000000000E+00  0.00000000000E+00  0.40339171978E+02  0.40339171978E+02  0.00000000000E+00 0. -1.
         21   -1    0    0  501  502 -0.00000000000E+00 -0.00000000000E+00 -0.13319185209E+04  0.13319185209E+04  0.00000000000E+00 0.  1.
         25    1    1    2    0    0 -0.86142671414E+02  0.22527568460E+02 -0.35557071576E+03  0.38727714247E+03  0.12500000000E+03 0.  0.
         25    1    1    2    0    0 -0.29940177756E+02 -0.87367157864E+01 -0.50654918670E+03  0.52267563841E+03  0.12500000000E+03 0.  0.
         25    1    1    2    0    0  0.11608284917E+03 -0.13790852674E+02 -0.42945944645E+03  0.46230491197E+03  0.12500000000E+03 0.  0.
</event>
<event>
 5    0  0.5510933E-005  0.4069774E+03  0.7546771E-02  0.1041390E+00
         21   -1    0    0  502  501  0.00000000000E+00  0.00000000000E+00  0.23804964578E+03  0.23804964578E+03  0.00000000000E+00 0. -1.
         21   -1    0    0  501  502 -0.00000000000E+00 -0.00000000000E+00 -0.69578166159E+03  0.69578166159E+03  0.00000000000E+00 0. -1.
         25    1    1    2    0    0 -0.20206421338E+03 -0.17322809512E+03 -0.13237201968E+03  0.32246747257E+03  0.12500000000E+03 0.  0.
         25    1    1    2    0    0 -0.33067113955E+01 -0.63026729225E+02 -0.21519698708E+03  0.25674509963E+03  0.12500000000E+03 0.  0.
         25    1    1    2    0    0  0.20537092478E+03  0.23625482435E+03 -0.11016300906E+03  0.35461873517E+03  0.12500000000E+03 0.  0.
</event>
<event>
 5    0  0.5510933E-005  0.6244545E+03  0.7546771E-02  0.9855931E-01
         21   -1    0    0  502  501  0.00000000000E+00  0.00000000000E+00  0.73448008654E+03  0.73448008654E+03  0.00000000000E+00 0. -1.
         21   -1    0    0  501  502 -0.00000000000E+00 -0.00000000000E+00 -0.53091084326E+03  0.53091084326E+03  0.00000000000E+00 0. -1.
         25    1    1    2    0    0  0.44511690748E+03  0.18395755542E+03 -0.18674797538E+03  0.53147836252E+03  0.12500000000E+03 0.  0.
         25    1    1    2    0    0 -0.17124002653E+03 -0.23278303249E+03  0.17138777232E+03  0.35848271283E+03  0.12500000000E+03 0.  0.
         25    1    1    2    0    0 -0.27387688096E+03  0.48825477073E+02  0.21892944633E+03  0.37542985444E+03  0.12500000000E+03 0.  0.
</event>
<event>
 5    0  0.5510933E-005  0.3996825E+03  0.7546771E-02  0.1043890E+00
         21   -1    0    0  502  501  0.00000000000E+00  0.00000000000E+00  0.19700001125E+04  0.19700001125E+04  0.00000000000E+00 0.  1.
         21   -1    0    0  501  502 -0.00000000000E+00 -0.00000000000E+00 -0.81089399056E+02  0.81089399056E+02  0.00000000000E+00 0.  1.
         25    1    1    2    0    0  0.20949742411E+03 -0.20718195415E+03  0.51016698755E+03  0.60225317602E+03  0.12500000000E+03 0.  0.
         25    1    1    2    0    0 -0.15190757892E+03  0.18328143536E+03  0.59759336792E+03  0.65529446089E+03  0.12500000000E+03 0.  0.
         25    1    1    2    0    0 -0.57589845188E+02  0.23900518791E+02  0.78115035795E+03  0.79354187463E+03  0.12500000000E+03 0.  0.
</event>
<event>
 5    0  0.5510933E-005  0.3316400E+03  0.7546771E-02  0.1070414E+00
         21   -1    0    0  502  501  0.00000000000E+00  0.00000000000E+00  0.15261215489E+04  0.15261215489E+04  0.00000000000E+00 0. -1.
         21   -1    0    0  501  502 -0.00000000000E+00 -0.00000000000E+00 -0.72068356052E+02  0.72068356052E+02  0.00000000000E+00 0. -1.
         25    1    1    2    0    0 -0.22615584364E+02 -0.96059991154E+02  0.75320321853E+03  0.76985652881E+03  0.12500000000E+03 0.  0.
         25    1    1    2    0    0  0.20941067097E+02  0.19806372416E+03  0.22335307740E+03  0.32431368196E+03  0.12500000000E+03 0.  0.
         25    1    1    2    0    0  0.16745172668E+01 -0.10200373301E+03  0.47749689697E+03  0.50401969423E+03  0.12500000000E+03 0.  0.
</event>
<event>
 5    0  0.5510933E-005  0.4529012E+03  0.7546771E-02  0.1026860E+00
         21   -1    0    0  502  501  0.00000000000E+00  0.00000000000E+00  0.35469350841E+03  0.35469350841E+03  0.00000000000E+00 0. -1.
         21   -1    0    0  501  502 -0.00000000000E+00 -0.00000000000E+00 -0.57830062892E+03  0.57830062892E+03  0.00000000000E+00 0. -1.
         25    1    1    2    0    0 -0.16011684538E+03 -0.26070875654E+03 -0.12150656433E+03  0.35212967084E+03  0.12500000000E+03 0.  0.
         25    1    1    2    0    0  0.27295008924E+03  0.12000121006E+03  0.30054959580E+02  0.32470038840E+03  0.12500000000E+03 0.  0.
         25    1    1    2    0    0 -0.11283324386E+03  0.14070754648E+03 -0.13215551575E+03  0.25616407808E+03  0.12500000000E+03 0.  0.
</event>
<event>
 5    0  0.5510933E-005  0.3490968E+03  0.7546771E-02  0.1062986E+00
         21   -1    0    0  502  501  0.00000000000E+00  0.00000000000E+00  0.11632629471E+03  0.11632629471E+03  0.00000000000E+00 0. -1.
         21   -1    0    0  501  502 -0.00000000000E+00 -0.00000000000E+00 -0.10476444557E+04  0.10476444557E+04  0.00000000000E+00 0. -1.
         25    1    1    2    0    0 -0.11772964967E+02  0.22126361071E+03 -0.25035498911E+03  0.35692969714E+03  0.12500000000E+03 0.  0.
         25    1    1    2    0    0  0.29858412463E+02  0.42723172513E+02 -0.16105560321E+03  0.21042980205E+03  0.12500000000E+03 0.  0.
         25    1    1    2    0    0 -0.18085447495E+02 -0.26398678322E+03 -0.51990756866E+03  0.59661125121E+03  0.12500000000E+03 0.  0.
</event>
<event>
 5    0  0.5510933E-005  0.2658321E+03  0.7546771E-02  0.1103689E+00
         21   -1    0    0  502  501  0.00000000000E+00  0.00000000000E+00  0.30634831183E+03  0.30634831183E+03  0.00000000000E+00 0. -1.
         21   -1    0    0  501  502 -0.00000000000E+00 -0.00000000000E+00 -0.23067430694E+03  0.23067430694E+03  0.00000000000E+00 0. -1.
         25    1    1    2    0    0 -0.54288933120E+02  0.10951465989E+03 -0.26834373703E+02  0.17687801616E+03  0.12500000000E+03 0.  0.
         25    1    1    2    0    0  0.53727003016E+02 -0.15632928092E+03  0.33679803774E+02  0.20996372093E+03  0.12500000000E+03 0.  0.
         25    1    1    2    0    0  0.56193010393E+00  0.46814621033E+02  0.68828574814E+02  0.15018088167E+03  0.12500000000E+03 0.  0.
</event>
<event>
 5    0  0.5510933E-005  0.3707375E+03  0.7546771E-02  0.1054411E+00
         21   -1    0    0  502  501  0.00000000000E+00  0.00000000000E+00  0.11373005605E+04  0.11373005605E+04  0.00000000000E+00 0.  1.
         21   -1    0    0  501  502 -0.00000000000E+00 -0.00000000000E+00 -0.12085310238E+03  0.12085310238E+03  0.00000000000E+00 0.  1.
         25    1    1    2    0    0  0.13331389024E+01  0.17700955444E+03  0.28991665879E+03  0.36195418034E+03  0.12500000000E+03 0.  0.
         25    1    1    2    0    0 -0.57157131353E+02 -0.26482558040E+03  0.23910873823E+03  0.38235783553E+03  0.12500000000E+03 0.  0.
         25    1    1    2    0    0  0.55823992451E+02  0.87816025958E+02  0.48742206108E+03  0.51384164698E+03  0.12500000000E+03 0.  0.
</event>
<event>
 5    0  0.5510933E-005  0.3321262E+03  0.7546771E-02  0.1070200E+00
         21   -1    0    0  502  501  0.00000000000E+00  0.00000000000E+00  0.11442485008E+03  0.11442485008E+03  0.00000000000E+00 0.  1.
         21   -1    0    0  501  502 -0.00000000000E+00 -0.00000000000E+00 -0.96401958161E+03  0.96401958161E+03  0.00000000000E+00 0.  1.
         25    1    1    2    0    0 -0.12793495621E+03  0.10269800247E+03 -0.37482557223E+03  0.42782407871E+03  0.12500000000E+03 0.  0.
         25    1    1    2    0    0 -0.53411229829E+02  0.48700741127E+02 -0.29522141459E+03  0.32864145401E+03  0.12500000000E+03 0.  0.
         25    1    1    2    0    0  0.18134618604E+03 -0.15139874360E+03 -0.17954774471E+03  0.32197889897E+03  0.12500000000E+03 0.  0.
</event>
<event>
 5    0  0.5510933E-005  0.5369455E+03  0.7546771E-02  0.1004562E+00
         21   -1    0    0  502  501  0.00000000000E+00  0.00000000000E+00  0.55319518460E+03  0.55319518460E+03  0.00000000000E+00 0.  1.
         21   -1    0    0  501  502 -0.00000000000E+00 -0.00000000000E+00 -0.52117307142E+03  0.52117307142E+03  0.00000000000E+00 0.  1.
         25    1    1    2    0    0  0.11912234911E+03  0.32105672153E+02  0.69729915024E+02  0.18896605328E+03  0.12500000000E+03 0.  0.
         25    1    1    2    0    0  0.35065327386E+03  0.67976662074E+02 -0.81693097628E+02  0.38713990656E+03  0.12500000000E+03 0.  0.
         25    1    1    2    0    0 -0.46977562297E+03 -0.10008233423E+03  0.43985295786E+02  0.49826229619E+03  0.12500000000E+03 0.  0.
</event>
<event>
 5    0  0.5510933E-005  0.3724549E+03  0.7546771E-02  0.1053758E+00
         21   -1    0    0  502  501  0.00000000000E+00  0.00000000000E+00  0.85363372206E+02  0.85363372206E+02  0.00000000000E+00 0.  1.
         21   -1    0    0  501  502 -0.00000000000E+00 -0.00000000000E+00 -0.16250844391E+04  0.16250844391E+04  0.00000000000E+00 0.  1.
         25    1    1    2    0    0 -0.20814183169E+03 -0.10935201258E+03 -0.66625088944E+03  0.71749294940E+03  0.12500000000E+03 0.  0.
         25    1    1    2    0    0  0.26950740598E+03  0.15200572263E+02 -0.63467974623E+03  0.70093414780E+03  0.12500000000E+03 0.  0.
         25    1    1    2    0    0 -0.61365574288E+02  0.94151440315E+02 -0.23879043119E+03  0.29202071408E+03  0.12500000000E+03 0.  0.
</event>
<event>
 5    0  0.5510933E-005  0.4233828E+03  0.7546771E-02  0.1035971E+00
         21   -1    0    0  502  501  0.00000000000E+00  0.00000000000E+00  0.15784646917E+04  0.15784646917E+04  0.00000000000E+00 0. -1.
         21   -1    0    0  501  502 -0.00000000000E+00 -0.00000000000E+00 -0.11356163407E+03  0.11356163407E+03  0.00000000000E+00 0. -1.
         25    1    1    2    0    0  0.14318522943E+03  0.11736466382E+03  0.16644135083E+03  0.27857529953E+03  0.12500000000E+03 0.  0.
         25    1    1    2    0    0 -0.22542243239E+03  0.10876173905E+03  0.54359388296E+03  0.61136216639E+03  0.12500000000E+03 0.  0.
         25    1    1    2    0    0  0.82237202964E+02 -0.22612640287E+03  0.75486782382E+03  0.80208885983E+03  0.12500000000E+03 0.  0.
</event>
<event>
 5    0  0.5510933E-005  0.2944825E+03  0.7546771E-02  0.1088032E+00
         21   -1    0    0  502  501  0.00000000000E+00  0.00000000000E+00  0.59528628716E+03  0.59528628716E+03  0.00000000000E+00 0. -1.
         21   -1    0    0  501  502 -0.00000000000E+00 -0.00000000000E+00 -0.14567767431E+03  0.14567767431E+03  0.00000000000E+00 0. -1.
         25    1    1    2    0    0  0.10929952230E+03  0.86035991773E+02  0.84390377135E+02  0.20517142396E+03  0.12500000000E+03 0.  0.
         25    1    1    2    0    0  0.29125210734E+02 -0.13271616949E+03  0.25291051340E+03  0.31313030408E+03  0.12500000000E+03 0.  0.
         25    1    1    2    0    0 -0.13842473303E+03  0.46680177716E+02  0.11230772231E+03  0.22266223343E+03  0.12500000000E+03 0.  0.
</event>
<event>
 5    0  0.5510933E-005  0.3223618E+03  0.7546771E-02  0.1074567E+00
         21   -1    0    0  502  501  0.00000000000E+00  0.00000000000E+00  0.12944908154E+04  0.12944908154E+04  0.00000000000E+00 0. -1.
         21   -1    0    0  501  502 -0.00000000000E+00 -0.00000000000E+00 -0.80276443863E+02  0.80276443863E+02  0.00000000000E+00 0. -1.
         25    1    1    2    0    0 -0.13145618824E+03 -0.87766499537E+02  0.35087802045E+03  0.40462831476E+03  0.12500000000E+03 0.  0.
         25    1    1    2    0    0  0.18054133424E+03  0.12726880624E+03  0.31663941740E+03  0.40580542512E+03  0.12500000000E+03 0.  0.
         25    1    1    2    0    0 -0.49085145998E+02 -0.39502306702E+02  0.54669693373E+03  0.56433351942E+03  0.12500000000E+03 0.  0.
</event>
<event>
 5    0  0.5510933E-005  0.2490988E+03  0.7546771E-02  0.1113876E+00
         21   -1    0    0  502  501  0.00000000000E+00  0.00000000000E+00  0.62251748444E+03  0.62251748444E+03  0.00000000000E+00 0. -1.
         21   -1    0    0  501  502 -0.00000000000E+00 -0.00000000000E+00 -0.99676257894E+02  0.99676257894E+02  0.00000000000E+00 0. -1.
         25    1    1    2    0    0  0.49380919984E+02  0.43780525134E+01  0.98008957239E+02  0.16639831219E+03  0.12500000000E+03 0.  0.
         25    1    1    2    0    0 -0.11795386648E+03 -0.19415743846E+02  0.35805630639E+03  0.39764230695E+03  0.12500000000E+03 0.  0.
         25    1    1    2    0    0  0.68572946500E+02  0.15037691333E+02  0.66775962916E+02  0.15815312319E+03  0.12500000000E+03 0.  0.
</event>
<event>
 5    0  0.5510933E-005  0.3296925E+03  0.7546771E-02  0.1071273E+00
         21   -1    0    0  502  501  0.00000000000E+00  0.00000000000E+00  0.31523259503E+04  0.31523259503E+04  0.00000000000E+00 0. -1.
         21   -1    0    0  501  502 -0.00000000000E+00 -0.00000000000E+00 -0.34481576564E+02  0.34481576564E+02  0.00000000000E+00 0. -1.
         25    1    1    2    0    0  0.11002660593E+03  0.16924468113E+03  0.14828362634E+04  0.15017250082E+04  0.12500000000E+03 0.  0.
         25    1    1    2    0    0  0.13006295076E+02 -0.10633432922E+03  0.12083274799E+04  0.12194902427E+04  0.12500000000E+03 0.  0.
         25    1    1    2    0    0 -0.12303290100E+03 -0.62910351908E+02  0.42668063041E+03  0.46559227601E+03  0.12500000000E+03 0.  0.
</event>
<event>
 5    0  0.5510933E-005  0.3449702E+03  0.7546771E-02  0.1064699E+00
         21   -1    0    0  502  501  0.00000000000E+00  0.00000000000E+00  0.31638755087E+03  0.31638755087E+03  0.00000000000E+00 0. -1.
         21   -1    0    0  501  502 -0.00000000000E+00 -0.00000000000E+00 -0.37613509563E+03  0.37613509563E+03  0.00000000000E+00 0. -1.
         25    1    1    2    0    0 -0.14485056322E+02  0.16295564495E+03 -0.17336943206E+03  0.26915853888E+03  0.12500000000E+03 0.  0.
         25    1    1    2    0    0 -0.11666672441E+03 -0.31733706225E+02  0.33093302466E+01  0.17393707012E+03  0.12500000000E+03 0.  0.
         25    1    1    2    0    0  0.13115178073E+03 -0.13122193873E+03  0.11031255706E+03  0.24942703750E+03  0.12500000000E+03 0.  0.
</event>
<event>
 5    0  0.5510933E-005  0.2534461E+03  0.7546771E-02  0.1111146E+00
         21   -1    0    0  502  501  0.00000000000E+00  0.00000000000E+00  0.58945846353E+03  0.58945846353E+03  0.00000000000E+00 0. -1.
         21   -1    0    0  501  502 -0.00000000000E+00 -0.00000000000E+00 -0.10897278962E+03  0.10897278962E+03  0.00000000000E+00 0. -1.
         25    1    1    2    0    0 -0.27539633092E+02  0.43356795600E+02  0.29234288706E+03  0.32206770520E+03  0.12500000000E+03 0.  0.
         25    1    1    2    0    0 -0.60384548971E+02 -0.36220840522E+02  0.13373998956E+02  0.14409062041E+03  0.12500000000E+03 0.  0.
         25    1    1    2    0    0  0.87924182063E+02 -0.71359550783E+01  0.17476878788E+03  0.23227292753E+03  0.12500000000E+03 0.  0.
</event>
<event>
 5    0  0.5510933E-005  0.2778640E+03  0.7546771E-02  0.1096861E+00
         21   -1    0    0  502  501  0.00000000000E+00  0.00000000000E+00  0.20167947117E+03  0.20167947117E+03  0.00000000000E+00 0.  1.
         21   -1    0    0  501  502 -0.00000000000E+00 -0.00000000000E+00 -0.38282729542E+03  0.38282729542E+03  0.00000000000E+00 0.  1.
         25    1    1    2    0    0 -0.36058856478E+02 -0.65507623115E+02 -0.42315633668E+02  0.15168092388E+03  0.12500000000E+03 0.  0.
         25    1    1    2    0    0  0.10356517356E+03  0.16883274359E+03 -0.83531466349E+02  0.24866191175E+03  0.12500000000E+03 0.  0.
         25    1    1    2    0    0 -0.67506317085E+02 -0.10332512047E+03 -0.55300724229E+02  0.18416393096E+03  0.12500000000E+03 0.  0.
</event>
<event>
 5    0  0.5510933E-005  0.2308347E+03  0.7546771E-02  0.1126054E+00
         21   -1    0    0  502  501  0.00000000000E+00  0.00000000000E+00  0.77694393696E+02  0.77694393696E+02  0.00000000000E+00 0.  1.
         21   -1    0    0  501  502 -0.00000000000E+00 -0.00000000000E+00 -0.68582379203E+03  0.68582379203E+03  0.00000000000E+00 0.  1.
         25    1    1    2    0    0 -0.45083306763E+02  0.27871434822E+02 -0.17803105206E+03  0.22389590645E+03  0.12500000000E+03 0.  0.
         25    1    1    2    0    0  0.11053967196E+03  0.21072535111E+02 -0.16655970400E+03  0.23670700414E+03  0.12500000000E+03 0.  0.
         25    1    1    2    0    0 -0.65456365198E+02 -0.48943969934E+02 -0.26353864228E+03  0.30291527514E+03  0.12500000000E+03 0.  0.
</event>
<event>
 5    0  0.5510933E-005  0.3528860E+03  0.7546771E-02  0.1061437E+00
         21   -1    0    0  502  501  0.00000000000E+00  0.00000000000E+00  0.20136857378E+03  0.20136857378E+03  0.00000000000E+00 0. -1.
         21   -1    0    0  501  502 -0.00000000000E+00 -0.00000000000E+00 -0.61841111354E+03  0.61841111354E+03  0.00000000000E+00 0. -1.
         25    1    1    2    0    0 -0.12410064587E+03 -0.13539799389E+03 -0.40681025266E+03  0.46352256549E+03  0.12500000000E+03 0.  0.
         25    1    1    2    0    0 -0.72947801870E+01  0.10869124337E+03  0.30212306298E+02  0.16853718775E+03  0.12500000000E+03 0.  0.
         25    1    1    2    0    0  0.13139542606E+03  0.26706750519E+02 -0.40444593401E+02  0.18771993407E+03  0.12500000000E+03 0.  0.
</event>
<event>
 5    0  0.5510933E-005  0.2638245E+03  0.7546771E-02  0.1104867E+00
         21   -1    0    0  502  501  0.00000000000E+00  0.00000000000E+00  0.50395417842E+03  0.50395417842E+03  0.00000000000E+00 0. -1.
         21   -1    0    0  501  502 -0.00000000000E+00 -0.00000000000E+00 -0.13811446008E+03  0.13811446008E+03  0.00000000000E+00 0. -1.
         25    1    1    2    0    0 -0.89014491370E+02 -0.14682056406E+02 -0.20708280601E+02  0.15554091211E+03  0.12500000000E+03 0.  0.
         25    1    1    2    0    0  0.26734044452E+02  0.13818502978E+02  0.84775033767E+02  0.15400476131E+03  0.12500000000E+03 0.  0.
         25    1    1    2    0    0  0.62280446918E+02  0.86355342844E+00  0.30177296517E+03  0.33252296508E+03  0.12500000000E+03 0.  0.
</event>
<event>
 5    0  0.5510933E-005  0.3486181E+03  0.7546771E-02  0.1063184E+00
         21   -1    0    0  502  501  0.00000000000E+00  0.00000000000E+00  0.48643935795E+03  0.48643935795E+03  0.00000000000E+00 0. -1.
         21   -1    0    0  501  502 -0.00000000000E+00 -0.00000000000E+00 -0.24984534830E+03  0.24984534830E+03  0.00000000000E+00 0. -1.
         25    1    1    2    0    0  0.85887886132E+02 -0.18893989247E+03  0.36001684504E+02  0.24494108116E+03  0.12500000000E+03 0.  0.
         25    1    1    2    0    0 -0.13450805706E+03  0.20977126441E+03  0.21880445827E+03  0.35439637660E+03  0.12500000000E+03 0.  0.
         25    1    1    2    0    0  0.48620170928E+02 -0.20831371937E+02 -0.18212133125E+02  0.13694724850E+03  0.12500000000E+03 0.  0.
</event>
<event>
 5    0  0.5510933E-005  0.2800449E+03  0.7546771E-02  0.1095664E+00
         21   -1    0    0  502  501  0.00000000000E+00  0.00000000000E+00  0.62910637800E+03  0.62910637800E+03  0.00000000000E+00 0. -1.
         21   -1    0    0  501  502 -0.00000000000E+00 -0.00000000000E+00 -0.12466117866E+03  0.12466117866E+03  0.00000000000E+00 0. -1.
         25    1    1    2    0    0 -0.79344412887E+01 -0.10211801554E+03  0.99236803453E+02  0.18964173490E+03  0.12500000000E+03 0.  0.
         25    1    1    2    0    0  0.11251541082E+03  0.86237760581E+02  0.90912520219E+02  0.20973019657E+03  0.12500000000E+03 0.  0.
         25    1    1    2    0    0 -0.10458096953E+03  0.15880254955E+02  0.31429587567E+03  0.35439562519E+03  0.12500000000E+03 0.  0.
</event>
<event>
 5    0  0.5510933E-005  0.2328573E+03  0.7546771E-02  0.1124645E+00
         21   -1    0    0  502  501  0.00000000000E+00  0.00000000000E+00  0.86282955372E+03  0.86282955372E+03  0.00000000000E+00 0.  1.
         21   -1    0    0  501  502 -0.00000000000E+00 -0.00000000000E+00 -0.62842675650E+02  0.62842675650E+02  0.00000000000E+00 0.  1.
         25    1    1    2    0    0 -0.42509556168E+02 -0.47929300165E+02  0.29505357198E+03  0.32678110490E+03  0.12500000000E+03 0.  0.
         25    1    1    2    0    0  0.64610921987E+02  0.73249577973E+02  0.40625149631E+03  0.43612538354E+03  0.12500000000E+03 0.  0.
         25    1    1    2    0    0 -0.22101365819E+02 -0.25320277808E+02  0.98681809775E+02  0.16276574093E+03  0.12500000000E+03 0.  0.
</event>
<event>
 5    0  0.5510933E-005  0.3042865E+03  0.7546771E-02  0.1083117E+00
         21   -1    0    0  502  501  0.00000000000E+00  0.00000000000E+00  0.45119883208E+03  0.45119883208E+03  0.00000000000E+00 0.  1.
         21   -1    0    0  501  502 -0.00000000000E+00 -0.00000000000E+00 -0.20520950348E+03  0.20520950348E+03  0.00000000000E+00 0.  1.
         25    1    1    2    0    0 -0.27621834236E+02  0.54149827980E+02  0.16748391420E+03  0.21764887115E+03  0.12500000000E+03 0.  0.
         25    1    1    2    0    0  0.73165999116E+02 -0.78368129249E+02 -0.11630932767E+03  0.20161271491E+03  0.12500000000E+03 0.  0.
         25    1    1    2    0    0 -0.45544164880E+02  0.24218301269E+02  0.19481474208E+03  0.23714674951E+03  0.12500000000E+03 0.  0.
</event>
<event>
 5    0  0.5510933E-005  0.3300901E+03  0.7546771E-02  0.1071097E+00
         21   -1    0    0  502  501  0.00000000000E+00  0.00000000000E+00  0.66998752742E+03  0.66998752742E+03  0.00000000000E+00 0.  1.
         21   -1    0    0  501  502 -0.00000000000E+00 -0.00000000000E+00 -0.16262915393E+03  0.16262915393E+03  0.00000000000E+00 0.  1.
         25    1    1    2    0    0 -0.28175952734E+02  0.15289139307E+02  0.15357396015E+01  0.12905425444E+03  0.12500000000E+03 0.  0.
         25    1    1    2    0    0 -0.12996767673E+03 -0.65540055848E+02  0.43538449699E+02  0.19674270639E+03  0.12500000000E+03 0.  0.
         25    1    1    2    0    0  0.15814362946E+03  0.50250916541E+02  0.46228418419E+03  0.50681972052E+03  0.12500000000E+03 0.  0.
</event>
<event>
 5    0  0.5510933E-005  0.3945100E+03  0.7546771E-02  0.1045697E+00
         21   -1    0    0  502  501  0.00000000000E+00  0.00000000000E+00  0.20139979160E+03  0.20139979160E+03  0.00000000000E+00 0. -1.
         21   -1    0    0  501  502 -0.00000000000E+00 -0.00000000000E+00 -0.77278193331E+03  0.77278193331E+03  0.00000000000E+00 0. -1.
         25    1    1    2    0    0  0.17389915878E+03  0.11519413103E+03  0.55046674479E+02  0.24933058701E+03  0.12500000000E+03 0.  0.
         25    1    1    2    0    0 -0.14354222961E+03 -0.93415924371E+02 -0.25765280461E+03  0.33367780018E+03  0.12500000000E+03 0.  0.
         25    1    1    2    0    0 -0.30356929175E+02 -0.21778206654E+02 -0.36877601157E+03  0.39117333772E+03  0.12500000000E+03 0.  0.
</event>
<event>
 5    0  0.5510933E-005  0.2067359E+03  0.7546771E-02  0.1144177E+00
         21   -1    0    0  502  501  0.00000000000E+00  0.00000000000E+00  0.65252390052E+02  0.65252390052E+02  0.00000000000E+00 0. -1.
         21   -1    0    0  501  502 -0.00000000000E+00 -0.00000000000E+00 -0.65499121667E+03  0.65499121667E+03  0.00000000000E+00 0. -1.
         25    1    1    2    0    0 -0.30071825920E+02 -0.18968955966E+02 -0.31639906375E+03  0.34204897828E+03  0.12500000000E+03 0.  0.
         25    1    1    2    0    0  0.55647928326E+01  0.27523161295E+02 -0.97991444946E+02  0.16129418653E+03  0.12500000000E+03 0.  0.
         25    1    1    2    0    0  0.24507033088E+02 -0.85542053286E+01 -0.17534831793E+03  0.21690044191E+03  0.12500000000E+03 0.  0.
</event>
<event>
 5    0  0.5510933E-005  0.2980445E+03  0.7546771E-02  0.1086222E+00
         21   -1    0    0  502  501  0.00000000000E+00  0.00000000000E+00  0.60647116623E+02  0.60647116623E+02  0.00000000000E+00 0. -1.
         21   -1    0    0  501  502 -0.00000000000E+00 -0.00000000000E+00 -0.14647113548E+04  0.14647113548E+04  0.00000000000E+00 0. -1.
         25    1    1    2    0    0 -0.26983971207E+02  0.11652957167E+03 -0.57050776020E+03  0.59616388705E+03  0.12500000000E+03 0.  0.
         25    1    1    2    0    0 -0.69399151957E+02 -0.17929524932E+03 -0.36785093327E+03  0.43347703264E+03  0.12500000000E+03 0.  0.
         25    1    1    2    0    0  0.96383123163E+02  0.62765677641E+02 -0.46570554467E+03  0.49571755170E+03  0.12500000000E+03 0.  0.
</event>
<event>
 5    0  0.5510933E-005  0.2808698E+03  0.7546771E-02  0.1095215E+00
         21   -1    0    0  502  501  0.00000000000E+00  0.00000000000E+00  0.74969466325E+03  0.74969466325E+03  0.00000000000E+00 0. -1.
         21   -1    0    0  501  502 -0.00000000000E+00 -0.00000000000E+00 -0.10522665875E+03  0.10522665875E+03  0.00000000000E+00 0. -1.
         25    1    1    2    0    0  0.10810815043E+03 -0.10658018400E+02  0.38298134634E+03  0.41725373239E+03  0.12500000000E+03 0.  0.
         25    1    1    2    0    0 -0.10931291791E+02  0.16858556488E+02  0.24824358002E+03  0.27866391781E+03  0.12500000000E+03 0.  0.
         25    1    1    2    0    0 -0.97176858637E+02 -0.62005380874E+01  0.13243078142E+02  0.15900367180E+03  0.12500000000E+03 0.  0.
</event>
<event>
 5    0  0.6532764E-005  0.4332866E+03  0.7546771E-02  0.1032827E+00
         21   -1    0    0  502  501  0.00000000000E+00  0.00000000000E+00  0.83518411273E+03  0.83518411273E+03  0.00000000000E+00 0.  1.
         21   -1    0    0  501  502 -0.00000000000E+00 -0.00000000000E+00 -0.22478545258E+03  0.22478545258E+03  0.00000000000E+00 0.  1.
         25    1    1    2    0    0  0.21383226418E+03  0.17203526717E+01  0.46519630826E+02  0.25202434976E+03  0.12500000000E+03 0.  0.
         25    1    1    2    0    0 -0.23966071505E+03  0.17288739421E+03  0.18151072688E+03  0.36864407413E+03  0.12500000000E+03 0.  0.
         25    1    1    2    0    0  0.25828450864E+02 -0.17460774689E+03  0.38236830244E+03  0.43930114142E+03  0.12500000000E+03 0.  0.
</event>
<event>
 5    0  0.5510933E-005  0.2499423E+03  0.7546771E-02  0.1113341E+00
         21   -1    0    0  502  501  0.00000000000E+00  0.00000000000E+00  0.13357926135E+03  0.13357926135E+03  0.00000000000E+00 0.  1.
         21   -1    0    0  501  502 -0.00000000000E+00 -0.00000000000E+00 -0.46767110163E+03  0.46767110163E+03  0.00000000000E+00 0.  1.
         25    1    1    2    0    0 -0.76019931584E+02  0.13256119572E+02  0.18012322807E+02  0.14800067053E+03  0.12500000000E+03 0.  0.
         25    1    1    2    0    0 -0.15475767820E+01 -0.48223676061E+02 -0.17411168000E+03  0.21969932872E+03  0.12500000000E+03 0.  0.
         25    1    1    2    0    0  0.77567508366E+02  0.34967556489E+02 -0.17799248309E+03  0.23355036373E+03  0.12500000000E+03 0.  0.
</event>
<event>
 5    0  0.6107204E-005  0.3610144E+03  0.7546771E-02  0.1058183E+00
         21   -1    0    0  502  501  0.00000000000E+00  0.00000000000E+00  0.17292649155E+03  0.17292649155E+03  0.00000000000E+00 0.  1.
         21   -1    0    0  501  502 -0.00000000000E+00 -0.00000000000E+00 -0.75368096754E+03  0.75368096754E+03  0.00000000000E+00 0.  1.
         25    1    1    2    0    0  0.16823577159E+03 -0.13165613611E+03 -0.15045681208E+03  0.28965300848E+03  0.12500000000E+03 0.  0.
         25    1    1    2    0    0 -0.69594549434E+02  0.51757377528E+01  0.18388266810E+02  0.14433751393E+03  0.12500000000E+03 0.  0.
         25    1    1    2    0    0 -0.98641222156E+02  0.12648039836E+03 -0.44868593072E+03  0.49261693668E+03  0.12500000000E+03 0.  0.
</event>
<event>
 5    0  0.5510933E-005  0.5464050E+03  0.7546771E-02  0.1002329E+00
         21   -1    0    0  502  501  0.00000000000E+00  0.00000000000E+00  0.86126791762E+03  0.86126791762E+03  0.00000000000E+00 0.  1.
         21   -1    0    0  501  502 -0.00000000000E+00 -0.00000000000E+00 -0.34664987186E+03  0.34664987186E+03  0.00000000000E+00 0.  1.
         25    1    1    2    0    0 -0.15720342713E+03 -0.82103020627E+02 -0.76913135273E+02  0.23020524294E+03  0.12500000000E+03 0.  0.
         25    1    1    2    0    0 -0.10940038707E+02 -0.23604398695E+03 -0.79446342229E+01  0.26744076995E+03  0.12500000000E+03 0.  0.
         25    1    1    2    0    0  0.16814346584E+03  0.31814700757E+03  0.59947581526E+03  0.71027177659E+03  0.12500000000E+03 0.  0.
</event>
<event>
 5    0  0.5510933E-005  0.3955881E+03  0.7546771E-02  0.1045318E+00
         21   -1    0    0  502  501  0.00000000000E+00  0.00000000000E+00  0.15262606984E+03  0.15262606984E+03  0.00000000000E+00 0.  1.
         21   -1    0    0  501  502 -0.00000000000E+00 -0.00000000000E+00 -0.10253157644E+04  0.10253157644E+04  0.00000000000E+00 0.  1.
         25    1    1    2    0    0  0.89581835198E+02 -0.56773409470E+01  0.45603127549E+02  0.16050477451E+03  0.12500000000E+03 0.  0.
         25    1    1    2    0    0 -0.30258389189E+01 -0.13947315656E+03 -0.22387855799E+03  0.29190499453E+03  0.12500000000E+03 0.  0.
         25    1    1    2    0    0 -0.86555996279E+02  0.14515049751E+03 -0.69441426415E+03  0.72553206523E+03  0.12500000000E+03 0.  0.
</event>
<event>
 5    0  0.5510933E-005  0.2994323E+03  0.7546771E-02  0.1085525E+00
         21   -1    0    0  502  501  0.00000000000E+00  0.00000000000E+00  0.26612908571E+03  0.26612908571E+03  0.00000000000E+00 0.  1.
         21   -1    0    0  501  502 -0.00000000000E+00 -0.00000000000E+00 -0.33690301385E+03  0.33690301385E+03  0.00000000000E+00 0.  1.
         25    1    1    2    0    0 -0.14214915536E+03 -0.13680779832E+03 -0.66584352339E+02  0.24286051970E+03  0.12500000000E+03 0.  0.
         25    1    1    2    0    0 -0.12654864357E+02  0.33532276224E+02  0.29867708847E+02  0.13342278356E+03  0.12500000000E+03 0.  0.
         25    1    1    2    0    0  0.15480401972E+03  0.10327552210E+03 -0.34057284652E+02  0.22674879630E+03  0.12500000000E+03 0.  0.
</event>
<event>
 5    0  0.5620066E-005  0.2882072E+03  0.7546771E-02  0.1091289E+00
         21   -1    0    0  502  501  0.00000000000E+00  0.00000000000E+00  0.10376649171E+03  0.10376649171E+03  0.00000000000E+00 0. -1.
         21   -1    0    0  501  502 -0.00000000000E+00 -0.00000000000E+00 -0.80048368544E+03  0.80048368544E+03  0.00000000000E+00 0. -1.
         25    1    1    2    0    0  0.10391733914E+03  0.60962759846E+02 -0.99667134219E+02  0.20018443772E+03  0.12500000000E+03 0.  0.
         25    1    1    2    0    0 -0.68244770627E+02  0.91431412498E+02 -0.22526534188E+03  0.28175614662E+03  0.12500000000E+03 0.  0.
         25    1    1    2    0    0 -0.35672568510E+02 -0.15239417234E+03 -0.37178471764E+03  0.42230959281E+03  0.12500000000E+03 0.  0.
</event>
<event>
 5    0  0.5510933E-005  0.2450462E+03  0.7546771E-02  0.1116476E+00
         21   -1    0    0  502  501  0.00000000000E+00  0.00000000000E+00  0.22140768216E+04  0.22140768216E+04  0.00000000000E+00 0.  1.
         21   -1    0    0  501  502 -0.00000000000E+00 -0.00000000000E+00 -0.27120848130E+02  0.27120848130E+02  0.00000000000E+00 0.  1.
         25    1    1    2    0    0 -0.95586792756E+02  0.27125825889E+02  0.37815454328E+03  0.41048569279E+03  0.12500000000E+03 0.  0.
         25    1    1    2    0    0  0.92441854837E+01 -0.34838868288E+02  0.86643571817E+03  0.87614785021E+03  0.12500000000E+03 0.  0.
         25    1    1    2    0    0  0.86342607272E+02  0.77130423989E+01  0.94236571203E+03  0.95456412675E+03  0.12500000000E+03 0.  0.
</event>
<event>
 5    0  0.5510933E-005  0.5921555E+03  0.7546771E-02  0.9921816E-01
         21   -1    0    0  502  501  0.00000000000E+00  0.00000000000E+00  0.41455158075E+03  0.41455158075E+03  0.00000000000E+00 0.  1.
         21   -1    0    0  501  502 -0.00000000000E+00 -0.00000000000E+00 -0.84584915836E+03  0.84584915836E+03  0.00000000000E+00 0.  1.
         25    1    1    2    0    0 -0.66277042645E+02 -0.17880612847E+03  0.20926975361E+02  0.22896990252E+03  0.12500000000E+03 0.  0.
         25    1    1    2    0    0  0.17851343813E+03  0.83163020182E+02 -0.68804210580E+03  0.72650538530E+03  0.12500000000E+03 0.  0.
         25    1    1    2    0    0 -0.11223639549E+03  0.95643108287E+02  0.23581755282E+03  0.30492545130E+03  0.12500000000E+03 0.  0.
</event>
<event>
 5    0  0.5510933E-005  0.2020383E+03  0.7546771E-02  0.1148031E+00
         21   -1    0    0  502  501  0.00000000000E+00  0.00000000000E+00  0.13384815283E+03  0.13384815283E+03  0.00000000000E+00 0. -1.
         21   -1    0    0  501  502 -0.00000000000E+00 -0.00000000000E+00 -0.30496866578E+03  0.30496866578E+03  0.00000000000E+00 0. -1.
         25    1    1    2    0    0  0.12402108077E+01 -0.21755034883E+02 -0.20734463096E+02  0.12856802723E+03  0.12500000000E+03 0.  0.
         25    1    1    2    0    0  0.43234808770E+02 -0.16296641640E+02 -0.70285847582E+02  0.15066495806E+03  0.12500000000E+03 0.  0.
         25    1    1    2    0    0 -0.44475019578E+02  0.38051676523E+02 -0.80100202273E+02  0.15958383332E+03  0.12500000000E+03 0.  0.
</event>
<event>
 5    0  0.5510933E-005  0.2531620E+03  0.7546771E-02  0.1111323E+00
         21   -1    0    0  502  501  0.00000000000E+00  0.00000000000E+00  0.10787608261E+03  0.10787608261E+03  0.00000000000E+00 0. -1.
         21   -1    0    0  501  502 -0.00000000000E+00 -0.00000000000E+00 -0.59411698967E+03  0.59411698967E+03  0.00000000000E+00 0. -1.
         25    1    1    2    0    0  0.60919569266E+02  0.72651154482E+01 -0.11389420742E+03  0.17989126245E+03  0.12500000000E+03 0.  0.
         25    1    1    2    0    0 -0.15007568948E+03  0.47938783304E+02 -0.18026292694E+03  0.27007510501E+03  0.12500000000E+03 0.  0.
         25    1    1    2    0    0  0.89156120218E+02 -0.55203898752E+02 -0.19208377270E+03  0.25202670482E+03  0.12500000000E+03 0.  0.
</event>
<event>
 5    0  0.5510933E-005  0.2586635E+03  0.7546771E-02  0.1107949E+00
         21   -1    0    0  502  501  0.00000000000E+00  0.00000000000E+00  0.18046779070E+03  0.18046779070E+03  0.00000000000E+00 0. -1.
         21   -1    0    0  501  502 -0.00000000000E+00 -0.00000000000E+00 -0.37074103567E+03  0.37074103567E+03  0.00000000000E+00 0. -1.
         25    1    1    2    0    0  0.40311914408E+02 -0.88047118581E+02 -0.10525612490E+02  0.15847124046E+03  0.12500000000E+03 0.  0.
         25    1    1    2    0    0  0.28864768589E+02  0.99504041543E+02 -0.18894717095E+03  0.24911897270E+03  0.12500000000E+03 0.  0.
         25    1    1    2    0    0 -0.69176682997E+02 -0.11456922962E+02  0.91995384699E+01  0.14361861322E+03  0.12500000000E+03 0.  0.
</event>
<event>
 5    0  0.5844305E-005  0.3465285E+03  0.7546771E-02  0.1064049E+00
         21   -1    0    0  502  501  0.00000000000E+00  0.00000000000E+00  0.75589850488E+03  0.75589850488E+03  0.00000000000E+00 0.  1.
         21   -1    0    0  501  502 -0.00000000000E+00 -0.00000000000E+00 -0.15885994049E+03  0.15885994049E+03  0.00000000000E+00 0.  1.
         25    1    1    2    0    0 -0.20105185627E+02  0.20652536949E+02 -0.18576269687E+02  0.12961799091E+03  0.12500000000E+03 0.  0.
         25    1    1    2    0    0 -0.14575925549E+03 -0.14149762783E+03  0.37967330694E+03  0.44837948130E+03  0.12500000000E+03 0.  0.
         25    1    1    2    0    0  0.16586444112E+03  0.12084509088E+03  0.23594152714E+03  0.33676097317E+03  0.12500000000E+03 0.  0.
</event>
<event>
 5    0  0.5510933E-005  0.3145564E+03  0.7546771E-02  0.1078182E+00
         21   -1    0    0  502  501  0.00000000000E+00  0.00000000000E+00  0.26418450603E+03  0.26418450603E+03  0.00000000000E+00 0.  1.
         21   -1    0    0  501  502 -0.00000000000E+00 -0.00000000000E+00 -0.37453278340E+03  0.37453278340E+03  0.00000000000E+00 0.  1.
         25    1    1    2    0    0  0.64468138189E+02  0.82518210938E+02 -0.87641075074E+02  0.18512523874E+03  0.12500000000E+03 0.  0.
         25    1    1    2    0    0  0.36383230435E+02  0.12677616634E+03  0.31055756130E+02  0.18435128369E+03  0.12500000000E+03 0.  0.
         25    1    1    2    0    0 -0.10085136862E+03 -0.20929437728E+03 -0.53762958432E+02  0.26924076700E+03  0.12500000000E+03 0.  0.
</event>
<event>
 5    0  0.5510933E-005  0.3822367E+03  0.7546771E-02  0.1050110E+00
         21   -1    0    0  502  501  0.00000000000E+00  0.00000000000E+00  0.32510648062E+04  0.32510648062E+04  0.00000000000E+00 0.  1.
         21   -1    0    0  501  502 -0.00000000000E+00 -0.00000000000E+00 -0.44940621047E+02  0.44940621047E+02  0.00000000000E+00 0.  1.
         25    1    1    2    0    0 -0.98472739778E+02  0.13422599931E+03  0.19225254216E+04  0.19337638160E+04  0.12500000000E+03 0.  0.
         25    1    1    2    0    0  0.83732094114E+02  0.55343082841E+01  0.14780782499E+03  0.21098304501E+03  0.12500000000E+03 0.  0.
         25    1    1    2    0    0  0.14740645664E+02 -0.13976030759E+03  0.11357909386E+04  0.11512585663E+04  0.12500000000E+03 0.  0.
</event>
<event>
 5    0  0.5510933E-005  0.3398466E+03  0.7546771E-02  0.1066861E+00
         21   -1    0    0  502  501  0.00000000000E+00  0.00000000000E+00  0.31274451500E+03  0.31274451500E+03  0.00000000000E+00 0.  1.
         21   -1    0    0  501  502 -0.00000000000E+00 -0.00000000000E+00 -0.36929738808E+03  0.36929738808E+03  0.00000000000E+00 0.  1.
         25    1    1    2    0    0 -0.30864873177E+02  0.98757465950E+02  0.11581500580E+03  0.19935845366E+03  0.12500000000E+03 0.  0.
         25    1    1    2    0    0  0.92735501640E+02 -0.11293751921E+03 -0.25543470618E+03  0.31972901906E+03  0.12500000000E+03 0.  0.
         25    1    1    2    0    0 -0.61870628463E+02  0.14180053258E+02  0.83066827300E+02  0.16295443036E+03  0.12500000000E+03 0.  0.
</event>
<event>
 5    0  0.6857402E-005  0.4154435E+03  0.7546771E-02  0.1038560E+00
         21   -1    0    0  502  501  0.00000000000E+00  0.00000000000E+00  0.67941322179E+03  0.67941322179E+03  0.00000000000E+00 0. -1.
         21   -1    0    0  501  502 -0.00000000000E+00 -0.00000000000E+00 -0.25403282532E+03  0.25403282532E+03  0.00000000000E+00 0. -1.
         25    1    1    2    0    0  0.12246419121E+03 -0.92361791947E+02 -0.30708353773E+02  0.20024030996E+03  0.12500000000E+03 0.  0.
         25    1    1    2    0    0 -0.75440089098E+02  0.12303853877E+03 -0.59286876633E+02  0.19992404259E+03  0.12500000000E+03 0.  0.
         25    1    1    2    0    0 -0.47024102114E+02 -0.30676746825E+02  0.51537562688E+03  0.53328169456E+03  0.12500000000E+03 0.  0.
</event>
<event>
 5    0  0.5510933E-005  0.3488491E+03  0.7546771E-02  0.1063088E+00
         21   -1    0    0  502  501  0.00000000000E+00  0.00000000000E+00  0.26866081450E+03  0.26866081450E+03  0.00000000000E+00 0. -1.
         21   -1    0    0  501  502 -0.00000000000E+00 -0.00000000000E+00 -0.45297159076E+03  0.45297159076E+03  0.00000000000E+00 0. -1.
         25    1    1    2    0    0  0.13059459836E+03 -0.19525437825E+02 -0.22847901455E+03  0.29199974646E+03  0.12500000000E+03 0.  0.
         25    1    1    2    0    0 -0.21144313675E+03  0.91321432751E+02  0.24806947061E+02  0.26322649711E+03  0.12500000000E+03 0.  0.
         25    1    1    2    0    0  0.80848538391E+02 -0.71795994925E+02  0.19361291233E+02  0.16640616168E+03  0.12500000000E+03 0.  0.
</event>
<event>
 5    0  0.5510933E-005  0.2366874E+03  0.7546771E-02  0.1122019E+00
         21   -1    0    0  502  501  0.00000000000E+00  0.00000000000E+00  0.50699810455E+03  0.50699810455E+03  0.00000000000E+00 0. -1.
         21   -1    0    0  501  502 -0.00000000000E+00 -0.00000000000E+00 -0.11049531618E+03  0.11049531618E+03  0.00000000000E+00 0. -1.
         25    1    1    2    0    0  0.61983996504E+02  0.63471165350E+02  0.77334995629E+02  0.17168665121E+03  0.12500000000E+03 0.  0.
         25    1    1    2    0    0 -0.84346206331E+02 -0.15661216742E+02  0.81475928035E+02  0.17211299510E+03  0.12500000000E+03 0.  0.
         25    1    1    2    0    0  0.22362209827E+02 -0.47809948608E+02  0.23769186471E+03  0.27369377443E+03  0.12500000000E+03 0.  0.
</event>
<event>
 5    0  0.5757227E-005  0.3053423E+03  0.7546771E-02  0.1082600E+00
         21   -1    0    0  502  501  0.00000000000E+00  0.00000000000E+00  0.15855050564E+03  0.15855050564E+03  0.00000000000E+00 0.  1.
         21   -1    0    0  501  502 -0.00000000000E+00 -0.00000000000E+00 -0.58803939560E+03  0.58803939560E+03  0.00000000000E+00 0.  1.
         25    1    1    2    0    0 -0.12838340958E+03 -0.10830335072E+02 -0.52486340042E+02  0.18702783724E+03  0.12500000000E+03 0.  0.
         25    1    1    2    0    0 -0.74192625811E+02  0.27652599554E+02 -0.24670236732E+03  0.28767389529E+03  0.12500000000E+03 0.  0.
         25    1    1    2    0    0  0.20257603539E+03 -0.16822264483E+02 -0.13030018260E+03  0.27188816871E+03  0.12500000000E+03 0.  0.
</event>
<event>
 5    0  0.5510933E-005  0.2811517E+03  0.7546771E-02  0.1095062E+00
         21   -1    0    0  502  501  0.00000000000E+00  0.00000000000E+00  0.16089747957E+03  0.16089747957E+03  0.00000000000E+00 0.  1.
         21   -1    0    0  501  502 -0.00000000000E+00 -0.00000000000E+00 -0.49128359106E+03  0.49128359106E+03  0.00000000000E+00 0.  1.
         25    1    1    2    0    0  0.21717661750E+02 -0.36866768270E+02 -0.16352971377E+03  0.21023268708E+03  0.12500000000E+03 0.  0.
         25    1    1    2    0    0 -0.11458691403E+03 -0.64687565938E+02 -0.17994438915E+03  0.25557704365E+03  0.12500000000E+03 0.  0.
         25    1    1    2    0    0  0.92869252282E+02  0.10155433421E+03  0.13087991421E+02  0.18637133990E+03  0.12500000000E+03 0.  0.
</event>
<event>
 5    0  0.5510933E-005  0.3058109E+03  0.7546771E-02  0.1082371E+00
         21   -1    0    0  502  501  0.00000000000E+00  0.00000000000E+00  0.33480377954E+03  0.33480377954E+03  0.00000000000E+00 0. -1.
         21   -1    0    0  501  502 -0.00000000000E+00 -0.00000000000E+00 -0.27932865721E+03  0.27932865721E+03  0.00000000000E+00 0. -1.
         25    1    1    2    0    0  0.13733697616E+03  0.94671281822E+02  0.17167607330E+03  0.27004031323E+03  0.12500000000E+03 0.  0.
         25    1    1    2    0    0 -0.13376286001E+03 -0.68958202117E+02 -0.80300656608E+02  0.21147324135E+03  0.12500000000E+03 0.  0.
         25    1    1    2    0    0 -0.35741161510E+01 -0.25713079705E+02 -0.35900294362E+02  0.13261888218E+03  0.12500000000E+03 0.  0.
</event>
<event>
 5    0  0.5510933E-005  0.3343677E+03  0.7546771E-02  0.1069220E+00
         21   -1    0    0  502  501  0.00000000000E+00  0.00000000000E+00  0.83846998086E+02  0.83846998086E+02  0.00000000000E+00 0. -1.
         21   -1    0    0  501  502 -0.00000000000E+00 -0.00000000000E+00 -0.13334021406E+04  0.13334021406E+04  0.00000000000E+00 0. -1.
         25    1    1    2    0    0 -0.68236536469E+02  0.72639352248E+02 -0.68384755477E+03  0.70228568159E+03  0.12500000000E+03 0.  0.
         25    1    1    2    0    0  0.11014549293E+02  0.53871965223E+02 -0.19819763302E+02  0.13799033282E+03  0.12500000000E+03 0.  0.
         25    1    1    2    0    0  0.57221987176E+02 -0.12651131747E+03 -0.54588782441E+03  0.57697312425E+03  0.12500000000E+03 0.  0.
</event>
<event>
 5    0  0.5510933E-005  0.3155895E+03  0.7546771E-02  0.1077697E+00
         21   -1    0    0  502  501  0.00000000000E+00  0.00000000000E+00  0.11337286661E+04  0.11337286661E+04  0.00000000000E+00 0. -1.
         21   -1    0    0  501  502 -0.00000000000E+00 -0.00000000000E+00 -0.87848817117E+02  0.87848817117E+02  0.00000000000E+00 0. -1.
         25    1    1    2    0    0 -0.23744899789E+02 -0.18259261492E+02  0.62914717716E+03  0.64214359097E+03  0.12500000000E+03 0.  0.
         25    1    1    2    0    0  0.35093974234E+02  0.92195046698E+02  0.24610760351E+02  0.16112790940E+03  0.12500000000E+03 0.  0.
         25    1    1    2    0    0 -0.11349074445E+02 -0.73935785206E+02  0.39212191144E+03  0.41830598282E+03  0.12500000000E+03 0.  0.
</event>
<event>
 5    0  0.5510933E-005  0.3490786E+03  0.7546771E-02  0.1062994E+00
         21   -1    0    0  502  501  0.00000000000E+00  0.00000000000E+00  0.80988647887E+03  0.80988647887E+03  0.00000000000E+00 0. -1.
         21   -1    0    0  501  502 -0.00000000000E+00 -0.00000000000E+00 -0.15046040271E+03  0.15046040271E+03  0.00000000000E+00 0. -1.
         25    1    1    2    0    0  0.24975329878E+03  0.95508487634E+02  0.31272176378E+03  0.43002149133E+03  0.12500000000E+03 0.  0.
         25    1    1    2    0    0 -0.22289053823E+03 -0.30641525508E+02  0.23586758230E+03  0.34910974134E+03  0.12500000000E+03 0.  0.
         25    1    1    2    0    0 -0.26862760556E+02 -0.64866962125E+02  0.11083673008E+03  0.18121564892E+03  0.12500000000E+03 0.  0.
</event>
<event>
 5    0  0.5510933E-005  0.3081584E+03  0.7546771E-02  0.1081232E+00
         21   -1    0    0  502  501  0.00000000000E+00  0.00000000000E+00  0.13283092820E+04  0.13283092820E+04  0.00000000000E+00 0.  1.
         21   -1    0    0  501  502 -0.00000000000E+00 -0.00000000000E+00 -0.71490589387E+02  0.71490589387E+02  0.00000000000E+00 0.  1.
         25    1    1    2    0    0 -0.24830301618E+02  0.10385048378E+02  0.16427205552E+03  0.20816988575E+03  0.12500000000E+03 0.  0.
         25    1    1    2    0    0 -0.15432134241E+03  0.10248882050E+03  0.42385494918E+03  0.47916286688E+03  0.12500000000E+03 0.  0.
         25    1    1    2    0    0  0.17915164403E+03 -0.11287386888E+03  0.66869168795E+03  0.71246711880E+03  0.12500000000E+03 0.  0.
</event>
<event>
 5    0  0.5510933E-005  0.3728376E+03  0.7546771E-02  0.1053613E+00
         21   -1    0    0  502  501  0.00000000000E+00  0.00000000000E+00  0.84568292395E+02  0.84568292395E+02  0.00000000000E+00 0. -1.
         21   -1    0    0  501  502 -0.00000000000E+00 -0.00000000000E+00 -0.16437348451E+04  0.16437348451E+04  0.00000000000E+00 0. -1.
         25    1    1    2    0    0 -0.96586202255E+02 -0.21350180332E+03 -0.80964509969E+03  0.85209277778E+03  0.12500000000E+03 0.  0.
         25    1    1    2    0    0  0.61376351428E+02 -0.25326919796E+02 -0.10357519239E+03  0.17538908136E+03  0.12500000000E+03 0.  0.
         25    1    1    2    0    0  0.35209850827E+02  0.23882872312E+03 -0.64594626059E+03  0.70082127832E+03  0.12500000000E+03 0.  0.
</event>
<event>
 5    0  0.5510933E-005  0.2319396E+03  0.7546771E-02  0.1125282E+00
         21   -1    0    0  502  501  0.00000000000E+00  0.00000000000E+00  0.20939962347E+03  0.20939962347E+03  0.00000000000E+00 0.  1.
         21   -1    0    0  501  502 -0.00000000000E+00 -0.00000000000E+00 -0.25690570835E+03  0.25690570835E+03  0.00000000000E+00 0.  1.
         25    1    1    2    0    0 -0.53812267185E+02 -0.79648014236E+02 -0.31128487050E+01  0.15771574461E+03  0.12500000000E+03 0.  0.
         25    1    1    2    0    0  0.38799258363E+02  0.84450754513E+02  0.35031290273E+02  0.15965432561E+03  0.12500000000E+03 0.  0.
         25    1    1    2    0    0  0.15013008821E+02 -0.48027402771E+01 -0.79424526442E+02  0.14893526160E+03  0.12500000000E+03 0.  0.
</event>
<event>
 5    0  0.5510933E-005  0.2789538E+03  0.7546771E-02  0.1096262E+00
         21   -1    0    0  502  501  0.00000000000E+00  0.00000000000E+00  0.65468716075E+03  0.65468716075E+03  0.00000000000E+00 0. -1.
         21   -1    0    0  501  502 -0.00000000000E+00 -0.00000000000E+00 -0.11885864851E+03  0.11885864851E+03  0.00000000000E+00 0. -1.
         25    1    1    2    0    0  0.10613008757E+03  0.48741924410E+02  0.91972500350E+02  0.19422489929E+03  0.12500000000E+03 0.  0.
         25    1    1    2    0    0 -0.11354147832E+03 -0.10198394921E+02  0.69847597111E+02  0.18302830759E+03  0.12500000000E+03 0.  0.
         25    1    1    2    0    0  0.74113907481E+01 -0.38543529489E+02  0.37400841477E+03  0.39629260238E+03  0.12500000000E+03 0.  0.
</event>
<event>
 5    0  0.5510933E-005  0.2999523E+03  0.7546771E-02  0.1085264E+00
         21   -1    0    0  502  501  0.00000000000E+00  0.00000000000E+00  0.61933950303E+03  0.61933950303E+03  0.00000000000E+00 0. -1.
         21   -1    0    0  501  502 -0.00000000000E+00 -0.00000000000E+00 -0.14526991829E+03  0.14526991829E+03  0.00000000000E+00 0. -1.
         25    1    1    2    0    0  0.95109083254E+02 -0.94075629469E+02  0.18659047799E+02  0.18403565373E+03  0.12500000000E+03 0.  0.
         25    1    1    2    0    0 -0.13294753709E+03  0.90677955775E+01  0.34233371847E+03  0.38803949198E+03  0.12500000000E+03 0.  0.
         25    1    1    2    0    0  0.37838453839E+02  0.85007833892E+02  0.11307681847E+03  0.19253427561E+03  0.12500000000E+03 0.  0.
</event>
<event>
 5    0  0.5510933E-005  0.3262719E+03  0.7546771E-02  0.1072798E+00
         21   -1    0    0  502  501  0.00000000000E+00  0.00000000000E+00  0.57775362655E+03  0.57775362655E+03  0.00000000000E+00 0. -1.
         21   -1    0    0  501  502 -0.00000000000E+00 -0.00000000000E+00 -0.18425389022E+03  0.18425389022E+03  0.00000000000E+00 0. -1.
         25    1    1    2    0    0  0.41390559465E+02 -0.95340799271E+02  0.13802239819E+03  0.21325625154E+03  0.12500000000E+03 0.  0.
         25    1    1    2    0    0 -0.14561417404E+03  0.20378694254E+03  0.94486616196E+02  0.29544090149E+03  0.12500000000E+03 0.  0.
         25    1    1    2    0    0  0.10422361457E+03 -0.10844614327E+03  0.16099072195E+03  0.25331036374E+03  0.12500000000E+03 0.  0.
</event>
<event>
 5    0  0.5510933E-005  0.2399761E+03  0.7546771E-02  0.1119809E+00
         21   -1    0    0  502  501  0.00000000000E+00  0.00000000000E+00  0.21389012417E+03  0.21389012417E+03  0.00000000000E+00 0. -1.
         21   -1    0    0  501  502 -0.00000000000E+00 -0.00000000000E+00 -0.26924356957E+03  0.26924356957E+03  0.00000000000E+00 0. -1.
         25    1    1    2    0    0  0.10046742065E+03  0.45408943340E+02  0.14163660456E+02  0.16727607128E+03  0.12500000000E+03 0.  0.
         25    1    1    2    0    0 -0.72539193867E+02  0.43885789728E+02 -0.46490858188E+02  0.15803258234E+03  0.12500000000E+03 0.  0.
         25    1    1    2    0    0 -0.27928226778E+02 -0.89294733068E+02 -0.23026247664E+02  0.15782504011E+03  0.12500000000E+03 0.  0.
</event>
<event>
 5    0  0.5510933E-005  0.5177436E+03  0.7546771E-02  0.1009249E+00
         21   -1    0    0  502  501  0.00000000000E+00  0.00000000000E+00  0.34631072922E+03  0.34631072922E+03  0.00000000000E+00 0. -1.
         21   -1    0    0  501  502 -0.00000000000E+00 -0.00000000000E+00 -0.77404030541E+03  0.77404030541E+03  0.00000000000E+00 0. -1.
         25    1    1    2    0    0 -0.23367854262E+03  0.33709280824E+03 -0.36051223259E+03  0.56020647310E+03  0.12500000000E+03 0.  0.
         25    1    1    2    0    0  0.81809553573E+02 -0.98373017752E+01 -0.95007454929E+02  0.17731607951E+03  0.12500000000E+03 0.  0.
         25    1    1    2    0    0  0.15186898905E+03 -0.32725550647E+03  0.27790111335E+02  0.38282848201E+03  0.12500000000E+03 0.  0.
</event>
<event>
 5    0  0.5510933E-005  0.4646982E+03  0.7546771E-02  0.1023427E+00
         21   -1    0    0  502  501  0.00000000000E+00  0.00000000000E+00  0.36092863145E+03  0.36092863145E+03  0.00000000000E+00 0. -1.
         21   -1    0    0  501  502 -0.00000000000E+00 -0.00000000000E+00 -0.59830235518E+03  0.59830235518E+03  0.00000000000E+00 0. -1.
         25    1    1    2    0    0  0.24745623568E+03 -0.14359475068E+03 -0.20848716346E+03  0.37542767390E+03  0.12500000000E+03 0.  0.
         25    1    1    2    0    0  0.10500978196E+03  0.52796161492E+01  0.62227997632E+02  0.17479202597E+03  0.12500000000E+03 0.  0.
         25    1    1    2    0    0 -0.35246601765E+03  0.13831513453E+03 -0.91114557906E+02  0.40901128676E+03  0.12500000000E+03 0.  0.
</event>
<event>
 5    0  0.5510933E-005  0.8877793E+03  0.7546771E-02  0.9440988E-01
         21   -1    0    0  502  501  0.00000000000E+00  0.00000000000E+00  0.32898426851E+03  0.32898426851E+03  0.00000000000E+00 0.  1.
         21   -1    0    0  501  502 -0.00000000000E+00 -0.00000000000E+00 -0.23957135267E+04  0.23957135267E+04  0.00000000000E+00 0.  1.
         25    1    1    2    0    0 -0.27865466838E+03  0.58060386183E+03 -0.18671843762E+04  0.19790785137E+04  0.12500000000E+03 0.  0.
         25    1    1    2    0    0  0.23308693114E+03 -0.47927750977E+03 -0.11992545530E+03  0.56039589905E+03  0.12500000000E+03 0.  0.
         25    1    1    2    0    0  0.45567737238E+02 -0.10132635206E+03 -0.79619426623E+02  0.18522338242E+03  0.12500000000E+03 0.  0.
</event>
<event>
 5    0  0.5510933E-005  0.3960790E+03  0.7546771E-02  0.1045146E+00
         21   -1    0    0  502  501  0.00000000000E+00  0.00000000000E+00  0.19762326130E+03  0.19762326130E+03  0.00000000000E+00 0. -1.
         21   -1    0    0  501  502 -0.00000000000E+00 -0.00000000000E+00 -0.79382628123E+03  0.79382628123E+03  0.00000000000E+00 0. -1.
         25    1    1    2    0    0 -0.47599020470E+02  0.10303416290E+03  0.36744739178E+02  0.17279143882E+03  0.12500000000E+03 0.  0.
         25    1    1    2    0    0  0.15151734515E+03 -0.74755388586E+02 -0.54473694865E+02  0.21711346673E+03  0.12500000000E+03 0.  0.
         25    1    1    2    0    0 -0.10391832468E+03 -0.28278774312E+02 -0.57847406423E+03  0.60154463697E+03  0.12500000000E+03 0.  0.
</event>
<event>
 5    0  0.5510933E-005  0.2851106E+03  0.7546771E-02  0.1092930E+00
         21   -1    0    0  502  501  0.00000000000E+00  0.00000000000E+00  0.18943334150E+03  0.18943334150E+03  0.00000000000E+00 0.  1.
         21   -1    0    0  501  502 -0.00000000000E+00 -0.00000000000E+00 -0.42911178544E+03  0.42911178544E+03  0.00000000000E+00 0.  1.
         25    1    1    2    0    0  0.72279887300E+01 -0.99304577488E+02 -0.10802573218E+02  0.16017283952E+03  0.12500000000E+03 0.  0.
         25    1    1    2    0    0 -0.21836660288E+02 -0.96152858712E+02 -0.56382805992E+02  0.16889710709E+03  0.12500000000E+03 0.  0.
         25    1    1    2    0    0  0.14608671558E+02  0.19545743620E+03 -0.17249306472E+03  0.28947518033E+03  0.12500000000E+03 0.  0.
</event>
<event>
 5    0  0.5510933E-005  0.3139815E+03  0.7546771E-02  0.1078453E+00
         21   -1    0    0  502  501  0.00000000000E+00  0.00000000000E+00  0.58149797333E+03  0.58149797333E+03  0.00000000000E+00 0. -1.
         21   -1    0    0  501  502 -0.00000000000E+00 -0.00000000000E+00 -0.16953521736E+03  0.16953521736E+03  0.00000000000E+00 0. -1.
         25    1    1    2    0    0  0.36692792614E+02 -0.95287562079E+02  0.51139154777E+02  0.16931123314E+03  0.12500000000E+03 0.  0.
         25    1    1    2    0    0  0.60606372286E+02  0.12800884721E+03  0.37444875158E+03  0.41939988661E+03  0.12500000000E+03 0.  0.
         25    1    1    2    0    0 -0.97299164900E+02 -0.32721285129E+02 -0.13625150390E+02  0.16232207094E+03  0.12500000000E+03 0.  0.
</event>
<event>
 5    0  0.5510933E-005  0.3021491E+03  0.7546771E-02  0.1084171E+00
         21   -1    0    0  502  501  0.00000000000E+00  0.00000000000E+00  0.37393475829E+03  0.37393475829E+03  0.00000000000E+00 0.  1.
         21   -1    0    0  501  502 -0.00000000000E+00 -0.00000000000E+00 -0.24414446668E+03  0.24414446668E+03  0.00000000000E+00 0.  1.
         25    1    1    2    0    0 -0.15255297371E+02 -0.23435368095E+02  0.41760030619E+02  0.13472505607E+03  0.12500000000E+03 0.  0.
         25    1    1    2    0    0 -0.49716953300E+02 -0.88358080931E+02 -0.12556119183E+03  0.20413118038E+03  0.12500000000E+03 0.  0.
         25    1    1    2    0    0  0.64972250671E+02  0.11179344903E+03  0.21359145282E+03  0.27922298852E+03  0.12500000000E+03 0.  0.
</event>
<event>
 5    0  0.5510933E-005  0.4150485E+03  0.7546771E-02  0.1038690E+00
         21   -1    0    0  502  501  0.00000000000E+00  0.00000000000E+00  0.78213912194E+03  0.78213912194E+03  0.00000000000E+00 0. -1.
         21   -1    0    0  501  502 -0.00000000000E+00 -0.00000000000E+00 -0.22024883073E+03  0.22024883073E+03  0.00000000000E+00 0. -1.
         25    1    1    2    0    0  0.69578566244E+02  0.10815880957E+03  0.48552731103E+03  0.51759180318E+03  0.12500000000E+03 0.  0.
         25    1    1    2    0    0 -0.14661120782E+03 -0.15087663823E+03 -0.88229455598E+02  0.26013081912E+03  0.12500000000E+03 0.  0.
         25    1    1    2    0    0  0.77032641577E+02  0.42717828658E+02  0.16459243578E+03  0.22466533037E+03  0.12500000000E+03 0.  0.
</event>
<event>
 5    0  0.5510933E-005  0.2503131E+03  0.7546771E-02  0.1113107E+00
         21   -1    0    0  502  501  0.00000000000E+00  0.00000000000E+00  0.12521486058E+04  0.12521486058E+04  0.00000000000E+00 0. -1.
         21   -1    0    0  501  502 -0.00000000000E+00 -0.00000000000E+00 -0.50039292785E+02  0.50039292785E+02  0.00000000000E+00 0. -1.
         25    1    1    2    0    0 -0.46673066086E+02  0.73679741273E+01  0.46138366666E+03  0.48034628134E+03  0.12500000000E+03 0.  0.
         25    1    1    2    0    0 -0.69910994691E+02 -0.84409883562E+02  0.30202108995E+03  0.34475254081E+03  0.12500000000E+03 0.  0.
         25    1    1    2    0    0  0.11658406078E+03  0.77041909434E+02  0.43870455640E+03  0.47708907642E+03  0.12500000000E+03 0.  0.
</event>
<event>
 5    0  0.5510933E-005  0.2750858E+03  0.7546771E-02  0.1098404E+00
         21   -1    0    0  502  501  0.00000000000E+00  0.00000000000E+00  0.15455565938E+04  0.15455565938E+04  0.00000000000E+00 0. -1.
         21   -1    0    0  501  502 -0.00000000000E+00 -0.00000000000E+00 -0.48961145108E+02  0.48961145108E+02  0.00000000000E+00 0. -1.
         25    1    1    2    0    0  0.10660855790E+03  0.21906017891E+02  0.39800989002E+03  0.43114050006E+03  0.12500000000E+03 0.  0.
         25    1    1    2    0    0 -0.35706052252E+01  0.10841905097E+03  0.61733974397E+03  0.63914067256E+03  0.12500000000E+03 0.  0.
         25    1    1    2    0    0 -0.10303795268E+03 -0.13032506886E+03  0.48124581473E+03  0.52423656631E+03  0.12500000000E+03 0.  0.
</event>
<event>
 5    0  0.5510933E-005  0.3538687E+03  0.7546771E-02  0.1061038E+00
         21   -1    0    0  502  501  0.00000000000E+00  0.00000000000E+00  0.12066505896E+03  0.12066505896E+03  0.00000000000E+00 0. -1.
         21   -1    0    0  501  502 -0.00000000000E+00 -0.00000000000E+00 -0.10377739346E+04  0.10377739346E+04  0.00000000000E+00 0. -1.
         25    1    1    2    0    0 -0.13293271179E+03  0.69669450365E+02 -0.17873664146E+03  0.26475786141E+03  0.12500000000E+03 0.  0.
         25    1    1    2    0    0 -0.14546723664E+03 -0.46088734840E+02 -0.27986616610E+03  0.34239591023E+03  0.12500000000E+03 0.  0.
         25    1    1    2    0    0  0.27839994844E+03 -0.23580715525E+02 -0.45850606808E+03  0.55128522191E+03  0.12500000000E+03 0.  0.
</event>
<event>
 5    0  0.5510933E-005  0.2413699E+03  0.7546771E-02  0.1118884E+00
         21   -1    0    0  502  501  0.00000000000E+00  0.00000000000E+00  0.11581163143E+04  0.11581163143E+04  0.00000000000E+00 0. -1.
         21   -1    0    0  501  502 -0.00000000000E+00 -0.00000000000E+00 -0.50305347334E+02  0.50305347334E+02  0.00000000000E+00 0. -1.
         25    1    1    2    0    0  0.65898162336E+02 -0.51560673081E+02  0.26823756946E+03  0.30753449315E+03  0.12500000000E+03 0.  0.
         25    1    1    2    0    0  0.60109043503E+02  0.54813638417E+02  0.38710317122E+03  0.41483912211E+03  0.12500000000E+03 0.  0.
         25    1    1    2    0    0 -0.12600720584E+03 -0.32529653360E+01  0.45247022633E+03  0.48604804641E+03  0.12500000000E+03 0.  0.
</event>
<event>
 5    0  0.5510933E-005  0.3263796E+03  0.7546771E-02  0.1072750E+00
         21   -1    0    0  502  501  0.00000000000E+00  0.00000000000E+00  0.59102083013E+03  0.59102083013E+03  0.00000000000E+00 0. -1.
         21   -1    0    0  501  502 -0.00000000000E+00 -0.00000000000E+00 -0.18023671205E+03  0.18023671205E+03  0.00000000000E+00 0. -1.
         25    1    1    2    0    0  0.17206071363E+03 -0.11151838688E+03  0.83860103318E+02  0.25435950290E+03  0.12500000000E+03 0.  0.
         25    1    1    2    0    0 -0.11404776121E+03 -0.59937649778E+02  0.12978249313E+03  0.22151277440E+03  0.12500000000E+03 0.  0.
         25    1    1    2    0    0 -0.58012952417E+02  0.17145603666E+03  0.19714152163E+03  0.29538526487E+03  0.12500000000E+03 0.  0.
</event>
<event>
 5    0  0.5510933E-005  0.3928046E+03  0.7546771E-02  0.1046300E+00
         21   -1    0    0  502  501  0.00000000000E+00  0.00000000000E+00  0.13377421233E+04  0.13377421233E+04  0.00000000000E+00 0.  1.
         21   -1    0    0  501  502 -0.00000000000E+00 -0.00000000000E+00 -0.11534021825E+03  0.11534021825E+03  0.00000000000E+00 0.  1.
         25    1    1    2    0    0 -0.13911146081E+03  0.77019083636E+02  0.16504346873E+03  0.26105226363E+03  0.12500000000E+03 0.  0.
         25    1    1    2    0    0 -0.90368245195E+02  0.14039945307E+03  0.35515010274E+03  0.41186772347E+03  0.12500000000E+03 0.  0.
         25    1    1    2    0    0  0.22947970601E+03 -0.21741853671E+03  0.70220833360E+03  0.78016235448E+03  0.12500000000E+03 0.  0.
</event>
<event>
 5    0  0.5510933E-005  0.2958998E+03  0.7546771E-02  0.1087308E+00
         21   -1    0    0  502  501  0.00000000000E+00  0.00000000000E+00  0.14202378651E+04  0.14202378651E+04  0.00000000000E+00 0.  1.
         21   -1    0    0  501  502 -0.00000000000E+00 -0.00000000000E+00 -0.61649301700E+02  0.61649301700E+02  0.00000000000E+00 0.  1.
         25    1    1    2    0    0  0.62347815660E+02 -0.14735360151E+03  0.24700315093E+03  0.31974347619E+03  0.12500000000E+03 0.  0.
         25    1    1    2    0    0  0.18374008505E+02  0.72289585050E+02  0.75004672047E+03  0.76404088319E+03  0.12500000000E+03 0.  0.
         25    1    1    2    0    0 -0.80721824165E+02  0.75064016460E+02  0.36153869198E+03  0.39810280740E+03  0.12500000000E+03 0.  0.
</event>
<event>
 5    0  0.5510933E-005  0.4683525E+03  0.7546771E-02  0.1022386E+00
         21   -1    0    0  502  501  0.00000000000E+00  0.00000000000E+00  0.10986830109E+04  0.10986830109E+04  0.00000000000E+00 0.  1.
         21   -1    0    0  501  502 -0.00000000000E+00 -0.00000000000E+00 -0.19965184148E+03  0.19965184148E+03  0.00000000000E+00 0.  1.
         25    1    1    2    0    0  0.19985568023E+03 -0.83096320193E+02  0.92492743660E+03  0.95810388494E+03  0.12500000000E+03 0.  0.
         25    1    1    2    0    0 -0.94798964961E+02  0.53655383320E+02 -0.48570638518E+02  0.17277109377E+03  0.12500000000E+03 0.  0.
         25    1    1    2    0    0 -0.10505671527E+03  0.29440936873E+02  0.22674371379E+02  0.16745987371E+03  0.12500000000E+03 0.  0.
</event>
<event>
 5    0  0.5510933E-005  0.2353635E+03  0.7546771E-02  0.1122921E+00
         21   -1    0    0  502  501  0.00000000000E+00  0.00000000000E+00  0.25425640361E+03  0.25425640361E+03  0.00000000000E+00 0. -1.
         21   -1    0    0  501  502 -0.00000000000E+00 -0.00000000000E+00 -0.21787445051E+03  0.21787445051E+03  0.00000000000E+00 0. -1.
         25    1    1    2    0    0 -0.53888692687E+02  0.41675920300E+02  0.13070533678E+01  0.14236425788E+03  0.12500000000E+03 0.  0.
         25    1    1    2    0    0 -0.95740911032E+00 -0.11036403023E+03  0.55167401152E+02  0.17564047925E+03  0.12500000000E+03 0.  0.
         25    1    1    2    0    0  0.54846101798E+02  0.68688109926E+02 -0.20092501419E+02  0.15412611700E+03  0.12500000000E+03 0.  0.
</event>
<event>
 5    0  0.5510933E-005  0.2017793E+03  0.7546771E-02  0.1148246E+00
         21   -1    0    0  502  501  0.00000000000E+00  0.00000000000E+00  0.70429415745E+02  0.70429415745E+02  0.00000000000E+00 0.  1.
         21   -1    0    0  501  502 -0.00000000000E+00 -0.00000000000E+00 -0.57809499253E+03  0.57809499253E+03  0.00000000000E+00 0.  1.
         25    1    1    2    0    0  0.62994107560E+01  0.46022994070E+02 -0.14976826156E+03  0.20053261762E+03  0.12500000000E+03 0.  0.
         25    1    1    2    0    0 -0.49610590364E+01  0.10934607934E+02 -0.12241718913E+03  0.17537145136E+03  0.12500000000E+03 0.  0.
         25    1    1    2    0    0 -0.13383517196E+01 -0.56957602004E+02 -0.23548012610E+03  0.27262033930E+03  0.12500000000E+03 0.  0.
</event>
<event>
 5    0  0.5510933E-005  0.4611515E+03  0.7546771E-02  0.1024448E+00
         21   -1    0    0  502  501  0.00000000000E+00  0.00000000000E+00  0.23212575137E+03  0.23212575137E+03  0.00000000000E+00 0.  1.
         21   -1    0    0  501  502 -0.00000000000E+00 -0.00000000000E+00 -0.91614434775E+03  0.91614434775E+03  0.00000000000E+00 0.  1.
         25    1    1    2    0    0  0.12909068566E+03  0.15447968313E+03 -0.37795802329E+02  0.23996228932E+03  0.12500000000E+03 0.  0.
         25    1    1    2    0    0 -0.15249228707E+03  0.17543614905E+03 -0.16537843035E+03  0.31145909079E+03  0.12500000000E+03 0.  0.
         25    1    1    2    0    0  0.23401601415E+02 -0.32991583218E+03 -0.48084436370E+03  0.59684871901E+03  0.12500000000E+03 0.  0.
</event>
<event>
 5    0  0.5510933E-005  0.3813490E+03  0.7546771E-02  0.1050436E+00
         21   -1    0    0  502  501  0.00000000000E+00  0.00000000000E+00  0.73398667897E+02  0.73398667897E+02  0.00000000000E+00 0.  1.
         21   -1    0    0  501  502 -0.00000000000E+00 -0.00000000000E+00 -0.19813312566E+04  0.19813312566E+04  0.00000000000E+00 0.  1.
         25    1    1    2    0    0  0.72280303867E+02 -0.49766914563E+02 -0.18856430357E+03  0.24265754613E+03  0.12500000000E+03 0.  0.
         25    1    1    2    0    0 -0.90257315832E+01 -0.17765423744E+02 -0.16254956759E+04  0.16304165929E+04  0.12500000000E+03 0.  0.
         25    1    1    2    0    0 -0.63254572284E+02  0.67532338307E+02 -0.93872609295E+02  0.18165578551E+03  0.12500000000E+03 0.  0.
</event>
<event>
 5    0  0.5510933E-005  0.3677308E+03  0.7546771E-02  0.1055564E+00
         21   -1    0    0  502  501  0.00000000000E+00  0.00000000000E+00  0.57199885869E+03  0.57199885869E+03  0.00000000000E+00 0.  1.
         21   -1    0    0  501  502 -0.00000000000E+00 -0.00000000000E+00 -0.23640945368E+03  0.23640945368E+03  0.00000000000E+00 0.  1.
         25    1    1    2    0    0  0.73447726823E+02  0.23785707372E+02  0.19782749302E+03  0.24641640661E+03  0.12500000000E+03 0.  0.
         25    1    1    2    0    0 -0.28766298635E+02  0.11783993163E+03 -0.13976135155E+03  0.22332036363E+03  0.12500000000E+03 0.  0.
         25    1    1    2    0    0 -0.44681428189E+02 -0.14162563900E+03  0.27752326354E+03  0.33867154213E+03  0.12500000000E+03 0.  0.
</event>
<event>
 5    0  0.5510933E-005  0.4624708E+03  0.7546771E-02  0.1024067E+00
         21   -1    0    0  502  501  0.00000000000E+00  0.00000000000E+00  0.24598819162E+03  0.24598819162E+03  0.00000000000E+00 0. -1.
         21   -1    0    0  501  502 -0.00000000000E+00 -0.00000000000E+00 -0.86946949137E+03  0.86946949137E+03  0.00000000000E+00 0. -1.
         25    1    1    2    0    0  0.14314260308E+03 -0.36784390116E+03 -0.28987767061E+03  0.50542358904E+03  0.12500000000E+03 0.  0.
         25    1    1    2    0    0 -0.57412511606E+02  0.23207018423E+03 -0.30056422467E+03  0.40387698628E+03  0.12500000000E+03 0.  0.
         25    1    1    2    0    0 -0.85730091470E+02  0.13577371693E+03 -0.33039404478E+02  0.20615710767E+03  0.12500000000E+03 0.  0.
</event>
<event>
 5    0  0.5510933E-005  0.3027791E+03  0.7546771E-02  0.1083860E+00
         21   -1    0    0  502  501  0.00000000000E+00  0.00000000000E+00  0.80814846574E+03  0.80814846574E+03  0.00000000000E+00 0.  1.
         21   -1    0    0  501  502 -0.00000000000E+00 -0.00000000000E+00 -0.11343854955E+03  0.11343854955E+03  0.00000000000E+00 0.  1.
         25    1    1    2    0    0 -0.13075369601E+03 -0.54112720904E+02  0.13313979755E+03  0.23103229488E+03  0.12500000000E+03 0.  0.
         25    1    1    2    0    0  0.13452001922E+02 -0.91388544824E+02  0.12488803697E+03  0.19938616868E+03  0.12500000000E+03 0.  0.
         25    1    1    2    0    0  0.11730169408E+03  0.14550126573E+03  0.43668208167E+03  0.49116855174E+03  0.12500000000E+03 0.  0.
</event>
<event>
 5    0  0.5510933E-005  0.3215520E+03  0.7546771E-02  0.1074937E+00
         21   -1    0    0  502  501  0.00000000000E+00  0.00000000000E+00  0.93839250340E+03  0.93839250340E+03  0.00000000000E+00 0. -1.
         21   -1    0    0  501  502 -0.00000000000E+00 -0.00000000000E+00 -0.11018384040E+03  0.11018384040E+03  0.00000000000E+00 0. -1.
         25    1    1    2    0    0  0.77728202013E+02  0.22489542797E+02  0.11450030889E+03  0.18783709340E+03  0.12500000000E+03 0.  0.
         25    1    1    2    0    0 -0.12689409697E+03 -0.15224776011E+03  0.18053571507E+03  0.29580337510E+03  0.12500000000E+03 0.  0.
         25    1    1    2    0    0  0.49165894957E+02  0.12975821731E+03  0.53317263904E+03  0.56493587531E+03  0.12500000000E+03 0.  0.
</event>
<event>
 5    0  0.5510933E-005  0.4099603E+03  0.7546771E-02  0.1040384E+00
         21   -1    0    0  502  501  0.00000000000E+00  0.00000000000E+00  0.67043234567E+03  0.67043234567E+03  0.00000000000E+00 0. -1.
         21   -1    0    0  501  502 -0.00000000000E+00 -0.00000000000E+00 -0.25068517149E+03  0.25068517149E+03  0.00000000000E+00 0. -1.
         25    1    1    2    0    0 -0.23088671690E+03  0.31086719296E+02  0.25159399776E+02  0.26558060086E+03  0.12500000000E+03 0.  0.
         25    1    1    2    0    0  0.30743858497E+03 -0.23023723925E+02  0.38442479573E+03  0.50838567935E+03  0.12500000000E+03 0.  0.
         25    1    1    2    0    0 -0.76551868078E+02 -0.80629953709E+01  0.10162978675E+02  0.14715123695E+03  0.12500000000E+03 0.  0.
</event>
<event>
 5    0  0.6452762E-005  0.2964755E+03  0.7546771E-02  0.1087016E+00
         21   -1    0    0  502  501  0.00000000000E+00  0.00000000000E+00  0.53763094553E+03  0.53763094553E+03  0.00000000000E+00 0.  1.
         21   -1    0    0  501  502 -0.00000000000E+00 -0.00000000000E+00 -0.16349077673E+03  0.16349077673E+03  0.00000000000E+00 0.  1.
         25    1    1    2    0    0 -0.89402784388E+00 -0.60544888044E+01 -0.44299454436E+02  0.13275879550E+03  0.12500000000E+03 0.  0.
         25    1    1    2    0    0  0.53784423707E+02 -0.12371814381E+03  0.28026580942E+03  0.33522062477E+03  0.12500000000E+03 0.  0.
         25    1    1    2    0    0 -0.52890395864E+02  0.12977263262E+03  0.13817381381E+03  0.23314230198E+03  0.12500000000E+03 0.  0.
</event>
<event>
 5    0  0.5510933E-005  0.3013846E+03  0.7546771E-02  0.1084551E+00
         21   -1    0    0  502  501  0.00000000000E+00  0.00000000000E+00  0.70279218402E+03  0.70279218402E+03  0.00000000000E+00 0. -1.
         21   -1    0    0  501  502 -0.00000000000E+00 -0.00000000000E+00 -0.12924542348E+03  0.12924542348E+03  0.00000000000E+00 0. -1.
         25    1    1    2    0    0  0.73392244337E+02 -0.15608870996E+03  0.19560138324E+03  0.28919717846E+03  0.12500000000E+03 0.  0.
         25    1    1    2    0    0 -0.20233004026E+00  0.13411191019E+03  0.60231925840E+02  0.19297391088E+03  0.12500000000E+03 0.  0.
         25    1    1    2    0    0 -0.73189914297E+02  0.21976799774E+02  0.31771345146E+03  0.34986651815E+03  0.12500000000E+03 0.  0.
</event>
<event>
 5    0  0.5510933E-005  0.3290652E+03  0.7546771E-02  0.1071551E+00
         21   -1    0    0  502  501  0.00000000000E+00  0.00000000000E+00  0.43010097210E+03  0.43010097210E+03  0.00000000000E+00 0. -1.
         21   -1    0    0  501  502 -0.00000000000E+00 -0.00000000000E+00 -0.25176384256E+03  0.25176384256E+03  0.00000000000E+00 0. -1.
         25    1    1    2    0    0  0.19958485387E+03 -0.15077226729E+03  0.15561138111E+02  0.28005988556E+03  0.12500000000E+03 0.  0.
         25    1    1    2    0    0 -0.14514754017E+03  0.90022521180E+02  0.13188572880E+03  0.24938064921E+03  0.12500000000E+03 0.  0.
         25    1    1    2    0    0 -0.54437313697E+02  0.60749746113E+02  0.30890262634E+02  0.15242427989E+03  0.12500000000E+03 0.  0.
</event>
<event>
 5    0  0.5510933E-005  0.3235161E+03  0.7546771E-02  0.1074042E+00
         21   -1    0    0  502  501  0.00000000000E+00  0.00000000000E+00  0.51582526397E+03  0.51582526397E+03  0.00000000000E+00 0.  1.
         21   -1    0    0  501  502 -0.00000000000E+00 -0.00000000000E+00 -0.20290335739E+03  0.20290335739E+03  0.00000000000E+00 0.  1.
         25    1    1    2    0    0  0.24752001401E+02  0.15437883804E+03  0.25150551818E+03  0.32144286099E+03  0.12500000000E+03 0.  0.
         25    1    1    2    0    0 -0.14206104559E+03 -0.74417082329E+02  0.29801243995E+02  0.20550512636E+03  0.12500000000E+03 0.  0.
         25    1    1    2    0    0  0.11730904419E+03 -0.79961755712E+02  0.31615144410E+02  0.19178063401E+03  0.12500000000E+03 0.  0.
</event>
<event>
 5    0  0.5510933E-005  0.6445193E+03  0.7546771E-02  0.9817118E-01
         21   -1    0    0  502  501  0.00000000000E+00  0.00000000000E+00  0.32835482971E+03  0.32835482971E+03  0.00000000000E+00 0.  1.
         21   -1    0    0  501  502 -0.00000000000E+00 -0.00000000000E+00 -0.12651104318E+04  0.12651104318E+04  0.00000000000E+00 0.  1.
         25    1    1    2    0    0  0.29911473945E+02 -0.23381435587E+03 -0.98688528390E+02  0.28447895339E+03  0.12500000000E+03 0.  0.
         25    1    1    2    0    0 -0.41697175448E+02  0.31403854246E+03 -0.10191141661E+04  0.10745127008E+04  0.12500000000E+03 0.  0.
         25    1    1    2    0    0  0.11785701503E+02 -0.80224186588E+02  0.18104709240E+03  0.23447360734E+03  0.12500000000E+03 0.  0.
</event>
<event>
 5    0  0.5510933E-005  0.2937068E+03  0.7546771E-02  0.1088430E+00
         21   -1    0    0  502  501  0.00000000000E+00  0.00000000000E+00  0.24986761773E+03  0.24986761773E+03  0.00000000000E+00 0. -1.
         21   -1    0    0  501  502 -0.00000000000E+00 -0.00000000000E+00 -0.34523760555E+03  0.34523760555E+03  0.00000000000E+00 0. -1.
         25    1    1    2    0    0 -0.19959290610E+02 -0.71972978856E+02 -0.13869249402E+02  0.14627316584E+03  0.12500000000E+03 0.  0.
         25    1    1    2    0    0  0.36983992804E+02  0.48824840337E+02  0.13710165823E+03  0.19538051450E+03  0.12500000000E+03 0.  0.
         25    1    1    2    0    0 -0.17024702195E+02  0.23148138519E+02 -0.21860239664E+03  0.25345154294E+03  0.12500000000E+03 0.  0.
</event>
<event>
 5    0  0.5510933E-005  0.2307619E+03  0.7546771E-02  0.1126105E+00
         21   -1    0    0  502  501  0.00000000000E+00  0.00000000000E+00  0.14793648072E+04  0.14793648072E+04  0.00000000000E+00 0. -1.
         21   -1    0    0  501  502 -0.00000000000E+00 -0.00000000000E+00 -0.35995878145E+02  0.35995878145E+02  0.00000000000E+00 0. -1.
         25    1    1    2    0    0 -0.60868276163E+02 -0.18720888654E+02  0.37397502661E+03  0.39942175610E+03  0.12500000000E+03 0.  0.
         25    1    1    2    0    0  0.80066262048E+02  0.30911506590E+02  0.30017147109E+03  0.33629457268E+03  0.12500000000E+03 0.  0.
         25    1    1    2    0    0 -0.19197985885E+02 -0.12190617936E+02  0.76922243133E+03  0.77964435654E+03  0.12500000000E+03 0.  0.
</event>
<event>
 5    0  0.5510933E-005  0.2247069E+03  0.7546771E-02  0.1130422E+00
         21   -1    0    0  502  501  0.00000000000E+00  0.00000000000E+00  0.76809679134E+03  0.76809679134E+03  0.00000000000E+00 0.  1.
         21   -1    0    0  501  502 -0.00000000000E+00 -0.00000000000E+00 -0.65738066387E+02  0.65738066387E+02  0.00000000000E+00 0.  1.
         25    1    1    2    0    0 -0.25678155437E+02 -0.38227784737E+01  0.31846060241E+03  0.34309785279E+03  0.12500000000E+03 0.  0.
         25    1    1    2    0    0 -0.42679930156E+02 -0.59030902617E+02  0.13970386111E+03  0.20111785776E+03  0.12500000000E+03 0.  0.
         25    1    1    2    0    0  0.68358085593E+02  0.62853681091E+02  0.24419426143E+03  0.28961914717E+03  0.12500000000E+03 0.  0.
</event>
<event>
 5    0  0.5510933E-005  0.4569748E+03  0.7546771E-02  0.1025662E+00
         21   -1    0    0  502  501  0.00000000000E+00  0.00000000000E+00  0.35221293309E+03  0.35221293309E+03  0.00000000000E+00 0. -1.
         21   -1    0    0  501  502 -0.00000000000E+00 -0.00000000000E+00 -0.59289682156E+03  0.59289682156E+03  0.00000000000E+00 0.  1.
         25    1    1    2    0    0  0.15493963018E+03  0.23244764965E+03 -0.28207542297E+02  0.30734160842E+03  0.12500000000E+03 0.  0.
         25    1    1    2    0    0 -0.14197620656E+02 -0.34776453846E+03 -0.73917683154E+02  0.37713468486E+03  0.12500000000E+03 0.  0.
         25    1    1    2    0    0 -0.14074200952E+03  0.11531688881E+03 -0.13855866302E+03  0.26063346137E+03  0.12500000000E+03 0.  0.
</event>
<event>
 5    0  0.5586587E-005  0.3124080E+03  0.7546771E-02  0.1079197E+00
         21   -1    0    0  502  501  0.00000000000E+00  0.00000000000E+00  0.51584559791E+03  0.51584559791E+03  0.00000000000E+00 0. -1.
         21   -1    0    0  501  502 -0.00000000000E+00 -0.00000000000E+00 -0.18920146646E+03  0.18920146646E+03  0.00000000000E+00 0. -1.
         25    1    1    2    0    0  0.29838124925E+02  0.19128061682E+03  0.14772830491E+03  0.27372840580E+03  0.12500000000E+03 0.  0.
         25    1    1    2    0    0  0.98557329138E+02 -0.12111670654E+03  0.91244293763E+02  0.21984841340E+03  0.12500000000E+03 0.  0.
         25    1    1    2    0    0 -0.12839545406E+03 -0.70163910285E+02  0.87671532781E+02  0.21147024517E+03  0.12500000000E+03 0.  0.
</event>
<event>
 5    0  0.5510933E-005  0.3486719E+03  0.7546771E-02  0.1063161E+00
         21   -1    0    0  502  501  0.00000000000E+00  0.00000000000E+00  0.66301036760E+03  0.66301036760E+03  0.00000000000E+00 0. -1.
         21   -1    0    0  501  502 -0.00000000000E+00 -0.00000000000E+00 -0.18336379079E+03  0.18336379079E+03  0.00000000000E+00 0. -1.
         25    1    1    2    0    0  0.19436213455E+03 -0.89808411623E+01  0.28868283317E+03  0.36989197480E+03  0.12500000000E+03 0.  0.
         25    1    1    2    0    0 -0.80401518451E+02  0.15350230756E+03  0.10367789391E+03  0.23748993301E+03  0.12500000000E+03 0.  0.
         25    1    1    2    0    0 -0.11396061610E+03 -0.14452146640E+03  0.87285849729E+02  0.23899225058E+03  0.12500000000E+03 0.  0.
</event>
<event>
 5    0  0.5510933E-005  0.2391316E+03  0.7546771E-02  0.1120373E+00
         21   -1    0    0  502  501  0.00000000000E+00  0.00000000000E+00  0.41208612378E+03  0.41208612378E+03  0.00000000000E+00 0.  1.
         21   -1    0    0  501  502 -0.00000000000E+00 -0.00000000000E+00 -0.13876694974E+03  0.13876694974E+03  0.00000000000E+00 0.  1.
         25    1    1    2    0    0 -0.25574133958E+02 -0.52642471940E+02  0.20968294074E+03  0.25103227246E+03  0.12500000000E+03 0.  0.
         25    1    1    2    0    0  0.46434860088E+01 -0.44957095496E+02  0.32875370605E+02  0.13692513425E+03  0.12500000000E+03 0.  0.
         25    1    1    2    0    0  0.20930647949E+02  0.97599567436E+02  0.30760862691E+02  0.16289566680E+03  0.12500000000E+03 0.  0.
</event>
<event>
 5    0  0.5510933E-005  0.2802661E+03  0.7546771E-02  0.1095544E+00
         21   -1    0    0  502  501  0.00000000000E+00  0.00000000000E+00  0.86569250617E+02  0.86569250617E+02  0.00000000000E+00 0. -1.
         21   -1    0    0  501  502 -0.00000000000E+00 -0.00000000000E+00 -0.90735530464E+03  0.90735530464E+03  0.00000000000E+00 0. -1.
         25    1    1    2    0    0 -0.20198798088E+02 -0.65444071450E+02 -0.47733223840E+02  0.15031426609E+03  0.12500000000E+03 0.  0.
         25    1    1    2    0    0  0.81187590965E+02 -0.45566442427E+02 -0.29757032902E+03  0.33591788627E+03  0.12500000000E+03 0.  0.
         25    1    1    2    0    0 -0.60988792877E+02  0.11101051388E+03 -0.47548250116E+03  0.50769240290E+03  0.12500000000E+03 0.  0.
</event>
<event>
 5    0  0.5510933E-005  0.2508575E+03  0.7546771E-02  0.1112764E+00
         21   -1    0    0  502  501  0.00000000000E+00  0.00000000000E+00  0.17033508505E+03  0.17033508505E+03  0.00000000000E+00 0. -1.
         21   -1    0    0  501  502 -0.00000000000E+00 -0.00000000000E+00 -0.36944514332E+03  0.36944514332E+03  0.00000000000E+00 0. -1.
         25    1    1    2    0    0 -0.20675617394E+02 -0.17064732859E+02 -0.34550569698E+02  0.13242895502E+03  0.12500000000E+03 0.  0.
         25    1    1    2    0    0 -0.29098257889E+02 -0.12321504139E+03 -0.87404446221E+02  0.19822510501E+03  0.12500000000E+03 0.  0.
         25    1    1    2    0    0  0.49773875283E+02  0.14027977425E+03 -0.77155042350E+02  0.20912616834E+03  0.12500000000E+03 0.  0.
</event>
<event>
 5    0  0.5510933E-005  0.3074917E+03  0.7546771E-02  0.1081554E+00
         21   -1    0    0  502  501  0.00000000000E+00  0.00000000000E+00  0.23210742219E+03  0.23210742219E+03  0.00000000000E+00 0. -1.
         21   -1    0    0  501  502 -0.00000000000E+00 -0.00000000000E+00 -0.40735931223E+03  0.40735931223E+03  0.00000000000E+00 0. -1.
         25    1    1    2    0    0  0.68639804732E+02 -0.17763179250E+03 -0.12689440990E+03  0.26075211938E+03  0.12500000000E+03 0.  0.
         25    1    1    2    0    0  0.25530109558E+02  0.12658677119E+03  0.50513420372E+02  0.18668851805E+03  0.12500000000E+03 0.  0.
         25    1    1    2    0    0 -0.94169914289E+02  0.51045021311E+02 -0.98870900513E+02  0.19202609699E+03  0.12500000000E+03 0.  0.
</event>
<event>
 5    0  0.5510933E-005  0.2261805E+03  0.7546771E-02  0.1129357E+00
         21   -1    0    0  502  501  0.00000000000E+00  0.00000000000E+00  0.97795725032E+02  0.97795725032E+02  0.00000000000E+00 0. -1.
         21   -1    0    0  501  502 -0.00000000000E+00 -0.00000000000E+00 -0.52310680545E+03  0.52310680545E+03  0.00000000000E+00 0. -1.
         25    1    1    2    0    0 -0.68747606047E+02  0.64164025357E+01 -0.14039769772E+03  0.20025962420E+03  0.12500000000E+03 0.  0.
         25    1    1    2    0    0  0.43120031824E+02 -0.52673411286E+02 -0.23747985061E+03  0.27686730548E+03  0.12500000000E+03 0.  0.
         25    1    1    2    0    0  0.25627574223E+02  0.46257008750E+02 -0.47433532089E+02  0.14377560080E+03  0.12500000000E+03 0.  0.
</event>
<event>
 5    0  0.5510933E-005  0.2571294E+03  0.7546771E-02  0.1108880E+00
         21   -1    0    0  502  501  0.00000000000E+00  0.00000000000E+00  0.10286311041E+04  0.10286311041E+04  0.00000000000E+00 0.  1.
         21   -1    0    0  501  502 -0.00000000000E+00 -0.00000000000E+00 -0.64275278517E+02  0.64275278517E+02  0.00000000000E+00 0.  1.
         25    1    1    2    0    0 -0.52806545252E+00  0.27705019617E+02  0.34592499509E+03  0.36885898280E+03  0.12500000000E+03 0.  0.
         25    1    1    2    0    0 -0.12048550643E+03 -0.35921585266E+02  0.18169165785E+03  0.25385818104E+03  0.12500000000E+03 0.  0.
         25    1    1    2    0    0  0.12101357188E+03  0.82165656497E+01  0.43673917261E+03  0.47018921874E+03  0.12500000000E+03 0.  0.
</event>
<event>
 5    0  0.5510933E-005  0.3218765E+03  0.7546771E-02  0.1074789E+00
         21   -1    0    0  502  501  0.00000000000E+00  0.00000000000E+00  0.14945753958E+03  0.14945753958E+03  0.00000000000E+00 0. -1.
         21   -1    0    0  501  502 -0.00000000000E+00 -0.00000000000E+00 -0.69320339637E+03  0.69320339637E+03  0.00000000000E+00 0. -1.
         25    1    1    2    0    0 -0.10039240844E+03 -0.29664813001E+02 -0.48985778872E+03  0.51627927517E+03  0.12500000000E+03 0.  0.
         25    1    1    2    0    0  0.12004434734E+03  0.32667706224E+02 -0.85397049120E+02  0.19594764698E+03  0.12500000000E+03 0.  0.
         25    1    1    2    0    0 -0.19651938899E+02 -0.30028932233E+01  0.31508981050E+02  0.13043401380E+03  0.12500000000E+03 0.  0.
</event>
<event>
 5    0  0.6191913E-005  0.2886542E+03  0.7546771E-02  0.1091054E+00
         21   -1    0    0  502  501  0.00000000000E+00  0.00000000000E+00  0.47737176808E+03  0.47737176808E+03  0.00000000000E+00 0. -1.
         21   -1    0    0  501  502 -0.00000000000E+00 -0.00000000000E+00 -0.17454162615E+03  0.17454162615E+03  0.00000000000E+00 0. -1.
         25    1    1    2    0    0 -0.42121341589E+02  0.63411067026E+02 -0.30461742800E+02  0.14949277111E+03  0.12500000000E+03 0.  0.
         25    1    1    2    0    0  0.12522434825E+03 -0.12189189690E+03  0.18918824580E+03  0.28627952123E+03  0.12500000000E+03 0.  0.
         25    1    1    2    0    0 -0.83103006662E+02  0.58480829872E+02  0.14410363893E+03  0.21614110190E+03  0.12500000000E+03 0.  0.
</event>
<event>
 5    0  0.5510933E-005  0.3977577E+03  0.7546771E-02  0.1044559E+00
         21   -1    0    0  502  501  0.00000000000E+00  0.00000000000E+00  0.98924898502E+03  0.98924898502E+03  0.00000000000E+00 0.  1.
         21   -1    0    0  501  502 -0.00000000000E+00 -0.00000000000E+00 -0.15993059835E+03  0.15993059835E+03  0.00000000000E+00 0.  1.
         25    1    1    2    0    0 -0.19244638834E+02  0.20287106556E+03 -0.11917293434E+02  0.23936174976E+03  0.12500000000E+03 0.  0.
         25    1    1    2    0    0  0.70310226156E+02 -0.11667823044E+03  0.49211870148E+03  0.52570253348E+03  0.12500000000E+03 0.  0.
         25    1    1    2    0    0 -0.51065587322E+02 -0.86192835125E+02  0.34911697862E+03  0.38411530013E+03  0.12500000000E+03 0.  0.
</event>
<event>
 5    0  0.5510933E-005  0.3445345E+03  0.7546771E-02  0.1064881E+00
         21   -1    0    0  502  501  0.00000000000E+00  0.00000000000E+00  0.68519612467E+03  0.68519612467E+03  0.00000000000E+00 0.  1.
         21   -1    0    0  501  502 -0.00000000000E+00 -0.00000000000E+00 -0.17324093048E+03  0.17324093048E+03  0.00000000000E+00 0.  1.
         25    1    1    2    0    0  0.10881266830E+03  0.84678935293E+02  0.41415465744E+03  0.45404823438E+03  0.12500000000E+03 0.  0.
         25    1    1    2    0    0  0.83518443556E+02 -0.10608729257E+02  0.26502574391E+02  0.15302046268E+03  0.12500000000E+03 0.  0.
         25    1    1    2    0    0 -0.19233111185E+03 -0.74070206037E+02  0.71297962362E+02  0.25136835808E+03  0.12500000000E+03 0.  0.
</event>
<event>
 5    0  0.5745985E-005  0.3141056E+03  0.7546771E-02  0.1078394E+00
         21   -1    0    0  502  501  0.00000000000E+00  0.00000000000E+00  0.24377240310E+03  0.24377240310E+03  0.00000000000E+00 0.  1.
         21   -1    0    0  501  502 -0.00000000000E+00 -0.00000000000E+00 -0.40473137227E+03  0.40473137227E+03  0.00000000000E+00 0.  1.
         25    1    1    2    0    0  0.13721795238E+02 -0.19030175320E+03 -0.11992803052E+03  0.25770288597E+03  0.12500000000E+03 0.  0.
         25    1    1    2    0    0  0.95630827895E+02  0.12098595343E+03 -0.65807756575E+02  0.20913755520E+03  0.12500000000E+03 0.  0.
         25    1    1    2    0    0 -0.10935262313E+03  0.69315799772E+02  0.24776817927E+02  0.18166333419E+03  0.12500000000E+03 0.  0.
</event>
<event>
 5    0  0.5510933E-005  0.3696918E+03  0.7546771E-02  0.1054811E+00
         21   -1    0    0  502  501  0.00000000000E+00  0.00000000000E+00  0.87824593733E+02  0.87824593733E+02  0.00000000000E+00 0. -1.
         21   -1    0    0  501  502 -0.00000000000E+00 -0.00000000000E+00 -0.15561934791E+04  0.15561934791E+04  0.00000000000E+00 0. -1.
         25    1    1    2    0    0  0.10417793077E+03 -0.56006419539E+02 -0.10953003068E+04  0.11087369041E+04  0.12500000000E+03 0.  0.
         25    1    1    2    0    0 -0.21447661772E+02  0.65039777856E+02 -0.10586426501E+02  0.14292392146E+03  0.12500000000E+03 0.  0.
         25    1    1    2    0    0 -0.82730269000E+02 -0.90333583168E+01 -0.36248215199E+03  0.39235724727E+03  0.12500000000E+03 0.  0.
</event>
<event>
 5    0  0.5510933E-005  0.3942000E+03  0.7546771E-02  0.1045807E+00
         21   -1    0    0  502  501  0.00000000000E+00  0.00000000000E+00  0.27968195334E+04  0.27968195334E+04  0.00000000000E+00 0.  1.
         21   -1    0    0  501  502 -0.00000000000E+00 -0.00000000000E+00 -0.55560833441E+02  0.55560833441E+02  0.00000000000E+00 0.  1.
         25    1    1    2    0    0 -0.87219450305E+02 -0.20599325560E+03  0.74303953217E+03  0.78598549619E+03  0.12500000000E+03 0.  0.
         25    1    1    2    0    0  0.97102923425E+02  0.30383443974E+03  0.16246445157E+04  0.16603731951E+04  0.12500000000E+03 0.  0.
         25    1    1    2    0    0 -0.98834731200E+01 -0.97841184144E+02  0.37357465211E+03  0.40602167560E+03  0.12500000000E+03 0.  0.
</event>
<event>
 5    0  0.5510933E-005  0.2555825E+03  0.7546771E-02  0.1109827E+00
         21   -1    0    0  502  501  0.00000000000E+00  0.00000000000E+00  0.12982120402E+03  0.12982120402E+03  0.00000000000E+00 0.  1.
         21   -1    0    0  501  502 -0.00000000000E+00 -0.00000000000E+00 -0.50317227771E+03  0.50317227771E+03  0.00000000000E+00 0.  1.
         25    1    1    2    0    0 -0.33569907567E+02  0.58287005999E+02 -0.14494057425E+02  0.14268633944E+03  0.12500000000E+03 0.  0.
         25    1    1    2    0    0 -0.32093555085E+02 -0.11891836576E+02 -0.30642543686E+03  0.33270551605E+03  0.12500000000E+03 0.  0.
         25    1    1    2    0    0  0.65663462652E+02 -0.46395169423E+02 -0.52431579399E+02  0.15760162623E+03  0.12500000000E+03 0.  0.
</event>
<event>
 5    0  0.5510933E-005  0.3390928E+03  0.7546771E-02  0.1067183E+00
         21   -1    0    0  502  501  0.00000000000E+00  0.00000000000E+00  0.77885604530E+03  0.77885604530E+03  0.00000000000E+00 0.  1.
         21   -1    0    0  501  502 -0.00000000000E+00 -0.00000000000E+00 -0.14763178318E+03  0.14763178318E+03  0.00000000000E+00 0.  1.
         25    1    1    2    0    0  0.78446566772E+02 -0.15989501945E+03  0.16664781175E+02  0.21822693696E+03  0.12500000000E+03 0.  0.
         25    1    1    2    0    0 -0.18536947398E+02  0.12821280369E+02  0.36888647976E+03  0.39014130594E+03  0.12500000000E+03 0.  0.
         25    1    1    2    0    0 -0.59909619374E+02  0.14707373909E+03  0.24567300118E+03  0.31811958558E+03  0.12500000000E+03 0.  0.
</event>
<event>
 5    0  0.5510933E-005  0.6073839E+03  0.7546771E-02  0.9890204E-01
         21   -1    0    0  502  501  0.00000000000E+00  0.00000000000E+00  0.70391535832E+03  0.70391535832E+03  0.00000000000E+00 0.  1.
         21   -1    0    0  501  502 -0.00000000000E+00 -0.00000000000E+00 -0.52409034674E+03  0.52409034674E+03  0.00000000000E+00 0.  1.
         25    1    1    2    0    0  0.26909096381E+03  0.33087929427E+03 -0.25210687493E+03  0.51095394173E+03  0.12500000000E+03 0.  0.
         25    1    1    2    0    0 -0.27902148157E+03 -0.15006332046E+03  0.18990132995E+03  0.38994807660E+03  0.12500000000E+03 0.  0.
         25    1    1    2    0    0  0.99305177590E+01 -0.18081597381E+03  0.24203055656E+03  0.32710368674E+03  0.12500000000E+03 0.  0.
</event>
<event>
 5    0  0.5510933E-005  0.2237478E+03  0.7546771E-02  0.1131119E+00
         21   -1    0    0  502  501  0.00000000000E+00  0.00000000000E+00  0.12150219764E+03  0.12150219764E+03  0.00000000000E+00 0. -1.
         21   -1    0    0  501  502 -0.00000000000E+00 -0.00000000000E+00 -0.41203434500E+03  0.41203434500E+03  0.00000000000E+00 0. -1.
         25    1    1    2    0    0  0.97933287265E+02 -0.36107012918E+02 -0.16138197009E+03  0.22926793367E+03  0.12500000000E+03 0.  0.
         25    1    1    2    0    0 -0.52981680328E+02  0.65103099305E+01 -0.88653109610E+02  0.16227697443E+03  0.12500000000E+03 0.  0.
         25    1    1    2    0    0 -0.44951606937E+02  0.29596702988E+02 -0.40497067652E+02  0.14199163455E+03  0.12500000000E+03 0.  0.
</event>
<event>
 5    0  0.5510933E-005  0.3370107E+03  0.7546771E-02  0.1068076E+00
         21   -1    0    0  502  501  0.00000000000E+00  0.00000000000E+00  0.62855034071E+03  0.62855034071E+03  0.00000000000E+00 0.  1.
         21   -1    0    0  501  502 -0.00000000000E+00 -0.00000000000E+00 -0.18069544550E+03  0.18069544550E+03  0.00000000000E+00 0.  1.
         25    1    1    2    0    0  0.19061109593E+03 -0.82420861919E+02  0.53387844748E+02  0.24819558887E+03  0.12500000000E+03 0.  0.
         25    1    1    2    0    0 -0.13743731384E+03  0.15767682958E+03  0.24112375702E+03  0.34280703613E+03  0.12500000000E+03 0.  0.
         25    1    1    2    0    0 -0.53173782087E+02 -0.75255967664E+02  0.15334329344E+03  0.21824316121E+03  0.12500000000E+03 0.  0.
</event>
<event>
 5    0  0.5510933E-005  0.3108234E+03  0.7546771E-02  0.1079952E+00
         21   -1    0    0  502  501  0.00000000000E+00  0.00000000000E+00  0.12270158556E+04  0.12270158556E+04  0.00000000000E+00 0. -1.
         21   -1    0    0  501  502 -0.00000000000E+00 -0.00000000000E+00 -0.78736724327E+02  0.78736724327E+02  0.00000000000E+00 0. -1.
         25    1    1    2    0    0  0.21217087446E+03  0.36777383053E+02  0.67305447261E+03  0.71763248183E+03  0.12500000000E+03 0.  0.
         25    1    1    2    0    0 -0.74236094082E+02 -0.63013850673E+02  0.22175136085E+03  0.27254432498E+03  0.12500000000E+03 0.  0.
         25    1    1    2    0    0 -0.13793478038E+03  0.26236467620E+02  0.25347329780E+03  0.31557577310E+03  0.12500000000E+03 0.  0.
</event>
<event>
 5    0  0.5510933E-005  0.2111629E+03  0.7546771E-02  0.1140648E+00
         21   -1    0    0  502  501  0.00000000000E+00  0.00000000000E+00  0.51188953946E+03  0.51188953946E+03  0.00000000000E+00 0. -1.
         21   -1    0    0  501  502 -0.00000000000E+00 -0.00000000000E+00 -0.87108213936E+02  0.87108213936E+02  0.00000000000E+00 0. -1.
         25    1    1    2    0    0  0.27327313698E+02  0.30192918316E+02  0.12999637201E+03  0.18488496728E+03  0.12500000000E+03 0.  0.
         25    1    1    2    0    0  0.15844355577E+02  0.50591836503E+02  0.14309905185E+03  0.19726357029E+03  0.12500000000E+03 0.  0.
         25    1    1    2    0    0 -0.43171669275E+02 -0.80784754818E+02  0.15168590166E+03  0.21684921582E+03  0.12500000000E+03 0.  0.
</event>
<event>
 5    0  0.5510933E-005  0.3073200E+03  0.7546771E-02  0.1081638E+00
         21   -1    0    0  502  501  0.00000000000E+00  0.00000000000E+00  0.97433043645E+02  0.97433043645E+02  0.00000000000E+00 0.  1.
         21   -1    0    0  501  502 -0.00000000000E+00 -0.00000000000E+00 -0.96933826991E+03  0.96933826991E+03  0.00000000000E+00 0.  1.
         25    1    1    2    0    0 -0.92887878080E+02  0.14607407670E+03 -0.47126325156E+03  0.51737785616E+03  0.12500000000E+03 0.  0.
         25    1    1    2    0    0 -0.20518995644E+02  0.16579236546E+02 -0.21622430108E+03  0.25114507490E+03  0.12500000000E+03 0.  0.
         25    1    1    2    0    0  0.11340687372E+03 -0.16265331325E+03 -0.18441767363E+03  0.29824838250E+03  0.12500000000E+03 0.  0.
</event>
<event>
 5    0  0.5678443E-005  0.4051992E+03  0.7546771E-02  0.1041994E+00
         21   -1    0    0  502  501  0.00000000000E+00  0.00000000000E+00  0.90539944829E+03  0.90539944829E+03  0.00000000000E+00 0.  1.
         21   -1    0    0  501  502 -0.00000000000E+00 -0.00000000000E+00 -0.18134135265E+03  0.18134135265E+03  0.00000000000E+00 0.  1.
         25    1    1    2    0    0 -0.17034544579E+03 -0.12662969772E+03  0.32916536880E+03  0.41112953100E+03  0.12500000000E+03 0.  0.
         25    1    1    2    0    0  0.16485635137E+03  0.90817574866E+02  0.47274098646E+03  0.52396038855E+03  0.12500000000E+03 0.  0.
         25    1    1    2    0    0  0.54890944216E+01  0.35812122851E+02 -0.77848259617E+02  0.15165088139E+03  0.12500000000E+03 0.  0.
</event>
<event>
 5    0  0.5510933E-005  0.3133673E+03  0.7546771E-02  0.1078743E+00
         21   -1    0    0  502  501  0.00000000000E+00  0.00000000000E+00  0.69669234925E+03  0.69669234925E+03  0.00000000000E+00 0.  1.
         21   -1    0    0  501  502 -0.00000000000E+00 -0.00000000000E+00 -0.14095036639E+03  0.14095036639E+03  0.00000000000E+00 0.  1.
         25    1    1    2    0    0  0.22499209247E+02  0.59288245343E+01  0.32543823559E+03  0.34939434821E+03  0.12500000000E+03 0.  0.
         25    1    1    2    0    0  0.69435477686E+02 -0.11385872576E+03  0.23678136526E+03  0.29912457259E+03  0.12500000000E+03 0.  0.
         25    1    1    2    0    0 -0.91934686932E+02  0.10792990123E+03 -0.64776179910E+01  0.18912379484E+03  0.12500000000E+03 0.  0.
</event>
<event>
 5    0  0.5510933E-005  0.3742561E+03  0.7546771E-02  0.1053077E+00
         21   -1    0    0  502  501  0.00000000000E+00  0.00000000000E+00  0.44308600418E+03  0.44308600418E+03  0.00000000000E+00 0.  1.
         21   -1    0    0  501  502 -0.00000000000E+00 -0.00000000000E+00 -0.31611845727E+03  0.31611845727E+03  0.00000000000E+00 0.  1.
         25    1    1    2    0    0 -0.18024401719E+02 -0.54256561098E+02 -0.18019252888E+03  0.22663406836E+03  0.12500000000E+03 0.  0.
         25    1    1    2    0    0 -0.80475138802E+02  0.14804594266E+03  0.49557151812E+02  0.21558005566E+03  0.12500000000E+03 0.  0.
         25    1    1    2    0    0  0.98499540521E+02 -0.93789381562E+02  0.25760292397E+03  0.31699033742E+03  0.12500000000E+03 0.  0.
</event>
<event>
 5    0  0.5510933E-005  0.2248472E+03  0.7546771E-02  0.1130320E+00
         21   -1    0    0  502  501  0.00000000000E+00  0.00000000000E+00  0.82384641921E+02  0.82384641921E+02  0.00000000000E+00 0. -1.
         21   -1    0    0  501  502 -0.00000000000E+00 -0.00000000000E+00 -0.61366128647E+03  0.61366128647E+03  0.00000000000E+00 0. -1.
         25    1    1    2    0    0  0.48137012234E+02 -0.85505555894E+02 -0.20400051224E+03  0.25859153317E+03  0.12500000000E+03 0.  0.
         25    1    1    2    0    0 -0.44959488943E+02  0.44450100200E+02 -0.91137423644E+02  0.16711731521E+03  0.12500000000E+03 0.  0.
         25    1    1    2    0    0 -0.31775232907E+01  0.41055455694E+02 -0.23613870866E+03  0.27033708001E+03  0.12500000000E+03 0.  0.
</event>
<event>
 5    0  0.5510933E-005  0.4859882E+03  0.7546771E-02  0.1017502E+00
         21   -1    0    0  502  501  0.00000000000E+00  0.00000000000E+00  0.13737691849E+04  0.13737691849E+04  0.00000000000E+00 0. -1.
         21   -1    0    0  501  502 -0.00000000000E+00 -0.00000000000E+00 -0.17192447243E+03  0.17192447243E+03  0.00000000000E+00 0. -1.
         25    1    1    2    0    0 -0.20302596689E+03  0.11509393484E+03  0.10381672712E+04  0.10713927571E+04  0.12500000000E+03 0.  0.
         25    1    1    2    0    0  0.18455387957E+03  0.57335238646E+02  0.67197918819E+02  0.23976660391E+03  0.12500000000E+03 0.  0.
         25    1    1    2    0    0  0.18472087317E+02 -0.17242917349E+03  0.96479522459E+02  0.23453429628E+03  0.12500000000E+03 0.  0.
</event>
<event>
 5    0  0.5510933E-005  0.2663585E+03  0.7546771E-02  0.1103382E+00
         21   -1    0    0  502  501  0.00000000000E+00  0.00000000000E+00  0.97311827190E+02  0.97311827190E+02  0.00000000000E+00 0. -1.
         21   -1    0    0  501  502 -0.00000000000E+00 -0.00000000000E+00 -0.72906691155E+03  0.72906691155E+03  0.00000000000E+00 0. -1.
         25    1    1    2    0    0 -0.61762939569E+02  0.60384446584E+02 -0.11314533463E+03  0.18944077925E+03  0.12500000000E+03 0.  0.
         25    1    1    2    0    0  0.11610321256E+03 -0.85164451566E+02 -0.43543014812E+03  0.47534971722E+03  0.12500000000E+03 0.  0.
         25    1    1    2    0    0 -0.54340272987E+02  0.24780004983E+02 -0.83179601618E+02  0.16158824227E+03  0.12500000000E+03 0.  0.
</event>
<event>
 5    0  0.5510933E-005  0.4982308E+03  0.7546771E-02  0.1014242E+00
         21   -1    0    0  502  501  0.00000000000E+00  0.00000000000E+00  0.30837535125E+03  0.30837535125E+03  0.00000000000E+00 0. -1.
         21   -1    0    0  501  502 -0.00000000000E+00 -0.00000000000E+00 -0.80497324334E+03  0.80497324334E+03  0.00000000000E+00 0. -1.
         25    1    1    2    0    0  0.61606343841E+02 -0.15537135782E+03 -0.15997441305E+03  0.26296846439E+03  0.12500000000E+03 0.  0.
         25    1    1    2    0    0  0.12435503695E+03  0.15028862791E+03 -0.51449299318E+03  0.56425073055E+03  0.12500000000E+03 0.  0.
         25    1    1    2    0    0 -0.18596138079E+03  0.50827299138E+01  0.17786951414E+03  0.28612939966E+03  0.12500000000E+03 0.  0.
</event>
<event>
 5    0  0.5510933E-005  0.2553627E+03  0.7546771E-02  0.1109962E+00
         21   -1    0    0  502  501  0.00000000000E+00  0.00000000000E+00  0.46386438904E+03  0.46386438904E+03  0.00000000000E+00 0. -1.
         21   -1    0    0  501  502 -0.00000000000E+00 -0.00000000000E+00 -0.14058007946E+03  0.14058007946E+03  0.00000000000E+00 0.  1.
         25    1    1    2    0    0 -0.44133623074E+02 -0.11475753339E+03  0.16918505842E+03  0.24365067648E+03  0.12500000000E+03 0.  0.
         25    1    1    2    0    0  0.90825066344E+01 -0.28791530441E+02  0.89806025624E+02  0.15684886480E+03  0.12500000000E+03 0.  0.
         25    1    1    2    0    0  0.35051116439E+02  0.14354906383E+03  0.64293225541E+02  0.20394492723E+03  0.12500000000E+03 0.  0.
</event>
<event>
 5    0  0.5510933E-005  0.3108918E+03  0.7546771E-02  0.1079919E+00
         21   -1    0    0  502  501  0.00000000000E+00  0.00000000000E+00  0.25582617459E+03  0.25582617459E+03  0.00000000000E+00 0. -1.
         21   -1    0    0  501  502 -0.00000000000E+00 -0.00000000000E+00 -0.37781007218E+03  0.37781007218E+03  0.00000000000E+00 0. -1.
         25    1    1    2    0    0  0.10751926489E+02  0.20164857305E+03 -0.24416166206E+02  0.23874442425E+03  0.12500000000E+03 0.  0.
         25    1    1    2    0    0  0.88589024534E+02 -0.51069674193E+02 -0.23151391339E+02  0.16314752162E+03  0.12500000000E+03 0.  0.
         25    1    1    2    0    0 -0.99340951022E+02 -0.15057889886E+03 -0.74416340046E+02  0.23174430090E+03  0.12500000000E+03 0.  0.
</event>
<event>
 5    0  0.5510933E-005  0.3760476E+03  0.7546771E-02  0.1052404E+00
         21   -1    0    0  502  501  0.00000000000E+00  0.00000000000E+00  0.30280265621E+03  0.30280265621E+03  0.00000000000E+00 0.  1.
         21   -1    0    0  501  502 -0.00000000000E+00 -0.00000000000E+00 -0.46700971317E+03  0.46700971317E+03  0.00000000000E+00 0.  1.
         25    1    1    2    0    0  0.63603050731E+02 -0.61345628955E+02 -0.19252456149E+03  0.24596613798E+03  0.12500000000E+03 0.  0.
         25    1    1    2    0    0 -0.12420990080E+03  0.20946193057E+03  0.12263375301E+03  0.29994405677E+03  0.12500000000E+03 0.  0.
         25    1    1    2    0    0  0.60606850070E+02 -0.14811630161E+03 -0.94316248482E+02  0.22390217463E+03  0.12500000000E+03 0.  0.
</event>
<event>
 5    0  0.5510933E-005  0.5664342E+03  0.7546771E-02  0.9977600E-01
         21   -1    0    0  502  501  0.00000000000E+00  0.00000000000E+00  0.69234386736E+03  0.69234386736E+03  0.00000000000E+00 0.  1.
         21   -1    0    0  501  502 -0.00000000000E+00 -0.00000000000E+00 -0.46342247283E+03  0.46342247283E+03  0.00000000000E+00 0.  1.
         25    1    1    2    0    0  0.30812898796E+03 -0.63024821012E+02  0.44340965315E+03  0.55781065048E+03  0.12500000000E+03 0.  0.
         25    1    1    2    0    0 -0.31040690383E+03 -0.68321146982E+02 -0.23630602644E+03  0.41531405370E+03  0.12500000000E+03 0.  0.
         25    1    1    2    0    0  0.22779158709E+01  0.13134596799E+03  0.21817767819E+02  0.18264163600E+03  0.12500000000E+03 0.  0.
</event>
<event>
 5    0  0.5510933E-005  0.2092305E+03  0.7546771E-02  0.1142177E+00
         21   -1    0    0  502  501  0.00000000000E+00  0.00000000000E+00  0.84706399694E+03  0.84706399694E+03  0.00000000000E+00 0.  1.
         21   -1    0    0  501  502 -0.00000000000E+00 -0.00000000000E+00 -0.51681361020E+02  0.51681361020E+02  0.00000000000E+00 0.  1.
         25    1    1    2    0    0 -0.10826031828E+02  0.74481906767E+02  0.33204007100E+03  0.36268494061E+03  0.12500000000E+03 0.  0.
         25    1    1    2    0    0  0.66092950948E+01 -0.19066556525E+02  0.16616744312E+03  0.20891107082E+03  0.12500000000E+03 0.  0.
         25    1    1    2    0    0  0.42167367328E+01 -0.55415350242E+02  0.29717512180E+03  0.32714934652E+03  0.12500000000E+03 0.  0.
</event>
<event>
 5    0  0.5510933E-005  0.3147975E+03  0.7546771E-02  0.1078069E+00
         21   -1    0    0  502  501  0.00000000000E+00  0.00000000000E+00  0.10316359883E+04  0.10316359883E+04  0.00000000000E+00 0.  1.
         21   -1    0    0  501  502 -0.00000000000E+00 -0.00000000000E+00 -0.96058568317E+02  0.96058568317E+02  0.00000000000E+00 0.  1.
         25    1    1    2    0    0 -0.54520976611E+02  0.19511008791E+03  0.30305210538E+03  0.38536484254E+03  0.12500000000E+03 0.  0.
         25    1    1    2    0    0  0.65379018754E+02 -0.19989395425E+03  0.51584739613E+03  0.57092516597E+03  0.12500000000E+03 0.  0.
         25    1    1    2    0    0 -0.10858042143E+02  0.47838663404E+01  0.11667791852E+03  0.17140454815E+03  0.12500000000E+03 0.  0.
</event>
<event>
 5    0  0.5510933E-005  0.4279467E+03  0.7546771E-02  0.1034511E+00
         21   -1    0    0  502  501  0.00000000000E+00  0.00000000000E+00  0.16508458702E+04  0.16508458702E+04  0.00000000000E+00 0. -1.
         21   -1    0    0  501  502 -0.00000000000E+00 -0.00000000000E+00 -0.11093609190E+03  0.11093609190E+03  0.00000000000E+00 0. -1.
         25    1    1    2    0    0  0.96288235528E+02  0.22913225782E+03  0.15747316521E+03  0.31968079961E+03  0.12500000000E+03 0.  0.
         25    1    1    2    0    0 -0.50496375076E+02 -0.24035474266E+03  0.87488718838E+03  0.91726379990E+03  0.12500000000E+03 0.  0.
         25    1    1    2    0    0 -0.45791860452E+02  0.11222484843E+02  0.50754942470E+03  0.52483736258E+03  0.12500000000E+03 0.  0.
</event>
<event>
 5    0  0.5510933E-005  0.2727774E+03  0.7546771E-02  0.1099700E+00
         21   -1    0    0  502  501  0.00000000000E+00  0.00000000000E+00  0.20603363085E+03  0.20603363085E+03  0.00000000000E+00 0. -1.
         21   -1    0    0  501  502 -0.00000000000E+00 -0.00000000000E+00 -0.36114245430E+03  0.36114245430E+03  0.00000000000E+00 0. -1.
         25    1    1    2    0    0  0.11426478227E+02  0.10070306556E+03  0.46008167826E+02  0.16737211036E+03  0.12500000000E+03 0.  0.
         25    1    1    2    0    0 -0.11027096207E+03 -0.41319814956E+02 -0.71706561343E+02  0.18610170102E+03  0.12500000000E+03 0.  0.
         25    1    1    2    0    0  0.98844483844E+02 -0.59383250608E+02 -0.12941042993E+03  0.21370227377E+03  0.12500000000E+03 0.  0.
</event>
<event>
 5    0  0.5510933E-005  0.2739977E+03  0.7546771E-02  0.1099013E+00
         21   -1    0    0  502  501  0.00000000000E+00  0.00000000000E+00  0.13282404738E+04  0.13282404738E+04  0.00000000000E+00 0.  1.
         21   -1    0    0  501  502 -0.00000000000E+00 -0.00000000000E+00 -0.56521949641E+02  0.56521949641E+02  0.00000000000E+00 0.  1.
         25    1    1    2    0    0 -0.81450778268E+02  0.10025577213E+03  0.35263892257E+03  0.39580886655E+03  0.12500000000E+03 0.  0.
         25    1    1    2    0    0 -0.47179686769E+02  0.21351610461E+02  0.23267979722E+03  0.26915925053E+03  0.12500000000E+03 0.  0.
         25    1    1    2    0    0  0.12863046504E+03 -0.12160738259E+03  0.68639980441E+03  0.71979430640E+03  0.12500000000E+03 0.  0.
</event>
<event>
 5    0  0.5510933E-005  0.2877706E+03  0.7546771E-02  0.1091519E+00
         21   -1    0    0  502  501  0.00000000000E+00  0.00000000000E+00  0.18512919319E+03  0.18512919319E+03  0.00000000000E+00 0.  1.
         21   -1    0    0  501  502 -0.00000000000E+00 -0.00000000000E+00 -0.44731960135E+03  0.44731960135E+03  0.00000000000E+00 0.  1.
         25    1    1    2    0    0 -0.50968560430E+02  0.12876959348E+03 -0.20674094928E+03  0.27847122377E+03  0.12500000000E+03 0.  0.
         25    1    1    2    0    0 -0.61758487168E+02 -0.11407738216E+03 -0.38056972208E+02  0.18412249453E+03  0.12500000000E+03 0.  0.
         25    1    1    2    0    0  0.11272704760E+03 -0.14692211325E+02 -0.17392486675E+02  0.16985507625E+03  0.12500000000E+03 0.  0.
</event>
<event>
 5    0  0.5510933E-005  0.3145166E+03  0.7546771E-02  0.1078201E+00
         21   -1    0    0  502  501  0.00000000000E+00  0.00000000000E+00  0.44117352096E+03  0.44117352096E+03  0.00000000000E+00 0.  1.
         21   -1    0    0  501  502 -0.00000000000E+00 -0.00000000000E+00 -0.22422170240E+03  0.22422170240E+03  0.00000000000E+00 0.  1.
         25    1    1    2    0    0 -0.91454873440E+02  0.95317035121E+01  0.28856495886E+03  0.32764246173E+03  0.12500000000E+03 0.  0.
         25    1    1    2    0    0  0.21503966278E+01 -0.27194747255E+01 -0.12321264923E+03  0.17555163536E+03  0.12500000000E+03 0.  0.
         25    1    1    2    0    0  0.89304476812E+02 -0.68122287866E+01  0.51599508937E+02  0.16220112627E+03  0.12500000000E+03 0.  0.
</event>
<event>
 5    0  0.5510933E-005  0.5189152E+03  0.7546771E-02  0.1008956E+00
         21   -1    0    0  502  501  0.00000000000E+00  0.00000000000E+00  0.95961144500E+03  0.95961144500E+03  0.00000000000E+00 0.  1.
         21   -1    0    0  501  502 -0.00000000000E+00 -0.00000000000E+00 -0.28060625954E+03  0.28060625954E+03  0.00000000000E+00 0.  1.
         25    1    1    2    0    0 -0.75732730506E+02  0.25649018360E+03  0.75775812269E+02  0.30477800852E+03  0.12500000000E+03 0.  0.
         25    1    1    2    0    0  0.26413155263E+03 -0.20731759551E+03  0.85486285079E+02  0.36834626025E+03  0.12500000000E+03 0.  0.
         25    1    1    2    0    0 -0.18839882213E+03 -0.49172588087E+02  0.51774308811E+03  0.56709343576E+03  0.12500000000E+03 0.  0.
</event>
<event>
 5    0  0.5510933E-005  0.2741774E+03  0.7546771E-02  0.1098912E+00
         21   -1    0    0  502  501  0.00000000000E+00  0.00000000000E+00  0.56060056153E+03  0.56060056153E+03  0.00000000000E+00 0. -1.
         21   -1    0    0  501  502 -0.00000000000E+00 -0.00000000000E+00 -0.13409413646E+03  0.13409413646E+03  0.00000000000E+00 0. -1.
         25    1    1    2    0    0 -0.14247469573E+03  0.23562842400E+02  0.22385408082E+03  0.29426161144E+03  0.12500000000E+03 0.  0.
         25    1    1    2    0    0  0.10157031173E+03 -0.17256278858E+02  0.39144456910E+01  0.16203280615E+03  0.12500000000E+03 0.  0.
         25    1    1    2    0    0  0.40904383997E+02 -0.63065635417E+01  0.19873789855E+03  0.23840028040E+03  0.12500000000E+03 0.  0.
</event>
<event>
 5    0  0.5510933E-005  0.3016514E+03  0.7546771E-02  0.1084418E+00
         21   -1    0    0  502  501  0.00000000000E+00  0.00000000000E+00  0.18050629138E+04  0.18050629138E+04  0.00000000000E+00 0. -1.
         21   -1    0    0  501  502 -0.00000000000E+00 -0.00000000000E+00 -0.50410192686E+02  0.50410192686E+02  0.00000000000E+00 0. -1.
         25    1    1    2    0    0  0.17862000564E+03 -0.11798365634E+03  0.83134705708E+03  0.86751840263E+03  0.12500000000E+03 0.  0.
         25    1    1    2    0    0 -0.64915607468E+02 -0.39803093842E+01  0.31930740035E+03  0.34901589488E+03  0.12500000000E+03 0.  0.
         25    1    1    2    0    0 -0.11370439817E+03  0.12196396573E+03  0.60399826372E+03  0.63893880902E+03  0.12500000000E+03 0.  0.
</event>
<event>
 5    0  0.5510933E-005  0.2626623E+03  0.7546771E-02  0.1105554E+00
         21   -1    0    0  502  501  0.00000000000E+00  0.00000000000E+00  0.40191488314E+03  0.40191488314E+03  0.00000000000E+00 0. -1.
         21   -1    0    0  501  502 -0.00000000000E+00 -0.00000000000E+00 -0.17165692270E+03  0.17165692270E+03  0.00000000000E+00 0. -1.
         25    1    1    2    0    0  0.14589147396E+02 -0.13551225299E+03  0.89876492454E+02  0.20561905998E+03  0.12500000000E+03 0.  0.
         25    1    1    2    0    0  0.73693061635E+02  0.18754564644E+02  0.44645896885E+02  0.15297273331E+03  0.12500000000E+03 0.  0.
         25    1    1    2    0    0 -0.88282209031E+02  0.11675768834E+03  0.95735571102E+02  0.21498001254E+03  0.12500000000E+03 0.  0.
</event>
<event>
 5    0  0.5510933E-005  0.5029132E+03  0.7546771E-02  0.1013021E+00
         21   -1    0    0  502  501  0.00000000000E+00  0.00000000000E+00  0.12818461876E+04  0.12818461876E+04  0.00000000000E+00 0.  1.
         21   -1    0    0  501  502 -0.00000000000E+00 -0.00000000000E+00 -0.19731049828E+03  0.19731049828E+03  0.00000000000E+00 0.  1.
         25    1    1    2    0    0  0.91400535409E+01  0.11079656543E+02  0.15911089183E+03  0.20284865113E+03  0.12500000000E+03 0.  0.
         25    1    1    2    0    0  0.28948094432E+03  0.28455494196E+03  0.57613380934E+03  0.71576944499E+03  0.12500000000E+03 0.  0.
         25    1    1    2    0    0 -0.29862099786E+03 -0.29563459850E+03  0.34929098813E+03  0.56053858973E+03  0.12500000000E+03 0.  0.
</event>
<event>
 5    0  0.7507709E-005  0.2863634E+03  0.7546771E-02  0.1092263E+00
         21   -1    0    0  502  501  0.00000000000E+00  0.00000000000E+00  0.50956413203E+03  0.50956413203E+03  0.00000000000E+00 0.  1.
         21   -1    0    0  501  502 -0.00000000000E+00 -0.00000000000E+00 -0.16092964090E+03  0.16092964090E+03  0.00000000000E+00 0.  1.
         25    1    1    2    0    0  0.10973226973E+03  0.46354849557E+02 -0.35821732093E+02  0.17634664609E+03  0.12500000000E+03 0.  0.
         25    1    1    2    0    0 -0.57003839355E+02  0.47048417743E+02  0.19438417074E+03  0.24263799609E+03  0.12500000000E+03 0.  0.
         25    1    1    2    0    0 -0.52728430377E+02 -0.93403267301E+02  0.19007205249E+03  0.25150913075E+03  0.12500000000E+03 0.  0.
</event>
<event>
 5    0  0.5510933E-005  0.4000411E+03  0.7546771E-02  0.1043765E+00
         21   -1    0    0  502  501  0.00000000000E+00  0.00000000000E+00  0.70530140576E+03  0.70530140576E+03  0.00000000000E+00 0. -1.
         21   -1    0    0  501  502 -0.00000000000E+00 -0.00000000000E+00 -0.22689999492E+03  0.22689999492E+03  0.00000000000E+00 0. -1.
         25    1    1    2    0    0 -0.42338936110E+02 -0.65113084624E+02 -0.34826012947E+02  0.15122880175E+03  0.12500000000E+03 0.  0.
         25    1    1    2    0    0 -0.41267091647E+02 -0.16711711880E+03  0.44914610096E+03  0.49697919902E+03  0.12500000000E+03 0.  0.
         25    1    1    2    0    0  0.83606027757E+02  0.23223020343E+03  0.64081322832E+02  0.28399339992E+03  0.12500000000E+03 0.  0.
</event>
<event>
 5    0  0.8225860E-005  0.2977473E+03  0.7546771E-02  0.1086372E+00
         21   -1    0    0  502  501  0.00000000000E+00  0.00000000000E+00  0.62708480950E+03  0.62708480950E+03  0.00000000000E+00 0.  1.
         21   -1    0    0  501  502 -0.00000000000E+00 -0.00000000000E+00 -0.14137395361E+03  0.14137395361E+03  0.00000000000E+00 0.  1.
         25    1    1    2    0    0  0.57574542605E+02  0.78290101337E+02  0.25933156243E+03  0.30384540016E+03  0.12500000000E+03 0.  0.
         25    1    1    2    0    0  0.81506101429E+02  0.67025569838E+02  0.56140643392E+02  0.17295214200E+03  0.12500000000E+03 0.  0.
         25    1    1    2    0    0 -0.13908064403E+03 -0.14531567118E+03  0.17023865007E+03  0.29166122096E+03  0.12500000000E+03 0.  0.
</event>
<event>
 5    0  0.5510933E-005  0.3104760E+03  0.7546771E-02  0.1080118E+00
         21   -1    0    0  502  501  0.00000000000E+00  0.00000000000E+00  0.18295596974E+04  0.18295596974E+04  0.00000000000E+00 0. -1.
         21   -1    0    0  501  502 -0.00000000000E+00 -0.00000000000E+00 -0.52687730440E+02  0.52687730440E+02  0.00000000000E+00 0. -1.
         25    1    1    2    0    0  0.12427055217E+03 -0.12038743554E+03  0.55345889837E+03  0.59319310259E+03  0.12500000000E+03 0.  0.
         25    1    1    2    0    0 -0.99338891663E+01 -0.14640466268E+02  0.16004707745E+03  0.20384575641E+03  0.12500000000E+03 0.  0.
         25    1    1    2    0    0 -0.11433666300E+03  0.13502790181E+03  0.10633659912E+04  0.10852085689E+04  0.12500000000E+03 0.  0.
</event>
<event>
 5    0  0.5510933E-005  0.2267825E+03  0.7546771E-02  0.1128925E+00
         21   -1    0    0  502  501  0.00000000000E+00  0.00000000000E+00  0.21582539617E+03  0.21582539617E+03  0.00000000000E+00 0. -1.
         21   -1    0    0  501  502 -0.00000000000E+00 -0.00000000000E+00 -0.23829595314E+03  0.23829595314E+03  0.00000000000E+00 0. -1.
         25    1    1    2    0    0 -0.40663450437E+02 -0.20807657130E+02  0.59303980262E+02  0.14569981768E+03  0.12500000000E+03 0.  0.
         25    1    1    2    0    0  0.95916246422E+02  0.15446446374E+02 -0.24748943965E+02  0.16023741530E+03  0.12500000000E+03 0.  0.
         25    1    1    2    0    0 -0.55252795985E+02  0.53612107560E+01 -0.57025593272E+02  0.14818411633E+03  0.12500000000E+03 0.  0.
</event>
<event>
 5    0  0.5510933E-005  0.2343392E+03  0.7546771E-02  0.1123622E+00
         21   -1    0    0  502  501  0.00000000000E+00  0.00000000000E+00  0.18938247800E+03  0.18938247800E+03  0.00000000000E+00 0.  1.
         21   -1    0    0  501  502 -0.00000000000E+00 -0.00000000000E+00 -0.28996794720E+03  0.28996794720E+03  0.00000000000E+00 0.  1.
         25    1    1    2    0    0 -0.12678240969E+03  0.28791377453E+02 -0.29319397586E+02  0.18272205641E+03  0.12500000000E+03 0.  0.
         25    1    1    2    0    0  0.64089855050E+02  0.10030476491E+02 -0.17739754542E+02  0.14194301276E+03  0.12500000000E+03 0.  0.
         25    1    1    2    0    0  0.62692554643E+02 -0.38821853944E+02 -0.53526317069E+02  0.15468535603E+03  0.12500000000E+03 0.  0.
</event>
<event>
 5    0  0.5510933E-005  0.2950203E+03  0.7546771E-02  0.1087757E+00
         21   -1    0    0  502  501  0.00000000000E+00  0.00000000000E+00  0.12042722261E+03  0.12042722261E+03  0.00000000000E+00 0.  1.
         21   -1    0    0  501  502 -0.00000000000E+00 -0.00000000000E+00 -0.72273510553E+03  0.72273510553E+03  0.00000000000E+00 0.  1.
         25    1    1    2    0    0  0.11703065160E+02 -0.95080814550E+02 -0.16821184588E+03  0.23042905225E+03  0.12500000000E+03 0.  0.
         25    1    1    2    0    0  0.13762248015E+02 -0.26555292706E+02 -0.41616456929E+03  0.43556002086E+03  0.12500000000E+03 0.  0.
         25    1    1    2    0    0 -0.25465313175E+02  0.12163610726E+03 -0.17931467757E+02  0.17717325503E+03  0.12500000000E+03 0.  0.
</event>
<event>
 5    0  0.5510933E-005  0.2807053E+03  0.7546771E-02  0.1095304E+00
         21   -1    0    0  502  501  0.00000000000E+00  0.00000000000E+00  0.12004141547E+04  0.12004141547E+04  0.00000000000E+00 0.  1.
         21   -1    0    0  501  502 -0.00000000000E+00 -0.00000000000E+00 -0.65640254984E+02  0.65640254984E+02  0.00000000000E+00 0.  1.
         25    1    1    2    0    0  0.26835556772E+01  0.95617344206E+01  0.59640131742E+03  0.60944085821E+03  0.12500000000E+03 0.  0.
         25    1    1    2    0    0 -0.98023192381E+02  0.92117796782E+02  0.32022696492E+03  0.36914027658E+03  0.12500000000E+03 0.  0.
         25    1    1    2    0    0  0.95339636704E+02 -0.10167953120E+03  0.21814561732E+03  0.28747327484E+03  0.12500000000E+03 0.  0.
</event>
<event>
 5    0  0.5510933E-005  0.3494843E+03  0.7546771E-02  0.1062827E+00
         21   -1    0    0  502  501  0.00000000000E+00  0.00000000000E+00  0.28394837276E+03  0.28394837276E+03  0.00000000000E+00 0.  1.
         21   -1    0    0  501  502 -0.00000000000E+00 -0.00000000000E+00 -0.43014595310E+03  0.43014595310E+03  0.00000000000E+00 0.  1.
         25    1    1    2    0    0  0.28969484698E+02  0.55189382792E+02  0.11965989770E+03  0.18392550158E+03  0.12500000000E+03 0.  0.
         25    1    1    2    0    0 -0.11711492136E+03 -0.11085976012E+03  0.16027391654E+02  0.20466477103E+03  0.12500000000E+03 0.  0.
         25    1    1    2    0    0  0.88145436660E+02  0.55670377325E+02 -0.28188486969E+03  0.32550405324E+03  0.12500000000E+03 0.  0.
</event>
<event>
 5    0  0.5510933E-005  0.4473040E+03  0.7546771E-02  0.1028529E+00
         21   -1    0    0  502  501  0.00000000000E+00  0.00000000000E+00  0.84097746228E+03  0.84097746228E+03  0.00000000000E+00 0.  1.
         21   -1    0    0  501  502 -0.00000000000E+00 -0.00000000000E+00 -0.23791470172E+03  0.23791470172E+03  0.00000000000E+00 0.  1.
         25    1    1    2    0    0  0.69238842281E+02 -0.19363533293E+03  0.32979746547E+03  0.40826465396E+03  0.12500000000E+03 0.  0.
         25    1    1    2    0    0  0.56934696176E+02 -0.13020333248E+03  0.23136396158E+03  0.29891261288E+03  0.12500000000E+03 0.  0.
         25    1    1    2    0    0 -0.12617353846E+03  0.32383866542E+03  0.41901333518E+02  0.37171489717E+03  0.12500000000E+03 0.  0.
</event>
<event>
 5    0  0.5510933E-005  0.3262244E+03  0.7546771E-02  0.1072820E+00
         21   -1    0    0  502  501  0.00000000000E+00  0.00000000000E+00  0.62442446429E+03  0.62442446429E+03  0.00000000000E+00 0. -1.
         21   -1    0    0  501  502 -0.00000000000E+00 -0.00000000000E+00 -0.17043271068E+03  0.17043271068E+03  0.00000000000E+00 0. -1.
         25    1    1    2    0    0  0.13772528123E+02  0.20872170692E+03  0.47175117409E+02  0.24820339476E+03  0.12500000000E+03 0.  0.
         25    1    1    2    0    0 -0.77943221657E+02 -0.12748075783E+03  0.27789105689E+03  0.33937431977E+03  0.12500000000E+03 0.  0.
         25    1    1    2    0    0  0.64170693534E+02 -0.81240949088E+02  0.12892557931E+03  0.20727946043E+03  0.12500000000E+03 0.  0.
</event>
<event>
 5    0  0.5520940E-005  0.4480504E+03  0.7546771E-02  0.1028305E+00
         21   -1    0    0  502  501  0.00000000000E+00  0.00000000000E+00  0.97749653767E+03  0.97749653767E+03  0.00000000000E+00 0.  1.
         21   -1    0    0  501  502 -0.00000000000E+00 -0.00000000000E+00 -0.20537069394E+03  0.20537069394E+03  0.00000000000E+00 0.  1.
         25    1    1    2    0    0 -0.10678520042E+03  0.16415006569E+03  0.20258476538E+03  0.30824326474E+03  0.12500000000E+03 0.  0.
         25    1    1    2    0    0 -0.14941460057E+03 -0.17534506139E+03  0.29362483137E+02  0.26373806861E+03  0.12500000000E+03 0.  0.
         25    1    1    2    0    0  0.25619980099E+03  0.11194995699E+02  0.54017859521E+03  0.61088589825E+03  0.12500000000E+03 0.  0.
</event>
<event>
 5    0  0.5510933E-005  0.2363908E+03  0.7546771E-02  0.1122221E+00
         21   -1    0    0  502  501  0.00000000000E+00  0.00000000000E+00  0.21610587768E+03  0.21610587768E+03  0.00000000000E+00 0.  1.
         21   -1    0    0  501  502 -0.00000000000E+00 -0.00000000000E+00 -0.25857975305E+03  0.25857975305E+03  0.00000000000E+00 0.  1.
         25    1    1    2    0    0  0.42549721040E+02 -0.11552674338E+02  0.10384067637E+02  0.13295402177E+03  0.12500000000E+03 0.  0.
         25    1    1    2    0    0 -0.98035752247E+02  0.66362714953E+02 -0.83343274021E+02  0.19127498524E+03  0.12500000000E+03 0.  0.
         25    1    1    2    0    0  0.55486031207E+02 -0.54810040614E+02  0.30485331018E+02  0.15045662371E+03  0.12500000000E+03 0.  0.
</event>
<event>
 5    0  0.5510933E-005  0.3591245E+03  0.7546771E-02  0.1058931E+00
         21   -1    0    0  502  501  0.00000000000E+00  0.00000000000E+00  0.10512388146E+04  0.10512388146E+04  0.00000000000E+00 0.  1.
         21   -1    0    0  501  502 -0.00000000000E+00 -0.00000000000E+00 -0.12268421956E+03  0.12268421956E+03  0.00000000000E+00 0.  1.
         25    1    1    2    0    0  0.14892943011E+03 -0.91148703330E+02  0.28971890931E+03  0.36062460771E+03  0.12500000000E+03 0.  0.
         25    1    1    2    0    0  0.18468880335E+02 -0.11779873576E+03  0.39167067883E+03  0.42807541666E+03  0.12500000000E+03 0.  0.
         25    1    1    2    0    0 -0.16739831044E+03  0.20894743909E+03  0.24716500690E+03  0.38522300980E+03  0.12500000000E+03 0.  0.
</event>
<event>
 5    0  0.5510933E-005  0.2599904E+03  0.7546771E-02  0.1107149E+00
         21   -1    0    0  502  501  0.00000000000E+00  0.00000000000E+00  0.61350486396E+02  0.61350486396E+02  0.00000000000E+00 0.  1.
         21   -1    0    0  501  502 -0.00000000000E+00 -0.00000000000E+00 -0.11017844516E+04  0.11017844516E+04  0.00000000000E+00 0.  1.
         25    1    1    2    0    0  0.76404258927E+01  0.10298489907E+03 -0.50282159467E+03  0.52831697078E+03  0.12500000000E+03 0.  0.
         25    1    1    2    0    0  0.75523945934E+02 -0.73259755153E+02 -0.38704882882E+03  0.42012218940E+03  0.12500000000E+03 0.  0.
         25    1    1    2    0    0 -0.83164371826E+02 -0.29725143916E+02 -0.15056354173E+03  0.21469577783E+03  0.12500000000E+03 0.  0.
</event>
<event>
 5    0  0.5510933E-005  0.2356564E+03  0.7546771E-02  0.1122721E+00
         21   -1    0    0  502  501  0.00000000000E+00  0.00000000000E+00  0.54559246723E+02  0.54559246723E+02  0.00000000000E+00 0.  1.
         21   -1    0    0  501  502 -0.00000000000E+00 -0.00000000000E+00 -0.10178648849E+04  0.10178648849E+04  0.00000000000E+00 0.  1.
         25    1    1    2    0    0  0.43305617034E+02 -0.87944055747E+02 -0.22088167990E+03  0.27207214103E+03  0.12500000000E+03 0.  0.
         25    1    1    2    0    0  0.33167811363E+02  0.20469138756E+02 -0.41804881525E+03  0.43807408196E+03  0.12500000000E+03 0.  0.
         25    1    1    2    0    0 -0.76473428396E+02  0.67474916990E+02 -0.32437514305E+03  0.36227790865E+03  0.12500000000E+03 0.  0.
</event>
<event>
 5    0  0.5510933E-005  0.3437060E+03  0.7546771E-02  0.1065228E+00
         21   -1    0    0  502  501  0.00000000000E+00  0.00000000000E+00  0.23226733028E+03  0.23226733028E+03  0.00000000000E+00 0.  1.
         21   -1    0    0  501  502 -0.00000000000E+00 -0.00000000000E+00 -0.50861135123E+03  0.50861135123E+03  0.00000000000E+00 0.  1.
         25    1    1    2    0    0  0.14739242372E+02  0.10958116145E+02 -0.32935805417E+02  0.13056451606E+03  0.12500000000E+03 0.  0.
         25    1    1    2    0    0 -0.18019733703E+03 -0.30874212161E+00 -0.32090279407E+03  0.38868339151E+03  0.12500000000E+03 0.  0.
         25    1    1    2    0    0  0.16545809465E+03 -0.10649374023E+02  0.77494578539E+02  0.22163077394E+03  0.12500000000E+03 0.  0.
</event>
<event>
 5    0  0.5510933E-005  0.5221395E+03  0.7546771E-02  0.1008156E+00
         21   -1    0    0  502  501  0.00000000000E+00  0.00000000000E+00  0.64111909059E+03  0.64111909059E+03  0.00000000000E+00 0. -1.
         21   -1    0    0  501  502 -0.00000000000E+00 -0.00000000000E+00 -0.42524030458E+03  0.42524030458E+03  0.00000000000E+00 0. -1.
         25    1    1    2    0    0  0.28995511941E+01 -0.29161692025E+03  0.41429824574E+03  0.52183989115E+03  0.12500000000E+03 0.  0.
         25    1    1    2    0    0 -0.14761628619E+03  0.51721685350E+02 -0.82737204155E+02  0.21664751472E+03  0.12500000000E+03 0.  0.
         25    1    1    2    0    0  0.14471673499E+03  0.23989523490E+03 -0.11568225557E+03  0.32787198930E+03  0.12500000000E+03 0.  0.
</event>
<event>
 5    0  0.5510933E-005  0.3076759E+03  0.7546771E-02  0.1081465E+00
         21   -1    0    0  502  501  0.00000000000E+00  0.00000000000E+00  0.45445803671E+03  0.45445803671E+03  0.00000000000E+00 0.  1.
         21   -1    0    0  501  502 -0.00000000000E+00 -0.00000000000E+00 -0.20830182764E+03  0.20830182764E+03  0.00000000000E+00 0.  1.
         25    1    1    2    0    0  0.44953356556E+02  0.14457077759E+03  0.11930886672E+03  0.22974141916E+03  0.12500000000E+03 0.  0.
         25    1    1    2    0    0 -0.61294991478E+02 -0.18676789073E+03  0.17528654956E+03  0.29152992204E+03  0.12500000000E+03 0.  0.
         25    1    1    2    0    0  0.16341634922E+02  0.42197113136E+02 -0.48439207213E+02  0.14148852315E+03  0.12500000000E+03 0.  0.
</event>
<event>
 5    0  0.5510933E-005  0.3094555E+03  0.7546771E-02  0.1080607E+00
         21   -1    0    0  502  501  0.00000000000E+00  0.00000000000E+00  0.13585906555E+04  0.13585906555E+04  0.00000000000E+00 0.  1.
         21   -1    0    0  501  502 -0.00000000000E+00 -0.00000000000E+00 -0.70486814049E+02  0.70486814049E+02  0.00000000000E+00 0.  1.
         25    1    1    2    0    0  0.72752230290E+02  0.20474021180E+03  0.33813669770E+03  0.42091907497E+03  0.12500000000E+03 0.  0.
         25    1    1    2    0    0 -0.44867055390E+01 -0.10129079023E+03  0.48323648583E+03  0.50933530798E+03  0.12500000000E+03 0.  0.
         25    1    1    2    0    0 -0.68265524751E+02 -0.10344942156E+03  0.46673065791E+03  0.49882308660E+03  0.12500000000E+03 0.  0.
</event>
<event>
 5    0  0.5510933E-005  0.3845132E+03  0.7546771E-02  0.1049278E+00
         21   -1    0    0  502  501  0.00000000000E+00  0.00000000000E+00  0.78843475909E+03  0.78843475909E+03  0.00000000000E+00 0.  1.
         21   -1    0    0  501  502 -0.00000000000E+00 -0.00000000000E+00 -0.18752397245E+03  0.18752397245E+03  0.00000000000E+00 0.  1.
         25    1    1    2    0    0 -0.11247845565E+03  0.35966058923E+02  0.37700261230E+03  0.41436810937E+03  0.12500000000E+03 0.  0.
         25    1    1    2    0    0 -0.71901799312E+02  0.12061086186E+03  0.21986436454E+03  0.28927873675E+03  0.12500000000E+03 0.  0.
         25    1    1    2    0    0  0.18438025496E+03 -0.15657692079E+03  0.40438097982E+01  0.27231188542E+03  0.12500000000E+03 0.  0.
</event>
<event>
 5    0  0.5510933E-005  0.4383351E+03  0.7546771E-02  0.1031259E+00
         21   -1    0    0  502  501  0.00000000000E+00  0.00000000000E+00  0.21878577883E+03  0.21878577883E+03  0.00000000000E+00 0. -1.
         21   -1    0    0  501  502 -0.00000000000E+00 -0.00000000000E+00 -0.87819989240E+03  0.87819989240E+03  0.00000000000E+00 0. -1.
         25    1    1    2    0    0 -0.21794146048E+03 -0.50347439390E+02  0.18869523094E+02  0.25693268330E+03  0.12500000000E+03 0.  0.
         25    1    1    2    0    0  0.56915383522E+02  0.20006861938E+03 -0.33190278965E+03  0.41115845500E+03  0.12500000000E+03 0.  0.
         25    1    1    2    0    0  0.16102607695E+03 -0.14972117999E+03 -0.34638084701E+03  0.42889453292E+03  0.12500000000E+03 0.  0.
</event>
<event>
 5    0  0.6729719E-005  0.4812022E+03  0.7546771E-02  0.1018805E+00
         21   -1    0    0  502  501  0.00000000000E+00  0.00000000000E+00  0.13830755863E+04  0.13830755863E+04  0.00000000000E+00 0.  1.
         21   -1    0    0  501  502 -0.00000000000E+00 -0.00000000000E+00 -0.16742074501E+03  0.16742074501E+03  0.00000000000E+00 0.  1.
         25    1    1    2    0    0  0.25308914469E+02 -0.34263643618E+03  0.40678921806E+03  0.54693942670E+03  0.12500000000E+03 0.  0.
         25    1    1    2    0    0 -0.42179177972E+01  0.20928192895E+03  0.78012254093E+03  0.81733279360E+03  0.12500000000E+03 0.  0.
         25    1    1    2    0    0 -0.21090996672E+02  0.13335450723E+03  0.28743082292E+02  0.18622411100E+03  0.12500000000E+03 0.  0.
</event>
<event>
 5    0  0.5510933E-005  0.3008998E+03  0.7546771E-02  0.1084792E+00
         21   -1    0    0  502  501  0.00000000000E+00  0.00000000000E+00  0.73178154274E+03  0.73178154274E+03  0.00000000000E+00 0. -1.
         21   -1    0    0  501  502 -0.00000000000E+00 -0.00000000000E+00 -0.12372642774E+03  0.12372642774E+03  0.00000000000E+00 0. -1.
         25    1    1    2    0    0 -0.42061426248E+02  0.60348501486E+02 -0.25155548771E+02  0.14720362374E+03  0.12500000000E+03 0.  0.
         25    1    1    2    0    0 -0.26900730038E+02 -0.53987475122E+02  0.47613232243E+03  0.49594887358E+03  0.12500000000E+03 0.  0.
         25    1    1    2    0    0  0.68962156287E+02 -0.63610263640E+01  0.15707834135E+03  0.21235547315E+03  0.12500000000E+03 0.  0.
</event>
<event>
 5    0  0.5510933E-005  0.2964864E+03  0.7546771E-02  0.1087010E+00
         21   -1    0    0  502  501  0.00000000000E+00  0.00000000000E+00  0.60508668090E+03  0.60508668090E+03  0.00000000000E+00 0.  1.
         21   -1    0    0  501  502 -0.00000000000E+00 -0.00000000000E+00 -0.14527537624E+03  0.14527537624E+03  0.00000000000E+00 0.  1.
         25    1    1    2    0    0 -0.54155728777E+02  0.46905354969E+02  0.10095480083E+03  0.17592562944E+03  0.12500000000E+03 0.  0.
         25    1    1    2    0    0  0.17289205807E+03 -0.13400985367E+02  0.50625297232E+02  0.21967970064E+03  0.12500000000E+03 0.  0.
         25    1    1    2    0    0 -0.11873632930E+03 -0.33504369603E+02  0.30823120660E+03  0.35475672706E+03  0.12500000000E+03 0.  0.
</event>
<event>
 5    0  0.5510933E-005  0.3418706E+03  0.7546771E-02  0.1066002E+00
         21   -1    0    0  502  501  0.00000000000E+00  0.00000000000E+00  0.61253930338E+03  0.61253930338E+03  0.00000000000E+00 0. -1.
         21   -1    0    0  501  502 -0.00000000000E+00 -0.00000000000E+00 -0.19080493241E+03  0.19080493241E+03  0.00000000000E+00 0. -1.
         25    1    1    2    0    0 -0.22421866531E+03 -0.60970005787E+02  0.26828223928E+03  0.37628674092E+03  0.12500000000E+03 0.  0.
         25    1    1    2    0    0  0.40360955193E+02 -0.61088605029E+02  0.52770041247E+02  0.15417685177E+03  0.12500000000E+03 0.  0.
         25    1    1    2    0    0  0.18385771012E+03  0.12205861082E+03  0.10068209044E+03  0.27288064310E+03  0.12500000000E+03 0.  0.
</event>
<event>
 5    0  0.5510933E-005  0.2369369E+03  0.7546771E-02  0.1121850E+00
         21   -1    0    0  502  501  0.00000000000E+00  0.00000000000E+00  0.49288136052E+03  0.49288136052E+03  0.00000000000E+00 0. -1.
         21   -1    0    0  501  502 -0.00000000000E+00 -0.00000000000E+00 -0.11389982806E+03  0.11389982806E+03  0.00000000000E+00 0. -1.
         25    1    1    2    0    0  0.61772627819E+02  0.48159256415E+02  0.21510103180E+03  0.26082297714E+03  0.12500000000E+03 0.  0.
         25    1    1    2    0    0 -0.87055226992E+02 -0.64599496863E+02  0.13648107581E+03  0.21448494491E+03  0.12500000000E+03 0.  0.
         25    1    1    2    0    0  0.25282599173E+02  0.16440240448E+02  0.27399424860E+02  0.13147326652E+03  0.12500000000E+03 0.  0.
</event>
<event>
 5    0  0.5510933E-005  0.3703720E+03  0.7546771E-02  0.1054551E+00
         21   -1    0    0  502  501  0.00000000000E+00  0.00000000000E+00  0.46155677616E+03  0.46155677616E+03  0.00000000000E+00 0. -1.
         21   -1    0    0  501  502 -0.00000000000E+00 -0.00000000000E+00 -0.29720154607E+03  0.29720154607E+03  0.00000000000E+00 0. -1.
         25    1    1    2    0    0 -0.77450691963E+02  0.25761853999E+02 -0.10530610977E+03  0.18269280107E+03  0.12500000000E+03 0.  0.
         25    1    1    2    0    0 -0.14826577614E+03  0.10301921743E+03  0.13531694870E+03  0.25793676772E+03  0.12500000000E+03 0.  0.
         25    1    1    2    0    0  0.22571646811E+03 -0.12878107143E+03  0.13434439115E+03  0.31812875345E+03  0.12500000000E+03 0.  0.
</event>
<event>
 5    0  0.5510933E-005  0.6660297E+03  0.7546771E-02  0.9777157E-01
         21   -1    0    0  502  501  0.00000000000E+00  0.00000000000E+00  0.15074031920E+03  0.15074031920E+03  0.00000000000E+00 0.  1.
         21   -1    0    0  501  502 -0.00000000000E+00 -0.00000000000E+00 -0.29427797888E+04  0.29427797888E+04  0.00000000000E+00 0.  1.
         25    1    1    2    0    0 -0.32611036129E+03 -0.35836413635E+03 -0.10744201020E+04  0.11852326259E+04  0.12500000000E+03 0.  0.
         25    1    1    2    0    0  0.37310138929E+03 -0.45544575471E+02 -0.68184251550E+03  0.78855131158E+03  0.12500000000E+03 0.  0.
         25    1    1    2    0    0 -0.46991028003E+02  0.40390871182E+03 -0.10357768521E+04  0.11197361705E+04  0.12500000000E+03 0.  0.
</event>
<event>
 5    0  0.5510933E-005  0.4818137E+03  0.7546771E-02  0.1018638E+00
         21   -1    0    0  502  501  0.00000000000E+00  0.00000000000E+00  0.36940700716E+04  0.36940700716E+04  0.00000000000E+00 0. -1.
         21   -1    0    0  501  502 -0.00000000000E+00 -0.00000000000E+00 -0.62842446118E+02  0.62842446118E+02  0.00000000000E+00 0. -1.
         25    1    1    2    0    0  0.20662592455E+03  0.77998274640E+02  0.34694500191E+03  0.42985327484E+03  0.12500000000E+03 0.  0.
         25    1    1    2    0    0 -0.20095551750E+03  0.17362146454E+02  0.29278504318E+04  0.29374508873E+04  0.12500000000E+03 0.  0.
         25    1    1    2    0    0 -0.56704070491E+01 -0.95360421093E+02  0.35643219182E+03  0.38960835565E+03  0.12500000000E+03 0.  0.
</event>
<event>
 5    0  0.5510933E-005  0.3312470E+03  0.7546771E-02  0.1070586E+00
         21   -1    0    0  502  501  0.00000000000E+00  0.00000000000E+00  0.87986333442E+03  0.87986333442E+03  0.00000000000E+00 0.  1.
         21   -1    0    0  501  502 -0.00000000000E+00 -0.00000000000E+00 -0.12470635549E+03  0.12470635549E+03  0.00000000000E+00 0.  1.
         25    1    1    2    0    0  0.18515976266E+02 -0.20589485501E+03  0.23558059506E+03  0.33742962150E+03  0.12500000000E+03 0.  0.
         25    1    1    2    0    0  0.14832824410E+02 -0.35728635712E+02  0.94662042009E+02  0.16150062008E+03  0.12500000000E+03 0.  0.
         25    1    1    2    0    0 -0.33348800676E+02  0.24162349073E+03  0.42491434186E+03  0.50563944832E+03  0.12500000000E+03 0.  0.
</event>
<event>
 5    0  0.5510933E-005  0.2152593E+03  0.7546771E-02  0.1137468E+00
         21   -1    0    0  502  501  0.00000000000E+00  0.00000000000E+00  0.25333485393E+02  0.25333485393E+02  0.00000000000E+00 0. -1.
         21   -1    0    0  501  502 -0.00000000000E+00 -0.00000000000E+00 -0.18290639785E+04  0.18290639785E+04  0.00000000000E+00 0. -1.
         25    1    1    2    0    0  0.22079676214E+02 -0.35834818351E+01 -0.76917038641E+03  0.77958221938E+03  0.12500000000E+03 0.  0.
         25    1    1    2    0    0  0.29129878926E+01 -0.18981627165E+02 -0.76959026523E+03  0.77991215146E+03  0.12500000000E+03 0.  0.
         25    1    1    2    0    0 -0.24992664106E+02  0.22565109000E+02 -0.26496984150E+03  0.29490309308E+03  0.12500000000E+03 0.  0.
</event>
<event>
 5    0  0.5510933E-005  0.2343360E+03  0.7546771E-02  0.1123625E+00
         21   -1    0    0  502  501  0.00000000000E+00  0.00000000000E+00  0.47929380065E+03  0.47929380065E+03  0.00000000000E+00 0. -1.
         21   -1    0    0  501  502 -0.00000000000E+00 -0.00000000000E+00 -0.11457139897E+03  0.11457139897E+03  0.00000000000E+00 0. -1.
         25    1    1    2    0    0 -0.23495573441E+02  0.39134307979E+02  0.82044147084E+02  0.15633226827E+03  0.12500000000E+03 0.  0.
         25    1    1    2    0    0  0.67097033840E+02  0.33023499520E+02  0.38682860718E+02  0.15071140363E+03  0.12500000000E+03 0.  0.
         25    1    1    2    0    0 -0.43601460399E+02 -0.72157807499E+02  0.24399539387E+03  0.28682152772E+03  0.12500000000E+03 0.  0.
</event>
<event>
 5    0  0.5510933E-005  0.3929398E+03  0.7546771E-02  0.1046252E+00
         21   -1    0    0  502  501  0.00000000000E+00  0.00000000000E+00  0.10858457790E+04  0.10858457790E+04  0.00000000000E+00 0.  1.
         21   -1    0    0  501  502 -0.00000000000E+00 -0.00000000000E+00 -0.14219485076E+03  0.14219485076E+03  0.00000000000E+00 0.  1.
         25    1    1    2    0    0  0.10301521164E+03 -0.16437466137E+03  0.83650269719E+03  0.86775164969E+03  0.12500000000E+03 0.  0.
         25    1    1    2    0    0 -0.23967805459E+02  0.47661769565E+02 -0.13484388377E+02  0.13657572517E+03  0.12500000000E+03 0.  0.
         25    1    1    2    0    0 -0.79047406185E+02  0.11671289181E+03  0.12063261939E+03  0.22371325486E+03  0.12500000000E+03 0.  0.
</event>
<event>
 5    0  0.5678652E-005  0.2698930E+03  0.7546771E-02  0.1101341E+00
         21   -1    0    0  502  501  0.00000000000E+00  0.00000000000E+00  0.46761992517E+03  0.46761992517E+03  0.00000000000E+00 0.  1.
         21   -1    0    0  501  502 -0.00000000000E+00 -0.00000000000E+00 -0.15577224708E+03  0.15577224708E+03  0.00000000000E+00 0.  1.
         25    1    1    2    0    0  0.66913058195E+02 -0.52975760191E+01  0.18599555813E+03  0.23393325825E+03  0.12500000000E+03 0.  0.
         25    1    1    2    0    0  0.71138298173E+01 -0.89353358909E+02  0.14945851526E+03  0.21447022429E+03  0.12500000000E+03 0.  0.
         25    1    1    2    0    0 -0.74026888012E+02  0.94650934928E+02 -0.23606395303E+02  0.17498868972E+03  0.12500000000E+03 0.  0.
</event>
<event>
 5    0  0.5510933E-005  0.2535993E+03  0.7546771E-02  0.1111051E+00
         21   -1    0    0  502  501  0.00000000000E+00  0.00000000000E+00  0.71592812973E+03  0.71592812973E+03  0.00000000000E+00 0. -1.
         21   -1    0    0  501  502 -0.00000000000E+00 -0.00000000000E+00 -0.89831093520E+02  0.89831093520E+02  0.00000000000E+00 0. -1.
         25    1    1    2    0    0  0.80689444242E+02 -0.11204449296E+03  0.22832974260E+03  0.29465950888E+03  0.12500000000E+03 0.  0.
         25    1    1    2    0    0 -0.11062184443E+03  0.56252944193E+02  0.26408315531E+03  0.31743739401E+03  0.12500000000E+03 0.  0.
         25    1    1    2    0    0  0.29932400192E+02  0.55791548772E+02  0.13368413830E+03  0.19366232036E+03  0.12500000000E+03 0.  0.
</event>
<event>
 5    0  0.5510933E-005  0.5427943E+03  0.7546771E-02  0.1003176E+00
         21   -1    0    0  502  501  0.00000000000E+00  0.00000000000E+00  0.12801322869E+04  0.12801322869E+04  0.00000000000E+00 0.  1.
         21   -1    0    0  501  502 -0.00000000000E+00 -0.00000000000E+00 -0.23015251828E+03  0.23015251828E+03  0.00000000000E+00 0.  1.
         25    1    1    2    0    0  0.14077878958E+03 -0.24725318233E+03 -0.31356674331E+02  0.31234763453E+03  0.12500000000E+03 0.  0.
         25    1    1    2    0    0 -0.47458550802E+02  0.83308350993E+02  0.88324811076E+03  0.89718717141E+03  0.12500000000E+03 0.  0.
         25    1    1    2    0    0 -0.93320238777E+02  0.16394483134E+03  0.19808833219E+03  0.30074999924E+03  0.12500000000E+03 0.  0.
</event>
<event>
 5    0  0.5510933E-005  0.2594788E+03  0.7546771E-02  0.1107457E+00
         21   -1    0    0  502  501  0.00000000000E+00  0.00000000000E+00  0.22613739817E+03  0.22613739817E+03  0.00000000000E+00 0.  1.
         21   -1    0    0  501  502 -0.00000000000E+00 -0.00000000000E+00 -0.29773601479E+03  0.29773601479E+03  0.00000000000E+00 0.  1.
         25    1    1    2    0    0  0.78786330211E+02  0.12019066907E+03 -0.88584598760E+02  0.21006026254E+03  0.12500000000E+03 0.  0.
         25    1    1    2    0    0 -0.26583924373E+00 -0.94953876886E+02 -0.23388863272E+02  0.15870837511E+03  0.12500000000E+03 0.  0.
         25    1    1    2    0    0 -0.78520490968E+02 -0.25236792181E+02  0.40374845419E+02  0.15510477531E+03  0.12500000000E+03 0.  0.
</event>
<event>
 5    0  0.5510933E-005  0.2551501E+03  0.7546771E-02  0.1110093E+00
         21   -1    0    0  502  501  0.00000000000E+00  0.00000000000E+00  0.12966081894E+04  0.12966081894E+04  0.00000000000E+00 0. -1.
         21   -1    0    0  501  502 -0.00000000000E+00 -0.00000000000E+00 -0.50209149989E+02  0.50209149989E+02  0.00000000000E+00 0. -1.
         25    1    1    2    0    0  0.99881378333E+02 -0.45409721159E+02  0.24546289616E+03  0.29650525443E+03  0.12500000000E+03 0.  0.
         25    1    1    2    0    0  0.18953438774E+02 -0.28588985030E+02  0.44933876576E+03  0.46766108382E+03  0.12500000000E+03 0.  0.
         25    1    1    2    0    0 -0.11883481711E+03  0.73998706189E+02  0.55159737753E+03  0.58265100118E+03  0.12500000000E+03 0.  0.
</event>
<event>
 5    0  0.5510933E-005  0.3717525E+03  0.7546771E-02  0.1054025E+00
         21   -1    0    0  502  501  0.00000000000E+00  0.00000000000E+00  0.10734778586E+04  0.10734778586E+04  0.00000000000E+00 0. -1.
         21   -1    0    0  501  502 -0.00000000000E+00 -0.00000000000E+00 -0.12874034521E+03  0.12874034521E+03  0.00000000000E+00 0. -1.
         25    1    1    2    0    0  0.14757813062E+03  0.11468579728E+03  0.86956132434E+02  0.24107780011E+03  0.12500000000E+03 0.  0.
         25    1    1    2    0    0 -0.83565761082E+02  0.94647572049E+02  0.41885377223E+03  0.45497789158E+03  0.12500000000E+03 0.  0.
         25    1    1    2    0    0 -0.64012369542E+02 -0.20933336933E+03  0.43892760872E+03  0.50616251211E+03  0.12500000000E+03 0.  0.
</event>
<event>
 5    0  0.5571613E-005  0.2745110E+03  0.7546771E-02  0.1098725E+00
         21   -1    0    0  502  501  0.00000000000E+00  0.00000000000E+00  0.29838261293E+03  0.29838261293E+03  0.00000000000E+00 0. -1.
         21   -1    0    0  501  502 -0.00000000000E+00 -0.00000000000E+00 -0.25254921582E+03  0.25254921582E+03  0.00000000000E+00 0. -1.
         25    1    1    2    0    0 -0.67364590797E+02 -0.88399237779E+02  0.40838406487E+02  0.17217778247E+03  0.12500000000E+03 0.  0.
         25    1    1    2    0    0  0.11680806013E+03  0.69782460912E+02 -0.97291461707E+02  0.20881653019E+03  0.12500000000E+03 0.  0.
         25    1    1    2    0    0 -0.49443469329E+02  0.18616776868E+02  0.10228645233E+03  0.16993751608E+03  0.12500000000E+03 0.  0.
</event>
<event>
 5    0  0.5510933E-005  0.3504858E+03  0.7546771E-02  0.1062416E+00
         21   -1    0    0  502  501  0.00000000000E+00  0.00000000000E+00  0.80209507226E+03  0.80209507226E+03  0.00000000000E+00 0. -1.
         21   -1    0    0  501  502 -0.00000000000E+00 -0.00000000000E+00 -0.15314932263E+03  0.15314932263E+03  0.00000000000E+00 0. -1.
         25    1    1    2    0    0  0.95368845805E+02  0.53913427926E+02  0.76857243202E+02  0.18312266461E+03  0.12500000000E+03 0.  0.
         25    1    1    2    0    0 -0.22334982812E+03  0.94264322824E+02  0.39500999411E+03  0.48003000295E+03  0.12500000000E+03 0.  0.
         25    1    1    2    0    0  0.12798098231E+03 -0.14817775075E+03  0.17707851232E+03  0.29209172734E+03  0.12500000000E+03 0.  0.
</event>
<event>
 5    0  0.5510933E-005  0.3254245E+03  0.7546771E-02  0.1073180E+00
         21   -1    0    0  502  501  0.00000000000E+00  0.00000000000E+00  0.13768878292E+04  0.13768878292E+04  0.00000000000E+00 0. -1.
         21   -1    0    0  501  502 -0.00000000000E+00 -0.00000000000E+00 -0.76913397992E+02  0.76913397992E+02  0.00000000000E+00 0. -1.
         25    1    1    2    0    0  0.13079386509E+01 -0.20955926115E+03  0.26874700239E+03  0.36299689521E+03  0.12500000000E+03 0.  0.
         25    1    1    2    0    0 -0.68360286807E+02  0.12963948746E+03  0.57312087848E+03  0.60462555923E+03  0.12500000000E+03 0.  0.
         25    1    1    2    0    0  0.67052348156E+02  0.79919773690E+02  0.45810655036E+03  0.48617877278E+03  0.12500000000E+03 0.  0.
</event>
<event>
 5    0  0.5510933E-005  0.7510635E+03  0.7546771E-02  0.9633683E-01
         21   -1    0    0  502  501  0.00000000000E+00  0.00000000000E+00  0.71858725716E+03  0.71858725716E+03  0.00000000000E+00 0. -1.
         21   -1    0    0  501  502 -0.00000000000E+00 -0.00000000000E+00 -0.78500757560E+03  0.78500757560E+03  0.00000000000E+00 0. -1.
         25    1    1    2    0    0 -0.14269701635E+03 -0.71626969126E+02 -0.12017886931E+03  0.23571343155E+03  0.12500000000E+03 0.  0.
         25    1    1    2    0    0  0.45731666898E+03  0.30076620533E+03  0.43395962824E+03  0.70960890985E+03  0.12500000000E+03 0.  0.
         25    1    1    2    0    0 -0.31461965263E+03 -0.22913923620E+03 -0.38020107736E+03  0.55827249136E+03  0.12500000000E+03 0.  0.
</event>
<event>
 5    0  0.5510933E-005  0.4075440E+03  0.7546771E-02  0.1041198E+00
         21   -1    0    0  502  501  0.00000000000E+00  0.00000000000E+00  0.35763202747E+03  0.35763202747E+03  0.00000000000E+00 0.  1.
         21   -1    0    0  501  502 -0.00000000000E+00 -0.00000000000E+00 -0.46442175574E+03  0.46442175574E+03  0.00000000000E+00 0.  1.
         25    1    1    2    0    0  0.24141574270E+02 -0.96970293979E+02  0.11003571222E+03  0.19421357184E+03  0.12500000000E+03 0.  0.
         25    1    1    2    0    0 -0.20705181481E+03 -0.55324156451E+02  0.45475714284E+02  0.25223849209E+03  0.12500000000E+03 0.  0.
         25    1    1    2    0    0  0.18291024054E+03  0.15229445043E+03 -0.26230115478E+03  0.37560171928E+03  0.12500000000E+03 0.  0.
</event>
<event>
 5    0  0.5739983E-005  0.4259988E+03  0.7546771E-02  0.1035131E+00
         21   -1    0    0  502  501  0.00000000000E+00  0.00000000000E+00  0.32325778542E+03  0.32325778542E+03  0.00000000000E+00 0. -1.
         21   -1    0    0  501  502 -0.00000000000E+00 -0.00000000000E+00 -0.56139393807E+03  0.56139393807E+03  0.00000000000E+00 0. -1.
         25    1    1    2    0    0 -0.27984227436E+02  0.54230159218E+02 -0.29955936363E+03  0.33027994110E+03  0.12500000000E+03 0.  0.
         25    1    1    2    0    0 -0.22274806929E+03 -0.60280978695E+02 -0.18137638216E+02  0.26306742992E+03  0.12500000000E+03 0.  0.
         25    1    1    2    0    0  0.25073229673E+03  0.60508194777E+01  0.79560849194E+02  0.29130435246E+03  0.12500000000E+03 0.  0.
</event>
<event>
 5    0  0.5510933E-005  0.2532279E+03  0.7546771E-02  0.1111282E+00
         21   -1    0    0  502  501  0.00000000000E+00  0.00000000000E+00  0.23632803175E+03  0.23632803175E+03  0.00000000000E+00 0.  1.
         21   -1    0    0  501  502 -0.00000000000E+00 -0.00000000000E+00 -0.27133619076E+03  0.27133619076E+03  0.00000000000E+00 0.  1.
         25    1    1    2    0    0  0.88133623783E+02  0.47706490775E+02 -0.51561902963E+02  0.16830649049E+03  0.12500000000E+03 0.  0.
         25    1    1    2    0    0  0.21605146922E+02 -0.89056480453E+02 -0.37821497535E+02  0.15954091876E+03  0.12500000000E+03 0.  0.
         25    1    1    2    0    0 -0.10973877070E+03  0.41349989679E+02  0.54375241496E+02  0.17981681326E+03  0.12500000000E+03 0.  0.
</event>
<event>
 5    0  0.5510933E-005  0.3189721E+03  0.7546771E-02  0.1076123E+00
         21   -1    0    0  502  501  0.00000000000E+00  0.00000000000E+00  0.94172626379E+03  0.94172626379E+03  0.00000000000E+00 0. -1.
         21   -1    0    0  501  502 -0.00000000000E+00 -0.00000000000E+00 -0.10803902002E+03  0.10803902002E+03  0.00000000000E+00 0. -1.
         25    1    1    2    0    0  0.14104883283E+02  0.12159360883E+03  0.62030274406E+02  0.18562518251E+03  0.12500000000E+03 0.  0.
         25    1    1    2    0    0 -0.15865006297E+02 -0.97201663721E+02  0.70027960233E+03  0.71813395915E+03  0.12500000000E+03 0.  0.
         25    1    1    2    0    0  0.17601230138E+01 -0.24391945107E+02  0.71377367034E+02  0.14600614214E+03  0.12500000000E+03 0.  0.
</event>
<event>
 5    0  0.5510933E-005  0.2199302E+03  0.7546771E-02  0.1133935E+00
         21   -1    0    0  502  501  0.00000000000E+00  0.00000000000E+00  0.10761428900E+03  0.10761428900E+03  0.00000000000E+00 0.  1.
         21   -1    0    0  501  502 -0.00000000000E+00 -0.00000000000E+00 -0.44946921243E+03  0.44946921243E+03  0.00000000000E+00 0.  1.
         25    1    1    2    0    0  0.60543728662E+02 -0.19107362841E+02 -0.10556082115E+03  0.17549564484E+03  0.12500000000E+03 0.  0.
         25    1    1    2    0    0 -0.91097663754E+02 -0.24422497813E+02 -0.84681415484E+02  0.17802018107E+03  0.12500000000E+03 0.  0.
         25    1    1    2    0    0  0.30553935092E+02  0.43529860654E+02 -0.15161268679E+03  0.20356767551E+03  0.12500000000E+03 0.  0.
</event>
<event>
 5    0  0.5510933E-005  0.2626704E+03  0.7546771E-02  0.1105549E+00
         21   -1    0    0  502  501  0.00000000000E+00  0.00000000000E+00  0.55924548243E+03  0.55924548243E+03  0.00000000000E+00 0. -1.
         21   -1    0    0  501  502 -0.00000000000E+00 -0.00000000000E+00 -0.12337288474E+03  0.12337288474E+03  0.00000000000E+00 0. -1.
         25    1    1    2    0    0  0.51477493485E+02 -0.10258170341E+03  0.21108490769E+03  0.27084086927E+03  0.12500000000E+03 0.  0.
         25    1    1    2    0    0 -0.39922903636E+02  0.24538108175E+02 -0.10504184212E+02  0.13390778496E+03  0.12500000000E+03 0.  0.
         25    1    1    2    0    0 -0.11554589849E+02  0.78043595238E+02  0.23529187420E+03  0.27786971294E+03  0.12500000000E+03 0.  0.
</event>
<event>
 5    0  0.5510933E-005  0.5160945E+03  0.7546771E-02  0.1009661E+00
         21   -1    0    0  502  501  0.00000000000E+00  0.00000000000E+00  0.23161300886E+04  0.23161300886E+04  0.00000000000E+00 0.  1.
         21   -1    0    0  501  502 -0.00000000000E+00 -0.00000000000E+00 -0.11499940237E+03  0.11499940237E+03  0.00000000000E+00 0.  1.
         25    1    1    2    0    0  0.18100595712E+03  0.11913895344E+03  0.21009409124E+03  0.32668298688E+03  0.12500000000E+03 0.  0.
         25    1    1    2    0    0 -0.37232960505E+03 -0.22296751331E+02  0.15418659609E+04  0.15912580310E+04  0.12500000000E+03 0.  0.
         25    1    1    2    0    0  0.19132364793E+03 -0.96842202106E+02  0.44917063412E+03  0.51318847310E+03  0.12500000000E+03 0.  0.
</event>
<event>
 5    0  0.5510933E-005  0.2309024E+03  0.7546771E-02  0.1126006E+00
         21   -1    0    0  502  501  0.00000000000E+00  0.00000000000E+00  0.43642161034E+03  0.43642161034E+03  0.00000000000E+00 0.  1.
         21   -1    0    0  501  502 -0.00000000000E+00 -0.00000000000E+00 -0.12216610359E+03  0.12216610359E+03  0.00000000000E+00 0.  1.
         25    1    1    2    0    0  0.29024086724E+01  0.69649168648E+02  0.10051990637E+03  0.17489620421E+03  0.12500000000E+03 0.  0.
         25    1    1    2    0    0  0.54276856510E+01 -0.12444714323E+02 -0.42940431518E+01  0.12580846352E+03  0.12500000000E+03 0.  0.
         25    1    1    2    0    0 -0.83300943234E+01 -0.57204454326E+02  0.21802964352E+03  0.25788304620E+03  0.12500000000E+03 0.  0.
</event>
<event>
 5    0  0.5510933E-005  0.2671705E+03  0.7546771E-02  0.1102910E+00
         21   -1    0    0  502  501  0.00000000000E+00  0.00000000000E+00  0.70034267682E+03  0.70034267682E+03  0.00000000000E+00 0.  1.
         21   -1    0    0  501  502 -0.00000000000E+00 -0.00000000000E+00 -0.10192166316E+03  0.10192166316E+03  0.00000000000E+00 0.  1.
         25    1    1    2    0    0  0.50333626642E+02  0.14870494966E+03  0.20949016457E+03  0.29009957786E+03  0.12500000000E+03 0.  0.
         25    1    1    2    0    0 -0.53300694902E+02 -0.69288487898E+02  0.30720779414E+03  0.34299196407E+03  0.12500000000E+03 0.  0.
         25    1    1    2    0    0  0.29670682596E+01 -0.79416461763E+02  0.81723054952E+02  0.16917279806E+03  0.12500000000E+03 0.  0.
</event>
<event>
 5    0  0.5510933E-005  0.3344432E+03  0.7546771E-02  0.1069188E+00
         21   -1    0    0  502  501  0.00000000000E+00  0.00000000000E+00  0.60878966746E+02  0.60878966746E+02  0.00000000000E+00 0.  1.
         21   -1    0    0  501  502 -0.00000000000E+00 -0.00000000000E+00 -0.18372886266E+04  0.18372886266E+04  0.00000000000E+00 0.  1.
         25    1    1    2    0    0  0.16411742544E+02  0.21179977487E+03 -0.32584322398E+03  0.40856737087E+03  0.12500000000E+03 0.  0.
         25    1    1    2    0    0  0.28797169323E+02 -0.83753702206E+02 -0.71552074150E+03  0.73173690019E+03  0.12500000000E+03 0.  0.
         25    1    1    2    0    0 -0.45208911868E+02 -0.12804607266E+03 -0.73504569438E+03  0.75786332229E+03  0.12500000000E+03 0.  0.
</event>
<event>
 5    0  0.5510933E-005  0.3413900E+03  0.7546771E-02  0.1066205E+00
         21   -1    0    0  502  501  0.00000000000E+00  0.00000000000E+00  0.94079198177E+03  0.94079198177E+03  0.00000000000E+00 0. -1.
         21   -1    0    0  501  502 -0.00000000000E+00 -0.00000000000E+00 -0.12388191565E+03  0.12388191565E+03  0.00000000000E+00 0. -1.
         25    1    1    2    0    0  0.43530213406E+02  0.11186699547E+03  0.13888332472E+03  0.22208710462E+03  0.12500000000E+03 0.  0.
         25    1    1    2    0    0 -0.13391402351E+03  0.11963073315E+03  0.34669651571E+03  0.40996091523E+03  0.12500000000E+03 0.  0.
         25    1    1    2    0    0  0.90383810101E+02 -0.23149772862E+03  0.33133022569E+03  0.43262587757E+03  0.12500000000E+03 0.  0.
</event>
<event>
 5    0  0.5510933E-005  0.3004461E+03  0.7546771E-02  0.1085018E+00
         21   -1    0    0  502  501  0.00000000000E+00  0.00000000000E+00  0.21770733552E+03  0.21770733552E+03  0.00000000000E+00 0.  1.
         21   -1    0    0  501  502 -0.00000000000E+00 -0.00000000000E+00 -0.41462945682E+03  0.41462945682E+03  0.00000000000E+00 0.  1.
         25    1    1    2    0    0 -0.70630460167E+02 -0.17438224254E+03  0.93481721715E+01  0.22607568807E+03  0.12500000000E+03 0.  0.
         25    1    1    2    0    0  0.16534001593E+02 -0.15024483845E+01 -0.57120660874E+02  0.13843193439E+03  0.12500000000E+03 0.  0.
         25    1    1    2    0    0  0.54096458574E+02  0.17588469092E+03 -0.14914963261E+03  0.26782916988E+03  0.12500000000E+03 0.  0.
</event>
<event>
 5    0  0.5510933E-005  0.2872548E+03  0.7546771E-02  0.1091791E+00
         21   -1    0    0  502  501  0.00000000000E+00  0.00000000000E+00  0.10937999208E+03  0.10937999208E+03  0.00000000000E+00 0. -1.
         21   -1    0    0  501  502 -0.00000000000E+00 -0.00000000000E+00 -0.75439118513E+03  0.75439118513E+03  0.00000000000E+00 0. -1.
         25    1    1    2    0    0 -0.49423613958E+02 -0.90384021804E+02 -0.20054638841E+03  0.25779026149E+03  0.12500000000E+03 0.  0.
         25    1    1    2    0    0  0.16288799682E+03  0.12298974851E+03 -0.24208120042E+03  0.34042221629E+03  0.12500000000E+03 0.  0.
         25    1    1    2    0    0 -0.11346438286E+03 -0.32605726707E+02 -0.20238360422E+03  0.26555869944E+03  0.12500000000E+03 0.  0.
</event>
<event>
 5    0  0.5510933E-005  0.2654110E+03  0.7546771E-02  0.1103935E+00
         21   -1    0    0  502  501  0.00000000000E+00  0.00000000000E+00  0.18151867441E+03  0.18151867441E+03  0.00000000000E+00 0. -1.
         21   -1    0    0  501  502 -0.00000000000E+00 -0.00000000000E+00 -0.38807581695E+03  0.38807581695E+03  0.00000000000E+00 0. -1.
         25    1    1    2    0    0  0.15179878902E+02 -0.35548725402E+01 -0.20616493081E+02  0.12764445005E+03  0.12500000000E+03 0.  0.
         25    1    1    2    0    0 -0.74011980623E+02  0.10881331113E+03  0.79091483319E+01  0.18167461183E+03  0.12500000000E+03 0.  0.
         25    1    1    2    0    0  0.58832101721E+02 -0.10525843859E+03 -0.19384979778E+03  0.26027542948E+03  0.12500000000E+03 0.  0.
</event>
<event>
 5    0  0.5510933E-005  0.4319706E+03  0.7546771E-02  0.1033239E+00
         21   -1    0    0  502  501  0.00000000000E+00  0.00000000000E+00  0.47242734094E+03  0.47242734094E+03  0.00000000000E+00 0. -1.
         21   -1    0    0  501  502 -0.00000000000E+00 -0.00000000000E+00 -0.39497837283E+03  0.39497837283E+03  0.00000000000E+00 0. -1.
         25    1    1    2    0    0 -0.15421776502E+03  0.73078661393E+02  0.22051469735E+02  0.21268492451E+03  0.12500000000E+03 0.  0.
         25    1    1    2    0    0 -0.13005881712E+03  0.17769799855E+03  0.20748213687E+02  0.25406173063E+03  0.12500000000E+03 0.  0.
         25    1    1    2    0    0  0.28427658214E+03 -0.25077665994E+03  0.34649284690E+02  0.40065905862E+03  0.12500000000E+03 0.  0.
</event>
<event>
 5    0  0.5510933E-005  0.2789850E+03  0.7546771E-02  0.1096245E+00
         21   -1    0    0  502  501  0.00000000000E+00  0.00000000000E+00  0.21356313864E+03  0.21356313864E+03  0.00000000000E+00 0.  1.
         21   -1    0    0  501  502 -0.00000000000E+00 -0.00000000000E+00 -0.36444791808E+03  0.36444791808E+03  0.00000000000E+00 0.  1.
         25    1    1    2    0    0  0.16599714153E+02 -0.29313941275E+02  0.37841496035E+02  0.13487711624E+03  0.12500000000E+03 0.  0.
         25    1    1    2    0    0  0.40579948811E+02 -0.64355430680E+02 -0.22921125254E+03  0.27193961093E+03  0.12500000000E+03 0.  0.
         25    1    1    2    0    0 -0.57179662964E+02  0.93669371955E+02  0.40484977071E+02  0.17119432954E+03  0.12500000000E+03 0.  0.
</event>
<event>
 5    0  0.5510933E-005  0.3042200E+03  0.7546771E-02  0.1083150E+00
         21   -1    0    0  502  501  0.00000000000E+00  0.00000000000E+00  0.30930757063E+03  0.30930757063E+03  0.00000000000E+00 0. -1.
         21   -1    0    0  501  502 -0.00000000000E+00 -0.00000000000E+00 -0.29921603615E+03  0.29921603615E+03  0.00000000000E+00 0. -1.
         25    1    1    2    0    0  0.44700432501E+02  0.30025184969E+02  0.70692114039E+02  0.15336888663E+03  0.12500000000E+03 0.  0.
         25    1    1    2    0    0 -0.15136383199E+03  0.11688509760E+03 -0.83227574509E+01  0.22862065516E+03  0.12500000000E+03 0.  0.
         25    1    1    2    0    0  0.10666339949E+03 -0.14691028257E+03 -0.52277822107E+02  0.22653406498E+03  0.12500000000E+03 0.  0.
</event>
<event>
 5    0  0.5510933E-005  0.4976273E+03  0.7546771E-02  0.1014400E+00
         21   -1    0    0  502  501  0.00000000000E+00  0.00000000000E+00  0.17535398680E+03  0.17535398680E+03  0.00000000000E+00 0. -1.
         21   -1    0    0  501  502 -0.00000000000E+00 -0.00000000000E+00 -0.14121889887E+04  0.14121889887E+04  0.00000000000E+00 0. -1.
         25    1    1    2    0    0 -0.61313829344E+02 -0.58538310240E+01  0.10779518365E+03  0.17617733857E+03  0.12500000000E+03 0.  0.
         25    1    1    2    0    0 -0.41776479559E+02 -0.10663798396E+03 -0.27022280615E+03  0.31900203578E+03  0.12500000000E+03 0.  0.
         25    1    1    2    0    0  0.10309030890E+03  0.11249181499E+03 -0.10744073794E+04  0.10923636012E+04  0.12500000000E+03 0.  0.
</event>
<event>
 5    0  0.5510933E-005  0.3428292E+03  0.7546771E-02  0.1065597E+00
         21   -1    0    0  502  501  0.00000000000E+00  0.00000000000E+00  0.17335283843E+03  0.17335283843E+03  0.00000000000E+00 0. -1.
         21   -1    0    0  501  502 -0.00000000000E+00 -0.00000000000E+00 -0.67799193787E+03  0.67799193787E+03  0.00000000000E+00 0. -1.
         25    1    1    2    0    0 -0.69696541176E+02 -0.81343913774E+02 -0.10911205405E+03  0.19749653288E+03  0.12500000000E+03 0.  0.
         25    1    1    2    0    0 -0.61185892887E+02 -0.14072008441E+03 -0.28458843206E+03  0.34664308922E+03  0.12500000000E+03 0.  0.
         25    1    1    2    0    0  0.13088243406E+03  0.22206399819E+03 -0.11093861333E+03  0.30720515420E+03  0.12500000000E+03 0.  0.
</event>
<event>
 5    0  0.5510933E-005  0.2591636E+03  0.7546771E-02  0.1107647E+00
         21   -1    0    0  502  501  0.00000000000E+00  0.00000000000E+00  0.23251980616E+03  0.23251980616E+03  0.00000000000E+00 0. -1.
         21   -1    0    0  501  502 -0.00000000000E+00 -0.00000000000E+00 -0.28886053453E+03  0.28886053453E+03  0.00000000000E+00 0. -1.
         25    1    1    2    0    0  0.94769064917E+02 -0.43586074871E+02 -0.10470723325E+03  0.19357046852E+03  0.12500000000E+03 0.  0.
         25    1    1    2    0    0 -0.10143203987E+02  0.99303058962E+02  0.61298761843E+00  0.15996673986E+03  0.12500000000E+03 0.  0.
         25    1    1    2    0    0 -0.84625860930E+02 -0.55716984091E+02  0.47753517262E+02  0.16784313231E+03  0.12500000000E+03 0.  0.
</event>
<event>
 5    0  0.5510933E-005  0.2612556E+03  0.7546771E-02  0.1106391E+00
         21   -1    0    0  502  501  0.00000000000E+00  0.00000000000E+00  0.62962993301E+03  0.62962993301E+03  0.00000000000E+00 0.  1.
         21   -1    0    0  501  502 -0.00000000000E+00 -0.00000000000E+00 -0.10840416977E+03  0.10840416977E+03  0.00000000000E+00 0.  1.
         25    1    1    2    0    0 -0.77156807809E+02 -0.55852275632E+02  0.42027145389E+02  0.16267738206E+03  0.12500000000E+03 0.  0.
         25    1    1    2    0    0  0.58770122248E+02  0.22597157189E+02  0.39712592466E+03  0.42106835409E+03  0.12500000000E+03 0.  0.
         25    1    1    2    0    0  0.18386685561E+02  0.33255118443E+02  0.82072693185E+02  0.15428836662E+03  0.12500000000E+03 0.  0.
</event>
<event>
 5    0  0.5510933E-005  0.2021786E+03  0.7546771E-02  0.1147914E+00
         21   -1    0    0  502  501  0.00000000000E+00  0.00000000000E+00  0.27645104901E+03  0.27645104901E+03  0.00000000000E+00 0.  1.
         21   -1    0    0  501  502 -0.00000000000E+00 -0.00000000000E+00 -0.14786045326E+03  0.14786045326E+03  0.00000000000E+00 0.  1.
         25    1    1    2    0    0  0.27108756524E+02  0.71495531692E+01  0.78983374435E+02  0.15049709043E+03  0.12500000000E+03 0.  0.
         25    1    1    2    0    0  0.18843460563E+02 -0.41300150290E+01  0.60406200485E+02  0.14016433957E+03  0.12500000000E+03 0.  0.
         25    1    1    2    0    0 -0.45952217086E+02 -0.30195381402E+01 -0.10798979175E+02  0.13365007227E+03  0.12500000000E+03 0.  0.
</event>
<event>
 5    0  0.5510933E-005  0.3816708E+03  0.7546771E-02  0.1050318E+00
         21   -1    0    0  502  501  0.00000000000E+00  0.00000000000E+00  0.10799722885E+03  0.10799722885E+03  0.00000000000E+00 0.  1.
         21   -1    0    0  501  502 -0.00000000000E+00 -0.00000000000E+00 -0.13488553184E+04  0.13488553184E+04  0.00000000000E+00 0.  1.
         25    1    1    2    0    0  0.50021210904E+02  0.17404970215E+03 -0.78323601538E+02  0.23357013276E+03  0.12500000000E+03 0.  0.
         25    1    1    2    0    0  0.42716390049E+02  0.17527476609E+02 -0.37503859316E+03  0.39800860390E+03  0.12500000000E+03 0.  0.
         25    1    1    2    0    0 -0.92737600953E+02 -0.19157717876E+03 -0.78749589488E+03  0.82527381062E+03  0.12500000000E+03 0.  0.
</event>
<event>
 5    0  0.5510933E-005  0.4467713E+03  0.7546771E-02  0.1028689E+00
         21   -1    0    0  502  501  0.00000000000E+00  0.00000000000E+00  0.44932648726E+03  0.44932648726E+03  0.00000000000E+00 0. -1.
         21   -1    0    0  501  502 -0.00000000000E+00 -0.00000000000E+00 -0.44423068206E+03  0.44423068206E+03  0.00000000000E+00 0. -1.
         25    1    1    2    0    0  0.14452734363E+03  0.26583175379E+02  0.22336631663E+03  0.29514797928E+03  0.12500000000E+03 0.  0.
         25    1    1    2    0    0  0.63836294544E+02  0.10793551623E+03  0.76970389354E+02  0.19306628137E+03  0.12500000000E+03 0.  0.
         25    1    1    2    0    0 -0.20836363818E+03 -0.13451869161E+03 -0.29524090079E+03  0.40534290866E+03  0.12500000000E+03 0.  0.
</event>
<event>
 5    0  0.5510933E-005  0.3842972E+03  0.7546771E-02  0.1049357E+00
         21   -1    0    0  502  501  0.00000000000E+00  0.00000000000E+00  0.23825856944E+03  0.23825856944E+03  0.00000000000E+00 0. -1.
         21   -1    0    0  501  502 -0.00000000000E+00 -0.00000000000E+00 -0.61984913901E+03  0.61984913901E+03  0.00000000000E+00 0. -1.
         25    1    1    2    0    0  0.13822529015E+03 -0.16761738605E+03  0.16099532793E+02  0.25116929330E+03  0.12500000000E+03 0.  0.
         25    1    1    2    0    0 -0.22114127689E+03  0.16190570860E+03 -0.31376986701E+03  0.43496373673E+03  0.12500000000E+03 0.  0.
         25    1    1    2    0    0  0.82915986742E+02  0.57116774492E+01 -0.83920235350E+02  0.17197467842E+03  0.12500000000E+03 0.  0.
</event>
<event>
 5    0  0.5510933E-005  0.2399500E+03  0.7546771E-02  0.1119826E+00
         21   -1    0    0  502  501  0.00000000000E+00  0.00000000000E+00  0.41888811601E+03  0.41888811601E+03  0.00000000000E+00 0. -1.
         21   -1    0    0  501  502 -0.00000000000E+00 -0.00000000000E+00 -0.13744960097E+03  0.13744960097E+03  0.00000000000E+00 0. -1.
         25    1    1    2    0    0  0.21775237479E+02  0.40372434075E+02  0.19087964893E+03  0.23273189462E+03  0.12500000000E+03 0.  0.
         25    1    1    2    0    0 -0.57524138502E+01 -0.77959381043E+02 -0.23787325562E+02  0.14933717627E+03  0.12500000000E+03 0.  0.
         25    1    1    2    0    0 -0.16022823629E+02  0.37586946967E+02  0.11434619167E+03  0.17426864609E+03  0.12500000000E+03 0.  0.
</event>
<event>
 5    0  0.5510933E-005  0.2718684E+03  0.7546771E-02  0.1100215E+00
         21   -1    0    0  502  501  0.00000000000E+00  0.00000000000E+00  0.37613798253E+03  0.37613798253E+03  0.00000000000E+00 0.  1.
         21   -1    0    0  501  502 -0.00000000000E+00 -0.00000000000E+00 -0.19650349476E+03  0.19650349476E+03  0.00000000000E+00 0.  1.
         25    1    1    2    0    0  0.16517277186E+02 -0.55506203117E+02 -0.20438045295E+02  0.13927122002E+03  0.12500000000E+03 0.  0.
         25    1    1    2    0    0 -0.10906028445E+03 -0.73594572060E+02  0.80613687917E+02  0.19857963984E+03  0.12500000000E+03 0.  0.
         25    1    1    2    0    0  0.92543007262E+02  0.12910077518E+03  0.11945884515E+03  0.23479061742E+03  0.12500000000E+03 0.  0.
</event>
<event>
 5    0  0.5510933E-005  0.3025861E+03  0.7546771E-02  0.1083955E+00
         21   -1    0    0  502  501  0.00000000000E+00  0.00000000000E+00  0.54682042234E+03  0.54682042234E+03  0.00000000000E+00 0. -1.
         21   -1    0    0  501  502 -0.00000000000E+00 -0.00000000000E+00 -0.16743764749E+03  0.16743764749E+03  0.00000000000E+00 0. -1.
         25    1    1    2    0    0 -0.41556061616E+02 -0.17907935179E+02  0.96420726444E+02  0.16422410568E+03  0.12500000000E+03 0.  0.
         25    1    1    2    0    0 -0.43150655954E+02 -0.16097891045E+03  0.22941751952E+03  0.30989286371E+03  0.12500000000E+03 0.  0.
         25    1    1    2    0    0  0.84706717570E+02  0.17888684563E+03  0.53544528888E+02  0.24014110043E+03  0.12500000000E+03 0.  0.
</event>
<event>
 5    0  0.5510933E-005  0.2626968E+03  0.7546771E-02  0.1105534E+00
         21   -1    0    0  502  501  0.00000000000E+00  0.00000000000E+00  0.55424229647E+02  0.55424229647E+02  0.00000000000E+00 0. -1.
         21   -1    0    0  501  502 -0.00000000000E+00 -0.00000000000E+00 -0.12451163839E+04  0.12451163839E+04  0.00000000000E+00 0. -1.
         25    1    1    2    0    0 -0.49208135853E+01 -0.10899649404E+03 -0.17670462525E+03  0.24239219192E+03  0.12500000000E+03 0.  0.
         25    1    1    2    0    0  0.51237593757E+02  0.10624222516E+03 -0.53637036097E+03  0.56323251464E+03  0.12500000000E+03 0.  0.
         25    1    1    2    0    0 -0.46316780172E+02  0.27542688779E+01 -0.47661716802E+03  0.49491590698E+03  0.12500000000E+03 0.  0.
</event>
<event>
 5    0  0.5510933E-005  0.2748579E+03  0.7546771E-02  0.1098531E+00
         21   -1    0    0  502  501  0.00000000000E+00  0.00000000000E+00  0.35773320023E+03  0.35773320023E+03  0.00000000000E+00 0.  1.
         21   -1    0    0  501  502 -0.00000000000E+00 -0.00000000000E+00 -0.21118209029E+03  0.21118209029E+03  0.00000000000E+00 0.  1.
         25    1    1    2    0    0  0.83113518216E+02 -0.18863558763E+02  0.15845849088E+02  0.15211765740E+03  0.12500000000E+03 0.  0.
         25    1    1    2    0    0 -0.15544958839E+03 -0.66629875703E+02  0.13321717369E+03  0.24894965401E+03  0.12500000000E+03 0.  0.
         25    1    1    2    0    0  0.72336070171E+02  0.85493434466E+02 -0.25119128319E+01  0.16784797911E+03  0.12500000000E+03 0.  0.
</event>
<event>
 5    0  0.5510933E-005  0.2602143E+03  0.7546771E-02  0.1107015E+00
         21   -1    0    0  502  501  0.00000000000E+00  0.00000000000E+00  0.56403861764E+03  0.56403861764E+03  0.00000000000E+00 0.  1.
         21   -1    0    0  501  502 -0.00000000000E+00 -0.00000000000E+00 -0.12004761151E+03  0.12004761151E+03  0.00000000000E+00 0.  1.
         25    1    1    2    0    0  0.15432062981E+02  0.45193456055E+02  0.70935991301E+02  0.15145135159E+03  0.12500000000E+03 0.  0.
         25    1    1    2    0    0  0.40443766766E+02 -0.57654418064E+02  0.36808559726E+03  0.39505915646E+03  0.12500000000E+03 0.  0.
         25    1    1    2    0    0 -0.55875829746E+02  0.12460962009E+02  0.49694175685E+01  0.13757572110E+03  0.12500000000E+03 0.  0.
</event>
<event>
 5    0  0.7005051E-005  0.2833160E+03  0.7546771E-02  0.1093891E+00
         21   -1    0    0  502  501  0.00000000000E+00  0.00000000000E+00  0.46709901996E+03  0.46709901996E+03  0.00000000000E+00 0.  1.
         21   -1    0    0  501  502 -0.00000000000E+00 -0.00000000000E+00 -0.17184352722E+03  0.17184352722E+03  0.00000000000E+00 0.  1.
         25    1    1    2    0    0  0.36827745898E+02 -0.42532343080E+02 -0.20144840680E+02  0.13854998261E+03  0.12500000000E+03 0.  0.
         25    1    1    2    0    0 -0.43790718236E+02  0.60176975882E+02 -0.15365007649E+02  0.14628731623E+03  0.12500000000E+03 0.  0.
         25    1    1    2    0    0  0.69629723376E+01 -0.17644632801E+02  0.33076534106E+03  0.35410524834E+03  0.12500000000E+03 0.  0.
</event>
<event>
 5    0  0.5510933E-005  0.3495033E+03  0.7546771E-02  0.1062819E+00
         21   -1    0    0  502  501  0.00000000000E+00  0.00000000000E+00  0.10867497988E+03  0.10867497988E+03  0.00000000000E+00 0. -1.
         21   -1    0    0  501  502 -0.00000000000E+00 -0.00000000000E+00 -0.11240172643E+04  0.11240172643E+04  0.00000000000E+00 0. -1.
         25    1    1    2    0    0  0.69022439759E+02  0.16939851908E+03 -0.88976195367E+02  0.23875032733E+03  0.12500000000E+03 0.  0.
         25    1    1    2    0    0  0.28211638683E+02 -0.71136271102E+02 -0.60446970311E+03  0.62198463615E+03  0.12500000000E+03 0.  0.
         25    1    1    2    0    0 -0.97234078441E+02 -0.98262247981E+02 -0.32189638598E+03  0.37195728074E+03  0.12500000000E+03 0.  0.
</event>
<event>
 5    0  0.5510933E-005  0.2370483E+03  0.7546771E-02  0.1121775E+00
         21   -1    0    0  502  501  0.00000000000E+00  0.00000000000E+00  0.33400603621E+02  0.33400603621E+02  0.00000000000E+00 0. -1.
         21   -1    0    0  501  502 -0.00000000000E+00 -0.00000000000E+00 -0.16823615364E+04  0.16823615364E+04  0.00000000000E+00 0. -1.
         25    1    1    2    0    0 -0.33277483888E+02  0.69498280908E+02 -0.54533318821E+03  0.56475719398E+03  0.12500000000E+03 0.  0.
         25    1    1    2    0    0  0.27838992700E+02  0.48018424135E+01 -0.21309490152E+03  0.24866142495E+03  0.12500000000E+03 0.  0.
         25    1    1    2    0    0  0.54384911883E+01 -0.74300123322E+02 -0.89053284303E+03  0.90234352107E+03  0.12500000000E+03 0.  0.
</event>
<event>
 5    0  0.5510933E-005  0.4324688E+03  0.7546771E-02  0.1033083E+00
         21   -1    0    0  502  501  0.00000000000E+00  0.00000000000E+00  0.43622819071E+03  0.43622819071E+03  0.00000000000E+00 0.  1.
         21   -1    0    0  501  502 -0.00000000000E+00 -0.00000000000E+00 -0.42874186737E+03  0.42874186737E+03  0.00000000000E+00 0.  1.
         25    1    1    2    0    0  0.15831541053E+03  0.22677056922E+03 -0.94098146068E+01  0.30364815970E+03  0.12500000000E+03 0.  0.
         25    1    1    2    0    0  0.36977402670E+02  0.81537592603E+02 -0.65041591815E+02  0.16694644645E+03  0.12500000000E+03 0.  0.
         25    1    1    2    0    0 -0.19529281320E+03 -0.30830816183E+03  0.81937729760E+02  0.39437545194E+03  0.12500000000E+03 0.  0.
</event>
<event>
 5    0  0.5510933E-005  0.2926371E+03  0.7546771E-02  0.1088980E+00
         21   -1    0    0  502  501  0.00000000000E+00  0.00000000000E+00  0.68010765296E+02  0.68010765296E+02  0.00000000000E+00 0.  1.
         21   -1    0    0  501  502 -0.00000000000E+00 -0.00000000000E+00 -0.12591602333E+04  0.12591602333E+04  0.00000000000E+00 0.  1.
         25    1    1    2    0    0 -0.78886955869E+02 -0.10131228764E+03 -0.38189910940E+03  0.42185217931E+03  0.12500000000E+03 0.  0.
         25    1    1    2    0    0 -0.54906662064E+02  0.15815867499E+03 -0.34943606580E+03  0.40713569249E+03  0.12500000000E+03 0.  0.
         25    1    1    2    0    0  0.13379361793E+03 -0.56846387353E+02 -0.45981429281E+03  0.49818312680E+03  0.12500000000E+03 0.  0.
</event>
<event>
 5    0  0.5510933E-005  0.2990409E+03  0.7546771E-02  0.1085721E+00
         21   -1    0    0  502  501  0.00000000000E+00  0.00000000000E+00  0.45220044637E+03  0.45220044637E+03  0.00000000000E+00 0.  1.
         21   -1    0    0  501  502 -0.00000000000E+00 -0.00000000000E+00 -0.19775625575E+03  0.19775625575E+03  0.00000000000E+00 0.  1.
         25    1    1    2    0    0 -0.96429990053E+01 -0.15764233910E+03  0.48004643743E+00  0.20141828356E+03  0.12500000000E+03 0.  0.
         25    1    1    2    0    0 -0.68236667999E+02  0.80642096805E+02  0.24908341393E+02  0.16554400052E+03  0.12500000000E+03 0.  0.
         25    1    1    2    0    0  0.77879667004E+02  0.77000242299E+02  0.22905580279E+03  0.28299441803E+03  0.12500000000E+03 0.  0.
</event>
<event>
 5    0  0.5510933E-005  0.3346410E+03  0.7546771E-02  0.1069102E+00
         21   -1    0    0  502  501  0.00000000000E+00  0.00000000000E+00  0.25294847603E+03  0.25294847603E+03  0.00000000000E+00 0. -1.
         21   -1    0    0  501  502 -0.00000000000E+00 -0.00000000000E+00 -0.44271696243E+03  0.44271696243E+03  0.00000000000E+00 0. -1.
         25    1    1    2    0    0 -0.17623513843E+03 -0.81386946594E+02  0.88447249883E+02  0.24724598097E+03  0.12500000000E+03 0.  0.
         25    1    1    2    0    0  0.61418390397E+02  0.70493384371E+02 -0.50224688989E+02  0.16397882578E+03  0.12500000000E+03 0.  0.
         25    1    1    2    0    0  0.11481674803E+03  0.10893562223E+02 -0.22799104729E+03  0.28444063172E+03  0.12500000000E+03 0.  0.
</event>
<event>
 5    0  0.5510933E-005  0.4341488E+03  0.7546771E-02  0.1032557E+00
         21   -1    0    0  502  501  0.00000000000E+00  0.00000000000E+00  0.16169473474E+03  0.16169473474E+03  0.00000000000E+00 0.  1.
         21   -1    0    0  501  502 -0.00000000000E+00 -0.00000000000E+00 -0.11656852803E+04  0.11656852803E+04  0.00000000000E+00 0.  1.
         25    1    1    2    0    0  0.10737747350E+03  0.93553766765E+02 -0.18651794440E+03  0.26588751884E+03  0.12500000000E+03 0.  0.
         25    1    1    2    0    0 -0.58850092166E+02  0.95661323309E+02 -0.81232562090E+03  0.82952536821E+03  0.12500000000E+03 0.  0.
         25    1    1    2    0    0 -0.48527381335E+02 -0.18921509007E+03 -0.51469802233E+01  0.23196712797E+03  0.12500000000E+03 0.  0.
</event>
<event>
 5    0  0.5510933E-005  0.2963075E+03  0.7546771E-02  0.1087101E+00
         21   -1    0    0  502  501  0.00000000000E+00  0.00000000000E+00  0.10130883406E+04  0.10130883406E+04  0.00000000000E+00 0.  1.
         21   -1    0    0  501  502 -0.00000000000E+00 -0.00000000000E+00 -0.86663844771E+02  0.86663844771E+02  0.00000000000E+00 0.  1.
         25    1    1    2    0    0  0.61755407266E+02  0.10562360820E+03  0.35731527283E+03  0.39783071920E+03  0.12500000000E+03 0.  0.
         25    1    1    2    0    0  0.20932096305E+02 -0.15940099720E+03  0.14809230875E+03  0.25179984606E+03  0.12500000000E+03 0.  0.
         25    1    1    2    0    0 -0.82687503571E+02  0.53777388993E+02  0.42101691421E+03  0.45012162008E+03  0.12500000000E+03 0.  0.
</event>
<event>
 5    0  0.5510933E-005  0.2764100E+03  0.7546771E-02  0.1097666E+00
         21   -1    0    0  502  501  0.00000000000E+00  0.00000000000E+00  0.85452700525E+03  0.85452700525E+03  0.00000000000E+00 0.  1.
         21   -1    0    0  501  502 -0.00000000000E+00 -0.00000000000E+00 -0.89409090753E+02  0.89409090753E+02  0.00000000000E+00 0.  1.
         25    1    1    2    0    0  0.93282753039E+02 -0.43936274651E+02  0.42618752112E+02  0.16755126462E+03  0.12500000000E+03 0.  0.
         25    1    1    2    0    0 -0.54691915340E+02 -0.60443302902E+01  0.44600149804E+03  0.46644407573E+03  0.12500000000E+03 0.  0.
         25    1    1    2    0    0 -0.38590837699E+02  0.49980604941E+02  0.27649766435E+03  0.30994075565E+03  0.12500000000E+03 0.  0.
</event>
<event>
 5    0  0.5510933E-005  0.2813260E+03  0.7546771E-02  0.1094967E+00
         21   -1    0    0  502  501  0.00000000000E+00  0.00000000000E+00  0.80228950238E+03  0.80228950238E+03  0.00000000000E+00 0. -1.
         21   -1    0    0  501  502 -0.00000000000E+00 -0.00000000000E+00 -0.98648063824E+02  0.98648063824E+02  0.00000000000E+00 0. -1.
         25    1    1    2    0    0 -0.43962251795E+02  0.75314098093E+02  0.61678219574E+02  0.16442048450E+03  0.12500000000E+03 0.  0.
         25    1    1    2    0    0 -0.65437627339E+02  0.35046374819E+02  0.16718560649E+03  0.22155441426E+03  0.12500000000E+03 0.  0.
         25    1    1    2    0    0  0.10939987913E+03 -0.11036047291E+03  0.47477761248E+03  0.51496266744E+03  0.12500000000E+03 0.  0.
</event>
<event>
 5    0  0.5510933E-005  0.4941687E+03  0.7546771E-02  0.1015312E+00
         21   -1    0    0  502  501  0.00000000000E+00  0.00000000000E+00  0.67612165727E+03  0.67612165727E+03  0.00000000000E+00 0.  1.
         21   -1    0    0  501  502 -0.00000000000E+00 -0.00000000000E+00 -0.36118166783E+03  0.36118166783E+03  0.00000000000E+00 0.  1.
         25    1    1    2    0    0  0.96498749162E+02 -0.24838190696E+03  0.41938323303E+03  0.51236010426E+03  0.12500000000E+03 0.  0.
         25    1    1    2    0    0 -0.68182707009E+02  0.10324915141E+03 -0.23344155102E+03  0.29228278523E+03  0.12500000000E+03 0.  0.
         25    1    1    2    0    0 -0.28316042153E+02  0.14513275555E+03  0.12899830742E+03  0.23266043560E+03  0.12500000000E+03 0.  0.
</event>
<event>
 5    0  0.5510933E-005  0.4088169E+03  0.7546771E-02  0.1040769E+00
         21   -1    0    0  502  501  0.00000000000E+00  0.00000000000E+00  0.17604368519E+04  0.17604368519E+04  0.00000000000E+00 0. -1.
         21   -1    0    0  501  502 -0.00000000000E+00 -0.00000000000E+00 -0.94937388467E+02  0.94937388467E+02  0.00000000000E+00 0. -1.
         25    1    1    2    0    0 -0.16442587704E+03  0.19313983159E+03  0.40616490828E+03  0.49490786648E+03  0.12500000000E+03 0.  0.
         25    1    1    2    0    0  0.12155234192E+03 -0.16331720697E+03  0.11790134653E+04  0.12029734965E+04  0.12500000000E+03 0.  0.
         25    1    1    2    0    0  0.42873535119E+02 -0.29822624613E+02  0.80321089846E+02  0.15749287738E+03  0.12500000000E+03 0.  0.
</event>
<event>
 5    0  0.5510933E-005  0.3072614E+03  0.7546771E-02  0.1081666E+00
         21   -1    0    0  502  501  0.00000000000E+00  0.00000000000E+00  0.18355676015E+03  0.18355676015E+03  0.00000000000E+00 0.  1.
         21   -1    0    0  501  502 -0.00000000000E+00 -0.00000000000E+00 -0.51433454761E+03  0.51433454761E+03  0.00000000000E+00 0.  1.
         25    1    1    2    0    0  0.13880534729E+03 -0.12985385912E+03 -0.40184106535E+02  0.23101669114E+03  0.12500000000E+03 0.  0.
         25    1    1    2    0    0 -0.10970001618E+03  0.89289221100E+00 -0.21000211427E+03  0.26788202404E+03  0.12500000000E+03 0.  0.
         25    1    1    2    0    0 -0.29105331114E+02  0.12896096691E+03 -0.80591566657E+02  0.19899259258E+03  0.12500000000E+03 0.  0.
</event>
<event>
 5    0  0.5510933E-005  0.3992968E+03  0.7546771E-02  0.1044023E+00
         21   -1    0    0  502  501  0.00000000000E+00  0.00000000000E+00  0.33917184730E+03  0.33917184730E+03  0.00000000000E+00 0. -1.
         21   -1    0    0  501  502 -0.00000000000E+00 -0.00000000000E+00 -0.47008000683E+03  0.47008000683E+03  0.00000000000E+00 0. -1.
         25    1    1    2    0    0 -0.19851227494E+03 -0.17109657475E+03 -0.95023646015E+02  0.30550884520E+03  0.12500000000E+03 0.  0.
         25    1    1    2    0    0 -0.78058224744E+02  0.58046606892E+02  0.54476128372E+02  0.16749669723E+03  0.12500000000E+03 0.  0.
         25    1    1    2    0    0  0.27657049968E+03  0.11304996785E+03 -0.90360641891E+02  0.33624631170E+03  0.12500000000E+03 0.  0.
</event>
<event>
 5    0  0.5510933E-005  0.2498712E+03  0.7546771E-02  0.1113386E+00
         21   -1    0    0  502  501  0.00000000000E+00  0.00000000000E+00  0.14944444735E+03  0.14944444735E+03  0.00000000000E+00 0. -1.
         21   -1    0    0  501  502 -0.00000000000E+00 -0.00000000000E+00 -0.41778468637E+03  0.41778468637E+03  0.00000000000E+00 0. -1.
         25    1    1    2    0    0 -0.68857197141E+02 -0.13540918079E+03 -0.13010552335E+03  0.23585887104E+03  0.12500000000E+03 0.  0.
         25    1    1    2    0    0  0.47434968081E+02  0.43975816562E+02 -0.38473888728E+02  0.14590815177E+03  0.12500000000E+03 0.  0.
         25    1    1    2    0    0  0.21422229060E+02  0.91433364229E+02 -0.99760826937E+02  0.18546211091E+03  0.12500000000E+03 0.  0.
</event>
<event>
 5    0  0.5510933E-005  0.3250503E+03  0.7546771E-02  0.1073348E+00
         21   -1    0    0  502  501  0.00000000000E+00  0.00000000000E+00  0.15178483018E+04  0.15178483018E+04  0.00000000000E+00 0.  1.
         21   -1    0    0  501  502 -0.00000000000E+00 -0.00000000000E+00 -0.69610181938E+02  0.69610181938E+02  0.00000000000E+00 0.  1.
         25    1    1    2    0    0 -0.21623029596E+02  0.33124520058E+02  0.10810552134E+04  0.10889766589E+04  0.12500000000E+03 0.  0.
         25    1    1    2    0    0 -0.34505007080E+02  0.32649696468E+02  0.30727164100E+03  0.33510813114E+03  0.12500000000E+03 0.  0.
         25    1    1    2    0    0  0.56128036677E+02 -0.65774216526E+02  0.59911265471E+02  0.16337369369E+03  0.12500000000E+03 0.  0.
</event>
<event>
 5    0  0.5510933E-005  0.2258582E+03  0.7546771E-02  0.1129589E+00
         21   -1    0    0  502  501  0.00000000000E+00  0.00000000000E+00  0.16166860969E+04  0.16166860969E+04  0.00000000000E+00 0.  1.
         21   -1    0    0  501  502 -0.00000000000E+00 -0.00000000000E+00 -0.31553391233E+02  0.31553391233E+02  0.00000000000E+00 0.  1.
         25    1    1    2    0    0 -0.45949415399E+01 -0.32007080009E+02  0.44584547655E+03  0.46416457816E+03  0.12500000000E+03 0.  0.
         25    1    1    2    0    0 -0.36579309302E+02 -0.38010041828E+02  0.27080249009E+03  0.30288908496E+03  0.12500000000E+03 0.  0.
         25    1    1    2    0    0  0.41174250842E+02  0.70017121837E+02  0.86848473906E+03  0.88118582505E+03  0.12500000000E+03 0.  0.
</event>
<event>
 5    0  0.5510933E-005  0.3590682E+03  0.7546771E-02  0.1058953E+00
         21   -1    0    0  502  501  0.00000000000E+00  0.00000000000E+00  0.60072074954E+03  0.60072074954E+03  0.00000000000E+00 0. -1.
         21   -1    0    0  501  502 -0.00000000000E+00 -0.00000000000E+00 -0.21462548141E+03  0.21462548141E+03  0.00000000000E+00 0. -1.
         25    1    1    2    0    0 -0.65778744664E+01 -0.42056165943E+02  0.19327742781E+02  0.13345617695E+03  0.12500000000E+03 0.  0.
         25    1    1    2    0    0  0.24091551262E+03 -0.35560921754E+02  0.84164014712E+02  0.28637989586E+03  0.12500000000E+03 0.  0.
         25    1    1    2    0    0 -0.23433763816E+03  0.77617087697E+02  0.28260351064E+03  0.39551015813E+03  0.12500000000E+03 0.  0.
</event>
<event>
 5    0  0.5510933E-005  0.3885337E+03  0.7546771E-02  0.1047824E+00
         21   -1    0    0  502  501  0.00000000000E+00  0.00000000000E+00  0.62884656157E+03  0.62884656157E+03  0.00000000000E+00 0. -1.
         21   -1    0    0  501  502 -0.00000000000E+00 -0.00000000000E+00 -0.24005605296E+03  0.24005605296E+03  0.00000000000E+00 0. -1.
         25    1    1    2    0    0 -0.31516563058E+02 -0.21470827959E+03  0.14727001355E+03  0.29052778862E+03  0.12500000000E+03 0.  0.
         25    1    1    2    0    0 -0.17830215698E+03  0.13132362107E+03  0.55574880086E+02  0.26029045301E+03  0.12500000000E+03 0.  0.
         25    1    1    2    0    0  0.20981872003E+03  0.83384658514E+02  0.18594561497E+03  0.31808437289E+03  0.12500000000E+03 0.  0.
</event>
<event>
 5    0  0.5510933E-005  0.3476401E+03  0.7546771E-02  0.1063588E+00
         21   -1    0    0  502  501  0.00000000000E+00  0.00000000000E+00  0.22865783629E+03  0.22865783629E+03  0.00000000000E+00 0. -1.
         21   -1    0    0  501  502 -0.00000000000E+00 -0.00000000000E+00 -0.52853480672E+03  0.52853480672E+03  0.00000000000E+00 0. -1.
         25    1    1    2    0    0 -0.87240505714E+02  0.51942503931E+01 -0.35098089400E+03  0.38268848170E+03  0.12500000000E+03 0.  0.
         25    1    1    2    0    0  0.71053309223E+02 -0.11256772999E+03  0.91238869413E+02  0.20413132508E+03  0.12500000000E+03 0.  0.
         25    1    1    2    0    0  0.16187196491E+02  0.10737347960E+03 -0.40134945844E+02  0.17037283624E+03  0.12500000000E+03 0.  0.
</event>
<event>
 5    0  0.5510933E-005  0.2654697E+03  0.7546771E-02  0.1103901E+00
         21   -1    0    0  502  501  0.00000000000E+00  0.00000000000E+00  0.12082045246E+03  0.12082045246E+03  0.00000000000E+00 0. -1.
         21   -1    0    0  501  502 -0.00000000000E+00 -0.00000000000E+00 -0.58329666652E+03  0.58329666652E+03  0.00000000000E+00 0. -1.
         25    1    1    2    0    0 -0.23933558503E+02 -0.85867398395E+01 -0.37597836103E+03  0.39702805353E+03  0.12500000000E+03 0.  0.
         25    1    1    2    0    0  0.77111690390E+01  0.76178589449E+02 -0.15482898061E+02  0.14740203442E+03  0.12500000000E+03 0.  0.
         25    1    1    2    0    0  0.16222389464E+02 -0.67591849609E+02 -0.71014954962E+02  0.15968703104E+03  0.12500000000E+03 0.  0.
</event>
<event>
 5    0  0.5510933E-005  0.3215426E+03  0.7546771E-02  0.1074942E+00
         21   -1    0    0  502  501  0.00000000000E+00  0.00000000000E+00  0.23144784806E+03  0.23144784806E+03  0.00000000000E+00 0. -1.
         21   -1    0    0  501  502 -0.00000000000E+00 -0.00000000000E+00 -0.44670818425E+03  0.44670818425E+03  0.00000000000E+00 0. -1.
         25    1    1    2    0    0  0.80623336716E+02  0.17078181503E+03 -0.15582690803E+03  0.27490648598E+03  0.12500000000E+03 0.  0.
         25    1    1    2    0    0 -0.92402058580E+02 -0.98769780934E+02 -0.14562747766E+03  0.23478920824E+03  0.12500000000E+03 0.  0.
         25    1    1    2    0    0  0.11778721864E+02 -0.72012034096E+02  0.86194049492E+02  0.16846033810E+03  0.12500000000E+03 0.  0.
</event>
<event>
 5    0  0.5510933E-005  0.3671396E+03  0.7546771E-02  0.1055792E+00
         21   -1    0    0  502  501  0.00000000000E+00  0.00000000000E+00  0.38975228082E+03  0.38975228082E+03  0.00000000000E+00 0.  1.
         21   -1    0    0  501  502 -0.00000000000E+00 -0.00000000000E+00 -0.34583882764E+03  0.34583882764E+03  0.00000000000E+00 0.  1.
         25    1    1    2    0    0 -0.28003625366E+02 -0.23646708769E+03 -0.16449687800E+03  0.31525403957E+03  0.12500000000E+03 0.  0.
         25    1    1    2    0    0 -0.35137969793E+02  0.92632330688E+02  0.58893444738E+02  0.17002606695E+03  0.12500000000E+03 0.  0.
         25    1    1    2    0    0  0.63141595159E+02  0.14383475700E+03  0.14951688644E+03  0.25031100194E+03  0.12500000000E+03 0.  0.
</event>
<event>
 5    0  0.5510933E-005  0.3230239E+03  0.7546771E-02  0.1074266E+00
         21   -1    0    0  502  501  0.00000000000E+00  0.00000000000E+00  0.33441743968E+03  0.33441743968E+03  0.00000000000E+00 0. -1.
         21   -1    0    0  501  502 -0.00000000000E+00 -0.00000000000E+00 -0.31201862179E+03  0.31201862179E+03  0.00000000000E+00 0. -1.
         25    1    1    2    0    0 -0.15825640007E+02  0.52218789660E+01 -0.54246711666E+02  0.13727863864E+03  0.12500000000E+03 0.  0.
         25    1    1    2    0    0 -0.22204149420E+02  0.21466759929E+02 -0.17918921639E+03  0.22065271651E+03  0.12500000000E+03 0.  0.
         25    1    1    2    0    0  0.38029789427E+02 -0.26688638895E+02  0.25583474595E+03  0.28850470632E+03  0.12500000000E+03 0.  0.
</event>
<event>
 5    0  0.5510933E-005  0.3615303E+03  0.7546771E-02  0.1057980E+00
         21   -1    0    0  502  501  0.00000000000E+00  0.00000000000E+00  0.19205665507E+03  0.19205665507E+03  0.00000000000E+00 0.  1.
         21   -1    0    0  501  502 -0.00000000000E+00 -0.00000000000E+00 -0.68054984287E+03  0.68054984287E+03  0.00000000000E+00 0.  1.
         25    1    1    2    0    0 -0.84223553812E+02 -0.14617433381E+03 -0.43158285430E+03  0.47994718773E+03  0.12500000000E+03 0.  0.
         25    1    1    2    0    0  0.12247944093E+03  0.16427343251E+03 -0.90436917496E+02  0.25649719321E+03  0.12500000000E+03 0.  0.
         25    1    1    2    0    0 -0.38255887118E+02 -0.18099098696E+02  0.33526583989E+02  0.13616211700E+03  0.12500000000E+03 0.  0.
</event>
<event>
 5    0  0.5955698E-005  0.3358308E+03  0.7546771E-02  0.1068586E+00
         21   -1    0    0  502  501  0.00000000000E+00  0.00000000000E+00  0.16648502069E+03  0.16648502069E+03  0.00000000000E+00 0. -1.
         21   -1    0    0  501  502 -0.00000000000E+00 -0.00000000000E+00 -0.67743217089E+03  0.67743217089E+03  0.00000000000E+00 0.  1.
         25    1    1    2    0    0 -0.25097340381E+02 -0.24900694138E+01 -0.40705880029E+03  0.42656528672E+03  0.12500000000E+03 0.  0.
         25    1    1    2    0    0 -0.12641756092E+03  0.71530252490E+02 -0.80448913124E+02  0.20783407890E+03  0.12500000000E+03 0.  0.
         25    1    1    2    0    0  0.15151490130E+03 -0.69040183076E+02 -0.23439436776E+02  0.20951782595E+03  0.12500000000E+03 0.  0.
</event>
<event>
 5    0  0.5510933E-005  0.4198410E+03  0.7546771E-02  0.1037118E+00
         21   -1    0    0  502  501  0.00000000000E+00  0.00000000000E+00  0.48632832624E+02  0.48632832624E+02  0.00000000000E+00 0.  1.
         21   -1    0    0  501  502 -0.00000000000E+00 -0.00000000000E+00 -0.36244330138E+04  0.36244330138E+04  0.00000000000E+00 0.  1.
         25    1    1    2    0    0  0.12078395856E+03  0.16273359517E+03 -0.15458038437E+04  0.15640350094E+04  0.12500000000E+03 0.  0.
         25    1    1    2    0    0 -0.20961542546E+03 -0.27294952384E+03 -0.10780335593E+04  0.11385172042E+04  0.12500000000E+03 0.  0.
         25    1    1    2    0    0  0.88831466896E+02  0.11021592868E+03 -0.95196277814E+03  0.97051363278E+03  0.12500000000E+03 0.  0.
</event>
<event>
 5    0  0.5510933E-005  0.2594473E+03  0.7546771E-02  0.1107476E+00
         21   -1    0    0  502  501  0.00000000000E+00  0.00000000000E+00  0.11312904032E+03  0.11312904032E+03  0.00000000000E+00 0. -1.
         21   -1    0    0  501  502 -0.00000000000E+00 -0.00000000000E+00 -0.59500985543E+03  0.59500985543E+03  0.00000000000E+00 0. -1.
         25    1    1    2    0    0  0.37598547697E+02 -0.63770081538E+01  0.19464434332E+02  0.13212941090E+03  0.12500000000E+03 0.  0.
         25    1    1    2    0    0 -0.43108452273E+02 -0.32536596051E+02 -0.35149877134E+03  0.37695272249E+03  0.12500000000E+03 0.  0.
         25    1    1    2    0    0  0.55099045760E+01  0.38913604205E+02 -0.14984647811E+03  0.19905676236E+03  0.12500000000E+03 0.  0.
</event>
<event>
 5    0  0.5510933E-005  0.2707407E+03  0.7546771E-02  0.1100856E+00
         21   -1    0    0  502  501  0.00000000000E+00  0.00000000000E+00  0.11900677793E+03  0.11900677793E+03  0.00000000000E+00 0. -1.
         21   -1    0    0  501  502 -0.00000000000E+00 -0.00000000000E+00 -0.61593550975E+03  0.61593550975E+03  0.00000000000E+00 0. -1.
         25    1    1    2    0    0  0.32554039334E+02 -0.47133978099E+02 -0.99638396111E+02  0.16980632305E+03  0.12500000000E+03 0.  0.
         25    1    1    2    0    0 -0.65446440340E+02 -0.65209338748E+02 -0.27820641375E+02  0.15790656256E+03  0.12500000000E+03 0.  0.
         25    1    1    2    0    0  0.32892401005E+02  0.11234331685E+03 -0.36946969433E+03  0.40722940207E+03  0.12500000000E+03 0.  0.
</event>
<event>
 5    0  0.5510933E-005  0.2813875E+03  0.7546771E-02  0.1094934E+00
         21   -1    0    0  502  501  0.00000000000E+00  0.00000000000E+00  0.17933225280E+03  0.17933225280E+03  0.00000000000E+00 0. -1.
         21   -1    0    0  501  502 -0.00000000000E+00 -0.00000000000E+00 -0.44152096316E+03  0.44152096316E+03  0.00000000000E+00 0. -1.
         25    1    1    2    0    0  0.34984016475E+02  0.85592603671E+02 -0.97329719156E+02  0.18343404658E+03  0.12500000000E+03 0.  0.
         25    1    1    2    0    0 -0.72567099632E+00  0.34150497244E+02  0.67136414352E+02  0.14594204738E+03  0.12500000000E+03 0.  0.
         25    1    1    2    0    0 -0.34258345479E+02 -0.11974310092E+03 -0.23199540556E+03  0.29147712201E+03  0.12500000000E+03 0.  0.
</event>
<event>
 5    0  0.5625929E-005  0.3538458E+03  0.7546771E-02  0.1061048E+00
         21   -1    0    0  502  501  0.00000000000E+00  0.00000000000E+00  0.27715603443E+03  0.27715603443E+03  0.00000000000E+00 0. -1.
         21   -1    0    0  501  502 -0.00000000000E+00 -0.00000000000E+00 -0.45175590715E+03  0.45175590715E+03  0.00000000000E+00 0. -1.
         25    1    1    2    0    0 -0.67450806898E+02  0.16823132757E+03 -0.23240469153E+02  0.22139672611E+03  0.12500000000E+03 0.  0.
         25    1    1    2    0    0 -0.95417071985E+02 -0.19082314170E+03 -0.17008845705E+03  0.30012159579E+03  0.12500000000E+03 0.  0.
         25    1    1    2    0    0  0.16286787888E+03  0.22591814136E+02  0.18729053487E+02  0.20739361968E+03  0.12500000000E+03 0.  0.
</event>
<event>
 5    0  0.5510933E-005  0.3114450E+03  0.7546771E-02  0.1079655E+00
         21   -1    0    0  502  501  0.00000000000E+00  0.00000000000E+00  0.31571298691E+03  0.31571298691E+03  0.00000000000E+00 0. -1.
         21   -1    0    0  501  502 -0.00000000000E+00 -0.00000000000E+00 -0.30723470464E+03  0.30723470464E+03  0.00000000000E+00 0. -1.
         25    1    1    2    0    0  0.32130624182E+01 -0.95931347403E+02 -0.33234018487E+02  0.16106721320E+03  0.12500000000E+03 0.  0.
         25    1    1    2    0    0 -0.48309329116E+02 -0.12353321950E+03 -0.50703593076E+02  0.18918272107E+03  0.12500000000E+03 0.  0.
         25    1    1    2    0    0  0.45096266698E+02  0.21946456690E+03  0.92415893831E+02  0.27269775728E+03  0.12500000000E+03 0.  0.
</event>
<event>
 5    0  0.5510933E-005  0.4743534E+03  0.7546771E-02  0.1020699E+00
         21   -1    0    0  502  501  0.00000000000E+00  0.00000000000E+00  0.15590451793E+03  0.15590451793E+03  0.00000000000E+00 0.  1.
         21   -1    0    0  501  502 -0.00000000000E+00 -0.00000000000E+00 -0.14432628044E+04  0.14432628044E+04  0.00000000000E+00 0.  1.
         25    1    1    2    0    0  0.10109259496E+03  0.15500669754E+03 -0.71823876687E+02  0.23458571632E+03  0.12500000000E+03 0.  0.
         25    1    1    2    0    0 -0.31733060616E+03 -0.11828711417E+03 -0.81135612752E+03  0.88803959408E+03  0.12500000000E+03 0.  0.
         25    1    1    2    0    0  0.21623801120E+03 -0.36719583366E+02 -0.40417828226E+03  0.47654201194E+03  0.12500000000E+03 0.  0.
</event>
<event>
 5    0  0.5510933E-005  0.3400177E+03  0.7546771E-02  0.1066788E+00
         21   -1    0    0  502  501  0.00000000000E+00  0.00000000000E+00  0.25741723248E+03  0.25741723248E+03  0.00000000000E+00 0. -1.
         21   -1    0    0  501  502 -0.00000000000E+00 -0.00000000000E+00 -0.44912327222E+03  0.44912327222E+03  0.00000000000E+00 0. -1.
         25    1    1    2    0    0  0.72255173808E+02  0.10489701247E+03  0.13762865459E+03  0.22536823186E+03  0.12500000000E+03 0.  0.
         25    1    1    2    0    0  0.54245571922E+02 -0.64572642506E+02 -0.75523855742E+02  0.16864477762E+03  0.12500000000E+03 0.  0.
         25    1    1    2    0    0 -0.12650074573E+03 -0.40324369963E+02 -0.25381083859E+03  0.31252749522E+03  0.12500000000E+03 0.  0.
</event>
<event>
 5    0  0.5510933E-005  0.2254254E+03  0.7546771E-02  0.1129902E+00
         21   -1    0    0  502  501  0.00000000000E+00  0.00000000000E+00  0.57152086113E+03  0.57152086113E+03  0.00000000000E+00 0.  1.
         21   -1    0    0  501  502 -0.00000000000E+00 -0.00000000000E+00 -0.88914670743E+02  0.88914670743E+02  0.00000000000E+00 0.  1.
         25    1    1    2    0    0 -0.60873222967E+02 -0.10727082116E+02  0.30285800942E+03  0.33341954567E+03  0.12500000000E+03 0.  0.
         25    1    1    2    0    0  0.14291275264E+02  0.37846560754E+02  0.12149670027E+03  0.17894985579E+03  0.12500000000E+03 0.  0.
         25    1    1    2    0    0  0.46581947703E+02 -0.27119478638E+02  0.58251480702E+02  0.14806613042E+03  0.12500000000E+03 0.  0.
</event>
<event>
 5    0  0.5510933E-005  0.2086456E+03  0.7546771E-02  0.1142643E+00
         21   -1    0    0  502  501  0.00000000000E+00  0.00000000000E+00  0.22851196509E+03  0.22851196509E+03  0.00000000000E+00 0.  1.
         21   -1    0    0  501  502 -0.00000000000E+00 -0.00000000000E+00 -0.19050632964E+03  0.19050632964E+03  0.00000000000E+00 0.  1.
         25    1    1    2    0    0  0.14402209352E+01 -0.18741787135E+02  0.64639932509E+02  0.14197411629E+03  0.12500000000E+03 0.  0.
         25    1    1    2    0    0 -0.29222659638E+02  0.36919435188E+01 -0.63053518635E+02  0.14306760813E+03  0.12500000000E+03 0.  0.
         25    1    1    2    0    0  0.27782438703E+02  0.15049843616E+02  0.36419221574E+02  0.13397657031E+03  0.12500000000E+03 0.  0.
</event>
<event>
 5    0  0.5510933E-005  0.3137652E+03  0.7546771E-02  0.1078555E+00
         21   -1    0    0  502  501  0.00000000000E+00  0.00000000000E+00  0.16470132455E+04  0.16470132455E+04  0.00000000000E+00 0.  1.
         21   -1    0    0  501  502 -0.00000000000E+00 -0.00000000000E+00 -0.59774026115E+02  0.59774026115E+02  0.00000000000E+00 0.  1.
         25    1    1    2    0    0  0.93742164554E+02  0.18598346455E+03  0.88736301717E+03  0.92000846014E+03  0.12500000000E+03 0.  0.
         25    1    1    2    0    0  0.91603416147E+01 -0.12805456415E+03  0.27280800286E+03  0.32639100736E+03  0.12500000000E+03 0.  0.
         25    1    1    2    0    0 -0.10290250617E+03 -0.57928900395E+02  0.42706819940E+03  0.46038780416E+03  0.12500000000E+03 0.  0.
</event>
<event>
 5    0  0.5929499E-005  0.3243044E+03  0.7546771E-02  0.1073685E+00
         21   -1    0    0  502  501  0.00000000000E+00  0.00000000000E+00  0.68061654193E+03  0.68061654193E+03  0.00000000000E+00 0. -1.
         21   -1    0    0  501  502 -0.00000000000E+00 -0.00000000000E+00 -0.15452655502E+03  0.15452655502E+03  0.00000000000E+00 0. -1.
         25    1    1    2    0    0  0.33454265760E+02 -0.71126076876E+02 -0.85878942381E+01  0.14790827778E+03  0.12500000000E+03 0.  0.
         25    1    1    2    0    0  0.70434518098E+02  0.17382559633E+03  0.37402027404E+03  0.43668355209E+03  0.12500000000E+03 0.  0.
         25    1    1    2    0    0 -0.10388878386E+03 -0.10269951945E+03  0.16065760712E+03  0.25055126707E+03  0.12500000000E+03 0.  0.
</event>
<event>
 5    0  0.5510933E-005  0.3855888E+03  0.7546771E-02  0.1048887E+00
         21   -1    0    0  502  501  0.00000000000E+00  0.00000000000E+00  0.10932575857E+03  0.10932575857E+03  0.00000000000E+00 0.  1.
         21   -1    0    0  501  502 -0.00000000000E+00 -0.00000000000E+00 -0.13599608142E+04  0.13599608142E+04  0.00000000000E+00 0.  1.
         25    1    1    2    0    0  0.40964716848E+01 -0.11707040277E+03 -0.87193099180E+03  0.88860053722E+03  0.12500000000E+03 0.  0.
         25    1    1    2    0    0 -0.16250845227E+03  0.87680327598E+02 -0.26807024646E+03  0.34868824750E+03  0.12500000000E+03 0.  0.
         25    1    1    2    0    0  0.15841198058E+03  0.29390075174E+02 -0.11063381734E+03  0.23199778803E+03  0.12500000000E+03 0.  0.
</event>
<event>
 5    0  0.5510933E-005  0.4229596E+03  0.7546771E-02  0.1036107E+00
         21   -1    0    0  502  501  0.00000000000E+00  0.00000000000E+00  0.19618670276E+04  0.19618670276E+04  0.00000000000E+00 0. -1.
         21   -1    0    0  501  502 -0.00000000000E+00 -0.00000000000E+00 -0.91185987039E+02  0.91185987039E+02  0.00000000000E+00 0. -1.
         25    1    1    2    0    0 -0.25210240902E+03  0.80140504784E+01  0.96317137170E+03  0.10034659640E+04  0.12500000000E+03 0.  0.
         25    1    1    2    0    0  0.29941115492E+03  0.95041263396E+02  0.45672778091E+03  0.56824743492E+03  0.12500000000E+03 0.  0.
         25    1    1    2    0    0 -0.47308745899E+02 -0.10305531387E+03  0.45078188791E+03  0.48133961568E+03  0.12500000000E+03 0.  0.
</event>
<event>
 5    0  0.5510933E-005  0.2833400E+03  0.7546771E-02  0.1093879E+00
         21   -1    0    0  502  501  0.00000000000E+00  0.00000000000E+00  0.32878638108E+03  0.32878638108E+03  0.00000000000E+00 0.  1.
         21   -1    0    0  501  502 -0.00000000000E+00 -0.00000000000E+00 -0.24417535016E+03  0.24417535016E+03  0.00000000000E+00 0.  1.
         25    1    1    2    0    0 -0.97682465526E+02 -0.14800929816E+03  0.30411182068E+02  0.21908550022E+03  0.12500000000E+03 0.  0.
         25    1    1    2    0    0  0.24589691070E+01  0.14386031934E+03  0.48065503428E+02  0.19656329929E+03  0.12500000000E+03 0.  0.
         25    1    1    2    0    0  0.95223496419E+02  0.41489788204E+01  0.61343454157E+01  0.15731293173E+03  0.12500000000E+03 0.  0.
</event>
<event>
 5    0  0.5510933E-005  0.2666322E+03  0.7546771E-02  0.1103223E+00
         21   -1    0    0  502  501  0.00000000000E+00  0.00000000000E+00  0.12290415994E+04  0.12290415994E+04  0.00000000000E+00 0. -1.
         21   -1    0    0  501  502 -0.00000000000E+00 -0.00000000000E+00 -0.57844050420E+02  0.57844050420E+02  0.00000000000E+00 0. -1.
         25    1    1    2    0    0  0.22821199738E+02 -0.13150288079E+03  0.18957625104E+03  0.26339698133E+03  0.12500000000E+03 0.  0.
         25    1    1    2    0    0  0.10703924998E+02  0.69439652370E+02  0.56176336839E+03  0.57977540600E+03  0.12500000000E+03 0.  0.
         25    1    1    2    0    0 -0.33525124736E+02  0.62063228424E+02  0.41985792956E+03  0.44371326251E+03  0.12500000000E+03 0.  0.
</event>
<event>
 5    0  0.5510933E-005  0.2399724E+03  0.7546771E-02  0.1119811E+00
         21   -1    0    0  502  501  0.00000000000E+00  0.00000000000E+00  0.46996207217E+03  0.46996207217E+03  0.00000000000E+00 0. -1.
         21   -1    0    0  501  502 -0.00000000000E+00 -0.00000000000E+00 -0.12253491180E+03  0.12253491180E+03  0.00000000000E+00 0. -1.
         25    1    1    2    0    0  0.41651243571E+02 -0.19875618022E+02  0.14278287356E+03  0.19529929663E+03  0.12500000000E+03 0.  0.
         25    1    1    2    0    0 -0.18386118539E+02  0.17447915816E+02 -0.29351691325E+02  0.13087780906E+03  0.12500000000E+03 0.  0.
         25    1    1    2    0    0 -0.23265125032E+02  0.24277022057E+01  0.23399597814E+03  0.26631987827E+03  0.12500000000E+03 0.  0.
</event>
<event>
 5    0  0.5510933E-005  0.3723173E+03  0.7546771E-02  0.1053810E+00
         21   -1    0    0  502  501  0.00000000000E+00  0.00000000000E+00  0.12741205293E+04  0.12741205293E+04  0.00000000000E+00 0. -1.
         21   -1    0    0  501  502 -0.00000000000E+00 -0.00000000000E+00 -0.10879672669E+03  0.10879672669E+03  0.00000000000E+00 0. -1.
         25    1    1    2    0    0  0.15370934963E+03  0.86237785279E+02  0.32845836220E+03  0.39315825754E+03  0.12500000000E+03 0.  0.
         25    1    1    2    0    0 -0.28946622623E+03 -0.12378453010E+03  0.50248096350E+03  0.60599127444E+03  0.12500000000E+03 0.  0.
         25    1    1    2    0    0  0.13575687660E+03  0.37546744822E+02  0.33438447696E+03  0.38376772405E+03  0.12500000000E+03 0.  0.
</event>
<event>
 5    0  0.5510933E-005  0.3254464E+03  0.7546771E-02  0.1073170E+00
         21   -1    0    0  502  501  0.00000000000E+00  0.00000000000E+00  0.11592623798E+04  0.11592623798E+04  0.00000000000E+00 0. -1.
         21   -1    0    0  501  502 -0.00000000000E+00 -0.00000000000E+00 -0.91364453108E+02  0.91364453108E+02  0.00000000000E+00 0. -1.
         25    1    1    2    0    0 -0.22294367715E+02  0.85711596628E+02  0.69546515429E+02  0.16824159544E+03  0.12500000000E+03 0.  0.
         25    1    1    2    0    0 -0.39484951095E+02 -0.16927101626E+03  0.32132215991E+03  0.38611483882E+03  0.12500000000E+03 0.  0.
         25    1    1    2    0    0  0.61779318810E+02  0.83559419631E+02  0.67702925131E+03  0.69627039860E+03  0.12500000000E+03 0.  0.
</event>
<event>
 5    0  0.5510933E-005  0.3395670E+03  0.7546771E-02  0.1066980E+00
         21   -1    0    0  502  501  0.00000000000E+00  0.00000000000E+00  0.83014634847E+02  0.83014634847E+02  0.00000000000E+00 0.  1.
         21   -1    0    0  501  502 -0.00000000000E+00 -0.00000000000E+00 -0.13889808902E+04  0.13889808902E+04  0.00000000000E+00 0.  1.
         25    1    1    2    0    0 -0.68799621730E+02 -0.48698591813E+02 -0.24000803537E+03  0.28343217502E+03  0.12500000000E+03 0.  0.
         25    1    1    2    0    0 -0.94982436010E+02 -0.16484654406E+03 -0.42052137073E+03  0.47818330113E+03  0.12500000000E+03 0.  0.
         25    1    1    2    0    0  0.16378205774E+03  0.21354513587E+03 -0.64543684922E+03  0.71038004887E+03  0.12500000000E+03 0.  0.
</event>
<event>
 5    0  0.5510933E-005  0.2351879E+03  0.7546771E-02  0.1123041E+00
         21   -1    0    0  502  501  0.00000000000E+00  0.00000000000E+00  0.20603412859E+03  0.20603412859E+03  0.00000000000E+00 0. -1.
         21   -1    0    0  501  502 -0.00000000000E+00 -0.00000000000E+00 -0.26846696319E+03  0.26846696319E+03  0.00000000000E+00 0. -1.
         25    1    1    2    0    0 -0.10085872020E+03 -0.72067995416E+02 -0.11306746130E+02  0.17640612209E+03  0.12500000000E+03 0.  0.
         25    1    1    2    0    0  0.16364267089E+02  0.66710414260E+02 -0.21464342200E+02  0.14423517807E+03  0.12500000000E+03 0.  0.
         25    1    1    2    0    0  0.84494453113E+02  0.53575811556E+01 -0.29661746270E+02  0.15385979161E+03  0.12500000000E+03 0.  0.
</event>
<event>
 5    0  0.5510933E-005  0.2965350E+03  0.7546771E-02  0.1086986E+00
         21   -1    0    0  502  501  0.00000000000E+00  0.00000000000E+00  0.34218217175E+03  0.34218217175E+03  0.00000000000E+00 0.  1.
         21   -1    0    0  501  502 -0.00000000000E+00 -0.00000000000E+00 -0.25697720776E+03  0.25697720776E+03  0.00000000000E+00 0.  1.
         25    1    1    2    0    0  0.18304878977E+02 -0.11719508798E+02 -0.15495794556E+03  0.20027326425E+03  0.12500000000E+03 0.  0.
         25    1    1    2    0    0  0.52729042531E+02 -0.15382470499E+02  0.25174016378E+02  0.13883696707E+03  0.12500000000E+03 0.  0.
         25    1    1    2    0    0 -0.71033921508E+02  0.27101979297E+02  0.21498889317E+03  0.26004914819E+03  0.12500000000E+03 0.  0.
</event>
<event>
 5    0  0.5510933E-005  0.3341420E+03  0.7546771E-02  0.1069319E+00
         21   -1    0    0  502  501  0.00000000000E+00  0.00000000000E+00  0.60122498593E+02  0.60122498593E+02  0.00000000000E+00 0.  1.
         21   -1    0    0  501  502 -0.00000000000E+00 -0.00000000000E+00 -0.18570565009E+04  0.18570565009E+04  0.00000000000E+00 0.  1.
         25    1    1    2    0    0  0.12170271349E+03 -0.19903501074E+03 -0.45684760356E+03  0.52797842650E+03  0.12500000000E+03 0.  0.
         25    1    1    2    0    0 -0.17985676325E+02  0.26406282100E+02 -0.48593722323E+03  0.50277307129E+03  0.12500000000E+03 0.  0.
         25    1    1    2    0    0 -0.10371703716E+03  0.17262872864E+03 -0.85414917550E+03  0.88642750169E+03  0.12500000000E+03 0.  0.
</event>
<event>
 5    0  0.5510933E-005  0.2782445E+03  0.7546771E-02  0.1096652E+00
         21   -1    0    0  502  501  0.00000000000E+00  0.00000000000E+00  0.49264935230E+02  0.49264935230E+02  0.00000000000E+00 0.  1.
         21   -1    0    0  501  502 -0.00000000000E+00 -0.00000000000E+00 -0.15715029849E+04  0.15715029849E+04  0.00000000000E+00 0.  1.
         25    1    1    2    0    0 -0.22937165416E+02 -0.83879641557E+02 -0.35628632283E+03  0.38746206480E+03  0.12500000000E+03 0.  0.
         25    1    1    2    0    0 -0.22763567598E+02 -0.36001512299E+02 -0.14243908033E+03  0.19423743332E+03  0.12500000000E+03 0.  0.
         25    1    1    2    0    0  0.45700733015E+02  0.11988115386E+03 -0.10235126465E+04  0.10390684220E+04  0.12500000000E+03 0.  0.
</event>
<event>
 5    0  0.5813147E-005  0.3038078E+03  0.7546771E-02  0.1083352E+00
         21   -1    0    0  502  501  0.00000000000E+00  0.00000000000E+00  0.40230148122E+03  0.40230148122E+03  0.00000000000E+00 0.  1.
         21   -1    0    0  501  502 -0.00000000000E+00 -0.00000000000E+00 -0.22942781331E+03  0.22942781331E+03  0.00000000000E+00 0.  1.
         25    1    1    2    0    0  0.24136425261E+02  0.10898456388E+03  0.92735066769E+02  0.19153327334E+03  0.12500000000E+03 0.  0.
         25    1    1    2    0    0  0.11084676387E+03 -0.16044595805E+03  0.90964239827E+02  0.24885619028E+03  0.12500000000E+03 0.  0.
         25    1    1    2    0    0 -0.13498318913E+03  0.51461394178E+02 -0.10825638684E+02  0.19133983090E+03  0.12500000000E+03 0.  0.
</event>
<event>
 5    0  0.5510933E-005  0.2678885E+03  0.7546771E-02  0.1102494E+00
         21   -1    0    0  502  501  0.00000000000E+00  0.00000000000E+00  0.73081353239E+03  0.73081353239E+03  0.00000000000E+00 0.  1.
         21   -1    0    0  501  502 -0.00000000000E+00 -0.00000000000E+00 -0.98197761152E+02  0.98197761152E+02  0.00000000000E+00 0.  1.
         25    1    1    2    0    0 -0.84021547900E+02 -0.83338235918E+02  0.23099464704E+03  0.28807708871E+03  0.12500000000E+03 0.  0.
         25    1    1    2    0    0  0.11722648793E+03 -0.46542430516E+02  0.17309114215E+03  0.24797941608E+03  0.12500000000E+03 0.  0.
         25    1    1    2    0    0 -0.33204940032E+02  0.12988066643E+03  0.22852998205E+03  0.29295478875E+03  0.12500000000E+03 0.  0.
</event>
<event>
 5    0  0.5510933E-005  0.2430369E+03  0.7546771E-02  0.1117786E+00
         21   -1    0    0  502  501  0.00000000000E+00  0.00000000000E+00  0.31189771815E+02  0.31189771815E+02  0.00000000000E+00 0.  1.
         21   -1    0    0  501  502 -0.00000000000E+00 -0.00000000000E+00 -0.18937915216E+04  0.18937915216E+04  0.00000000000E+00 0.  1.
         25    1    1    2    0    0  0.61718737355E+01 -0.46112443886E+02 -0.60745063947E+03  0.62192099892E+03  0.12500000000E+03 0.  0.
         25    1    1    2    0    0 -0.66190471719E+02  0.12323251593E+03 -0.58313493614E+03  0.61256737203E+03  0.12500000000E+03 0.  0.
         25    1    1    2    0    0  0.60018597984E+02 -0.77120072048E+02 -0.67201617417E+03  0.69049292245E+03  0.12500000000E+03 0.  0.
</event>
<event>
 5    0  0.5510933E-005  0.3676925E+03  0.7546771E-02  0.1055579E+00
         21   -1    0    0  502  501  0.00000000000E+00  0.00000000000E+00  0.36580859414E+03  0.36580859414E+03  0.00000000000E+00 0. -1.
         21   -1    0    0  501  502 -0.00000000000E+00 -0.00000000000E+00 -0.36958603779E+03  0.36958603779E+03  0.00000000000E+00 0. -1.
         25    1    1    2    0    0  0.17698606157E+03 -0.49009130304E+02  0.12583383537E+03  0.25531375789E+03  0.12500000000E+03 0.  0.
         25    1    1    2    0    0  0.80058219723E+02 -0.53715816903E+02 -0.56631241271E+02  0.16771047975E+03  0.12500000000E+03 0.  0.
         25    1    1    2    0    0 -0.25704428129E+03  0.10272494721E+03 -0.72980037748E+02  0.31237039430E+03  0.12500000000E+03 0.  0.
</event>
<event>
 5    0  0.5510933E-005  0.3727589E+03  0.7546771E-02  0.1053643E+00
         21   -1    0    0  502  501  0.00000000000E+00  0.00000000000E+00  0.80733767504E+03  0.80733767504E+03  0.00000000000E+00 0. -1.
         21   -1    0    0  501  502 -0.00000000000E+00 -0.00000000000E+00 -0.17210790696E+03  0.17210790696E+03  0.00000000000E+00 0. -1.
         25    1    1    2    0    0 -0.10710835059E+03  0.99349757906E+02 -0.58310085779E+02  0.20091699596E+03  0.12500000000E+03 0.  0.
         25    1    1    2    0    0 -0.27143090821E+02  0.45383016828E+01  0.37769460502E+03  0.39879262559E+03  0.12500000000E+03 0.  0.
         25    1    1    2    0    0  0.13425144141E+03 -0.10388805959E+03  0.31584524884E+03  0.37973596045E+03  0.12500000000E+03 0.  0.
</event>
<event>
 5    0  0.5510933E-005  0.3763890E+03  0.7546771E-02  0.1052277E+00
         21   -1    0    0  502  501  0.00000000000E+00  0.00000000000E+00  0.11136006221E+04  0.11136006221E+04  0.00000000000E+00 0. -1.
         21   -1    0    0  501  502 -0.00000000000E+00 -0.00000000000E+00 -0.12721674098E+03  0.12721674098E+03  0.00000000000E+00 0. -1.
         25    1    1    2    0    0 -0.28191908179E+03 -0.37792505096E+02  0.38663442587E+03  0.49600183607E+03  0.12500000000E+03 0.  0.
         25    1    1    2    0    0  0.22434236592E+03 -0.35818000963E+01  0.21790253126E+03  0.33682167324E+03  0.12500000000E+03 0.  0.
         25    1    1    2    0    0  0.57576715872E+02  0.41374305192E+02  0.38184692398E+03  0.40799385375E+03  0.12500000000E+03 0.  0.
</event>
<event>
 5    0  0.5510933E-005  0.3427099E+03  0.7546771E-02  0.1065648E+00
         21   -1    0    0  502  501  0.00000000000E+00  0.00000000000E+00  0.18482731046E+03  0.18482731046E+03  0.00000000000E+00 0.  1.
         21   -1    0    0  501  502 -0.00000000000E+00 -0.00000000000E+00 -0.63545842998E+03  0.63545842998E+03  0.00000000000E+00 0.  1.
         25    1    1    2    0    0  0.22607357752E+03  0.48172395178E+02 -0.14604978229E+03  0.30064161558E+03  0.12500000000E+03 0.  0.
         25    1    1    2    0    0 -0.20738140401E+03 -0.12369668185E+03 -0.22061814505E+03  0.35015037021E+03  0.12500000000E+03 0.  0.
         25    1    1    2    0    0 -0.18692173503E+02  0.75524286674E+02 -0.83963192176E+02  0.16949375466E+03  0.12500000000E+03 0.  0.
</event>
<event>
 5    0  0.5510933E-005  0.2707323E+03  0.7546771E-02  0.1100861E+00
         21   -1    0    0  502  501  0.00000000000E+00  0.00000000000E+00  0.56842070344E+03  0.56842070344E+03  0.00000000000E+00 0.  1.
         21   -1    0    0  501  502 -0.00000000000E+00 -0.00000000000E+00 -0.12894672379E+03  0.12894672379E+03  0.00000000000E+00 0.  1.
         25    1    1    2    0    0 -0.16303179970E+03 -0.29425021341E+02  0.13331115542E+03  0.24666184089E+03  0.12500000000E+03 0.  0.
         25    1    1    2    0    0  0.11874854508E+03  0.90776202089E+01  0.25320886421E+03  0.30646916495E+03  0.12500000000E+03 0.  0.
         25    1    1    2    0    0  0.44283254620E+02  0.20347401132E+02  0.52953960025E+02  0.14423642139E+03  0.12500000000E+03 0.  0.
</event>
<event>
 5    0  0.5510933E-005  0.2728705E+03  0.7546771E-02  0.1099648E+00
         21   -1    0    0  502  501  0.00000000000E+00  0.00000000000E+00  0.52311335400E+03  0.52311335400E+03  0.00000000000E+00 0.  1.
         21   -1    0    0  501  502 -0.00000000000E+00 -0.00000000000E+00 -0.14233681117E+03  0.14233681117E+03  0.00000000000E+00 0.  1.
         25    1    1    2    0    0 -0.37607167502E+02  0.43324006556E+02  0.20164154368E+02  0.13900669665E+03  0.12500000000E+03 0.  0.
         25    1    1    2    0    0  0.19095355909E+02 -0.10391979929E+03  0.28716289859E+02  0.16617335107E+03  0.12500000000E+03 0.  0.
         25    1    1    2    0    0  0.18511811594E+02  0.60595792733E+02  0.33189609860E+03  0.36027011745E+03  0.12500000000E+03 0.  0.
</event>
<event>
 5    0  0.5510933E-005  0.3887496E+03  0.7546771E-02  0.1047746E+00
         21   -1    0    0  502  501  0.00000000000E+00  0.00000000000E+00  0.14702719100E+03  0.14702719100E+03  0.00000000000E+00 0. -1.
         21   -1    0    0  501  502 -0.00000000000E+00 -0.00000000000E+00 -0.10278793606E+04  0.10278793606E+04  0.00000000000E+00 0. -1.
         25    1    1    2    0    0  0.20661691907E+03 -0.26706837798E+02 -0.74143806127E+03  0.78023022573E+03  0.12500000000E+03 0.  0.
         25    1    1    2    0    0 -0.13729087208E+03  0.90895236677E+02 -0.44431556787E+02  0.21144713487E+03  0.12500000000E+03 0.  0.
         25    1    1    2    0    0 -0.69326046985E+02 -0.64188398879E+02 -0.94982551546E+02  0.18322919101E+03  0.12500000000E+03 0.  0.
</event>
<event>
 5    0  0.5510933E-005  0.4295106E+03  0.7546771E-02  0.1034015E+00
         21   -1    0    0  502  501  0.00000000000E+00  0.00000000000E+00  0.68377438707E+03  0.68377438707E+03  0.00000000000E+00 0.  1.
         21   -1    0    0  501  502 -0.00000000000E+00 -0.00000000000E+00 -0.26979564490E+03  0.26979564490E+03  0.00000000000E+00 0.  1.
         25    1    1    2    0    0 -0.72008134839E+02  0.49937913462E+02  0.12967151685E+03  0.20029645271E+03  0.12500000000E+03 0.  0.
         25    1    1    2    0    0 -0.22767958059E+03  0.13682457301E+03  0.18880779180E+02  0.29417756377E+03  0.12500000000E+03 0.  0.
         25    1    1    2    0    0  0.29968771543E+03 -0.18676248648E+03  0.26542644614E+03  0.45909601550E+03  0.12500000000E+03 0.  0.
</event>
<event>
 5    0  0.5510933E-005  0.2736222E+03  0.7546771E-02  0.1099224E+00
         21   -1    0    0  502  501  0.00000000000E+00  0.00000000000E+00  0.44293431191E+02  0.44293431191E+02  0.00000000000E+00 0. -1.
         21   -1    0    0  501  502 -0.00000000000E+00 -0.00000000000E+00 -0.16902983977E+04  0.16902983977E+04  0.00000000000E+00 0. -1.
         25    1    1    2    0    0  0.14469888076E+02  0.71187098810E+02 -0.37073242205E+03  0.39792525612E+03  0.12500000000E+03 0.  0.
         25    1    1    2    0    0  0.12280405291E+03 -0.93659691446E+02 -0.47594874153E+03  0.51575689794E+03  0.12500000000E+03 0.  0.
         25    1    1    2    0    0 -0.13727394099E+03  0.22472592636E+02 -0.79932380289E+03  0.82090967479E+03  0.12500000000E+03 0.  0.
</event>
<event>
 5    0  0.5510933E-005  0.3080499E+03  0.7546771E-02  0.1081284E+00
         21   -1    0    0  502  501  0.00000000000E+00  0.00000000000E+00  0.44511750792E+03  0.44511750792E+03  0.00000000000E+00 0. -1.
         21   -1    0    0  501  502 -0.00000000000E+00 -0.00000000000E+00 -0.21319033912E+03  0.21319033912E+03  0.00000000000E+00 0. -1.
         25    1    1    2    0    0 -0.22322309028E+02  0.24156482020E+02  0.13945121457E+02  0.13000495189E+03  0.12500000000E+03 0.  0.
         25    1    1    2    0    0  0.96421905792E+02 -0.91121855158E+01  0.31532468310E+03  0.35275327300E+03  0.12500000000E+03 0.  0.
         25    1    1    2    0    0 -0.74099596763E+02 -0.15044296504E+02 -0.97342635764E+02  0.17554962214E+03  0.12500000000E+03 0.  0.
</event>
<event>
 5    0  0.5510933E-005  0.2716774E+03  0.7546771E-02  0.1100323E+00
         21   -1    0    0  502  501  0.00000000000E+00  0.00000000000E+00  0.50441713189E+03  0.50441713189E+03  0.00000000000E+00 0. -1.
         21   -1    0    0  501  502 -0.00000000000E+00 -0.00000000000E+00 -0.14632455435E+03  0.14632455435E+03  0.00000000000E+00 0. -1.
         25    1    1    2    0    0 -0.11215616300E+03 -0.74848156524E+01  0.17077162537E+03  0.23963091494E+03  0.12500000000E+03 0.  0.
         25    1    1    2    0    0  0.48762805676E+02 -0.11733261026E+03  0.88367201682E+02  0.19894349696E+03  0.12500000000E+03 0.  0.
         25    1    1    2    0    0  0.63393357325E+02  0.12481742592E+03  0.98953750482E+02  0.21216727434E+03  0.12500000000E+03 0.  0.
</event>
<event>
 5    0  0.5510933E-005  0.3978214E+03  0.7546771E-02  0.1044537E+00
         21   -1    0    0  502  501  0.00000000000E+00  0.00000000000E+00  0.11130823768E+04  0.11130823768E+04  0.00000000000E+00 0.  1.
         21   -1    0    0  501  502 -0.00000000000E+00 -0.00000000000E+00 -0.14218345307E+03  0.14218345307E+03  0.00000000000E+00 0.  1.
         25    1    1    2    0    0  0.61905717737E+01  0.30841458356E+03  0.45204737494E+03  0.56136414894E+03  0.12500000000E+03 0.  0.
         25    1    1    2    0    0 -0.30055924254E+02 -0.12431861941E+02  0.89623903204E+02  0.15721117581E+03  0.12500000000E+03 0.  0.
         25    1    1    2    0    0  0.23865352480E+02 -0.29598272161E+03  0.42922764556E+03  0.53669050509E+03  0.12500000000E+03 0.  0.
</event>
<event>
 5    0  0.5510933E-005  0.6501986E+03  0.7546771E-02  0.9806407E-01
         21   -1    0    0  502  501  0.00000000000E+00  0.00000000000E+00  0.10660645621E+04  0.10660645621E+04  0.00000000000E+00 0.  1.
         21   -1    0    0  501  502 -0.00000000000E+00 -0.00000000000E+00 -0.39655964477E+03  0.39655964477E+03  0.00000000000E+00 0.  1.
         25    1    1    2    0    0 -0.12816310841E+03  0.60457492788E+02  0.50548743868E+02  0.19560436166E+03  0.12500000000E+03 0.  0.
         25    1    1    2    0    0  0.77513401128E+02 -0.53369683633E+03  0.12043571864E+03  0.56654249866E+03  0.12500000000E+03 0.  0.
         25    1    1    2    0    0  0.50649707285E+02  0.47323934355E+03  0.49852045477E+03  0.70047734650E+03  0.12500000000E+03 0.  0.
</event>
<event>
 5    0  0.5510933E-005  0.3299192E+03  0.7546771E-02  0.1071173E+00
         21   -1    0    0  502  501  0.00000000000E+00  0.00000000000E+00  0.77433340939E+03  0.77433340939E+03  0.00000000000E+00 0.  1.
         21   -1    0    0  501  502 -0.00000000000E+00 -0.00000000000E+00 -0.14056824393E+03  0.14056824393E+03  0.00000000000E+00 0.  1.
         25    1    1    2    0    0  0.16525757267E+03 -0.44708430166E+02  0.12235121786E+02  0.21232900710E+03  0.12500000000E+03 0.  0.
         25    1    1    2    0    0 -0.94267163417E+02  0.64931207843E+02  0.23551159513E+03  0.29016042337E+03  0.12500000000E+03 0.  0.
         25    1    1    2    0    0 -0.70990409250E+02 -0.20222777678E+02  0.38601844854E+03  0.41241222285E+03  0.12500000000E+03 0.  0.
</event>
<event>
 5    0  0.5510933E-005  0.2788020E+03  0.7546771E-02  0.1096345E+00
         21   -1    0    0  502  501  0.00000000000E+00  0.00000000000E+00  0.64492155555E+02  0.64492155555E+02  0.00000000000E+00 0. -1.
         21   -1    0    0  501  502 -0.00000000000E+00 -0.00000000000E+00 -0.12052713375E+04  0.12052713375E+04  0.00000000000E+00 0. -1.
         25    1    1    2    0    0 -0.36033022513E+01  0.12515398788E+02 -0.12339435887E+03  0.17612718925E+03  0.12500000000E+03 0.  0.
         25    1    1    2    0    0  0.12932680432E+03  0.61817497576E+02 -0.67154276995E+03  0.69795524011E+03  0.12500000000E+03 0.  0.
         25    1    1    2    0    0 -0.12572350206E+03 -0.74332896364E+02 -0.34584205310E+03  0.39568106367E+03  0.12500000000E+03 0.  0.
</event>
<event>
 5    0  0.5510933E-005  0.3097611E+03  0.7546771E-02  0.1080460E+00
         21   -1    0    0  502  501  0.00000000000E+00  0.00000000000E+00  0.58768548909E+02  0.58768548909E+02  0.00000000000E+00 0.  1.
         21   -1    0    0  501  502 -0.00000000000E+00 -0.00000000000E+00 -0.16327085253E+04  0.16327085253E+04  0.00000000000E+00 0.  1.
         25    1    1    2    0    0  0.56952800338E+02  0.85032182114E+02 -0.64925590719E+03  0.66905330616E+03  0.12500000000E+03 0.  0.
         25    1    1    2    0    0  0.28510025008E+02  0.99332109542E+02 -0.18914291140E+03  0.24915804311E+03  0.12500000000E+03 0.  0.
         25    1    1    2    0    0 -0.85462825346E+02 -0.18436429166E+03 -0.73554115784E+03  0.77326572498E+03  0.12500000000E+03 0.  0.
</event>
<event>
 5    0  0.5510933E-005  0.2445974E+03  0.7546771E-02  0.1116768E+00
         21   -1    0    0  502  501  0.00000000000E+00  0.00000000000E+00  0.11057868773E+04  0.11057868773E+04  0.00000000000E+00 0.  1.
         21   -1    0    0  501  502 -0.00000000000E+00 -0.00000000000E+00 -0.54104356516E+02  0.54104356516E+02  0.00000000000E+00 0.  1.
         25    1    1    2    0    0 -0.78658818233E+02  0.10219585548E+02  0.23467561216E+03  0.27746944437E+03  0.12500000000E+03 0.  0.
         25    1    1    2    0    0 -0.21458663382E+02 -0.79312609695E+02  0.27512935251E+03  0.31316469294E+03  0.12500000000E+03 0.  0.
         25    1    1    2    0    0  0.10011748161E+03  0.69093024147E+02  0.54187755615E+03  0.56925709655E+03  0.12500000000E+03 0.  0.
</event>
<event>
 5    0  0.5510933E-005  0.3792828E+03  0.7546771E-02  0.1051199E+00
         21   -1    0    0  502  501  0.00000000000E+00  0.00000000000E+00  0.24977270780E+03  0.24977270780E+03  0.00000000000E+00 0. -1.
         21   -1    0    0  501  502 -0.00000000000E+00 -0.00000000000E+00 -0.57594543763E+03  0.57594543763E+03  0.00000000000E+00 0. -1.
         25    1    1    2    0    0 -0.17323385757E+03  0.15136021499E+03  0.73397848253E+02  0.27190463074E+03  0.12500000000E+03 0.  0.
         25    1    1    2    0    0  0.95210660109E+02 -0.48764973080E+02 -0.31492502321E+03  0.35531093797E+03  0.12500000000E+03 0.  0.
         25    1    1    2    0    0  0.78023197462E+02 -0.10259524191E+03 -0.84645554877E+02  0.19850257672E+03  0.12500000000E+03 0.  0.
</event>
<event>
 5    0  0.5510933E-005  0.3434710E+03  0.7546771E-02  0.1065327E+00
         21   -1    0    0  502  501  0.00000000000E+00  0.00000000000E+00  0.15601636533E+03  0.15601636533E+03  0.00000000000E+00 0. -1.
         21   -1    0    0  501  502 -0.00000000000E+00 -0.00000000000E+00 -0.75615366724E+03  0.75615366724E+03  0.00000000000E+00 0. -1.
         25    1    1    2    0    0  0.16932970914E+03 -0.10006752722E+01 -0.26855766507E+03  0.34120634698E+03  0.12500000000E+03 0.  0.
         25    1    1    2    0    0  0.68816473850E+02 -0.74240344512E+02 -0.37026156700E+02  0.16505536073E+03  0.12500000000E+03 0.  0.
         25    1    1    2    0    0 -0.23814618299E+03  0.75241019785E+02 -0.29455348013E+03  0.40590832486E+03  0.12500000000E+03 0.  0.
</event>
<event>
 5    0  0.5510933E-005  0.2656537E+03  0.7546771E-02  0.1103793E+00
         21   -1    0    0  502  501  0.00000000000E+00  0.00000000000E+00  0.79247708091E+02  0.79247708091E+02  0.00000000000E+00 0. -1.
         21   -1    0    0  501  502 -0.00000000000E+00 -0.00000000000E+00 -0.89052309820E+03  0.89052309820E+03  0.00000000000E+00 0. -1.
         25    1    1    2    0    0 -0.68834155971E+02 -0.59052768604E+01 -0.31347426357E+03  0.34447659898E+03  0.12500000000E+03 0.  0.
         25    1    1    2    0    0  0.12594212871E+03 -0.10373553818E+02 -0.44141706369E+03  0.47586033089E+03  0.12500000000E+03 0.  0.
         25    1    1    2    0    0 -0.57107972735E+02  0.16278830678E+02 -0.56384062848E+02  0.14943387642E+03  0.12500000000E+03 0.  0.
</event>
<event>
 5    0  0.5510933E-005  0.2268254E+03  0.7546771E-02  0.1128894E+00
         21   -1    0    0  502  501  0.00000000000E+00  0.00000000000E+00  0.21867105547E+03  0.21867105547E+03  0.00000000000E+00 0. -1.
         21   -1    0    0  501  502 -0.00000000000E+00 -0.00000000000E+00 -0.23528379646E+03  0.23528379646E+03  0.00000000000E+00 0. -1.
         25    1    1    2    0    0  0.36866726723E+02  0.67199479201E+02 -0.64675504391E+02  0.16025868592E+03  0.12500000000E+03 0.  0.
         25    1    1    2    0    0 -0.40159628872E+01  0.20309031859E+02  0.53461307418E+02  0.13751980266E+03  0.12500000000E+03 0.  0.
         25    1    1    2    0    0 -0.32850763836E+02 -0.87508511060E+02 -0.53985440191E+01  0.15617636335E+03  0.12500000000E+03 0.  0.
</event>
<event>
 5    0  0.5510933E-005  0.3678704E+03  0.7546771E-02  0.1055510E+00
         21   -1    0    0  502  501  0.00000000000E+00  0.00000000000E+00  0.62557233586E+02  0.62557233586E+02  0.00000000000E+00 0. -1.
         21   -1    0    0  501  502 -0.00000000000E+00 -0.00000000000E+00 -0.21632768864E+04  0.21632768864E+04  0.00000000000E+00 0. -1.
         25    1    1    2    0    0 -0.52225545557E+02  0.29980040476E+02 -0.15584497733E+03  0.20865993241E+03  0.12500000000E+03 0.  0.
         25    1    1    2    0    0 -0.13544982407E+03 -0.13946409413E+03 -0.13794149972E+04  0.13986449238E+04  0.12500000000E+03 0.  0.
         25    1    1    2    0    0  0.18767536963E+03  0.10948405365E+03 -0.56545967829E+03  0.61852926378E+03  0.12500000000E+03 0.  0.
</event>
<event>
 5    0  0.5510933E-005  0.2424794E+03  0.7546771E-02  0.1118152E+00
         21   -1    0    0  502  501  0.00000000000E+00  0.00000000000E+00  0.35433167201E+03  0.35433167201E+03  0.00000000000E+00 0.  1.
         21   -1    0    0  501  502 -0.00000000000E+00 -0.00000000000E+00 -0.16593563995E+03  0.16593563995E+03  0.00000000000E+00 0.  1.
         25    1    1    2    0    0 -0.38977186072E+02 -0.68759151081E+02  0.64324092447E+02  0.16127501592E+03  0.12500000000E+03 0.  0.
         25    1    1    2    0    0  0.61140915855E+02  0.10226974740E+03  0.14567588430E+03  0.22592869692E+03  0.12500000000E+03 0.  0.
         25    1    1    2    0    0 -0.22163729783E+02 -0.33510596319E+02 -0.21603944692E+02  0.13306359912E+03  0.12500000000E+03 0.  0.
</event>
<event>
 5    0  0.5510933E-005  0.3337338E+03  0.7546771E-02  0.1069497E+00
         21   -1    0    0  502  501  0.00000000000E+00  0.00000000000E+00  0.25605215712E+03  0.25605215712E+03  0.00000000000E+00 0.  1.
         21   -1    0    0  501  502 -0.00000000000E+00 -0.00000000000E+00 -0.43498266129E+03  0.43498266129E+03  0.00000000000E+00 0.  1.
         25    1    1    2    0    0  0.11809263962E+02 -0.63482035212E+02 -0.77835747627E+02  0.16078815603E+03  0.12500000000E+03 0.  0.
         25    1    1    2    0    0  0.14142135294E+03 -0.99255741397E+02 -0.16103404036E+03  0.26722399485E+03  0.12500000000E+03 0.  0.
         25    1    1    2    0    0 -0.15323061690E+03  0.16273777661E+03  0.59939283816E+02  0.26302266753E+03  0.12500000000E+03 0.  0.
</event>
<event>
 5    0  0.5510933E-005  0.2396266E+03  0.7546771E-02  0.1120042E+00
         21   -1    0    0  502  501  0.00000000000E+00  0.00000000000E+00  0.26539350727E+03  0.26539350727E+03  0.00000000000E+00 0. -1.
         21   -1    0    0  501  502 -0.00000000000E+00 -0.00000000000E+00 -0.21636141654E+03  0.21636141654E+03  0.00000000000E+00 0. -1.
         25    1    1    2    0    0  0.34929257787E+02  0.12698855164E+03  0.43868839397E+02  0.18680369473E+03  0.12500000000E+03 0.  0.
         25    1    1    2    0    0 -0.58597599300E+02 -0.67199101041E+02  0.13514708836E+02  0.15413320596E+03  0.12500000000E+03 0.  0.
         25    1    1    2    0    0  0.23668341513E+02 -0.59789450596E+02 -0.83514575013E+01  0.14081802312E+03  0.12500000000E+03 0.  0.
</event>
<event>
 5    0  0.5510933E-005  0.3065424E+03  0.7546771E-02  0.1082015E+00
         21   -1    0    0  502  501  0.00000000000E+00  0.00000000000E+00  0.31305959117E+03  0.31305959117E+03  0.00000000000E+00 0. -1.
         21   -1    0    0  501  502 -0.00000000000E+00 -0.00000000000E+00 -0.30016094270E+03  0.30016094270E+03  0.00000000000E+00 0. -1.
         25    1    1    2    0    0 -0.32941131216E+02  0.10291771435E+03  0.42463353560E+02  0.17060278558E+03  0.12500000000E+03 0.  0.
         25    1    1    2    0    0  0.44105584113E+02 -0.13809261262E+03 -0.16640970811E+03  0.25363766117E+03  0.12500000000E+03 0.  0.
         25    1    1    2    0    0 -0.11164452897E+02  0.35174898271E+02  0.13684500301E+03  0.18898008712E+03  0.12500000000E+03 0.  0.
</event>
<event>
 5    0  0.5510933E-005  0.3520276E+03  0.7546771E-02  0.1061786E+00
         21   -1    0    0  502  501  0.00000000000E+00  0.00000000000E+00  0.31707570603E+03  0.31707570603E+03  0.00000000000E+00 0.  1.
         21   -1    0    0  501  502 -0.00000000000E+00 -0.00000000000E+00 -0.39083220981E+03  0.39083220981E+03  0.00000000000E+00 0.  1.
         25    1    1    2    0    0 -0.28352788944E+02 -0.35433755182E+02  0.25291272529E+03  0.28574337833E+03  0.12500000000E+03 0.  0.
         25    1    1    2    0    0  0.12070205743E+02 -0.12163810842E+02 -0.11198601050E+03  0.16869948047E+03  0.12500000000E+03 0.  0.
         25    1    1    2    0    0  0.16282583202E+02  0.47597566024E+02 -0.21468321856E+03  0.25346505704E+03  0.12500000000E+03 0.  0.
</event>
<event>
 5    0  0.5510933E-005  0.4590620E+03  0.7546771E-02  0.1025054E+00
         21   -1    0    0  502  501  0.00000000000E+00  0.00000000000E+00  0.63523369845E+03  0.63523369845E+03  0.00000000000E+00 0. -1.
         21   -1    0    0  501  502 -0.00000000000E+00 -0.00000000000E+00 -0.33174861927E+03  0.33174861927E+03  0.00000000000E+00 0. -1.
         25    1    1    2    0    0 -0.13027481493E+03  0.21220677406E+03 -0.17558901629E+03  0.32933227143E+03  0.12500000000E+03 0.  0.
         25    1    1    2    0    0  0.48909829811E+02 -0.53038845494E+02  0.43878941563E+02  0.15084976664E+03  0.12500000000E+03 0.  0.
         25    1    1    2    0    0  0.81364985116E+02 -0.15916792856E+03  0.43519515390E+03  0.48680027965E+03  0.12500000000E+03 0.  0.
</event>
<event>
 5    0  0.5510933E-005  0.2132237E+03  0.7546771E-02  0.1139038E+00
         21   -1    0    0  502  501  0.00000000000E+00  0.00000000000E+00  0.11695235138E+04  0.11695235138E+04  0.00000000000E+00 0.  1.
         21   -1    0    0  501  502 -0.00000000000E+00 -0.00000000000E+00 -0.38874239479E+02  0.38874239479E+02  0.00000000000E+00 0.  1.
         25    1    1    2    0    0 -0.58038961233E+01 -0.86643951303E+02  0.41762807652E+03  0.44449867244E+03  0.12500000000E+03 0.  0.
         25    1    1    2    0    0  0.18120814648E+02  0.67844924226E+02  0.31472449789E+03  0.34584361674E+03  0.12500000000E+03 0.  0.
         25    1    1    2    0    0 -0.12316918525E+02  0.18799027076E+02  0.39829669996E+03  0.41805546414E+03  0.12500000000E+03 0.  0.
</event>
<event>
 5    0  0.5510933E-005  0.3034339E+03  0.7546771E-02  0.1083537E+00
         21   -1    0    0  502  501  0.00000000000E+00  0.00000000000E+00  0.99043579466E+03  0.99043579466E+03  0.00000000000E+00 0. -1.
         21   -1    0    0  501  502 -0.00000000000E+00 -0.00000000000E+00 -0.92961241572E+02  0.92961241572E+02  0.00000000000E+00 0. -1.
         25    1    1    2    0    0  0.11078044947E+01  0.24386405870E+01  0.54334211759E+02  0.13632454205E+03  0.12500000000E+03 0.  0.
         25    1    1    2    0    0 -0.83580097256E+02 -0.14535204267E+03  0.54820555655E+03  0.58674285782E+03  0.12500000000E+03 0.  0.
         25    1    1    2    0    0  0.82472292762E+02  0.14291340208E+03  0.29493478478E+03  0.36032963636E+03  0.12500000000E+03 0.  0.
</event>
<event>
 5    0  0.5510933E-005  0.2993623E+03  0.7546771E-02  0.1085560E+00
         21   -1    0    0  502  501  0.00000000000E+00  0.00000000000E+00  0.11536280267E+04  0.11536280267E+04  0.00000000000E+00 0. -1.
         21   -1    0    0  501  502 -0.00000000000E+00 -0.00000000000E+00 -0.77683411545E+02  0.77683411545E+02  0.00000000000E+00 0. -1.
         25    1    1    2    0    0 -0.39261600339E+02 -0.11184181226E+03  0.50692196882E+03  0.53539232971E+03  0.12500000000E+03 0.  0.
         25    1    1    2    0    0 -0.11834547022E+03  0.91550731967E+02  0.23356001820E+03  0.30424080750E+03  0.12500000000E+03 0.  0.
         25    1    1    2    0    0  0.15760707056E+03  0.20291080293E+02  0.33546262810E+03  0.39167830101E+03  0.12500000000E+03 0.  0.
</event>
<event>
 5    0  0.5510933E-005  0.4612149E+03  0.7546771E-02  0.1024429E+00
         21   -1    0    0  502  501  0.00000000000E+00  0.00000000000E+00  0.16808428176E+03  0.16808428176E+03  0.00000000000E+00 0. -1.
         21   -1    0    0  501  502 -0.00000000000E+00 -0.00000000000E+00 -0.12655507636E+04  0.12655507636E+04  0.00000000000E+00 0. -1.
         25    1    1    2    0    0 -0.68883372978E+02 -0.12754436055E+03 -0.35952059083E+02  0.19475634401E+03  0.12500000000E+03 0.  0.
         25    1    1    2    0    0 -0.19683501083E+03 -0.70276303375E+02 -0.66027605334E+03  0.70375581484E+03  0.12500000000E+03 0.  0.
         25    1    1    2    0    0  0.26571838381E+03  0.19782066392E+03 -0.40123836936E+03  0.53512288646E+03  0.12500000000E+03 0.  0.
</event>
<event>
 5    0  0.5510933E-005  0.2587365E+03  0.7546771E-02  0.1107905E+00
         21   -1    0    0  502  501  0.00000000000E+00  0.00000000000E+00  0.17416341105E+04  0.17416341105E+04  0.00000000000E+00 0. -1.
         21   -1    0    0  501  502 -0.00000000000E+00 -0.00000000000E+00 -0.38437791055E+02  0.38437791055E+02  0.00000000000E+00 0. -1.
         25    1    1    2    0    0  0.26986700265E+02  0.64176512451E+02  0.45766763646E+03  0.47951180611E+03  0.12500000000E+03 0.  0.
         25    1    1    2    0    0 -0.91765401736E+02  0.52755624573E+02  0.83749713354E+03  0.85336422093E+03  0.12500000000E+03 0.  0.
         25    1    1    2    0    0  0.64778701472E+02 -0.11693213702E+03  0.40803154945E+03  0.44719587451E+03  0.12500000000E+03 0.  0.
</event>
<event>
 5    0  0.5510933E-005  0.2980635E+03  0.7546771E-02  0.1086213E+00
         21   -1    0    0  502  501  0.00000000000E+00  0.00000000000E+00  0.76042997305E+02  0.76042997305E+02  0.00000000000E+00 0. -1.
         21   -1    0    0  501  502 -0.00000000000E+00 -0.00000000000E+00 -0.11683108728E+04  0.11683108728E+04  0.00000000000E+00 0. -1.
         25    1    1    2    0    0 -0.96849894705E+02  0.16488367105E+03 -0.42229122500E+03  0.48012644772E+03  0.12500000000E+03 0.  0.
         25    1    1    2    0    0  0.23028670692E+02 -0.12646286938E+02 -0.11945611701E+03  0.17488571165E+03  0.12500000000E+03 0.  0.
         25    1    1    2    0    0  0.73821224013E+02 -0.15223738411E+03 -0.55052053352E+03  0.58934171078E+03  0.12500000000E+03 0.  0.
</event>
<event>
 5    0  0.5510933E-005  0.4717757E+03  0.7546771E-02  0.1021420E+00
         21   -1    0    0  502  501  0.00000000000E+00  0.00000000000E+00  0.21538375568E+03  0.21538375568E+03  0.00000000000E+00 0. -1.
         21   -1    0    0  501  502 -0.00000000000E+00 -0.00000000000E+00 -0.10333754510E+04  0.10333754510E+04  0.00000000000E+00 0. -1.
         25    1    1    2    0    0 -0.82194156270E+02 -0.37548711342E+03 -0.60292811875E+03  0.72587448505E+03  0.12500000000E+03 0.  0.
         25    1    1    2    0    0  0.32174063192E+02  0.18742064554E+03 -0.17740561148E+03  0.28854708403E+03  0.12500000000E+03 0.  0.
         25    1    1    2    0    0  0.50020093078E+02  0.18806646788E+03 -0.37657965070E+02  0.23433763758E+03  0.12500000000E+03 0.  0.
</event>
<event>
 5    0  0.5510933E-005  0.2648544E+03  0.7546771E-02  0.1104261E+00
         21   -1    0    0  502  501  0.00000000000E+00  0.00000000000E+00  0.19394586129E+03  0.19394586129E+03  0.00000000000E+00 0.  1.
         21   -1    0    0  501  502 -0.00000000000E+00 -0.00000000000E+00 -0.36168778276E+03  0.36168778276E+03  0.00000000000E+00 0.  1.
         25    1    1    2    0    0 -0.66159795805E+02  0.14514623870E+03  0.18808785284E+02  0.20352719620E+03  0.12500000000E+03 0.  0.
         25    1    1    2    0    0  0.22984704869E+02 -0.78383088502E+02 -0.10915006446E+03  0.18496200094E+03  0.12500000000E+03 0.  0.
         25    1    1    2    0    0  0.43175090936E+02 -0.66763150198E+02 -0.77400642294E+02  0.16714444690E+03  0.12500000000E+03 0.  0.
</event>
<event>
 5    0  0.5510933E-005  0.2686538E+03  0.7546771E-02  0.1102053E+00
         21   -1    0    0  502  501  0.00000000000E+00  0.00000000000E+00  0.70572363013E+02  0.70572363013E+02  0.00000000000E+00 0. -1.
         21   -1    0    0  501  502 -0.00000000000E+00 -0.00000000000E+00 -0.10227068955E+04  0.10227068955E+04  0.00000000000E+00 0. -1.
         25    1    1    2    0    0  0.30035367473E+02  0.46347772788E+02 -0.30454061220E+03  0.33379668036E+03  0.12500000000E+03 0.  0.
         25    1    1    2    0    0  0.58948118740E+00  0.12779562168E+03 -0.32568771298E+03  0.37152328971E+03  0.12500000000E+03 0.  0.
         25    1    1    2    0    0 -0.30624848661E+02 -0.17414339447E+03 -0.32190620734E+03  0.38795928848E+03  0.12500000000E+03 0.  0.
</event>
<event>
 5    0  0.5510933E-005  0.3694860E+03  0.7546771E-02  0.1054890E+00
         21   -1    0    0  502  501  0.00000000000E+00  0.00000000000E+00  0.76167456022E+03  0.76167456022E+03  0.00000000000E+00 0. -1.
         21   -1    0    0  501  502 -0.00000000000E+00 -0.00000000000E+00 -0.17923648977E+03  0.17923648977E+03  0.00000000000E+00 0. -1.
         25    1    1    2    0    0  0.53465463115E+02  0.16715523362E+03  0.40906237977E+03  0.46233803479E+03  0.12500000000E+03 0.  0.
         25    1    1    2    0    0  0.91810917844E+02  0.43159965718E+02  0.51429525093E+02  0.16900302757E+03  0.12500000000E+03 0.  0.
         25    1    1    2    0    0 -0.14527638096E+03 -0.21031519934E+03  0.12194616558E+03  0.30956998762E+03  0.12500000000E+03 0.  0.
</event>
<event>
 5    0  0.5510933E-005  0.5340468E+03  0.7546771E-02  0.1005255E+00
         21   -1    0    0  502  501  0.00000000000E+00  0.00000000000E+00  0.17729137273E+04  0.17729137273E+04  0.00000000000E+00 0. -1.
         21   -1    0    0  501  502 -0.00000000000E+00 -0.00000000000E+00 -0.16086852547E+03  0.16086852547E+03  0.00000000000E+00 0. -1.
         25    1    1    2    0    0 -0.18993046133E+03  0.24026640245E+03  0.10522106526E+04  0.11029840351E+04  0.12500000000E+03 0.  0.
         25    1    1    2    0    0  0.29697978442E+03 -0.17481875697E+01  0.26252424479E+03  0.41562486405E+03  0.12500000000E+03 0.  0.
         25    1    1    2    0    0 -0.10704932310E+03 -0.23851821488E+03  0.29731030439E+03  0.41517335356E+03  0.12500000000E+03 0.  0.
</event>
<event>
 5    0  0.5510933E-005  0.2262810E+03  0.7546771E-02  0.1129285E+00
         21   -1    0    0  502  501  0.00000000000E+00  0.00000000000E+00  0.49302486794E+03  0.49302486794E+03  0.00000000000E+00 0.  1.
         21   -1    0    0  501  502 -0.00000000000E+00 -0.00000000000E+00 -0.10385499543E+03  0.10385499543E+03  0.00000000000E+00 0.  1.
         25    1    1    2    0    0 -0.24468948433E+02 -0.61392909069E+02  0.11708665618E+03  0.18358132742E+03  0.12500000000E+03 0.  0.
         25    1    1    2    0    0  0.61903862869E+02  0.60001960283E+01  0.22335401163E+03  0.26340103474E+03  0.12500000000E+03 0.  0.
         25    1    1    2    0    0 -0.37434914436E+02  0.55392713041E+02  0.48729204703E+02  0.14989750121E+03  0.12500000000E+03 0.  0.
</event>
<event>
 5    0  0.5874362E-005  0.3290965E+03  0.7546771E-02  0.1071537E+00
         21   -1    0    0  502  501  0.00000000000E+00  0.00000000000E+00  0.33947537156E+03  0.33947537156E+03  0.00000000000E+00 0. -1.
         21   -1    0    0  501  502 -0.00000000000E+00 -0.00000000000E+00 -0.31903495113E+03  0.31903495113E+03  0.00000000000E+00 0. -1.
         25    1    1    2    0    0 -0.10833420176E+03  0.15466524734E+03  0.14469222271E+02  0.22691847963E+03  0.12500000000E+03 0.  0.
         25    1    1    2    0    0 -0.44185812293E+02 -0.18762791009E+03  0.23228121999E+02  0.23091375945E+03  0.12500000000E+03 0.  0.
         25    1    1    2    0    0  0.15252001405E+03  0.32962662746E+02 -0.17256923838E+02  0.20067808361E+03  0.12500000000E+03 0.  0.
</event>
<event>
 5    0  0.5510933E-005  0.4190444E+03  0.7546771E-02  0.1037378E+00
         21   -1    0    0  502  501  0.00000000000E+00  0.00000000000E+00  0.53551335727E+03  0.53551335727E+03  0.00000000000E+00 0.  1.
         21   -1    0    0  501  502 -0.00000000000E+00 -0.00000000000E+00 -0.32790637769E+03  0.32790637769E+03  0.00000000000E+00 0.  1.
         25    1    1    2    0    0 -0.18041561206E+03 -0.23893639355E+03  0.15886892497E+03  0.36125438206E+03  0.12500000000E+03 0.  0.
         25    1    1    2    0    0 -0.15858432473E+02 -0.35422671936E+02  0.55944589148E+02  0.14234132437E+03  0.12500000000E+03 0.  0.
         25    1    1    2    0    0  0.19627404453E+03  0.27435906549E+03 -0.72065345398E+01  0.35982402853E+03  0.12500000000E+03 0.  0.
</event>
<event>
 5    0  0.5510933E-005  0.2330497E+03  0.7546771E-02  0.1124511E+00
         21   -1    0    0  502  501  0.00000000000E+00  0.00000000000E+00  0.17427138152E+04  0.17427138152E+04  0.00000000000E+00 0.  1.
         21   -1    0    0  501  502 -0.00000000000E+00 -0.00000000000E+00 -0.31165279171E+02  0.31165279171E+02  0.00000000000E+00 0.  1.
         25    1    1    2    0    0 -0.42641848189E+02  0.87302072174E+02  0.51050439195E+03  0.53449014324E+03  0.12500000000E+03 0.  0.
         25    1    1    2    0    0  0.92558301926E+02 -0.25036526569E+02  0.63117258657E+03  0.65053647165E+03  0.12500000000E+03 0.  0.
         25    1    1    2    0    0 -0.49916453737E+02 -0.62265545604E+02  0.56987155752E+03  0.58885247949E+03  0.12500000000E+03 0.  0.
</event>
<event>
 5    0  0.5510933E-005  0.2733708E+03  0.7546771E-02  0.1099366E+00
         21   -1    0    0  502  501  0.00000000000E+00  0.00000000000E+00  0.42877695577E+02  0.42877695577E+02  0.00000000000E+00 0.  1.
         21   -1    0    0  501  502 -0.00000000000E+00 -0.00000000000E+00 -0.17429016938E+04  0.17429016938E+04  0.00000000000E+00 0.  1.
         25    1    1    2    0    0  0.58349824058E+02 -0.10499419267E+02 -0.21416908111E+03  0.25496732159E+03  0.12500000000E+03 0.  0.
         25    1    1    2    0    0  0.70058121633E+02 -0.42284896173E+02 -0.36333425560E+03  0.39285230576E+03  0.12500000000E+03 0.  0.
         25    1    1    2    0    0 -0.12840794569E+03  0.52784315440E+02 -0.11225206615E+04  0.11379597620E+04  0.12500000000E+03 0.  0.
</event>
<event>
 5    0  0.5510933E-005  0.5196227E+03  0.7546771E-02  0.1008780E+00
         21   -1    0    0  502  501  0.00000000000E+00  0.00000000000E+00  0.13922700731E+03  0.13922700731E+03  0.00000000000E+00 0.  1.
         21   -1    0    0  501  502 -0.00000000000E+00 -0.00000000000E+00 -0.19393345874E+04  0.19393345874E+04  0.00000000000E+00 0.  1.
         25    1    1    2    0    0  0.61125835455E+02 -0.10731907607E+03 -0.14163790603E+04  0.14272380300E+04  0.12500000000E+03 0.  0.
         25    1    1    2    0    0 -0.87686173243E+02  0.19774690773E+03 -0.42177620634E+03  0.49021716895E+03  0.12500000000E+03 0.  0.
         25    1    1    2    0    0  0.26560337788E+02 -0.90427831662E+02  0.38047686600E+02  0.16110639571E+03  0.12500000000E+03 0.  0.
</event>
<event>
 5    0  0.5510933E-005  0.3881683E+03  0.7546771E-02  0.1047955E+00
         21   -1    0    0  502  501  0.00000000000E+00  0.00000000000E+00  0.76481862935E+02  0.76481862935E+02  0.00000000000E+00 0. -1.
         21   -1    0    0  501  502 -0.00000000000E+00 -0.00000000000E+00 -0.19700698087E+04  0.19700698087E+04  0.00000000000E+00 0. -1.
         25    1    1    2    0    0 -0.24089581151E+03 -0.62979860721E+02 -0.44757547900E+03  0.52720590310E+03  0.12500000000E+03 0.  0.
         25    1    1    2    0    0 -0.38384746306E+02 -0.16318254159E+02 -0.25414283111E+03  0.28627478543E+03  0.12500000000E+03 0.  0.
         25    1    1    2    0    0  0.27928055781E+03  0.79298114880E+02 -0.11918696357E+04  0.12330709831E+04  0.12500000000E+03 0.  0.
</event>
<event>
 5    0  0.5510933E-005  0.2670587E+03  0.7546771E-02  0.1102975E+00
         21   -1    0    0  502  501  0.00000000000E+00  0.00000000000E+00  0.34266951295E+04  0.34266951295E+04  0.00000000000E+00 0.  1.
         21   -1    0    0  501  502 -0.00000000000E+00 -0.00000000000E+00 -0.20813158880E+02  0.20813158880E+02  0.00000000000E+00 0.  1.
         25    1    1    2    0    0 -0.30306384187E+02 -0.21231502399E+02  0.10387863379E+04  0.10469342432E+04  0.12500000000E+03 0.  0.
         25    1    1    2    0    0  0.11061677846E+03  0.11940414859E+03  0.92306542587E+03  0.94560467576E+03  0.12500000000E+03 0.  0.
         25    1    1    2    0    0 -0.80310394273E+02 -0.98172646188E+02  0.14440302069E+04  0.14549693695E+04  0.12500000000E+03 0.  0.
</event>
<event>
 5    0  0.5510933E-005  0.2545976E+03  0.7546771E-02  0.1110433E+00
         21   -1    0    0  502  501  0.00000000000E+00  0.00000000000E+00  0.25980351743E+02  0.25980351743E+02  0.00000000000E+00 0. -1.
         21   -1    0    0  501  502 -0.00000000000E+00 -0.00000000000E+00 -0.24949595212E+04  0.24949595212E+04  0.00000000000E+00 0. -1.
         25    1    1    2    0    0 -0.44340967163E+02  0.28849421752E+02 -0.41931709700E+03  0.44073828781E+03  0.12500000000E+03 0.  0.
         25    1    1    2    0    0 -0.72137802181E+02  0.64901333773E+02 -0.80984106504E+03  0.82515671012E+03  0.12500000000E+03 0.  0.
         25    1    1    2    0    0  0.11647876934E+03 -0.93750755524E+02 -0.12398210074E+04  0.12550448750E+04  0.12500000000E+03 0.  0.
</event>
<event>
 5    0  0.5510933E-005  0.2403786E+03  0.7546771E-02  0.1119541E+00
         21   -1    0    0  502  501  0.00000000000E+00  0.00000000000E+00  0.16191509452E+03  0.16191509452E+03  0.00000000000E+00 0. -1.
         21   -1    0    0  501  502 -0.00000000000E+00 -0.00000000000E+00 -0.35686520203E+03  0.35686520203E+03  0.00000000000E+00 0. -1.
         25    1    1    2    0    0 -0.28836617666E+02 -0.52145823761E+01 -0.14612828901E+03  0.19451791495E+03  0.12500000000E+03 0.  0.
         25    1    1    2    0    0  0.45333148087E+02 -0.40536858708E+02  0.60133336097E+02  0.15145741758E+03  0.12500000000E+03 0.  0.
         25    1    1    2    0    0 -0.16496530421E+02  0.45751441084E+02 -0.10895515459E+03  0.17280496402E+03  0.12500000000E+03 0.  0.
</event>
<event>
 5    0  0.5510933E-005  0.2712329E+03  0.7546771E-02  0.1100576E+00
         21   -1    0    0  502  501  0.00000000000E+00  0.00000000000E+00  0.54576787488E+02  0.54576787488E+02  0.00000000000E+00 0.  1.
         21   -1    0    0  501  502 -0.00000000000E+00 -0.00000000000E+00 -0.13479592450E+04  0.13479592450E+04  0.00000000000E+00 0.  1.
         25    1    1    2    0    0  0.14441326183E+03 -0.21473164004E+02 -0.52743426946E+03  0.56136280208E+03  0.12500000000E+03 0.  0.
         25    1    1    2    0    0 -0.16484402571E+03 -0.14071970895E+02 -0.55608322032E+03  0.59348556941E+03  0.12500000000E+03 0.  0.
         25    1    1    2    0    0  0.20430763880E+02  0.35545134899E+02 -0.20986496776E+03  0.24768766102E+03  0.12500000000E+03 0.  0.
</event>
<event>
 5    0  0.5510933E-005  0.2677443E+03  0.7546771E-02  0.1102578E+00
         21   -1    0    0  502  501  0.00000000000E+00  0.00000000000E+00  0.68019244647E+02  0.68019244647E+02  0.00000000000E+00 0.  1.
         21   -1    0    0  501  502 -0.00000000000E+00 -0.00000000000E+00 -0.10539222777E+04  0.10539222777E+04  0.00000000000E+00 0.  1.
         25    1    1    2    0    0 -0.26827329931E+01 -0.12769980725E+02 -0.12833832722E+03  0.17962738015E+03  0.12500000000E+03 0.  0.
         25    1    1    2    0    0  0.47027416788E+02  0.62092826544E+02 -0.11630139237E+03  0.18766488991E+03  0.12500000000E+03 0.  0.
         25    1    1    2    0    0 -0.44344683794E+02 -0.49322845819E+02 -0.74126331345E+03  0.75464925228E+03  0.12500000000E+03 0.  0.
</event>
<event>
 5    0  0.5510933E-005  0.2643905E+03  0.7546771E-02  0.1104534E+00
         21   -1    0    0  502  501  0.00000000000E+00  0.00000000000E+00  0.45484211558E+03  0.45484211558E+03  0.00000000000E+00 0. -1.
         21   -1    0    0  501  502 -0.00000000000E+00 -0.00000000000E+00 -0.15368482454E+03  0.15368482454E+03  0.00000000000E+00 0. -1.
         25    1    1    2    0    0  0.29226766168E+02 -0.15489289261E+03  0.98342804580E+02  0.22392480714E+03  0.12500000000E+03 0.  0.
         25    1    1    2    0    0 -0.55698931304E+02  0.62792399365E+02  0.16349296255E+03  0.22226156926E+03  0.12500000000E+03 0.  0.
         25    1    1    2    0    0  0.26472165136E+02  0.92100493244E+02  0.39321523908E+02  0.16234056371E+03  0.12500000000E+03 0.  0.
</event>
<event>
 5    0  0.7003877E-005  0.3728351E+03  0.7546771E-02  0.1053614E+00
         21   -1    0    0  502  501  0.00000000000E+00  0.00000000000E+00  0.62800167432E+03  0.62800167432E+03  0.00000000000E+00 0.  1.
         21   -1    0    0  501  502 -0.00000000000E+00 -0.00000000000E+00 -0.22134660434E+03  0.22134660434E+03  0.00000000000E+00 0.  1.
         25    1    1    2    0    0 -0.15558369881E+03  0.10918383661E+03 -0.27374880401E+02  0.22913267246E+03  0.12500000000E+03 0.  0.
         25    1    1    2    0    0  0.22114741634E+03 -0.79271167871E+02  0.15996444965E+03  0.31048948929E+03  0.12500000000E+03 0.  0.
         25    1    1    2    0    0 -0.65563717531E+02 -0.29912668738E+02  0.27406550073E+03  0.30972611691E+03  0.12500000000E+03 0.  0.
</event>
<event>
 5    0  0.5510933E-005  0.2565562E+03  0.7546771E-02  0.1109230E+00
         21   -1    0    0  502  501  0.00000000000E+00  0.00000000000E+00  0.11580239284E+04  0.11580239284E+04  0.00000000000E+00 0. -1.
         21   -1    0    0  501  502 -0.00000000000E+00 -0.00000000000E+00 -0.56839153385E+02  0.56839153385E+02  0.00000000000E+00 0. -1.
         25    1    1    2    0    0 -0.54014358823E+02 -0.91125636045E+01  0.11202114014E+03  0.17656252607E+03  0.12500000000E+03 0.  0.
         25    1    1    2    0    0  0.76733708689E+02  0.10302788913E+02  0.26484062999E+03  0.30291874950E+03  0.12500000000E+03 0.  0.
         25    1    1    2    0    0 -0.22719349866E+02 -0.11902253081E+01  0.72432300487E+03  0.73538180619E+03  0.12500000000E+03 0.  0.
</event>
<event>
 5    0  0.5510933E-005  0.2975923E+03  0.7546771E-02  0.1086450E+00
         21   -1    0    0  502  501  0.00000000000E+00  0.00000000000E+00  0.97038355239E+03  0.97038355239E+03  0.00000000000E+00 0.  1.
         21   -1    0    0  501  502 -0.00000000000E+00 -0.00000000000E+00 -0.91264068470E+02  0.91264068470E+02  0.00000000000E+00 0.  1.
         25    1    1    2    0    0 -0.95645779957E+02  0.34697465140E+02  0.25594255668E+03  0.30246259543E+03  0.12500000000E+03 0.  0.
         25    1    1    2    0    0  0.14043571403E+03 -0.16074194000E+03  0.40273220346E+03  0.47262922969E+03  0.12500000000E+03 0.  0.
         25    1    1    2    0    0 -0.44789934069E+02  0.12604447486E+03  0.22044472377E+03  0.28655579574E+03  0.12500000000E+03 0.  0.
</event>
<event>
 5    0  0.5510933E-005  0.3362387E+03  0.7546771E-02  0.1068409E+00
         21   -1    0    0  502  501  0.00000000000E+00  0.00000000000E+00  0.40315471321E+03  0.40315471321E+03  0.00000000000E+00 0.  1.
         21   -1    0    0  501  502 -0.00000000000E+00 -0.00000000000E+00 -0.28042942556E+03  0.28042942556E+03  0.00000000000E+00 0.  1.
         25    1    1    2    0    0  0.29477161870E+02 -0.86839505824E+02  0.49266078483E+02  0.16267190702E+03  0.12500000000E+03 0.  0.
         25    1    1    2    0    0  0.10523765701E+03 -0.13877822882E+03  0.82684164658E+02  0.22977387218E+03  0.12500000000E+03 0.  0.
         25    1    1    2    0    0 -0.13471481888E+03  0.22561773465E+03 -0.92249554975E+01  0.29113835958E+03  0.12500000000E+03 0.  0.
</event>
<event>
 5    0  0.5510933E-005  0.3010619E+03  0.7546771E-02  0.1084711E+00
         21   -1    0    0  502  501  0.00000000000E+00  0.00000000000E+00  0.59759442576E+03  0.59759442576E+03  0.00000000000E+00 0. -1.
         21   -1    0    0  501  502 -0.00000000000E+00 -0.00000000000E+00 -0.15167184182E+03  0.15167184182E+03  0.00000000000E+00 0. -1.
         25    1    1    2    0    0  0.56061231037E+02  0.14398844531E+03  0.15514665951E+03  0.25213294106E+03  0.12500000000E+03 0.  0.
         25    1    1    2    0    0  0.97599418019E+02 -0.12867106464E+03  0.13734386257E+03  0.24611019048E+03  0.12500000000E+03 0.  0.
         25    1    1    2    0    0 -0.15366064906E+03 -0.15317380675E+02  0.15343206186E+03  0.25102313603E+03  0.12500000000E+03 0.  0.
</event>
<event>
 5    0  0.5510933E-005  0.2738150E+03  0.7546771E-02  0.1099116E+00
         21   -1    0    0  502  501  0.00000000000E+00  0.00000000000E+00  0.10375454282E+04  0.10375454282E+04  0.00000000000E+00 0.  1.
         21   -1    0    0  501  502 -0.00000000000E+00 -0.00000000000E+00 -0.72261555843E+02  0.72261555843E+02  0.00000000000E+00 0.  1.
         25    1    1    2    0    0  0.23767301296E+02  0.39103314496E+01  0.55096542760E+02  0.13871122639E+03  0.12500000000E+03 0.  0.
         25    1    1    2    0    0 -0.11436591207E+03 -0.15228773956E+00  0.61557056391E+03  0.63846041709E+03  0.12500000000E+03 0.  0.
         25    1    1    2    0    0  0.90598610772E+02 -0.37580437100E+01  0.29461676565E+03  0.33263534053E+03  0.12500000000E+03 0.  0.
</event>
<event>
 5    0  0.5611380E-005  0.3598234E+03  0.7546771E-02  0.1058654E+00
         21   -1    0    0  502  501  0.00000000000E+00  0.00000000000E+00  0.47074330362E+03  0.47074330362E+03  0.00000000000E+00 0. -1.
         21   -1    0    0  501  502 -0.00000000000E+00 -0.00000000000E+00 -0.27503924493E+03  0.27503924493E+03  0.00000000000E+00 0. -1.
         25    1    1    2    0    0  0.91395623672E+02  0.23228217407E+02  0.16595941873E+03  0.22816712905E+03  0.12500000000E+03 0.  0.
         25    1    1    2    0    0 -0.65629599285E+02  0.20654168578E+03 -0.16561340961E+02  0.25073091210E+03  0.12500000000E+03 0.  0.
         25    1    1    2    0    0 -0.25766024387E+02 -0.22976990319E+03  0.46305980924E+02  0.26688450741E+03  0.12500000000E+03 0.  0.
</event>
<event>
 5    0  0.5510933E-005  0.2339644E+03  0.7546771E-02  0.1123880E+00
         21   -1    0    0  502  501  0.00000000000E+00  0.00000000000E+00  0.12560550966E+03  0.12560550966E+03  0.00000000000E+00 0.  1.
         21   -1    0    0  501  502 -0.00000000000E+00 -0.00000000000E+00 -0.43580375534E+03  0.43580375534E+03  0.00000000000E+00 0.  1.
         25    1    1    2    0    0 -0.21819608910E+02 -0.59041979864E+02 -0.19267854241E+03  0.23814296425E+03  0.12500000000E+03 0.  0.
         25    1    1    2    0    0  0.33583493054E+02  0.62441299962E+02 -0.13412642759E+03  0.19657483441E+03  0.12500000000E+03 0.  0.
         25    1    1    2    0    0 -0.11763884144E+02 -0.33993200979E+01  0.16606724319E+02  0.12669146633E+03  0.12500000000E+03 0.  0.
</event>
<event>
 5    0  0.5510933E-005  0.2592759E+03  0.7546771E-02  0.1107579E+00
         21   -1    0    0  502  501  0.00000000000E+00  0.00000000000E+00  0.78193082502E+03  0.78193082502E+03  0.00000000000E+00 0. -1.
         21   -1    0    0  501  502 -0.00000000000E+00 -0.00000000000E+00 -0.85971792422E+02  0.85971792422E+02  0.00000000000E+00 0. -1.
         25    1    1    2    0    0  0.21246597925E+02  0.15855203476E+03  0.23328687849E+03  0.30925383316E+03  0.12500000000E+03 0.  0.
         25    1    1    2    0    0  0.38125374334E+02 -0.67586183020E+02  0.23096395045E+03  0.27384444985E+03  0.12500000000E+03 0.  0.
         25    1    1    2    0    0 -0.59371972259E+02 -0.90965851737E+02  0.23170820365E+03  0.28480433443E+03  0.12500000000E+03 0.  0.
</event>
<event>
 5    0  0.5510933E-005  0.4181673E+03  0.7546771E-02  0.1037664E+00
         21   -1    0    0  502  501  0.00000000000E+00  0.00000000000E+00  0.15782838390E+04  0.15782838390E+04  0.00000000000E+00 0.  1.
         21   -1    0    0  501  502 -0.00000000000E+00 -0.00000000000E+00 -0.11079367557E+03  0.11079367557E+03  0.00000000000E+00 0.  1.
         25    1    1    2    0    0  0.40755912072E+02  0.29592668785E+03  0.89641320346E+03  0.95310822066E+03  0.12500000000E+03 0.  0.
         25    1    1    2    0    0 -0.12470522786E+03 -0.17998492595E+03  0.21080745282E+03  0.32864988908E+03  0.12500000000E+03 0.  0.
         25    1    1    2    0    0  0.83949315792E+02 -0.11594176190E+03  0.36026950718E+03  0.40731940486E+03  0.12500000000E+03 0.  0.
</event>
<event>
 5    0  0.5510933E-005  0.2380256E+03  0.7546771E-02  0.1121115E+00
         21   -1    0    0  502  501  0.00000000000E+00  0.00000000000E+00  0.20100301120E+03  0.20100301120E+03  0.00000000000E+00 0.  1.
         21   -1    0    0  501  502 -0.00000000000E+00 -0.00000000000E+00 -0.28186743528E+03  0.28186743528E+03  0.00000000000E+00 0.  1.
         25    1    1    2    0    0 -0.12765919939E+03 -0.61540631740E+01  0.14849527705E+02  0.17938855079E+03  0.12500000000E+03 0.  0.
         25    1    1    2    0    0  0.62130895967E+02 -0.16254835081E+02 -0.20580607382E+02  0.14203178974E+03  0.12500000000E+03 0.  0.
         25    1    1    2    0    0  0.65528303422E+02  0.22408898255E+02 -0.75133344404E+02  0.16145010595E+03  0.12500000000E+03 0.  0.
</event>
<event>
 5    0  0.5510933E-005  0.2511747E+03  0.7546771E-02  0.1112565E+00
         21   -1    0    0  502  501  0.00000000000E+00  0.00000000000E+00  0.12467676052E+04  0.12467676052E+04  0.00000000000E+00 0.  1.
         21   -1    0    0  501  502 -0.00000000000E+00 -0.00000000000E+00 -0.50601839199E+02  0.50601839199E+02  0.00000000000E+00 0.  1.
         25    1    1    2    0    0  0.30106533137E+02  0.51074721343E+01  0.16264726797E+03  0.20739243812E+03  0.12500000000E+03 0.  0.
         25    1    1    2    0    0 -0.26839028660E+02 -0.10178363754E+03  0.32176333066E+03  0.36088347605E+03  0.12500000000E+03 0.  0.
         25    1    1    2    0    0 -0.32675044768E+01  0.96676165410E+02  0.71175516735E+03  0.72909353021E+03  0.12500000000E+03 0.  0.
</event>
<event>
 5    0  0.5510933E-005  0.4250176E+03  0.7546771E-02  0.1035446E+00
         21   -1    0    0  502  501  0.00000000000E+00  0.00000000000E+00  0.67331525300E+03  0.67331525300E+03  0.00000000000E+00 0. -1.
         21   -1    0    0  501  502 -0.00000000000E+00 -0.00000000000E+00 -0.26828438309E+03  0.26828438309E+03  0.00000000000E+00 0. -1.
         25    1    1    2    0    0  0.10755529179E+03  0.10486330771E+03 -0.15152680208E+03  0.24728490824E+03  0.12500000000E+03 0.  0.
         25    1    1    2    0    0 -0.14404009638E+03 -0.17207893973E+03  0.42904559027E+03  0.50006382532E+03  0.12500000000E+03 0.  0.
         25    1    1    2    0    0  0.36484804593E+02  0.67215632025E+02  0.12751208172E+03  0.19425090254E+03  0.12500000000E+03 0.  0.
</event>
<event>
 5    0  0.5510933E-005  0.2936155E+03  0.7546771E-02  0.1088476E+00
         21   -1    0    0  502  501  0.00000000000E+00  0.00000000000E+00  0.19621441829E+04  0.19621441829E+04  0.00000000000E+00 0.  1.
         21   -1    0    0  501  502 -0.00000000000E+00 -0.00000000000E+00 -0.43936661721E+02  0.43936661721E+02  0.00000000000E+00 0.  1.
         25    1    1    2    0    0  0.61322824266E+02 -0.44387595554E+02  0.20422410424E+03  0.25112393787E+03  0.12500000000E+03 0.  0.
         25    1    1    2    0    0  0.68544609400E+02  0.10918603119E+03  0.98466770096E+03  0.10009073055E+04  0.12500000000E+03 0.  0.
         25    1    1    2    0    0 -0.12986743367E+03 -0.64798435637E+02  0.72931571600E+03  0.75404960128E+03  0.12500000000E+03 0.  0.
</event>
<event>
 5    0  0.5510933E-005  0.3600419E+03  0.7546771E-02  0.1058567E+00
         21   -1    0    0  502  501  0.00000000000E+00  0.00000000000E+00  0.36264299443E+03  0.36264299443E+03  0.00000000000E+00 0. -1.
         21   -1    0    0  501  502 -0.00000000000E+00 -0.00000000000E+00 -0.35745955977E+03  0.35745955977E+03  0.00000000000E+00 0. -1.
         25    1    1    2    0    0  0.95846667632E+01 -0.17177271489E+03 -0.18997718951E+03  0.28515620974E+03  0.12500000000E+03 0.  0.
         25    1    1    2    0    0 -0.12331883788E+03  0.77829954428E+02  0.69058716248E+02  0.20410571739E+03  0.12500000000E+03 0.  0.
         25    1    1    2    0    0  0.11373417112E+03  0.93942760463E+02  0.12610190792E+03  0.23084062707E+03  0.12500000000E+03 0.  0.
</event>
<event>
 5    0  0.5510933E-005  0.4306319E+03  0.7546771E-02  0.1033661E+00
         21   -1    0    0  502  501  0.00000000000E+00  0.00000000000E+00  0.18630825504E+04  0.18630825504E+04  0.00000000000E+00 0.  1.
         21   -1    0    0  501  502 -0.00000000000E+00 -0.00000000000E+00 -0.99536010025E+02  0.99536010025E+02  0.00000000000E+00 0.  1.
         25    1    1    2    0    0 -0.21860419736E+03  0.66467599709E+02  0.14510372173E+03  0.29813726197E+03  0.12500000000E+03 0.  0.
         25    1    1    2    0    0  0.94513612793E+02 -0.70002249027E+02  0.42894806834E+03  0.46201145354E+03  0.12500000000E+03 0.  0.
         25    1    1    2    0    0  0.12409058457E+03  0.35346493188E+01  0.11894947503E+04  0.12024698449E+04  0.12500000000E+03 0.  0.
</event>
<event>
 5    0  0.5510933E-005  0.2798096E+03  0.7546771E-02  0.1095793E+00
         21   -1    0    0  502  501  0.00000000000E+00  0.00000000000E+00  0.15143154585E+03  0.15143154585E+03  0.00000000000E+00 0.  1.
         21   -1    0    0  501  502 -0.00000000000E+00 -0.00000000000E+00 -0.51702189112E+03  0.51702189112E+03  0.00000000000E+00 0.  1.
         25    1    1    2    0    0 -0.12616327169E+02  0.12612500014E+03 -0.52208369988E+02  0.18551927465E+03  0.12500000000E+03 0.  0.
         25    1    1    2    0    0 -0.42582380749E+02 -0.10291337520E+03 -0.33679804150E+02  0.17077397681E+03  0.12500000000E+03 0.  0.
         25    1    1    2    0    0  0.55198707918E+02 -0.23211624933E+02 -0.27970217113E+03  0.31216018552E+03  0.12500000000E+03 0.  0.
</event>
<event>
 5    0  0.5510933E-005  0.2753560E+03  0.7546771E-02  0.1098253E+00
         21   -1    0    0  502  501  0.00000000000E+00  0.00000000000E+00  0.74558593336E+03  0.74558593336E+03  0.00000000000E+00 0. -1.
         21   -1    0    0  501  502 -0.00000000000E+00 -0.00000000000E+00 -0.10169308335E+03  0.10169308335E+03  0.00000000000E+00 0. -1.
         25    1    1    2    0    0  0.42757723478E+01  0.23294764636E+02  0.68304520819E+02  0.14440026265E+03  0.12500000000E+03 0.  0.
         25    1    1    2    0    0 -0.93885703700E+02 -0.59283345381E+02  0.50106816782E+03  0.52822660781E+03  0.12500000000E+03 0.  0.
         25    1    1    2    0    0  0.89609931352E+02  0.35988580744E+02  0.74520161369E+02  0.17465214625E+03  0.12500000000E+03 0.  0.
</event>
<event>
 5    0  0.5510933E-005  0.2536058E+03  0.7546771E-02  0.1111047E+00
         21   -1    0    0  502  501  0.00000000000E+00  0.00000000000E+00  0.10612185113E+04  0.10612185113E+04  0.00000000000E+00 0.  1.
         21   -1    0    0  501  502 -0.00000000000E+00 -0.00000000000E+00 -0.60605723211E+02  0.60605723211E+02  0.00000000000E+00 0.  1.
         25    1    1    2    0    0 -0.76183694666E+02  0.75239110694E+02  0.44286497305E+03  0.47246085919E+03  0.12500000000E+03 0.  0.
         25    1    1    2    0    0  0.91950758841E+02  0.41639026093E+02  0.27381745647E+03  0.31747401470E+03  0.12500000000E+03 0.  0.
         25    1    1    2    0    0 -0.15767064176E+02 -0.11687813679E+03  0.28393035855E+03  0.33188936060E+03  0.12500000000E+03 0.  0.
</event>
<event>
 5    0  0.5510933E-005  0.3088785E+03  0.7546771E-02  0.1080885E+00
         21   -1    0    0  502  501  0.00000000000E+00  0.00000000000E+00  0.13002131707E+03  0.13002131707E+03  0.00000000000E+00 0. -1.
         21   -1    0    0  501  502 -0.00000000000E+00 -0.00000000000E+00 -0.73377139578E+03  0.73377139578E+03  0.00000000000E+00 0. -1.
         25    1    1    2    0    0 -0.12748263709E+03  0.62202696299E+02 -0.28141349025E+03  0.33902735978E+03  0.12500000000E+03 0.  0.
         25    1    1    2    0    0  0.20057574914E+03 -0.10714427823E+03 -0.17245260674E+03  0.31156930059E+03  0.12500000000E+03 0.  0.
         25    1    1    2    0    0 -0.73093112050E+02  0.44941581928E+02 -0.14988398172E+03  0.21319605248E+03  0.12500000000E+03 0.  0.
</event>
<event>
 5    0  0.5727815E-005  0.2950827E+03  0.7546771E-02  0.1087725E+00
         21   -1    0    0  502  501  0.00000000000E+00  0.00000000000E+00  0.72639790358E+03  0.72639790358E+03  0.00000000000E+00 0. -1.
         21   -1    0    0  501  502 -0.00000000000E+00 -0.00000000000E+00 -0.11987063532E+03  0.11987063532E+03  0.00000000000E+00 0. -1.
         25    1    1    2    0    0 -0.60377595107E+02 -0.49763188162E+02  0.93977362168E+01  0.14776720317E+03  0.12500000000E+03 0.  0.
         25    1    1    2    0    0 -0.12341055099E+02  0.70191178621E+02  0.87608493650E+02  0.16846172075E+03  0.12500000000E+03 0.  0.
         25    1    1    2    0    0  0.72718650206E+02 -0.20427990459E+02  0.50952103840E+03  0.53003961498E+03  0.12500000000E+03 0.  0.
</event>
<event>
 5    0  0.5510933E-005  0.2874425E+03  0.7546771E-02  0.1091692E+00
         21   -1    0    0  502  501  0.00000000000E+00  0.00000000000E+00  0.52590842473E+03  0.52590842473E+03  0.00000000000E+00 0. -1.
         21   -1    0    0  501  502 -0.00000000000E+00 -0.00000000000E+00 -0.15710570657E+03  0.15710570657E+03  0.00000000000E+00 0. -1.
         25    1    1    2    0    0 -0.15603493007E+02  0.30208522530E+02 -0.69520682692E+02  0.14701751307E+03  0.12500000000E+03 0.  0.
         25    1    1    2    0    0  0.20459681324E+02 -0.51617859731E+02  0.86135513485E+02  0.16163950225E+03  0.12500000000E+03 0.  0.
         25    1    1    2    0    0 -0.48561883170E+01  0.21409337201E+02  0.35218788736E+03  0.37435711599E+03  0.12500000000E+03 0.  0.
</event>
<event>
 5    0  0.5510933E-005  0.4543440E+03  0.7546771E-02  0.1026434E+00
         21   -1    0    0  502  501  0.00000000000E+00  0.00000000000E+00  0.40572374372E+03  0.40572374372E+03  0.00000000000E+00 0.  1.
         21   -1    0    0  501  502 -0.00000000000E+00 -0.00000000000E+00 -0.50879064734E+03  0.50879064734E+03  0.00000000000E+00 0.  1.
         25    1    1    2    0    0 -0.47631077403E+02 -0.63865224146E+02 -0.28398106775E+02  0.15092693218E+03  0.12500000000E+03 0.  0.
         25    1    1    2    0    0 -0.15686416368E+02 -0.26386983002E+03  0.16340083612E+03  0.33495997388E+03  0.12500000000E+03 0.  0.
         25    1    1    2    0    0  0.63317493771E+02  0.32773505417E+03 -0.23806963297E+03  0.42862748500E+03  0.12500000000E+03 0.  0.
</event>
<event>
 5    0  0.5510933E-005  0.2538399E+03  0.7546771E-02  0.1110902E+00
         21   -1    0    0  502  501  0.00000000000E+00  0.00000000000E+00  0.41169843614E+03  0.41169843614E+03  0.00000000000E+00 0.  1.
         21   -1    0    0  501  502 -0.00000000000E+00 -0.00000000000E+00 -0.15650946245E+03  0.15650946245E+03  0.00000000000E+00 0.  1.
         25    1    1    2    0    0 -0.53719069825E+02  0.10760723971E+03  0.66157879900E+02  0.18565269072E+03  0.12500000000E+03 0.  0.
         25    1    1    2    0    0  0.73346869455E+02 -0.13273339661E+03  0.74911600009E+02  0.21032038810E+03  0.12500000000E+03 0.  0.
         25    1    1    2    0    0 -0.19627799630E+02  0.25126156908E+02  0.11411949378E+03  0.17223481976E+03  0.12500000000E+03 0.  0.
</event>
<event>
 5    0  0.5608603E-005  0.2586298E+03  0.7546771E-02  0.1107969E+00
         21   -1    0    0  502  501  0.00000000000E+00  0.00000000000E+00  0.24121338654E+03  0.24121338654E+03  0.00000000000E+00 0.  1.
         21   -1    0    0  501  502 -0.00000000000E+00 -0.00000000000E+00 -0.27730370126E+03  0.27730370126E+03  0.00000000000E+00 0.  1.
         25    1    1    2    0    0  0.30606998416E+02 -0.24447793791E+02  0.80305572647E+02  0.15365047339E+03  0.12500000000E+03 0.  0.
         25    1    1    2    0    0 -0.11107763257E+03 -0.19463675672E+02 -0.12489658511E+03  0.20962164034E+03  0.12500000000E+03 0.  0.
         25    1    1    2    0    0  0.80470634152E+02  0.43911469463E+02  0.85006977414E+01  0.15524497407E+03  0.12500000000E+03 0.  0.
</event>
<event>
 5    0  0.5510933E-005  0.3879094E+03  0.7546771E-02  0.1048049E+00
         21   -1    0    0  502  501  0.00000000000E+00  0.00000000000E+00  0.50882225837E+03  0.50882225837E+03  0.00000000000E+00 0.  1.
         21   -1    0    0  501  502 -0.00000000000E+00 -0.00000000000E+00 -0.29572947676E+03  0.29572947676E+03  0.00000000000E+00 0.  1.
         25    1    1    2    0    0 -0.31842081336E+02 -0.10273902373E+03  0.10255135004E+03  0.19419321445E+03  0.12500000000E+03 0.  0.
         25    1    1    2    0    0 -0.14714558751E+03 -0.13759191280E+03 -0.58657732475E+02  0.24423162770E+03  0.12500000000E+03 0.  0.
         25    1    1    2    0    0  0.17898766885E+03  0.24033093653E+03  0.16919916403E+03  0.36612689298E+03  0.12500000000E+03 0.  0.
</event>
<event>
 5    0  0.5510933E-005  0.2795965E+03  0.7546771E-02  0.1095910E+00
         21   -1    0    0  502  501  0.00000000000E+00  0.00000000000E+00  0.29922525971E+03  0.29922525971E+03  0.00000000000E+00 0. -1.
         21   -1    0    0  501  502 -0.00000000000E+00 -0.00000000000E+00 -0.26125529723E+03  0.26125529723E+03  0.00000000000E+00 0. -1.
         25    1    1    2    0    0  0.18223610963E+02  0.21186795746E+02  0.82095783315E+02  0.15213710247E+03  0.12500000000E+03 0.  0.
         25    1    1    2    0    0  0.75532414548E+02 -0.14132201576E+03 -0.56258798057E+02  0.21087226025E+03  0.12500000000E+03 0.  0.
         25    1    1    2    0    0 -0.93756025511E+02  0.12013522001E+03  0.12132977226E+02  0.19747119421E+03  0.12500000000E+03 0.  0.
</event>
<event>
 5    0  0.5510933E-005  0.3360972E+03  0.7546771E-02  0.1068470E+00
         21   -1    0    0  502  501  0.00000000000E+00  0.00000000000E+00  0.54028091491E+03  0.54028091491E+03  0.00000000000E+00 0.  1.
         21   -1    0    0  501  502 -0.00000000000E+00 -0.00000000000E+00 -0.20907890942E+03  0.20907890942E+03  0.00000000000E+00 0.  1.
         25    1    1    2    0    0  0.19424168479E+03 -0.86778601797E+02 -0.42867639885E+02  0.25044558768E+03  0.12500000000E+03 0.  0.
         25    1    1    2    0    0 -0.11551238218E+03  0.37063990655E+02  0.20272496216E+03  0.26728123788E+03  0.12500000000E+03 0.  0.
         25    1    1    2    0    0 -0.78729302612E+02  0.49714611142E+02  0.17134468322E+03  0.23163299877E+03  0.12500000000E+03 0.  0.
</event>
<event>
 5    0  0.5510933E-005  0.3108594E+03  0.7546771E-02  0.1079935E+00
         21   -1    0    0  502  501  0.00000000000E+00  0.00000000000E+00  0.16730080918E+03  0.16730080918E+03  0.00000000000E+00 0. -1.
         21   -1    0    0  501  502 -0.00000000000E+00 -0.00000000000E+00 -0.57760377289E+03  0.57760377289E+03  0.00000000000E+00 0. -1.
         25    1    1    2    0    0 -0.10449272703E+03 -0.14420088773E+03 -0.19980956710E+03  0.29540055709E+03  0.12500000000E+03 0.  0.
         25    1    1    2    0    0 -0.28786095094E+02  0.16860208228E+03 -0.12823132656E+03  0.24763597180E+03  0.12500000000E+03 0.  0.
         25    1    1    2    0    0  0.13327882213E+03 -0.24401194556E+02 -0.82262070052E+02  0.20186805318E+03  0.12500000000E+03 0.  0.
</event>
<event>
 5    0  0.5510933E-005  0.3123283E+03  0.7546771E-02  0.1079235E+00
         21   -1    0    0  502  501  0.00000000000E+00  0.00000000000E+00  0.15137314582E+03  0.15137314582E+03  0.00000000000E+00 0. -1.
         21   -1    0    0  501  502 -0.00000000000E+00 -0.00000000000E+00 -0.64442733334E+03  0.64442733334E+03  0.00000000000E+00 0. -1.
         25    1    1    2    0    0 -0.73292973936E+02  0.97140546231E+02 -0.25965184896E+03  0.31281340831E+03  0.12500000000E+03 0.  0.
         25    1    1    2    0    0  0.45504978125E+02 -0.20423414555E+03 -0.80701921321E+02  0.25674907857E+03  0.12500000000E+03 0.  0.
         25    1    1    2    0    0  0.27787995811E+02  0.10709359932E+03 -0.15270041723E+03  0.22623799228E+03  0.12500000000E+03 0.  0.
</event>
<event>
 5    0  0.5510933E-005  0.3527945E+03  0.7546771E-02  0.1061474E+00
         21   -1    0    0  502  501  0.00000000000E+00  0.00000000000E+00  0.18620094835E+03  0.18620094835E+03  0.00000000000E+00 0.  1.
         21   -1    0    0  501  502 -0.00000000000E+00 -0.00000000000E+00 -0.66843891344E+03  0.66843891344E+03  0.00000000000E+00 0. -1.
         25    1    1    2    0    0  0.16548694438E+03  0.44861705060E+02 -0.22443959572E+03  0.30886345441E+03  0.12500000000E+03 0.  0.
         25    1    1    2    0    0  0.10721583465E+03 -0.69819587058E+02 -0.77939184569E+02  0.19511413692E+03  0.12500000000E+03 0.  0.
         25    1    1    2    0    0 -0.27270277903E+03  0.24957881997E+02 -0.17985918480E+03  0.35066227046E+03  0.12500000000E+03 0.  0.
</event>
<event>
 5    0  0.5510933E-005  0.3243188E+03  0.7546771E-02  0.1073679E+00
         21   -1    0    0  502  501  0.00000000000E+00  0.00000000000E+00  0.27941191526E+03  0.27941191526E+03  0.00000000000E+00 0. -1.
         21   -1    0    0  501  502 -0.00000000000E+00 -0.00000000000E+00 -0.37644317218E+03  0.37644317218E+03  0.00000000000E+00 0. -1.
         25    1    1    2    0    0  0.22444353260E+03 -0.26909953053E+02  0.84224330655E+02  0.27169428182E+03  0.12500000000E+03 0.  0.
         25    1    1    2    0    0 -0.10378482121E+03 -0.18066364576E+01 -0.92532744077E+02  0.18698091286E+03  0.12500000000E+03 0.  0.
         25    1    1    2    0    0 -0.12065871139E+03  0.28716589510E+02 -0.88722843501E+02  0.19717989276E+03  0.12500000000E+03 0.  0.
</event>
<event>
 5    0  0.5510933E-005  0.3098298E+03  0.7546771E-02  0.1080427E+00
         21   -1    0    0  502  501  0.00000000000E+00  0.00000000000E+00  0.65470092789E+03  0.65470092789E+03  0.00000000000E+00 0.  1.
         21   -1    0    0  501  502 -0.00000000000E+00 -0.00000000000E+00 -0.14662341504E+03  0.14662341504E+03  0.00000000000E+00 0.  1.
         25    1    1    2    0    0  0.15587171281E+03  0.20466389648E+02  0.24579445439E+03  0.31741893102E+03  0.12500000000E+03 0.  0.
         25    1    1    2    0    0 -0.66280988040E+02 -0.14955242803E+03  0.13243683040E+03  0.24479299858E+03  0.12500000000E+03 0.  0.
         25    1    1    2    0    0 -0.89590724771E+02  0.12908603838E+03  0.12984622806E+03  0.23911241333E+03  0.12500000000E+03 0.  0.
</event>
<event>
 5    0  0.5510933E-005  0.2337501E+03  0.7546771E-02  0.1124028E+00
         21   -1    0    0  502  501  0.00000000000E+00  0.00000000000E+00  0.49951860900E+03  0.49951860900E+03  0.00000000000E+00 0.  1.
         21   -1    0    0  501  502 -0.00000000000E+00 -0.00000000000E+00 -0.10938355257E+03  0.10938355257E+03  0.00000000000E+00 0.  1.
         25    1    1    2    0    0 -0.88427075066E+02  0.36879284713E+02  0.83459225410E+02  0.17824104901E+03  0.12500000000E+03 0.  0.
         25    1    1    2    0    0  0.12609167864E+02 -0.29088132325E+02  0.23406845759E+03  0.26724175085E+03  0.12500000000E+03 0.  0.
         25    1    1    2    0    0  0.75817907203E+02 -0.77911523877E+01  0.72607373427E+02  0.16341936172E+03  0.12500000000E+03 0.  0.
</event>
<event>
 5    0  0.5510933E-005  0.2264036E+03  0.7546771E-02  0.1129197E+00
         21   -1    0    0  502  501  0.00000000000E+00  0.00000000000E+00  0.46207391704E+02  0.46207391704E+02  0.00000000000E+00 0.  1.
         21   -1    0    0  501  502 -0.00000000000E+00 -0.00000000000E+00 -0.11093156566E+04  0.11093156566E+04  0.00000000000E+00 0.  1.
         25    1    1    2    0    0 -0.35623078896E+02  0.20775892874E+02 -0.51627541463E+03  0.53279071428E+03  0.12500000000E+03 0.  0.
         25    1    1    2    0    0 -0.43748506021E+02  0.22516939947E+02 -0.17853073623E+03  0.22342597911E+03  0.12500000000E+03 0.  0.
         25    1    1    2    0    0  0.79371584917E+02 -0.43292832820E+02 -0.36830211402E+03  0.39930635490E+03  0.12500000000E+03 0.  0.
</event>
<event>
 5    0  0.5510933E-005  0.3074518E+03  0.7546771E-02  0.1081574E+00
         21   -1    0    0  502  501  0.00000000000E+00  0.00000000000E+00  0.32149586247E+03  0.32149586247E+03  0.00000000000E+00 0. -1.
         21   -1    0    0  501  502 -0.00000000000E+00 -0.00000000000E+00 -0.29402118433E+03  0.29402118433E+03  0.00000000000E+00 0. -1.
         25    1    1    2    0    0 -0.83133040760E+01 -0.13339424197E+03  0.20994457676E+02  0.18419799692E+03  0.12500000000E+03 0.  0.
         25    1    1    2    0    0  0.15653649730E+03  0.21909923426E+02  0.39154930841E+02  0.20528474941E+03  0.12500000000E+03 0.  0.
         25    1    1    2    0    0 -0.14822319322E+03  0.11148431855E+03 -0.32674710368E+02  0.22603430047E+03  0.12500000000E+03 0.  0.
</event>
<event>
 5    0  0.5510933E-005  0.3002488E+03  0.7546771E-02  0.1085116E+00
         21   -1    0    0  502  501  0.00000000000E+00  0.00000000000E+00  0.16266321283E+03  0.16266321283E+03  0.00000000000E+00 0.  1.
         21   -1    0    0  501  502 -0.00000000000E+00 -0.00000000000E+00 -0.55420847047E+03  0.55420847047E+03  0.00000000000E+00 0.  1.
         25    1    1    2    0    0  0.15612572520E+03  0.89360268728E+02 -0.25713706297E+03  0.33779427001E+03  0.12500000000E+03 0.  0.
         25    1    1    2    0    0 -0.14404074107E+03 -0.40291728248E+02 -0.93030588279E+01  0.19514790636E+03  0.12500000000E+03 0.  0.
         25    1    1    2    0    0 -0.12084984123E+02 -0.49068540479E+02 -0.12510513584E+03  0.18392950693E+03  0.12500000000E+03 0.  0.
</event>
<event>
 5    0  0.5510933E-005  0.2366809E+03  0.7546771E-02  0.1122024E+00
         21   -1    0    0  502  501  0.00000000000E+00  0.00000000000E+00  0.74853591927E+03  0.74853591927E+03  0.00000000000E+00 0. -1.
         21   -1    0    0  501  502 -0.00000000000E+00 -0.00000000000E+00 -0.74836532271E+02  0.74836532271E+02  0.00000000000E+00 0. -1.
         25    1    1    2    0    0  0.80636719648E+02  0.99688455667E+02  0.32157578989E+03  0.36807072336E+03  0.12500000000E+03 0.  0.
         25    1    1    2    0    0 -0.72248295056E+02 -0.61259081191E+02  0.17537786109E+03  0.23527618946E+03  0.12500000000E+03 0.  0.
         25    1    1    2    0    0 -0.83884245917E+01 -0.38429374475E+02  0.17674573602E+03  0.22002553873E+03  0.12500000000E+03 0.  0.
</event>
<event>
 5    0  0.5951140E-005  0.3402773E+03  0.7546771E-02  0.1066678E+00
         21   -1    0    0  502  501  0.00000000000E+00  0.00000000000E+00  0.14015385905E+03  0.14015385905E+03  0.00000000000E+00 0. -1.
         21   -1    0    0  501  502 -0.00000000000E+00 -0.00000000000E+00 -0.82615389404E+03  0.82615389404E+03  0.00000000000E+00 0. -1.
         25    1    1    2    0    0 -0.10299727968E+02 -0.10920924774E+03 -0.70447119653E+02  0.18061157453E+03  0.12500000000E+03 0.  0.
         25    1    1    2    0    0 -0.15217113684E+03  0.12113485036E+03 -0.49809019371E+03  0.54913436237E+03  0.12500000000E+03 0.  0.
         25    1    1    2    0    0  0.16247086481E+03 -0.11925602622E+02 -0.11746272162E+03  0.23656181619E+03  0.12500000000E+03 0.  0.
</event>
<event>
 5    0  0.5510933E-005  0.2512258E+03  0.7546771E-02  0.1112533E+00
         21   -1    0    0  502  501  0.00000000000E+00  0.00000000000E+00  0.25167354273E+03  0.25167354273E+03  0.00000000000E+00 0. -1.
         21   -1    0    0  501  502 -0.00000000000E+00 -0.00000000000E+00 -0.25077890385E+03  0.25077890385E+03  0.00000000000E+00 0. -1.
         25    1    1    2    0    0 -0.96786568936E+01 -0.56567453120E+02  0.91484242615E+01  0.13784863735E+03  0.12500000000E+03 0.  0.
         25    1    1    2    0    0  0.80585095357E+02  0.10355657249E+03  0.70098135926E+02  0.19431075616E+03  0.12500000000E+03 0.  0.
         25    1    1    2    0    0 -0.70906438463E+02 -0.46989119370E+02 -0.78351921304E+02  0.17029305308E+03  0.12500000000E+03 0.  0.
</event>
<event>
 5    0  0.5510933E-005  0.3330204E+03  0.7546771E-02  0.1069808E+00
         21   -1    0    0  502  501  0.00000000000E+00  0.00000000000E+00  0.15979283607E+03  0.15979283607E+03  0.00000000000E+00 0.  1.
         21   -1    0    0  501  502 -0.00000000000E+00 -0.00000000000E+00 -0.69403977456E+03  0.69403977456E+03  0.00000000000E+00 0.  1.
         25    1    1    2    0    0  0.28815580812E+02 -0.10735934016E+03 -0.76290296201E+02  0.18385204625E+03  0.12500000000E+03 0.  0.
         25    1    1    2    0    0  0.11934334011E+03  0.11289205226E+03 -0.42608260340E+03  0.47345415112E+03  0.12500000000E+03 0.  0.
         25    1    1    2    0    0 -0.14815892093E+03 -0.55327121005E+01 -0.31874038884E+02  0.19652641326E+03  0.12500000000E+03 0.  0.
</event>
<event>
 5    0  0.5510933E-005  0.3560636E+03  0.7546771E-02  0.1060153E+00
         21   -1    0    0  502  501  0.00000000000E+00  0.00000000000E+00  0.63082944435E+03  0.63082944435E+03  0.00000000000E+00 0.  1.
         21   -1    0    0  501  502 -0.00000000000E+00 -0.00000000000E+00 -0.20097553679E+03  0.20097553679E+03  0.00000000000E+00 0. -1.
         25    1    1    2    0    0 -0.13150312131E+03 -0.18782011505E+03  0.16234707556E+03  0.30749152748E+03  0.12500000000E+03 0.  0.
         25    1    1    2    0    0 -0.53680884927E+02 -0.11191143886E+02  0.15013727425E+03  0.20291150837E+03  0.12500000000E+03 0.  0.
         25    1    1    2    0    0  0.18518400624E+03  0.19901125893E+03  0.11736955776E+03  0.32140194529E+03  0.12500000000E+03 0.  0.
</event>
<event>
 5    0  0.5510933E-005  0.2380657E+03  0.7546771E-02  0.1121088E+00
         21   -1    0    0  502  501  0.00000000000E+00  0.00000000000E+00  0.14288288485E+03  0.14288288485E+03  0.00000000000E+00 0.  1.
         21   -1    0    0  501  502 -0.00000000000E+00 -0.00000000000E+00 -0.39665559675E+03  0.39665559675E+03  0.00000000000E+00 0.  1.
         25    1    1    2    0    0  0.47476911588E+02 -0.34276151274E+02 -0.29722867274E+02  0.14119971855E+03  0.12500000000E+03 0.  0.
         25    1    1    2    0    0  0.16012611376E+02  0.24070499093E+02 -0.22356932742E+03  0.25776740836E+03  0.12500000000E+03 0.  0.
         25    1    1    2    0    0 -0.63489522963E+02  0.10205652180E+02 -0.48051720268E+00  0.14057135469E+03  0.12500000000E+03 0.  0.
</event>
<event>
 5    0  0.5510933E-005  0.2312341E+03  0.7546771E-02  0.1125774E+00
         21   -1    0    0  502  501  0.00000000000E+00  0.00000000000E+00  0.68076130486E+03  0.68076130486E+03  0.00000000000E+00 0. -1.
         21   -1    0    0  501  502 -0.00000000000E+00 -0.00000000000E+00 -0.78543232143E+02  0.78543232143E+02  0.00000000000E+00 0. -1.
         25    1    1    2    0    0 -0.42484100140E+02 -0.27052846268E+02  0.41945727096E+02  0.14114247864E+03  0.12500000000E+03 0.  0.
         25    1    1    2    0    0  0.46663081458E+02  0.16221582022E+02  0.25951748278E+03  0.29225828776E+03  0.12500000000E+03 0.  0.
         25    1    1    2    0    0 -0.41789813180E+01  0.10831264246E+02  0.30075486284E+03  0.32590377060E+03  0.12500000000E+03 0.  0.
</event>
<event>
 5    0  0.5510933E-005  0.2372357E+03  0.7546771E-02  0.1121648E+00
         21   -1    0    0  502  501  0.00000000000E+00  0.00000000000E+00  0.17166939495E+03  0.17166939495E+03  0.00000000000E+00 0.  1.
         21   -1    0    0  501  502 -0.00000000000E+00 -0.00000000000E+00 -0.32784393734E+03  0.32784393734E+03  0.00000000000E+00 0.  1.
         25    1    1    2    0    0  0.36606924880E+02  0.65768927127E+02 -0.10513906874E+03  0.17984671946E+03  0.12500000000E+03 0.  0.
         25    1    1    2    0    0  0.35459847065E+02  0.40261917133E+02 -0.13288451094E+02  0.13667481720E+03  0.12500000000E+03 0.  0.
         25    1    1    2    0    0 -0.72066771945E+02 -0.10603084426E+03 -0.37747022560E+02  0.18299179562E+03  0.12500000000E+03 0.  0.
</event>
<event>
 5    0  0.5510933E-005  0.2729380E+03  0.7546771E-02  0.1099610E+00
         21   -1    0    0  502  501  0.00000000000E+00  0.00000000000E+00  0.19054690313E+03  0.19054690313E+03  0.00000000000E+00 0. -1.
         21   -1    0    0  501  502 -0.00000000000E+00 -0.00000000000E+00 -0.39095438652E+03  0.39095438652E+03  0.00000000000E+00 0. -1.
         25    1    1    2    0    0  0.14948725691E+02 -0.68892641761E+02 -0.47455211495E+02  0.15115110845E+03  0.12500000000E+03 0.  0.
         25    1    1    2    0    0 -0.69606519205E+02 -0.21874229813E+02 -0.21155085670E+03  0.25632462702E+03  0.12500000000E+03 0.  0.
         25    1    1    2    0    0  0.54657793514E+02  0.90766871574E+02  0.58598584806E+02  0.17402555418E+03  0.12500000000E+03 0.  0.
</event>
<event>
 5    0  0.5510933E-005  0.2814781E+03  0.7546771E-02  0.1094884E+00
         21   -1    0    0  502  501  0.00000000000E+00  0.00000000000E+00  0.10542804614E+03  0.10542804614E+03  0.00000000000E+00 0.  1.
         21   -1    0    0  501  502 -0.00000000000E+00 -0.00000000000E+00 -0.75150694727E+03  0.75150694727E+03  0.00000000000E+00 0.  1.
         25    1    1    2    0    0 -0.12369373908E+03 -0.21012285672E+02 -0.51673310106E+03  0.54624148046E+03  0.12500000000E+03 0.  0.
         25    1    1    2    0    0  0.74816594679E+02  0.25945158166E+02 -0.73788258094E+02  0.16534927004E+03  0.12500000000E+03 0.  0.
         25    1    1    2    0    0  0.48877144398E+02 -0.49328724933E+01 -0.55557541979E+02  0.14534424291E+03  0.12500000000E+03 0.  0.
</event>
<event>
 5    0  0.5510933E-005  0.2437336E+03  0.7546771E-02  0.1117330E+00
         21   -1    0    0  502  501  0.00000000000E+00  0.00000000000E+00  0.62815404961E+03  0.62815404961E+03  0.00000000000E+00 0.  1.
         21   -1    0    0  501  502 -0.00000000000E+00 -0.00000000000E+00 -0.94572432778E+02  0.94572432778E+02  0.00000000000E+00 0.  1.
         25    1    1    2    0    0  0.23226957311E+02  0.40297359808E+02  0.39999202431E+03  0.42164201435E+03  0.12500000000E+03 0.  0.
         25    1    1    2    0    0 -0.97651461665E+01 -0.51176556896E+02  0.10584098982E+03  0.17187702925E+03  0.12500000000E+03 0.  0.
         25    1    1    2    0    0 -0.13461811144E+02  0.10879197087E+02  0.27748602703E+02  0.12920743880E+03  0.12500000000E+03 0.  0.
</event>
<event>
 5    0  0.5510933E-005  0.2812437E+03  0.7546771E-02  0.1095012E+00
         21   -1    0    0  502  501  0.00000000000E+00  0.00000000000E+00  0.30777391970E+03  0.30777391970E+03  0.00000000000E+00 0. -1.
         21   -1    0    0  501  502 -0.00000000000E+00 -0.00000000000E+00 -0.25700038863E+03  0.25700038863E+03  0.00000000000E+00 0. -1.
         25    1    1    2    0    0 -0.94609071814E+02 -0.20871235227E+02  0.83138230180E+02  0.17867134702E+03  0.12500000000E+03 0.  0.
         25    1    1    2    0    0 -0.35248134745E+02 -0.60343229102E+02 -0.10274436702E+03  0.17625306027E+03  0.12500000000E+03 0.  0.
         25    1    1    2    0    0  0.12985720656E+03  0.81214464328E+02  0.70379667902E+02  0.20984990104E+03  0.12500000000E+03 0.  0.
</event>
<event>
 5    0  0.5510933E-005  0.4350590E+03  0.7546771E-02  0.1032274E+00
         21   -1    0    0  502  501  0.00000000000E+00  0.00000000000E+00  0.33084799643E+03  0.33084799643E+03  0.00000000000E+00 0. -1.
         21   -1    0    0  501  502 -0.00000000000E+00 -0.00000000000E+00 -0.57209455858E+03  0.57209455858E+03  0.00000000000E+00 0. -1.
         25    1    1    2    0    0 -0.94980185025E+02  0.18683932089E+03 -0.25531584614E+03  0.35318741295E+03  0.12500000000E+03 0.  0.
         25    1    1    2    0    0  0.21039356876E+03 -0.17693478795E+03  0.14485677580E+03  0.33493261778E+03  0.12500000000E+03 0.  0.
         25    1    1    2    0    0 -0.11541338373E+03 -0.99045329450E+01 -0.13078749181E+03  0.21482252427E+03  0.12500000000E+03 0.  0.
</event>
<event>
 5    0  0.5510933E-005  0.2837054E+03  0.7546771E-02  0.1093682E+00
         21   -1    0    0  502  501  0.00000000000E+00  0.00000000000E+00  0.40408625043E+03  0.40408625043E+03  0.00000000000E+00 0. -1.
         21   -1    0    0  501  502 -0.00000000000E+00 -0.00000000000E+00 -0.19918706819E+03  0.19918706819E+03  0.00000000000E+00 0. -1.
         25    1    1    2    0    0  0.26328613945E+02 -0.12409800608E+02  0.95216986351E+02  0.15980761419E+03  0.12500000000E+03 0.  0.
         25    1    1    2    0    0 -0.63998512661E+02  0.42628332949E+02 -0.11187390069E+03  0.18453659271E+03  0.12500000000E+03 0.  0.
         25    1    1    2    0    0  0.37669898716E+02 -0.30218532341E+02  0.22155609658E+03  0.25892911173E+03  0.12500000000E+03 0.  0.
</event>
<event>
 5    0  0.5510933E-005  0.2405759E+03  0.7546771E-02  0.1119410E+00
         21   -1    0    0  502  501  0.00000000000E+00  0.00000000000E+00  0.18004355562E+03  0.18004355562E+03  0.00000000000E+00 0. -1.
         21   -1    0    0  501  502 -0.00000000000E+00 -0.00000000000E+00 -0.32145977236E+03  0.32145977236E+03  0.00000000000E+00 0. -1.
         25    1    1    2    0    0  0.23473755648E+02  0.63675435866E+01 -0.12926413957E+02  0.12799865231E+03  0.12500000000E+03 0.  0.
         25    1    1    2    0    0 -0.10749635821E+03  0.72700719361E+02 -0.56981441691E+02  0.18897816361E+03  0.12500000000E+03 0.  0.
         25    1    1    2    0    0  0.84022602567E+02 -0.79068262948E+02 -0.71508361096E+02  0.18452651206E+03  0.12500000000E+03 0.  0.
</event>
<event>
 5    0  0.5510933E-005  0.8073197E+03  0.7546771E-02  0.9549482E-01
         21   -1    0    0  502  501  0.00000000000E+00  0.00000000000E+00  0.54244185053E+03  0.54244185053E+03  0.00000000000E+00 0. -1.
         21   -1    0    0  501  502 -0.00000000000E+00 -0.00000000000E+00 -0.12015390954E+04  0.12015390954E+04  0.00000000000E+00 0. -1.
         25    1    1    2    0    0 -0.21486298085E+03 -0.14615118579E+03  0.45407237628E+03  0.53789682333E+03  0.12500000000E+03 0.  0.
         25    1    1    2    0    0  0.15073880801E+03  0.71936389780E+02 -0.23748994164E+03  0.31610679333E+03  0.12500000000E+03 0.  0.
         25    1    1    2    0    0  0.64124172845E+02  0.74214796009E+02 -0.87567967948E+03  0.88997732923E+03  0.12500000000E+03 0.  0.
</event>
<event>
 5    0  0.5950341E-005  0.2669863E+03  0.7546771E-02  0.1103017E+00
         21   -1    0    0  502  501  0.00000000000E+00  0.00000000000E+00  0.45970640660E+03  0.45970640660E+03  0.00000000000E+00 0. -1.
         21   -1    0    0  501  502 -0.00000000000E+00 -0.00000000000E+00 -0.15505916196E+03  0.15505916196E+03  0.00000000000E+00 0. -1.
         25    1    1    2    0    0 -0.29297261423E+02 -0.25457005985E+02  0.23345288172E+03  0.26764087256E+03  0.12500000000E+03 0.  0.
         25    1    1    2    0    0  0.78864050474E+02 -0.43510853595E+02 -0.40381666274E+02  0.15927464270E+03  0.12500000000E+03 0.  0.
         25    1    1    2    0    0 -0.49566789050E+02  0.68967859580E+02  0.11157602919E+03  0.18785005329E+03  0.12500000000E+03 0.  0.
</event>
<event>
 5    0  0.5510933E-005  0.2268913E+03  0.7546771E-02  0.1128847E+00
         21   -1    0    0  502  501  0.00000000000E+00  0.00000000000E+00  0.78796451949E+03  0.78796451949E+03  0.00000000000E+00 0. -1.
         21   -1    0    0  501  502 -0.00000000000E+00 -0.00000000000E+00 -0.65332481819E+02  0.65332481819E+02  0.00000000000E+00 0. -1.
         25    1    1    2    0    0 -0.13580445814E+02 -0.64843780588E+01  0.30700889688E+03  0.33182214880E+03  0.12500000000E+03 0.  0.
         25    1    1    2    0    0  0.59701516602E+02  0.23683695481E+02  0.84127100239E+02  0.16379120096E+03  0.12500000000E+03 0.  0.
         25    1    1    2    0    0 -0.46121070789E+02 -0.17199317422E+02  0.33149604056E+03  0.35768365156E+03  0.12500000000E+03 0.  0.
</event>
<event>
 5    0  0.6497500E-005  0.4363688E+03  0.7546771E-02  0.1031867E+00
         21   -1    0    0  502  501  0.00000000000E+00  0.00000000000E+00  0.67313232747E+03  0.67313232747E+03  0.00000000000E+00 0.  1.
         21   -1    0    0  501  502 -0.00000000000E+00 -0.00000000000E+00 -0.28288306769E+03  0.28288306769E+03  0.00000000000E+00 0.  1.
         25    1    1    2    0    0 -0.22343554943E+03 -0.14802679932E+03  0.28808411643E+03  0.41285934192E+03  0.12500000000E+03 0.  0.
         25    1    1    2    0    0  0.31397344119E+02  0.24830033236E+03  0.85295998793E+02  0.29247094844E+03  0.12500000000E+03 0.  0.
         25    1    1    2    0    0  0.19203820532E+03 -0.10027353304E+03  0.16869144557E+02  0.25068510480E+03  0.12500000000E+03 0.  0.
</event>
<event>
 5    0  0.5510933E-005  0.2906721E+03  0.7546771E-02  0.1089999E+00
         21   -1    0    0  502  501  0.00000000000E+00  0.00000000000E+00  0.57861594394E+03  0.57861594394E+03  0.00000000000E+00 0.  1.
         21   -1    0    0  501  502 -0.00000000000E+00 -0.00000000000E+00 -0.14602134211E+03  0.14602134211E+03  0.00000000000E+00 0.  1.
         25    1    1    2    0    0 -0.27219506312E+02 -0.91508393076E+01  0.43230035057E+03  0.45092486346E+03  0.12500000000E+03 0.  0.
         25    1    1    2    0    0  0.49686945059E+02  0.27459232494E+02 -0.32895984227E+02  0.14117346683E+03  0.12500000000E+03 0.  0.
         25    1    1    2    0    0 -0.22467438746E+02 -0.18308393187E+02  0.33190235490E+02  0.13253895577E+03  0.12500000000E+03 0.  0.
</event>
<event>
 5    0  0.5510933E-005  0.2893274E+03  0.7546771E-02  0.1090701E+00
         21   -1    0    0  502  501  0.00000000000E+00  0.00000000000E+00  0.13897663934E+03  0.13897663934E+03  0.00000000000E+00 0.  1.
         21   -1    0    0  501  502 -0.00000000000E+00 -0.00000000000E+00 -0.60233409755E+03  0.60233409755E+03  0.00000000000E+00 0.  1.
         25    1    1    2    0    0 -0.49875044969E+01  0.12250299786E+03 -0.87628788732E+02  0.19579495474E+03  0.12500000000E+03 0.  0.
         25    1    1    2    0    0 -0.43368007200E+02 -0.19236535278E+03 -0.28803529333E+03  0.37077559683E+03  0.12500000000E+03 0.  0.
         25    1    1    2    0    0  0.48355511696E+02  0.69862354922E+02 -0.87693376148E+02  0.17474018532E+03  0.12500000000E+03 0.  0.
</event>
<event>
 5    0  0.5510933E-005  0.3495035E+03  0.7546771E-02  0.1062819E+00
         21   -1    0    0  502  501  0.00000000000E+00  0.00000000000E+00  0.76784792056E+02  0.76784792056E+02  0.00000000000E+00 0.  1.
         21   -1    0    0  501  502 -0.00000000000E+00 -0.00000000000E+00 -0.15908452877E+04  0.15908452877E+04  0.00000000000E+00 0.  1.
         25    1    1    2    0    0  0.12965800254E+03 -0.32367117562E+02 -0.56917390048E+03  0.59786516616E+03  0.12500000000E+03 0.  0.
         25    1    1    2    0    0  0.45645605955E+02 -0.15768419423E+03 -0.49179909547E+03  0.53332839485E+03  0.12500000000E+03 0.  0.
         25    1    1    2    0    0 -0.17530360850E+03  0.19005131179E+03 -0.45308749974E+03  0.53643651879E+03  0.12500000000E+03 0.  0.
</event>
<event>
 5    0  0.5510933E-005  0.2892893E+03  0.7546771E-02  0.1090721E+00
         21   -1    0    0  502  501  0.00000000000E+00  0.00000000000E+00  0.99329162032E+03  0.99329162032E+03  0.00000000000E+00 0.  1.
         21   -1    0    0  501  502 -0.00000000000E+00 -0.00000000000E+00 -0.84253497348E+02  0.84253497348E+02  0.00000000000E+00 0.  1.
         25    1    1    2    0    0 -0.75816257721E+01 -0.17259865476E+01  0.76723250300E+03  0.77738740261E+03  0.12500000000E+03 0.  0.
         25    1    1    2    0    0 -0.33197298738E+02 -0.18223470598E+02  0.82969832106E+02  0.15473573784E+03  0.12500000000E+03 0.  0.
         25    1    1    2    0    0  0.40778924510E+02  0.19949457146E+02  0.58835787866E+02  0.14542197722E+03  0.12500000000E+03 0.  0.
</event>
<event>
 5    0  0.5510933E-005  0.3103019E+03  0.7546771E-02  0.1080201E+00
         21   -1    0    0  502  501  0.00000000000E+00  0.00000000000E+00  0.10505273166E+04  0.10505273166E+04  0.00000000000E+00 0.  1.
         21   -1    0    0  501  502 -0.00000000000E+00 -0.00000000000E+00 -0.91656156584E+02  0.91656156584E+02  0.00000000000E+00 0.  1.
         25    1    1    2    0    0  0.71697675911E+02 -0.77872388125E+02  0.71606812098E+03  0.73456328485E+03  0.12500000000E+03 0.  0.
         25    1    1    2    0    0 -0.82789359529E+02  0.78696606843E+01  0.21344004628E+03  0.26095528921E+03  0.12500000000E+03 0.  0.
         25    1    1    2    0    0  0.11091683618E+02  0.70002727441E+02  0.29362992766E+02  0.14666489914E+03  0.12500000000E+03 0.  0.
</event>
<event>
 5    0  0.5510933E-005  0.3998207E+03  0.7546771E-02  0.1043842E+00
         21   -1    0    0  502  501  0.00000000000E+00  0.00000000000E+00  0.56077896516E+03  0.56077896516E+03  0.00000000000E+00 0.  1.
         21   -1    0    0  501  502 -0.00000000000E+00 -0.00000000000E+00 -0.28506173362E+03  0.28506173362E+03  0.00000000000E+00 0.  1.
         25    1    1    2    0    0  0.50906023342E+02 -0.72789069551E+01 -0.21379998564E+03  0.25294236411E+03  0.12500000000E+03 0.  0.
         25    1    1    2    0    0  0.77096424119E+02  0.40928744839E+02  0.22507165726E+03  0.27184788332E+03  0.12500000000E+03 0.  0.
         25    1    1    2    0    0 -0.12800244746E+03 -0.33649837884E+02  0.26444555992E+03  0.32105045135E+03  0.12500000000E+03 0.  0.
</event>
<event>
 5    0  0.5510933E-005  0.2572191E+03  0.7546771E-02  0.1108826E+00
         21   -1    0    0  502  501  0.00000000000E+00  0.00000000000E+00  0.89487499574E+02  0.89487499574E+02  0.00000000000E+00 0. -1.
         21   -1    0    0  501  502 -0.00000000000E+00 -0.00000000000E+00 -0.73933970477E+03  0.73933970477E+03  0.00000000000E+00 0. -1.
         25    1    1    2    0    0 -0.28604729706E+02 -0.21215275459E+02 -0.97896141656E+02  0.16271746380E+03  0.12500000000E+03 0.  0.
         25    1    1    2    0    0  0.11761566474E+03  0.93704904274E+02 -0.36156756275E+03  0.41105979627E+03  0.12500000000E+03 0.  0.
         25    1    1    2    0    0 -0.89010935031E+02 -0.72489628815E+02 -0.19038850079E+03  0.25504994427E+03  0.12500000000E+03 0.  0.
</event>
<event>
 5    0  0.5510933E-005  0.2306409E+03  0.7546771E-02  0.1126189E+00
         21   -1    0    0  502  501  0.00000000000E+00  0.00000000000E+00  0.54728058223E+02  0.54728058223E+02  0.00000000000E+00 0.  1.
         21   -1    0    0  501  502 -0.00000000000E+00 -0.00000000000E+00 -0.97199193546E+03  0.97199193546E+03  0.00000000000E+00 0.  1.
         25    1    1    2    0    0  0.11001099039E+03 -0.49167710286E+02 -0.33863584140E+03  0.38055106730E+03  0.12500000000E+03 0.  0.
         25    1    1    2    0    0 -0.65617886943E+02  0.57425210635E+02 -0.26806218014E+03  0.30835968337E+03  0.12500000000E+03 0.  0.
         25    1    1    2    0    0 -0.44393103444E+02 -0.82575003488E+01 -0.31056585569E+03  0.33780924302E+03  0.12500000000E+03 0.  0.
</event>
<event>
 5    0  0.5510933E-005  0.2995062E+03  0.7546771E-02  0.1085488E+00
         21   -1    0    0  502  501  0.00000000000E+00  0.00000000000E+00  0.14225695582E+04  0.14225695582E+04  0.00000000000E+00 0.  1.
         21   -1    0    0  501  502 -0.00000000000E+00 -0.00000000000E+00 -0.63057693722E+02  0.63057693722E+02  0.00000000000E+00 0.  1.
         25    1    1    2    0    0  0.26996412881E+02 -0.88572622682E+02  0.42098436869E+03  0.44880592073E+03  0.12500000000E+03 0.  0.
         25    1    1    2    0    0  0.16618925770E+02 -0.12878052889E+03  0.47461126757E+03  0.50768244860E+03  0.12500000000E+03 0.  0.
         25    1    1    2    0    0 -0.43615338650E+02  0.21735315157E+03  0.46391622819E+03  0.52913888256E+03  0.12500000000E+03 0.  0.
</event>
<event>
 5    0  0.5510933E-005  0.3129676E+03  0.7546771E-02  0.1078932E+00
         21   -1    0    0  502  501  0.00000000000E+00  0.00000000000E+00  0.99900296578E+02  0.99900296578E+02  0.00000000000E+00 0. -1.
         21   -1    0    0  501  502 -0.00000000000E+00 -0.00000000000E+00 -0.98046473418E+03  0.98046473418E+03  0.00000000000E+00 0. -1.
         25    1    1    2    0    0 -0.82275044405E+02  0.10165557350E+02 -0.10548417910E+03  0.18336966360E+03  0.12500000000E+03 0.  0.
         25    1    1    2    0    0  0.96472270346E+01  0.14038926288E+02 -0.73400736835E+03  0.74476974780E+03  0.12500000000E+03 0.  0.
         25    1    1    2    0    0  0.72627817370E+02 -0.24204483638E+02 -0.41072890150E+02  0.15222561936E+03  0.12500000000E+03 0.  0.
</event>
<event>
 5    0  0.5510933E-005  0.2224966E+03  0.7546771E-02  0.1132035E+00
         21   -1    0    0  502  501  0.00000000000E+00  0.00000000000E+00  0.18897532705E+03  0.18897532705E+03  0.00000000000E+00 0.  1.
         21   -1    0    0  501  502 -0.00000000000E+00 -0.00000000000E+00 -0.26196404340E+03  0.26196404340E+03  0.00000000000E+00 0.  1.
         25    1    1    2    0    0 -0.35737986567E+02  0.60177348843E+02 -0.19350470391E+02  0.14456125934E+03  0.12500000000E+03 0.  0.
         25    1    1    2    0    0  0.54149666712E+02 -0.93985909410E+02 -0.58387214498E+02  0.17549816064E+03  0.12500000000E+03 0.  0.
         25    1    1    2    0    0 -0.18411680145E+02  0.33808560567E+02  0.47489685363E+01  0.13087995047E+03  0.12500000000E+03 0.  0.
</event>
<event>
 5    0  0.5510933E-005  0.2100735E+03  0.7546771E-02  0.1141508E+00
         21   -1    0    0  502  501  0.00000000000E+00  0.00000000000E+00  0.13015744640E+03  0.13015744640E+03  0.00000000000E+00 0.  1.
         21   -1    0    0  501  502 -0.00000000000E+00 -0.00000000000E+00 -0.33905760938E+03  0.33905760938E+03  0.00000000000E+00 0.  1.
         25    1    1    2    0    0  0.26681228078E+01  0.56103119202E+02 -0.12577745428E+03  0.18600980315E+03  0.12500000000E+03 0.  0.
         25    1    1    2    0    0  0.31629727233E+02 -0.88862908481E+01 -0.17447725937E+02  0.13041790119E+03  0.12500000000E+03 0.  0.
         25    1    1    2    0    0 -0.34297850041E+02 -0.47216828353E+02 -0.65674982769E+02  0.15278735144E+03  0.12500000000E+03 0.  0.
</event>
<event>
 5    0  0.5510933E-005  0.4652955E+03  0.7546771E-02  0.1023256E+00
         21   -1    0    0  502  501  0.00000000000E+00  0.00000000000E+00  0.46082559807E+03  0.46082559807E+03  0.00000000000E+00 0.  1.
         21   -1    0    0  501  502 -0.00000000000E+00 -0.00000000000E+00 -0.46980866163E+03  0.46980866163E+03  0.00000000000E+00 0.  1.
         25    1    1    2    0    0 -0.55395953870E+02 -0.55824576200E+02  0.16155490445E+03  0.21888371836E+03  0.12500000000E+03 0.  0.
         25    1    1    2    0    0 -0.27713249056E+03  0.12268302987E+03 -0.56244491431E+02  0.33262890126E+03  0.12500000000E+03 0.  0.
         25    1    1    2    0    0  0.33252844443E+03 -0.66858453669E+02 -0.11429347658E+03  0.37912164007E+03  0.12500000000E+03 0.  0.
</event>
<event>
 5    0  0.5510933E-005  0.2210940E+03  0.7546771E-02  0.1133070E+00
         21   -1    0    0  502  501  0.00000000000E+00  0.00000000000E+00  0.72518597352E+02  0.72518597352E+02  0.00000000000E+00 0. -1.
         21   -1    0    0  501  502 -0.00000000000E+00 -0.00000000000E+00 -0.67406947424E+03  0.67406947424E+03  0.00000000000E+00 0. -1.
         25    1    1    2    0    0 -0.20141683428E+02  0.17601730030E+02 -0.10388659091E+03  0.16472077004E+03  0.12500000000E+03 0.  0.
         25    1    1    2    0    0  0.67939764864E+02 -0.38412742400E+02 -0.15729015676E+03  0.21553780142E+03  0.12500000000E+03 0.  0.
         25    1    1    2    0    0 -0.47798081436E+02  0.20811012370E+02 -0.34037412922E+03  0.36632950013E+03  0.12500000000E+03 0.  0.
</event>
<event>
 5    0  0.5510933E-005  0.2563202E+03  0.7546771E-02  0.1109374E+00
         21   -1    0    0  502  501  0.00000000000E+00  0.00000000000E+00  0.82181548460E+03  0.82181548460E+03  0.00000000000E+00 0. -1.
         21   -1    0    0  501  502 -0.00000000000E+00 -0.00000000000E+00 -0.79945038340E+02  0.79945038340E+02  0.00000000000E+00 0. -1.
         25    1    1    2    0    0 -0.49987298746E+02 -0.14066070833E+02  0.24244034770E+03  0.27766689860E+03  0.12500000000E+03 0.  0.
         25    1    1    2    0    0 -0.58013366908E+02 -0.61808293889E+02  0.37369319679E+03  0.40306007153E+03  0.12500000000E+03 0.  0.
         25    1    1    2    0    0  0.10800066565E+03  0.75874364721E+02  0.12573690178E+03  0.22103355282E+03  0.12500000000E+03 0.  0.
</event>
<event>
 5    0  0.5510933E-005  0.4427902E+03  0.7546771E-02  0.1029894E+00
         21   -1    0    0  502  501  0.00000000000E+00  0.00000000000E+00  0.11581676131E+04  0.11581676131E+04  0.00000000000E+00 0.  1.
         21   -1    0    0  501  502 -0.00000000000E+00 -0.00000000000E+00 -0.16928736084E+03  0.16928736084E+03  0.00000000000E+00 0.  1.
         25    1    1    2    0    0  0.17077474858E+02  0.17554919020E+02  0.45984725346E+03  0.47716277291E+03  0.12500000000E+03 0.  0.
         25    1    1    2    0    0 -0.68845358150E+02  0.18611983916E+03 -0.33502290599E+02  0.23691281380E+03  0.12500000000E+03 0.  0.
         25    1    1    2    0    0  0.51767883292E+02 -0.20367475818E+03  0.56253528940E+03  0.61337938723E+03  0.12500000000E+03 0.  0.
</event>
<event>
 5    0  0.5510933E-005  0.3887520E+03  0.7546771E-02  0.1047746E+00
         21   -1    0    0  502  501  0.00000000000E+00  0.00000000000E+00  0.55943040475E+02  0.55943040475E+02  0.00000000000E+00 0.  1.
         21   -1    0    0  501  502 -0.00000000000E+00 -0.00000000000E+00 -0.27014640047E+04  0.27014640047E+04  0.00000000000E+00 0.  1.
         25    1    1    2    0    0  0.14855401153E+03 -0.43256148841E+01 -0.64671717179E+03  0.67524447837E+03  0.12500000000E+03 0.  0.
         25    1    1    2    0    0  0.10975542490E+03 -0.13181603671E+03 -0.12633405673E+04  0.12810449289E+04  0.12500000000E+03 0.  0.
         25    1    1    2    0    0 -0.25830943643E+03  0.13614165160E+03 -0.73546322508E+03  0.80111763786E+03  0.12500000000E+03 0.  0.
</event>
<event>
 5    0  0.5510933E-005  0.2457794E+03  0.7546771E-02  0.1116002E+00
         21   -1    0    0  502  501  0.00000000000E+00  0.00000000000E+00  0.13872750250E+03  0.13872750250E+03  0.00000000000E+00 0.  1.
         21   -1    0    0  501  502 -0.00000000000E+00 -0.00000000000E+00 -0.43544007422E+03  0.43544007422E+03  0.00000000000E+00 0.  1.
         25    1    1    2    0    0 -0.87213142913E+01 -0.11995519469E+03 -0.22092276992E+02  0.17486674572E+03  0.12500000000E+03 0.  0.
         25    1    1    2    0    0 -0.16885919761E+02  0.70871714915E+02 -0.93063520059E+02  0.17202834949E+03  0.12500000000E+03 0.  0.
         25    1    1    2    0    0  0.25607234052E+02  0.49083479776E+02 -0.18155677467E+03  0.22727248151E+03  0.12500000000E+03 0.  0.
</event>
<event>
 5    0  0.5510933E-005  0.3197000E+03  0.7546771E-02  0.1075787E+00
         21   -1    0    0  502  501  0.00000000000E+00  0.00000000000E+00  0.42319165030E+03  0.42319165030E+03  0.00000000000E+00 0. -1.
         21   -1    0    0  501  502 -0.00000000000E+00 -0.00000000000E+00 -0.24151725066E+03  0.24151725066E+03  0.00000000000E+00 0. -1.
         25    1    1    2    0    0 -0.19664096410E+02 -0.16256489085E+02  0.30877462508E+03  0.33409238126E+03  0.12500000000E+03 0.  0.
         25    1    1    2    0    0 -0.49449282548E+02  0.71231441369E+02 -0.65628090119E+02  0.16568402457E+03  0.12500000000E+03 0.  0.
         25    1    1    2    0    0  0.69113378958E+02 -0.54974952284E+02 -0.61472135325E+02  0.16493249513E+03  0.12500000000E+03 0.  0.
</event>
<event>
 5    0  0.5510933E-005  0.4547134E+03  0.7546771E-02  0.1026326E+00
         21   -1    0    0  502  501  0.00000000000E+00  0.00000000000E+00  0.16484522382E+03  0.16484522382E+03  0.00000000000E+00 0.  1.
         21   -1    0    0  501  502 -0.00000000000E+00 -0.00000000000E+00 -0.12542935311E+04  0.12542935311E+04  0.00000000000E+00 0.  1.
         25    1    1    2    0    0  0.15371726866E+03  0.16809577250E+02 -0.17317818491E+03  0.26368019322E+03  0.12500000000E+03 0.  0.
         25    1    1    2    0    0  0.24647741617E+03  0.45429752892E+02 -0.36804056120E+03  0.46248657691E+03  0.12500000000E+03 0.  0.
         25    1    1    2    0    0 -0.40019468482E+03 -0.62239330143E+02 -0.54822956119E+03  0.69297198482E+03  0.12500000000E+03 0.  0.
</event>
<event>
 5    0  0.5510933E-005  0.3921348E+03  0.7546771E-02  0.1046538E+00
         21   -1    0    0  502  501  0.00000000000E+00  0.00000000000E+00  0.93038118380E+03  0.93038118380E+03  0.00000000000E+00 0. -1.
         21   -1    0    0  501  502 -0.00000000000E+00 -0.00000000000E+00 -0.16527605526E+03  0.16527605526E+03  0.00000000000E+00 0. -1.
         25    1    1    2    0    0 -0.41101670952E+02  0.31969724737E+03  0.28212577378E+03  0.44622374383E+03  0.12500000000E+03 0.  0.
         25    1    1    2    0    0  0.23955932789E+02 -0.23346728363E+03  0.21931023815E+03  0.34467787831E+03  0.12500000000E+03 0.  0.
         25    1    1    2    0    0  0.17145738163E+02 -0.86229963733E+02  0.26366911662E+03  0.30475561691E+03  0.12500000000E+03 0.  0.
</event>
<event>
 5    0  0.5510933E-005  0.2596370E+03  0.7546771E-02  0.1107362E+00
         21   -1    0    0  502  501  0.00000000000E+00  0.00000000000E+00  0.41074776012E+03  0.41074776012E+03  0.00000000000E+00 0. -1.
         21   -1    0    0  501  502 -0.00000000000E+00 -0.00000000000E+00 -0.16411863285E+03  0.16411863285E+03  0.00000000000E+00 0. -1.
         25    1    1    2    0    0  0.70150906001E+02  0.97064519080E+02  0.51223937166E+02  0.18053133306E+03  0.12500000000E+03 0.  0.
         25    1    1    2    0    0  0.21461608868E+02 -0.12956823136E+03  0.78845269882E+02  0.19771217417E+03  0.12500000000E+03 0.  0.
         25    1    1    2    0    0 -0.91612514870E+02  0.32503712283E+02  0.11655992023E+03  0.19662288574E+03  0.12500000000E+03 0.  0.
</event>
<event>
 5    0  0.5510933E-005  0.3519467E+03  0.7546771E-02  0.1061819E+00
         21   -1    0    0  502  501  0.00000000000E+00  0.00000000000E+00  0.97786603682E+03  0.97786603682E+03  0.00000000000E+00 0. -1.
         21   -1    0    0  501  502 -0.00000000000E+00 -0.00000000000E+00 -0.12667020994E+03  0.12667020994E+03  0.00000000000E+00 0. -1.
         25    1    1    2    0    0  0.42781599406E+02  0.53326623590E+02  0.16232427226E+03  0.21598185895E+03  0.12500000000E+03 0.  0.
         25    1    1    2    0    0 -0.96254586857E+00  0.19539930051E+03  0.49530456275E+03  0.54693091247E+03  0.12500000000E+03 0.  0.
         25    1    1    2    0    0 -0.41819053538E+02 -0.24872592410E+03  0.19356699187E+03  0.34162347534E+03  0.12500000000E+03 0.  0.
</event>
<event>
 5    0  0.5510933E-005  0.2757546E+03  0.7546771E-02  0.1098031E+00
         21   -1    0    0  502  501  0.00000000000E+00  0.00000000000E+00  0.23076317990E+04  0.23076317990E+04  0.00000000000E+00 0.  1.
         21   -1    0    0  501  502 -0.00000000000E+00 -0.00000000000E+00 -0.32951791889E+02  0.32951791889E+02  0.00000000000E+00 0.  1.
         25    1    1    2    0    0  0.14353820655E+03  0.76124969796E+02  0.90945368670E+03  0.93227100997E+03  0.12500000000E+03 0.  0.
         25    1    1    2    0    0 -0.14681272277E+03 -0.68187442269E+02  0.10371942898E+04  0.10571662583E+04  0.12500000000E+03 0.  0.
         25    1    1    2    0    0  0.32745162235E+01 -0.79375275266E+01  0.32803203054E+03  0.35114632258E+03  0.12500000000E+03 0.  0.
</event>
<event>
 5    0  0.5510933E-005  0.2581769E+03  0.7546771E-02  0.1108244E+00
         21   -1    0    0  502  501  0.00000000000E+00  0.00000000000E+00  0.23698657318E+03  0.23698657318E+03  0.00000000000E+00 0.  1.
         21   -1    0    0  501  502 -0.00000000000E+00 -0.00000000000E+00 -0.28126194406E+03  0.28126194406E+03  0.00000000000E+00 0.  1.
         25    1    1    2    0    0  0.85174147192E+02  0.54131473027E+02  0.64176650965E+02  0.17299853829E+03  0.12500000000E+03 0.  0.
         25    1    1    2    0    0 -0.24195784604E+02 -0.14806377955E+02  0.43671233051E+02  0.13541359391E+03  0.12500000000E+03 0.  0.
         25    1    1    2    0    0 -0.60978362588E+02 -0.39325095072E+02 -0.15212325489E+03  0.20983638504E+03  0.12500000000E+03 0.  0.
</event>
<event>
 5    0  0.5510933E-005  0.2260481E+03  0.7546771E-02  0.1129453E+00
         21   -1    0    0  502  501  0.00000000000E+00  0.00000000000E+00  0.37891123021E+02  0.37891123021E+02  0.00000000000E+00 0.  1.
         21   -1    0    0  501  502 -0.00000000000E+00 -0.00000000000E+00 -0.13485408015E+04  0.13485408015E+04  0.00000000000E+00 0.  1.
         25    1    1    2    0    0 -0.65037464530E+02  0.47818123007E+02 -0.26375143981E+03  0.30283042562E+03  0.12500000000E+03 0.  0.
         25    1    1    2    0    0  0.36885229488E+02  0.16258394850E+02 -0.60382038573E+03  0.61793924765E+03  0.12500000000E+03 0.  0.
         25    1    1    2    0    0  0.28152235043E+02 -0.64076517857E+02 -0.44307785295E+03  0.46566225126E+03  0.12500000000E+03 0.  0.
</event>
<event>
 5    0  0.5510933E-005  0.4497526E+03  0.7546771E-02  0.1027796E+00
         21   -1    0    0  502  501  0.00000000000E+00  0.00000000000E+00  0.84832159635E+03  0.84832159635E+03  0.00000000000E+00 0.  1.
         21   -1    0    0  501  502 -0.00000000000E+00 -0.00000000000E+00 -0.23844419238E+03  0.23844419238E+03  0.00000000000E+00 0.  1.
         25    1    1    2    0    0  0.14242958690E+03  0.28739526968E+03  0.71714810551E+02  0.35163936400E+03  0.12500000000E+03 0.  0.
         25    1    1    2    0    0 -0.11060155829E+03 -0.82210929534E+02  0.54067298890E+02  0.19375142436E+03  0.12500000000E+03 0.  0.
         25    1    1    2    0    0 -0.31828028614E+02 -0.20518434015E+03  0.48409529453E+03  0.54137500038E+03  0.12500000000E+03 0.  0.
</event>
<event>
 5    0  0.5510933E-005  0.3992647E+03  0.7546771E-02  0.1044035E+00
         21   -1    0    0  502  501  0.00000000000E+00  0.00000000000E+00  0.57724405826E+03  0.57724405826E+03  0.00000000000E+00 0. -1.
         21   -1    0    0  501  502 -0.00000000000E+00 -0.00000000000E+00 -0.27616106310E+03  0.27616106310E+03  0.00000000000E+00 0. -1.
         25    1    1    2    0    0  0.90665725085E+02  0.29802167682E+03  0.30582114736E+02  0.33704222184E+03  0.12500000000E+03 0.  0.
         25    1    1    2    0    0 -0.29863916884E+02 -0.26232619364E+03  0.14696185197E+03  0.32700102651E+03  0.12500000000E+03 0.  0.
         25    1    1    2    0    0 -0.60801808201E+02 -0.35695483177E+02  0.12353902845E+03  0.18936187301E+03  0.12500000000E+03 0.  0.
</event>
<event>
 5    0  0.5510933E-005  0.3279257E+03  0.7546771E-02  0.1072058E+00
         21   -1    0    0  502  501  0.00000000000E+00  0.00000000000E+00  0.19302567662E+03  0.19302567662E+03  0.00000000000E+00 0. -1.
         21   -1    0    0  501  502 -0.00000000000E+00 -0.00000000000E+00 -0.55710338325E+03  0.55710338325E+03  0.00000000000E+00 0. -1.
         25    1    1    2    0    0  0.15142509577E+03 -0.12173163838E+03 -0.34675182422E+03  0.41666530815E+03  0.12500000000E+03 0.  0.
         25    1    1    2    0    0 -0.22579576482E+02  0.60063797443E+02 -0.28315010291E+02  0.14333260915E+03  0.12500000000E+03 0.  0.
         25    1    1    2    0    0 -0.12884551929E+03  0.61667840939E+02  0.10989127892E+02  0.19013114258E+03  0.12500000000E+03 0.  0.
</event>
<event>
 5    0  0.5510933E-005  0.2835366E+03  0.7546771E-02  0.1093773E+00
         21   -1    0    0  502  501  0.00000000000E+00  0.00000000000E+00  0.27021741910E+04  0.27021741910E+04  0.00000000000E+00 0. -1.
         21   -1    0    0  501  502 -0.00000000000E+00 -0.00000000000E+00 -0.29751238039E+02  0.29751238039E+02  0.00000000000E+00 0. -1.
         25    1    1    2    0    0  0.35715479923E+02  0.43533004939E+02  0.29900226061E+03  0.32893475018E+03  0.12500000000E+03 0.  0.
         25    1    1    2    0    0 -0.12725298792E+03  0.29360837182E+02  0.16357403730E+04  0.16456995320E+04  0.12500000000E+03 0.  0.
         25    1    1    2    0    0  0.91537507995E+02 -0.72893842121E+02  0.73768031936E+03  0.75729114689E+03  0.12500000000E+03 0.  0.
</event>
<event>
 5    0  0.5510933E-005  0.2709016E+03  0.7546771E-02  0.1100765E+00
         21   -1    0    0  502  501  0.00000000000E+00  0.00000000000E+00  0.14107897566E+04  0.14107897566E+04  0.00000000000E+00 0. -1.
         21   -1    0    0  501  502 -0.00000000000E+00 -0.00000000000E+00 -0.52018871053E+02  0.52018871053E+02  0.00000000000E+00 0. -1.
         25    1    1    2    0    0  0.11562904174E+03  0.64101089829E+02  0.33897519107E+03  0.38471834525E+03  0.12500000000E+03 0.  0.
         25    1    1    2    0    0  0.73557245759E+01  0.32630479867E+02  0.23635624314E+03  0.26945895526E+03  0.12500000000E+03 0.  0.
         25    1    1    2    0    0 -0.12298476631E+03 -0.96731569696E+02  0.78343945135E+03  0.80863132716E+03  0.12500000000E+03 0.  0.
</event>
<event>
 5    0  0.5510933E-005  0.2239559E+03  0.7546771E-02  0.1130968E+00
         21   -1    0    0  502  501  0.00000000000E+00  0.00000000000E+00  0.54348331173E+03  0.54348331173E+03  0.00000000000E+00 0. -1.
         21   -1    0    0  501  502 -0.00000000000E+00 -0.00000000000E+00 -0.92286665517E+02  0.92286665517E+02  0.00000000000E+00 0. -1.
         25    1    1    2    0    0 -0.35170230876E+02  0.26801878371E+02  0.64912113658E+02  0.14762746467E+03  0.12500000000E+03 0.  0.
         25    1    1    2    0    0  0.26185465071E+02 -0.76983291401E+01  0.32098026551E+03  0.34554055290E+03  0.12500000000E+03 0.  0.
         25    1    1    2    0    0  0.89847658057E+01 -0.19103549231E+02  0.65304267040E+02  0.14260195968E+03  0.12500000000E+03 0.  0.
</event>
<event>
 5    0  0.5510933E-005  0.3231997E+03  0.7546771E-02  0.1074186E+00
         21   -1    0    0  502  501  0.00000000000E+00  0.00000000000E+00  0.40265178489E+03  0.40265178489E+03  0.00000000000E+00 0.  1.
         21   -1    0    0  501  502 -0.00000000000E+00 -0.00000000000E+00 -0.25942523956E+03  0.25942523956E+03  0.00000000000E+00 0.  1.
         25    1    1    2    0    0  0.80816710479E+02  0.86722493565E+01  0.23591625954E+03  0.27908427064E+03  0.12500000000E+03 0.  0.
         25    1    1    2    0    0  0.28993166223E+02  0.10323655650E+03 -0.67335688734E+01  0.16482940040E+03  0.12500000000E+03 0.  0.
         25    1    1    2    0    0 -0.10980987670E+03 -0.11190880586E+03 -0.85956145341E+02  0.21816335341E+03  0.12500000000E+03 0.  0.
</event>
<event>
 5    0  0.5510933E-005  0.4018776E+03  0.7546771E-02  0.1043131E+00
         21   -1    0    0  502  501  0.00000000000E+00  0.00000000000E+00  0.74379151371E+03  0.74379151371E+03  0.00000000000E+00 0.  1.
         21   -1    0    0  501  502 -0.00000000000E+00 -0.00000000000E+00 -0.21713824212E+03  0.21713824212E+03  0.00000000000E+00 0.  1.
         25    1    1    2    0    0 -0.57409486622E+02 -0.14024169194E+03 -0.57673648678E+02  0.20473111894E+03  0.12500000000E+03 0.  0.
         25    1    1    2    0    0  0.18453118250E+03  0.35903488299E+02  0.46682513650E+03  0.51854751552E+03  0.12500000000E+03 0.  0.
         25    1    1    2    0    0 -0.12712169588E+03  0.10433820364E+03  0.11750178377E+03  0.23765112138E+03  0.12500000000E+03 0.  0.
</event>
<event>
 5    0  0.5510933E-005  0.2395980E+03  0.7546771E-02  0.1120061E+00
         21   -1    0    0  502  501  0.00000000000E+00  0.00000000000E+00  0.58404785853E+03  0.58404785853E+03  0.00000000000E+00 0. -1.
         21   -1    0    0  501  502 -0.00000000000E+00 -0.00000000000E+00 -0.98291950091E+02  0.98291950091E+02  0.00000000000E+00 0. -1.
         25    1    1    2    0    0  0.16565356983E+01 -0.90968264335E+02  0.64610489803E+02  0.16756337493E+03  0.12500000000E+03 0.  0.
         25    1    1    2    0    0 -0.29816862957E+02 -0.13344834131E+02  0.21163576561E+03  0.24795529274E+03  0.12500000000E+03 0.  0.
         25    1    1    2    0    0  0.28160327258E+02  0.10431309847E+03  0.20950965303E+03  0.26682114095E+03  0.12500000000E+03 0.  0.
</event>
<event>
 5    0  0.5510933E-005  0.3834946E+03  0.7546771E-02  0.1049650E+00
         21   -1    0    0  502  501  0.00000000000E+00  0.00000000000E+00  0.24054037697E+03  0.24054037697E+03  0.00000000000E+00 0.  1.
         21   -1    0    0  501  502 -0.00000000000E+00 -0.00000000000E+00 -0.61140729178E+03  0.61140729178E+03  0.00000000000E+00 0.  1.
         25    1    1    2    0    0  0.43577222636E+01 -0.12784716261E+03  0.70495556961E+02  0.19224596298E+03  0.12500000000E+03 0.  0.
         25    1    1    2    0    0 -0.15450767907E+03  0.10289230501E+02 -0.47494457136E+02  0.20459524582E+03  0.12500000000E+03 0.  0.
         25    1    1    2    0    0  0.15014995680E+03  0.11755793211E+03 -0.39386801464E+03  0.45510645995E+03  0.12500000000E+03 0.  0.
</event>
<event>
 5    0  0.5985429E-005  0.2809459E+03  0.7546771E-02  0.1095173E+00
         21   -1    0    0  502  501  0.00000000000E+00  0.00000000000E+00  0.10838843960E+03  0.10838843960E+03  0.00000000000E+00 0.  1.
         21   -1    0    0  501  502 -0.00000000000E+00 -0.00000000000E+00 -0.72821974792E+03  0.72821974792E+03  0.00000000000E+00 0.  1.
         25    1    1    2    0    0 -0.16106137834E+03 -0.87130823187E+02 -0.21146954087E+03  0.30639339853E+03  0.12500000000E+03 0.  0.
         25    1    1    2    0    0  0.94481959287E+02  0.89094437704E+02 -0.14559775298E+03  0.23170749909E+03  0.12500000000E+03 0.  0.
         25    1    1    2    0    0  0.66579419057E+02 -0.19636145163E+01 -0.26276401447E+03  0.29850728990E+03  0.12500000000E+03 0.  0.
</event>
<event>
 5    0  0.5510933E-005  0.1988986E+03  0.7546771E-02  0.1150672E+00
         21   -1    0    0  502  501  0.00000000000E+00  0.00000000000E+00  0.70458628205E+02  0.70458628205E+02  0.00000000000E+00 0.  1.
         21   -1    0    0  501  502 -0.00000000000E+00 -0.00000000000E+00 -0.56147324094E+03  0.56147324094E+03  0.00000000000E+00 0.  1.
         25    1    1    2    0    0 -0.25925004664E+02 -0.38330788578E+02 -0.13560871191E+03  0.19014751633E+03  0.12500000000E+03 0.  0.
         25    1    1    2    0    0 -0.70594578327E+01 -0.45678532709E+01 -0.18878453161E+03  0.22657294764E+03  0.12500000000E+03 0.  0.
         25    1    1    2    0    0  0.32984462496E+02  0.42898641849E+02 -0.16662136922E+03  0.21521140518E+03  0.12500000000E+03 0.  0.
</event>
<event>
 5    0  0.5510933E-005  0.4431237E+03  0.7546771E-02  0.1029793E+00
         21   -1    0    0  502  501  0.00000000000E+00  0.00000000000E+00  0.33905072766E+03  0.33905072766E+03  0.00000000000E+00 0. -1.
         21   -1    0    0  501  502 -0.00000000000E+00 -0.00000000000E+00 -0.57914227158E+03  0.57914227158E+03  0.00000000000E+00 0. -1.
         25    1    1    2    0    0 -0.16899937962E+03  0.15157788235E+03 -0.92275695776E+01  0.25931986574E+03  0.12500000000E+03 0.  0.
         25    1    1    2    0    0  0.22177108595E+03 -0.22717952089E+02 -0.35270949989E+03  0.43557721614E+03  0.12500000000E+03 0.  0.
         25    1    1    2    0    0 -0.52771706322E+02 -0.12885993026E+03  0.12184552555E+03  0.22329591736E+03  0.12500000000E+03 0.  0.
</event>
<event>
 5    0  0.5510933E-005  0.3022378E+03  0.7546771E-02  0.1084127E+00
         21   -1    0    0  502  501  0.00000000000E+00  0.00000000000E+00  0.83119116173E+02  0.83119116173E+02  0.00000000000E+00 0.  1.
         21   -1    0    0  501  502 -0.00000000000E+00 -0.00000000000E+00 -0.10989971709E+04  0.10989971709E+04  0.00000000000E+00 0.  1.
         25    1    1    2    0    0  0.45498607610E+02 -0.59118360560E+02 -0.12611376529E+03  0.19260006658E+03  0.12500000000E+03 0.  0.
         25    1    1    2    0    0 -0.13909113426E+03 -0.85117935059E+02 -0.56659949454E+03  0.60270340443E+03  0.12500000000E+03 0.  0.
         25    1    1    2    0    0  0.93592526649E+02  0.14423629562E+03 -0.32316479494E+03  0.38681281611E+03  0.12500000000E+03 0.  0.
</event>
<event>
 5    0  0.5510933E-005  0.6906599E+03  0.7546771E-02  0.9733340E-01
         21   -1    0    0  502  501  0.00000000000E+00  0.00000000000E+00  0.63869661717E+03  0.63869661717E+03  0.00000000000E+00 0.  1.
         21   -1    0    0  501  502 -0.00000000000E+00 -0.00000000000E+00 -0.74685092423E+03  0.74685092423E+03  0.00000000000E+00 0.  1.
         25    1    1    2    0    0 -0.74133332964E+02 -0.42983960366E+03 -0.13670948788E+03  0.47389062030E+03  0.12500000000E+03 0.  0.
         25    1    1    2    0    0 -0.14948740115E+03  0.46002667886E+03  0.26166754930E+03  0.56397334575E+03  0.12500000000E+03 0.  0.
         25    1    1    2    0    0  0.22362073411E+03 -0.30187075203E+02 -0.23311236848E+03  0.34768357535E+03  0.12500000000E+03 0.  0.
</event>
<event>
 5    0  0.5510933E-005  0.4972753E+03  0.7546771E-02  0.1014493E+00
         21   -1    0    0  502  501  0.00000000000E+00  0.00000000000E+00  0.22403075382E+03  0.22403075382E+03  0.00000000000E+00 0.  1.
         21   -1    0    0  501  502 -0.00000000000E+00 -0.00000000000E+00 -0.11037889785E+04  0.11037889785E+04  0.00000000000E+00 0.  1.
         25    1    1    2    0    0  0.45881942698E+02 -0.14922016269E+03 -0.14982749815E+03  0.24989015351E+03  0.12500000000E+03 0.  0.
         25    1    1    2    0    0  0.69128813119E+02  0.22841427797E+03 -0.82493523524E+03  0.86781047328E+03  0.12500000000E+03 0.  0.
         25    1    1    2    0    0 -0.11501075582E+03 -0.79194115282E+02  0.95004508691E+02  0.21011910556E+03  0.12500000000E+03 0.  0.
</event>
<event>
 5    0  0.5510933E-005  0.4549689E+03  0.7546771E-02  0.1026251E+00
         21   -1    0    0  502  501  0.00000000000E+00  0.00000000000E+00  0.90926663790E+03  0.90926663790E+03  0.00000000000E+00 0. -1.
         21   -1    0    0  501  502 -0.00000000000E+00 -0.00000000000E+00 -0.22765236619E+03  0.22765236619E+03  0.00000000000E+00 0. -1.
         25    1    1    2    0    0  0.44516150077E+02 -0.22424075289E+03  0.46878484981E+03  0.53632997146E+03  0.12500000000E+03 0.  0.
         25    1    1    2    0    0 -0.47240961567E+02  0.11377421303E+03 -0.13060996697E+03  0.21876984133E+03  0.12500000000E+03 0.  0.
         25    1    1    2    0    0  0.27248114896E+01  0.11046653986E+03  0.34343938886E+03  0.38181919130E+03  0.12500000000E+03 0.  0.
</event>
<event>
 5    0  0.5510933E-005  0.3092044E+03  0.7546771E-02  0.1080728E+00
         21   -1    0    0  502  501  0.00000000000E+00  0.00000000000E+00  0.19025335641E+03  0.19025335641E+03  0.00000000000E+00 0. -1.
         21   -1    0    0  501  502 -0.00000000000E+00 -0.00000000000E+00 -0.50252644847E+03  0.50252644847E+03  0.00000000000E+00 0. -1.
         25    1    1    2    0    0  0.10486550849E+03  0.14734962644E+03 -0.17156440715E+03  0.27886920426E+03  0.12500000000E+03 0.  0.
         25    1    1    2    0    0 -0.12904990256E+03 -0.93605215513E+02  0.18098349635E+02  0.20339214336E+03  0.12500000000E+03 0.  0.
         25    1    1    2    0    0  0.24184394068E+02 -0.53744410930E+02 -0.15880703455E+03  0.21051845726E+03  0.12500000000E+03 0.  0.
</event>
<event>
 5    0  0.5510933E-005  0.4158195E+03  0.7546771E-02  0.1038436E+00
         21   -1    0    0  502  501  0.00000000000E+00  0.00000000000E+00  0.24117151974E+03  0.24117151974E+03  0.00000000000E+00 0.  1.
         21   -1    0    0  501  502 -0.00000000000E+00 -0.00000000000E+00 -0.71694161196E+03  0.71694161196E+03  0.00000000000E+00 0.  1.
         25    1    1    2    0    0 -0.30075730235E+02 -0.58893023740E+02 -0.37866894955E+03  0.40421295272E+03  0.12500000000E+03 0.  0.
         25    1    1    2    0    0 -0.10425071807E+03  0.27964532102E+02 -0.25905015786E+03  0.30721688033E+03  0.12500000000E+03 0.  0.
         25    1    1    2    0    0  0.13432644830E+03  0.30928491638E+02  0.16194901519E+03  0.24668329864E+03  0.12500000000E+03 0.  0.
</event>
<event>
 5    0  0.5510933E-005  0.2863713E+03  0.7546771E-02  0.1092259E+00
         21   -1    0    0  502  501  0.00000000000E+00  0.00000000000E+00  0.92900389631E+02  0.92900389631E+02  0.00000000000E+00 0.  1.
         21   -1    0    0  501  502 -0.00000000000E+00 -0.00000000000E+00 -0.88275762078E+03  0.88275762078E+03  0.00000000000E+00 0.  1.
         25    1    1    2    0    0  0.60751906129E+02  0.73971290327E+01 -0.12439127043E+03  0.18666467201E+03  0.12500000000E+03 0.  0.
         25    1    1    2    0    0 -0.43596680499E+02  0.12290829738E+03 -0.12705327250E+03  0.22084984530E+03  0.12500000000E+03 0.  0.
         25    1    1    2    0    0 -0.17155225629E+02 -0.13030542642E+03 -0.53841268823E+03  0.56814349311E+03  0.12500000000E+03 0.  0.
</event>
<event>
 5    0  0.5510933E-005  0.2175020E+03  0.7546771E-02  0.1135759E+00
         21   -1    0    0  502  501  0.00000000000E+00  0.00000000000E+00  0.43428484445E+03  0.43428484445E+03  0.00000000000E+00 0. -1.
         21   -1    0    0  501  502 -0.00000000000E+00 -0.00000000000E+00 -0.10893112810E+03  0.10893112810E+03  0.00000000000E+00 0. -1.
         25    1    1    2    0    0 -0.77727021835E+02 -0.17884192700E+02  0.12849146930E+03  0.19620497434E+03  0.12500000000E+03 0.  0.
         25    1    1    2    0    0  0.94707783649E+02  0.26821067047E+02  0.10325633541E+03  0.18967288874E+03  0.12500000000E+03 0.  0.
         25    1    1    2    0    0 -0.16980761815E+02 -0.89368743473E+01  0.93605911641E+02  0.15733810946E+03  0.12500000000E+03 0.  0.
</event>
<event>
 5    0  0.5510933E-005  0.4377751E+03  0.7546771E-02  0.1031432E+00
         21   -1    0    0  502  501  0.00000000000E+00  0.00000000000E+00  0.10479506757E+03  0.10479506757E+03  0.00000000000E+00 0. -1.
         21   -1    0    0  501  502 -0.00000000000E+00 -0.00000000000E+00 -0.18287795863E+04  0.18287795863E+04  0.00000000000E+00 0. -1.
         25    1    1    2    0    0 -0.17298964641E+03 -0.16215299081E+03 -0.33052364245E+03  0.42554657608E+03  0.12500000000E+03 0.  0.
         25    1    1    2    0    0 -0.18523400632E+01  0.26864890675E+02 -0.11470985199E+04  0.11542032611E+04  0.12500000000E+03 0.  0.
         25    1    1    2    0    0  0.17484198648E+03  0.13528810014E+03 -0.24636235633E+03  0.35382481667E+03  0.12500000000E+03 0.  0.
</event>
<event>
 5    0  0.5510933E-005  0.4182506E+03  0.7546771E-02  0.1037637E+00
         21   -1    0    0  502  501  0.00000000000E+00  0.00000000000E+00  0.63901089526E+03  0.63901089526E+03  0.00000000000E+00 0. -1.
         21   -1    0    0  501  502 -0.00000000000E+00 -0.00000000000E+00 -0.27375672071E+03  0.27375672071E+03  0.00000000000E+00 0. -1.
         25    1    1    2    0    0 -0.50056815018E+02  0.12023287949E+03  0.71111272298E+02  0.19401918227E+03  0.12500000000E+03 0.  0.
         25    1    1    2    0    0 -0.98515611580E+02  0.19286169822E+03  0.23961159232E+03  0.34632307971E+03  0.12500000000E+03 0.  0.
         25    1    1    2    0    0  0.14857242660E+03 -0.31309457771E+03  0.54531309938E+02  0.37242535400E+03  0.12500000000E+03 0.  0.
</event>
<event>
 5    0  0.5510933E-005  0.2460892E+03  0.7546771E-02  0.1115802E+00
         21   -1    0    0  502  501  0.00000000000E+00  0.00000000000E+00  0.59748336774E+03  0.59748336774E+03  0.00000000000E+00 0.  1.
         21   -1    0    0  501  502 -0.00000000000E+00 -0.00000000000E+00 -0.10135828680E+03  0.10135828680E+03  0.00000000000E+00 0.  1.
         25    1    1    2    0    0  0.19519704999E+02  0.18186908976E+02  0.24196571045E+03  0.27364975347E+03  0.12500000000E+03 0.  0.
         25    1    1    2    0    0 -0.19497019570E+02  0.96034511476E+02  0.65829966945E+02  0.17193413191E+03  0.12500000000E+03 0.  0.
         25    1    1    2    0    0 -0.22685429401E-01 -0.11422142045E+03  0.18832940355E+03  0.25325776917E+03  0.12500000000E+03 0.  0.
</event>
<event>
 5    0  0.6344059E-005  0.3731296E+03  0.7546771E-02  0.1053503E+00
         21   -1    0    0  502  501  0.00000000000E+00  0.00000000000E+00  0.51443288845E+03  0.51443288845E+03  0.00000000000E+00 0. -1.
         21   -1    0    0  501  502 -0.00000000000E+00 -0.00000000000E+00 -0.27063924245E+03  0.27063924245E+03  0.00000000000E+00 0. -1.
         25    1    1    2    0    0  0.17060094636E+03 -0.23440940037E+02 -0.46925253692E+02  0.21790167508E+03  0.12500000000E+03 0.  0.
         25    1    1    2    0    0 -0.20098388484E+03 -0.73441791769E+02  0.15504318418E+02  0.24830143502E+03  0.12500000000E+03 0.  0.
         25    1    1    2    0    0  0.30382938481E+02  0.96882731805E+02  0.27521458128E+03  0.31886902079E+03  0.12500000000E+03 0.  0.
</event>
<event>
 5    0  0.5510933E-005  0.3349820E+03  0.7546771E-02  0.1068954E+00
         21   -1    0    0  502  501  0.00000000000E+00  0.00000000000E+00  0.11095708192E+04  0.11095708192E+04  0.00000000000E+00 0. -1.
         21   -1    0    0  501  502 -0.00000000000E+00 -0.00000000000E+00 -0.10113183598E+03  0.10113183598E+03  0.00000000000E+00 0. -1.
         25    1    1    2    0    0  0.35832008234E+02 -0.88859235099E+02  0.28840259521E+03  0.32860455475E+03  0.12500000000E+03 0.  0.
         25    1    1    2    0    0 -0.17533434192E+03  0.11290166590E+03  0.15994596995E+03  0.29102685602E+03  0.12500000000E+03 0.  0.
         25    1    1    2    0    0  0.13950233369E+03 -0.24042430804E+02  0.56009041808E+03  0.59107124444E+03  0.12500000000E+03 0.  0.
</event>
<event>
 5    0  0.5510933E-005  0.4033403E+03  0.7546771E-02  0.1042629E+00
         21   -1    0    0  502  501  0.00000000000E+00  0.00000000000E+00  0.14794410675E+04  0.14794410675E+04  0.00000000000E+00 0.  1.
         21   -1    0    0  501  502 -0.00000000000E+00 -0.00000000000E+00 -0.10996275216E+03  0.10996275216E+03  0.00000000000E+00 0.  1.
         25    1    1    2    0    0  0.10867865524E+02 -0.84762266046E+02  0.42082529135E+03  0.44723783168E+03  0.12500000000E+03 0.  0.
         25    1    1    2    0    0  0.18677412163E+03 -0.90577078160E+02  0.13449805751E+03  0.27713445667E+03  0.12500000000E+03 0.  0.
         25    1    1    2    0    0 -0.19764198716E+03  0.17533934421E+03  0.81415496651E+03  0.86503153134E+03  0.12500000000E+03 0.  0.
</event>
<event>
 5    0  0.5510933E-005  0.2401544E+03  0.7546771E-02  0.1119690E+00
         21   -1    0    0  502  501  0.00000000000E+00  0.00000000000E+00  0.96679689508E+03  0.96679689508E+03  0.00000000000E+00 0. -1.
         21   -1    0    0  501  502 -0.00000000000E+00 -0.00000000000E+00 -0.59654864078E+02  0.59654864078E+02  0.00000000000E+00 0. -1.
         25    1    1    2    0    0 -0.88614048004E+02 -0.51355929457E+02  0.27459281817E+03  0.31861590793E+03  0.12500000000E+03 0.  0.
         25    1    1    2    0    0  0.67438722386E+02  0.71932888749E+01  0.49743135073E+03  0.51736126002E+03  0.12500000000E+03 0.  0.
         25    1    1    2    0    0  0.21175325618E+02  0.44162640582E+02  0.13511786211E+03  0.19047459122E+03  0.12500000000E+03 0.  0.
</event>
<event>
 5    0  0.5510933E-005  0.4589500E+03  0.7546771E-02  0.1025086E+00
         21   -1    0    0  502  501  0.00000000000E+00  0.00000000000E+00  0.10180537989E+04  0.10180537989E+04  0.00000000000E+00 0. -1.
         21   -1    0    0  501  502 -0.00000000000E+00 -0.00000000000E+00 -0.20689975354E+03  0.20689975354E+03  0.00000000000E+00 0. -1.
         25    1    1    2    0    0  0.19603078459E+03  0.29766234842E+02  0.54910378057E+03  0.59703773673E+03  0.12500000000E+03 0.  0.
         25    1    1    2    0    0 -0.19159667071E+03 -0.20620208981E+03  0.27272519379E+03  0.41137892192E+03  0.12500000000E+03 0.  0.
         25    1    1    2    0    0 -0.44341138763E+01  0.17643585497E+03 -0.10674928964E+02  0.21653689384E+03  0.12500000000E+03 0.  0.
</event>
<event>
 5    0  0.5510933E-005  0.4283913E+03  0.7546771E-02  0.1034369E+00
         21   -1    0    0  502  501  0.00000000000E+00  0.00000000000E+00  0.26677203303E+03  0.26677203303E+03  0.00000000000E+00 0.  1.
         21   -1    0    0  501  502 -0.00000000000E+00 -0.00000000000E+00 -0.68792491236E+03  0.68792491236E+03  0.00000000000E+00 0.  1.
         25    1    1    2    0    0 -0.18763622258E+03 -0.19128553587E+02 -0.37699710925E+03  0.43968747306E+03  0.12500000000E+03 0.  0.
         25    1    1    2    0    0  0.24364262515E+03 -0.13601194579E+03 -0.16306624501E+02  0.30618929470E+03  0.12500000000E+03 0.  0.
         25    1    1    2    0    0 -0.56006402573E+02  0.15514049937E+03 -0.27849145587E+02  0.20882017763E+03  0.12500000000E+03 0.  0.
</event>
<event>
 5    0  0.5510933E-005  0.3119074E+03  0.7546771E-02  0.1079435E+00
         21   -1    0    0  502  501  0.00000000000E+00  0.00000000000E+00  0.21211573396E+03  0.21211573396E+03  0.00000000000E+00 0.  1.
         21   -1    0    0  501  502 -0.00000000000E+00 -0.00000000000E+00 -0.45864687046E+03  0.45864687046E+03  0.00000000000E+00 0.  1.
         25    1    1    2    0    0  0.14973726357E+03  0.12954969382E+03 -0.80601046051E+02  0.24764066688E+03  0.12500000000E+03 0.  0.
         25    1    1    2    0    0 -0.40132124528E+02  0.37371773849E+02 -0.27262440563E+01  0.13652717424E+03  0.12500000000E+03 0.  0.
         25    1    1    2    0    0 -0.10960513904E+03 -0.16692146767E+03 -0.16320384639E+03  0.28659476330E+03  0.12500000000E+03 0.  0.
</event>
<event>
 5    0  0.5510933E-005  0.3150916E+03  0.7546771E-02  0.1077931E+00
         21   -1    0    0  502  501  0.00000000000E+00  0.00000000000E+00  0.45975641732E+03  0.45975641732E+03  0.00000000000E+00 0. -1.
         21   -1    0    0  501  502 -0.00000000000E+00 -0.00000000000E+00 -0.21594638194E+03  0.21594638194E+03  0.00000000000E+00 0. -1.
         25    1    1    2    0    0 -0.27663559396E+02  0.70324928492E+02  0.23347564509E+03  0.27540287750E+03  0.12500000000E+03 0.  0.
         25    1    1    2    0    0  0.15676644241E+03 -0.84353847371E+02 -0.16126057282E+02  0.21812000998E+03  0.12500000000E+03 0.  0.
         25    1    1    2    0    0 -0.12910288301E+03  0.14028918879E+02  0.26460447567E+02  0.18217991177E+03  0.12500000000E+03 0.  0.
</event>
<event>
 5    0  0.5510933E-005  0.2459381E+03  0.7546771E-02  0.1115899E+00
         21   -1    0    0  502  501  0.00000000000E+00  0.00000000000E+00  0.19689757340E+03  0.19689757340E+03  0.00000000000E+00 0.  1.
         21   -1    0    0  501  502 -0.00000000000E+00 -0.00000000000E+00 -0.30719287765E+03  0.30719287765E+03  0.00000000000E+00 0.  1.
         25    1    1    2    0    0 -0.94577438239E+02  0.24019912709E+02 -0.71522787151E+02  0.17396079188E+03  0.12500000000E+03 0.  0.
         25    1    1    2    0    0  0.99265781493E+01  0.70667774483E+02  0.13098131161E+02  0.14453038554E+03  0.12500000000E+03 0.  0.
         25    1    1    2    0    0  0.84650860090E+02 -0.94687687191E+02 -0.51870648270E+02  0.18559927363E+03  0.12500000000E+03 0.  0.
</event>
<event>
 5    0  0.5510933E-005  0.3117143E+03  0.7546771E-02  0.1079527E+00
         21   -1    0    0  502  501  0.00000000000E+00  0.00000000000E+00  0.79428141965E+03  0.79428141965E+03  0.00000000000E+00 0.  1.
         21   -1    0    0  501  502 -0.00000000000E+00 -0.00000000000E+00 -0.12233172925E+03  0.12233172925E+03  0.00000000000E+00 0.  1.
         25    1    1    2    0    0  0.17740539731E+02  0.63294968585E+02  0.31056141801E+03  0.34116619726E+03  0.12500000000E+03 0.  0.
         25    1    1    2    0    0  0.73691185532E+02  0.41208362968E+02  0.35811562898E+03  0.38858760109E+03  0.12500000000E+03 0.  0.
         25    1    1    2    0    0 -0.91431725263E+02 -0.10450333155E+03  0.32726434134E+01  0.18685935054E+03  0.12500000000E+03 0.  0.
</event>
<event>
 5    0  0.5510933E-005  0.3728354E+03  0.7546771E-02  0.1053614E+00
         21   -1    0    0  502  501  0.00000000000E+00  0.00000000000E+00  0.15606711506E+04  0.15606711506E+04  0.00000000000E+00 0. -1.
         21   -1    0    0  501  502 -0.00000000000E+00 -0.00000000000E+00 -0.89068263277E+02  0.89068263277E+02  0.00000000000E+00 0. -1.
         25    1    1    2    0    0 -0.19876217518E+03 -0.11161283686E+03  0.73750343178E+03  0.78198474379E+03  0.12500000000E+03 0.  0.
         25    1    1    2    0    0  0.26283146304E+03  0.13263161688E+03  0.48372040673E+03  0.57989822870E+03  0.12500000000E+03 0.  0.
         25    1    1    2    0    0 -0.64069287865E+02 -0.21018780013E+02  0.25037904878E+03  0.28785644135E+03  0.12500000000E+03 0.  0.
</event>
<event>
 5    0  0.5510933E-005  0.2599537E+03  0.7546771E-02  0.1107171E+00
         21   -1    0    0  502  501  0.00000000000E+00  0.00000000000E+00  0.36823122518E+03  0.36823122518E+03  0.00000000000E+00 0. -1.
         21   -1    0    0  501  502 -0.00000000000E+00 -0.00000000000E+00 -0.18351488172E+03  0.18351488172E+03  0.00000000000E+00 0. -1.
         25    1    1    2    0    0  0.65489720332E+02 -0.10120766397E+03  0.42161605034E+02  0.17870225420E+03  0.12500000000E+03 0.  0.
         25    1    1    2    0    0 -0.68269460668E+02 -0.40008804295E+02  0.10317210257E+03  0.18036326241E+03  0.12500000000E+03 0.  0.
         25    1    1    2    0    0  0.27797403362E+01  0.14121646827E+03  0.39382635858E+02  0.19268059029E+03  0.12500000000E+03 0.  0.
</event>
<event>
 5    0  0.5510933E-005  0.5371112E+03  0.7546771E-02  0.1004522E+00
         21   -1    0    0  502  501  0.00000000000E+00  0.00000000000E+00  0.84012714141E+03  0.84012714141E+03  0.00000000000E+00 0. -1.
         21   -1    0    0  501  502 -0.00000000000E+00 -0.00000000000E+00 -0.34338663448E+03  0.34338663448E+03  0.00000000000E+00 0. -1.
         25    1    1    2    0    0  0.25656244433E+02  0.33248179746E+02 -0.26930756386E+03  0.29985871387E+03  0.12500000000E+03 0.  0.
         25    1    1    2    0    0 -0.14429760438E+03  0.68901518623E+02  0.20747307210E+03  0.29024006192E+03  0.12500000000E+03 0.  0.
         25    1    1    2    0    0  0.11864135995E+03 -0.10214969837E+03  0.55857499869E+03  0.59341500009E+03  0.12500000000E+03 0.  0.
</event>
<event>
 5    0  0.5510933E-005  0.4306113E+03  0.7546771E-02  0.1033667E+00
         21   -1    0    0  502  501  0.00000000000E+00  0.00000000000E+00  0.76567697310E+03  0.76567697310E+03  0.00000000000E+00 0. -1.
         21   -1    0    0  501  502 -0.00000000000E+00 -0.00000000000E+00 -0.24217269400E+03  0.24217269400E+03  0.00000000000E+00 0. -1.
         25    1    1    2    0    0  0.43158619789E+02 -0.54418410438E+02  0.25997018026E+03  0.29670443960E+03  0.12500000000E+03 0.  0.
         25    1    1    2    0    0  0.13309490703E+03  0.26122225404E+03  0.97012386245E+01  0.31885801591E+03  0.12500000000E+03 0.  0.
         25    1    1    2    0    0 -0.17625352682E+03 -0.20680384360E+03  0.25383286022E+03  0.39228721158E+03  0.12500000000E+03 0.  0.
</event>
<event>
 5    0  0.5510933E-005  0.2725002E+03  0.7546771E-02  0.1099857E+00
         21   -1    0    0  502  501  0.00000000000E+00  0.00000000000E+00  0.43815018532E+03  0.43815018532E+03  0.00000000000E+00 0.  1.
         21   -1    0    0  501  502 -0.00000000000E+00 -0.00000000000E+00 -0.16947689462E+03  0.16947689462E+03  0.00000000000E+00 0.  1.
         25    1    1    2    0    0 -0.10941449265E+02  0.15047758846E+03  0.92710576873E+02  0.21675670925E+03  0.12500000000E+03 0.  0.
         25    1    1    2    0    0  0.26227722792E+02 -0.11120988536E+03  0.19423767774E+03  0.25769906383E+03  0.12500000000E+03 0.  0.
         25    1    1    2    0    0 -0.15286273527E+02 -0.39267703106E+02 -0.18274963916E+02  0.13317130686E+03  0.12500000000E+03 0.  0.
</event>
<event>
 5    0  0.5510933E-005  0.3367700E+03  0.7546771E-02  0.1068180E+00
         21   -1    0    0  502  501  0.00000000000E+00  0.00000000000E+00  0.10900541196E+04  0.10900541196E+04  0.00000000000E+00 0.  1.
         21   -1    0    0  501  502 -0.00000000000E+00 -0.00000000000E+00 -0.10404442043E+03  0.10404442043E+03  0.00000000000E+00 0.  1.
         25    1    1    2    0    0 -0.96855076167E+02 -0.13621985610E+03  0.73771408744E+03  0.76667061362E+03  0.12500000000E+03 0.  0.
         25    1    1    2    0    0 -0.27616084316E+02  0.62386539984E+02  0.47449404557E+02  0.15010387895E+03  0.12500000000E+03 0.  0.
         25    1    1    2    0    0  0.12447116048E+03  0.73833316113E+02  0.20084620713E+03  0.27732404742E+03  0.12500000000E+03 0.  0.
</event>
<event>
 5    0  0.5510933E-005  0.3026537E+03  0.7546771E-02  0.1083922E+00
         21   -1    0    0  502  501  0.00000000000E+00  0.00000000000E+00  0.13485799828E+03  0.13485799828E+03  0.00000000000E+00 0. -1.
         21   -1    0    0  501  502 -0.00000000000E+00 -0.00000000000E+00 -0.67922732158E+03  0.67922732158E+03  0.00000000000E+00 0. -1.
         25    1    1    2    0    0 -0.14387654158E+03  0.99178226152E+02 -0.75674807721E+02  0.22779037794E+03  0.12500000000E+03 0.  0.
         25    1    1    2    0    0  0.13487263117E+03 -0.52648847682E+01 -0.32651973267E+03  0.37477790953E+03  0.12500000000E+03 0.  0.
         25    1    1    2    0    0  0.90039104109E+01 -0.93913341384E+02 -0.14217478291E+03  0.21151703238E+03  0.12500000000E+03 0.  0.
</event>
<event>
 5    0  0.5510933E-005  0.3303706E+03  0.7546771E-02  0.1070973E+00
         21   -1    0    0  502  501  0.00000000000E+00  0.00000000000E+00  0.16006444886E+03  0.16006444886E+03  0.00000000000E+00 0.  1.
         21   -1    0    0  501  502 -0.00000000000E+00 -0.00000000000E+00 -0.68188005975E+03  0.68188005975E+03  0.00000000000E+00 0.  1.
         25    1    1    2    0    0  0.76742140019E+02 -0.84303347893E+02 -0.64285322067E+02  0.18098069829E+03  0.12500000000E+03 0.  0.
         25    1    1    2    0    0 -0.61805928765E+02 -0.12237423226E+03 -0.58945982067E+02  0.19466652089E+03  0.12500000000E+03 0.  0.
         25    1    1    2    0    0 -0.14936211253E+02  0.20667758016E+03 -0.39858430675E+03  0.46629728943E+03  0.12500000000E+03 0.  0.
</event>
<event>
 5    0  0.5510933E-005  0.2168353E+03  0.7546771E-02  0.1136265E+00
         21   -1    0    0  502  501  0.00000000000E+00  0.00000000000E+00  0.10271290672E+03  0.10271290672E+03  0.00000000000E+00 0. -1.
         21   -1    0    0  501  502 -0.00000000000E+00 -0.00000000000E+00 -0.45775676707E+03  0.45775676707E+03  0.00000000000E+00 0. -1.
         25    1    1    2    0    0 -0.26896616372E+02  0.22349340899E+02 -0.19496464026E+03  0.23422026378E+03  0.12500000000E+03 0.  0.
         25    1    1    2    0    0 -0.17670846034E+02  0.28484566049E+02 -0.12488296247E+03  0.17984544370E+03  0.12500000000E+03 0.  0.
         25    1    1    2    0    0  0.44567462406E+02 -0.50833906948E+02 -0.35196257615E+02  0.14640396631E+03  0.12500000000E+03 0.  0.
</event>
<event>
 5    0  0.5510933E-005  0.3310681E+03  0.7546771E-02  0.1070665E+00
         21   -1    0    0  502  501  0.00000000000E+00  0.00000000000E+00  0.19687298184E+03  0.19687298184E+03  0.00000000000E+00 0.  1.
         21   -1    0    0  501  502 -0.00000000000E+00 -0.00000000000E+00 -0.55673504385E+03  0.55673504385E+03  0.00000000000E+00 0.  1.
         25    1    1    2    0    0 -0.19941601085E+03  0.12311369000E+03 -0.15446598083E+03  0.30725960568E+03  0.12500000000E+03 0.  0.
         25    1    1    2    0    0  0.19944774367E+03 -0.41767469663E+02 -0.16920746545E+03  0.29288238312E+03  0.12500000000E+03 0.  0.
         25    1    1    2    0    0 -0.31732819219E-01 -0.81346220339E+02 -0.36188615720E+02  0.15346603689E+03  0.12500000000E+03 0.  0.
</event>
<event>
 5    0  0.5510933E-005  0.3563303E+03  0.7546771E-02  0.1060046E+00
         21   -1    0    0  502  501  0.00000000000E+00  0.00000000000E+00  0.77042718672E+02  0.77042718672E+02  0.00000000000E+00 0. -1.
         21   -1    0    0  501  502 -0.00000000000E+00 -0.00000000000E+00 -0.16480634526E+04  0.16480634526E+04  0.00000000000E+00 0. -1.
         25    1    1    2    0    0  0.30652868125E+02 -0.11045675193E+03 -0.13528855741E+03  0.21695226695E+03  0.12500000000E+03 0.  0.
         25    1    1    2    0    0 -0.22460908674E+02  0.71206778219E+02 -0.13343997732E+04  0.13423198771E+04  0.12500000000E+03 0.  0.
         25    1    1    2    0    0 -0.81919594513E+01  0.39249973710E+02 -0.10133240338E+03  0.16583402730E+03  0.12500000000E+03 0.  0.
</event>
<event>
 5    0  0.5549360E-005  0.3408979E+03  0.7546771E-02  0.1066414E+00
         21   -1    0    0  502  501  0.00000000000E+00  0.00000000000E+00  0.53223181252E+03  0.53223181252E+03  0.00000000000E+00 0. -1.
         21   -1    0    0  501  502 -0.00000000000E+00 -0.00000000000E+00 -0.21834725336E+03  0.21834725336E+03  0.00000000000E+00 0. -1.
         25    1    1    2    0    0 -0.11799697720E+03 -0.61275423145E+02 -0.11538350247E+03  0.21590812109E+03  0.12500000000E+03 0.  0.
         25    1    1    2    0    0  0.13030557934E+03  0.15063889452E+02  0.28642470087E+03  0.33892561727E+03  0.12500000000E+03 0.  0.
         25    1    1    2    0    0 -0.12308602133E+02  0.46211533693E+02  0.14284336076E+03  0.19574532752E+03  0.12500000000E+03 0.  0.
</event>
<event>
 5    0  0.5510933E-005  0.3603465E+03  0.7546771E-02  0.1058447E+00
         21   -1    0    0  502  501  0.00000000000E+00  0.00000000000E+00  0.76577755499E+03  0.76577755499E+03  0.00000000000E+00 0. -1.
         21   -1    0    0  501  502 -0.00000000000E+00 -0.00000000000E+00 -0.16956564383E+03  0.16956564383E+03  0.00000000000E+00 0. -1.
         25    1    1    2    0    0 -0.44412944462E+02 -0.16764363238E+03  0.53393801673E+02  0.22034698811E+03  0.12500000000E+03 0.  0.
         25    1    1    2    0    0 -0.60790086284E+02  0.24092849051E+03  0.39329864812E+03  0.48171651284E+03  0.12500000000E+03 0.  0.
         25    1    1    2    0    0  0.10520303075E+03 -0.73284858126E+02  0.14951946137E+03  0.23327969786E+03  0.12500000000E+03 0.  0.
</event>
<event>
 5    0  0.5510933E-005  0.3579155E+03  0.7546771E-02  0.1059412E+00
         21   -1    0    0  502  501  0.00000000000E+00  0.00000000000E+00  0.11189739957E+03  0.11189739957E+03  0.00000000000E+00 0. -1.
         21   -1    0    0  501  502 -0.00000000000E+00 -0.00000000000E+00 -0.11448299518E+04  0.11448299518E+04  0.00000000000E+00 0. -1.
         25    1    1    2    0    0  0.81778498958E+02  0.10763800875E+03 -0.83354574664E+03  0.85363761372E+03  0.12500000000E+03 0.  0.
         25    1    1    2    0    0 -0.13816017247E+03 -0.10144577071E+03 -0.13515429367E+03  0.25153759311E+03  0.12500000000E+03 0.  0.
         25    1    1    2    0    0  0.56381673515E+02 -0.61922380429E+01 -0.64232511897E+02  0.15155214451E+03  0.12500000000E+03 0.  0.
</event>
<event>
 5    0  0.5510933E-005  0.2442435E+03  0.7546771E-02  0.1116998E+00
         21   -1    0    0  502  501  0.00000000000E+00  0.00000000000E+00  0.22578615151E+03  0.22578615151E+03  0.00000000000E+00 0.  1.
         21   -1    0    0  501  502 -0.00000000000E+00 -0.00000000000E+00 -0.26420968929E+03  0.26420968929E+03  0.00000000000E+00 0.  1.
         25    1    1    2    0    0 -0.96760820599E+02 -0.28466981122E+02 -0.10938505820E+03  0.19432734335E+03  0.12500000000E+03 0.  0.
         25    1    1    2    0    0  0.54213603911E+02 -0.16418633795E+02  0.74513628517E+02  0.15616006922E+03  0.12500000000E+03 0.  0.
         25    1    1    2    0    0  0.42547216689E+02  0.44885614917E+02 -0.35521081028E+01  0.13950842823E+03  0.12500000000E+03 0.  0.
</event>
<event>
 5    0  0.5510933E-005  0.4673273E+03  0.7546771E-02  0.1022677E+00
         21   -1    0    0  502  501  0.00000000000E+00  0.00000000000E+00  0.55216278705E+03  0.55216278705E+03  0.00000000000E+00 0.  1.
         21   -1    0    0  501  502 -0.00000000000E+00 -0.00000000000E+00 -0.39552611511E+03  0.39552611511E+03  0.00000000000E+00 0.  1.
         25    1    1    2    0    0  0.14918877544E+02 -0.47654242305E+02 -0.20745916166E+03  0.24730103816E+03  0.12500000000E+03 0.  0.
         25    1    1    2    0    0  0.36437153729E+02 -0.23767974436E+03  0.10031068505E+03  0.28897501723E+03  0.12500000000E+03 0.  0.
         25    1    1    2    0    0 -0.51356031273E+02  0.28533398666E+03  0.26378514855E+03  0.41141284677E+03  0.12500000000E+03 0.  0.
</event>
<event>
 5    0  0.5510933E-005  0.2698802E+03  0.7546771E-02  0.1101348E+00
         21   -1    0    0  502  501  0.00000000000E+00  0.00000000000E+00  0.28554547937E+04  0.28554547937E+04  0.00000000000E+00 0.  1.
         21   -1    0    0  501  502 -0.00000000000E+00 -0.00000000000E+00 -0.25507436087E+02  0.25507436087E+02  0.00000000000E+00 0.  1.
         25    1    1    2    0    0  0.42830774997E+02  0.88928896532E+02  0.93609547806E+03  0.94954861275E+03  0.12500000000E+03 0.  0.
         25    1    1    2    0    0 -0.15761772463E+02  0.88939966864E+02  0.62214550053E+03  0.64097486301E+03  0.12500000000E+03 0.  0.
         25    1    1    2    0    0 -0.27069002534E+02 -0.17786886340E+03  0.12717063791E+04  0.12904387541E+04  0.12500000000E+03 0.  0.
</event>
<event>
 5    0  0.5510933E-005  0.3848492E+03  0.7546771E-02  0.1049156E+00
         21   -1    0    0  502  501  0.00000000000E+00  0.00000000000E+00  0.31756673943E+03  0.31756673943E+03  0.00000000000E+00 0. -1.
         21   -1    0    0  501  502 -0.00000000000E+00 -0.00000000000E+00 -0.46638665478E+03  0.46638665478E+03  0.00000000000E+00 0. -1.
         25    1    1    2    0    0 -0.73820013335E+02  0.60619109130E+02 -0.67272872450E+01  0.15746214515E+03  0.12500000000E+03 0.  0.
         25    1    1    2    0    0  0.24545941384E+02 -0.28402112184E+03 -0.18527310126E+03  0.36224525248E+03  0.12500000000E+03 0.  0.
         25    1    1    2    0    0  0.49274071950E+02  0.22340201271E+03  0.43180473145E+02  0.26424599659E+03  0.12500000000E+03 0.  0.
</event>
<event>
 5    0  0.5879901E-005  0.2609653E+03  0.7546771E-02  0.1106565E+00
         21   -1    0    0  502  501  0.00000000000E+00  0.00000000000E+00  0.47815137112E+03  0.47815137112E+03  0.00000000000E+00 0. -1.
         21   -1    0    0  501  502 -0.00000000000E+00 -0.00000000000E+00 -0.14242957788E+03  0.14242957788E+03  0.00000000000E+00 0. -1.
         25    1    1    2    0    0  0.82063767671E+02 -0.14409918013E+03  0.11080744493E+03  0.23537698598E+03  0.12500000000E+03 0.  0.
         25    1    1    2    0    0 -0.50401908877E+02  0.84759990720E+02  0.17024490200E+03  0.23309426227E+03  0.12500000000E+03 0.  0.
         25    1    1    2    0    0 -0.31661858794E+02  0.59339189407E+02  0.54669446320E+02  0.15210970075E+03  0.12500000000E+03 0.  0.
</event>
<event>
 5    0  0.5510933E-005  0.3712341E+03  0.7546771E-02  0.1054222E+00
         21   -1    0    0  502  501  0.00000000000E+00  0.00000000000E+00  0.97251122641E+02  0.97251122641E+02  0.00000000000E+00 0. -1.
         21   -1    0    0  501  502 -0.00000000000E+00 -0.00000000000E+00 -0.14171017610E+04  0.14171017610E+04  0.00000000000E+00 0.  1.
         25    1    1    2    0    0 -0.22653747578E+03  0.71032298103E+02 -0.70069558367E+03  0.75030934706E+03  0.12500000000E+03 0.  0.
         25    1    1    2    0    0  0.27733557194E+03 -0.31937167754E+02 -0.39639693398E+03  0.50069005524E+03  0.12500000000E+03 0.  0.
         25    1    1    2    0    0 -0.50798096168E+02 -0.39095130349E+02 -0.22275812067E+03  0.26335348131E+03  0.12500000000E+03 0.  0.
</event>
<event>
 5    0  0.5510933E-005  0.2995912E+03  0.7546771E-02  0.1085445E+00
         21   -1    0    0  502  501  0.00000000000E+00  0.00000000000E+00  0.15319411876E+03  0.15319411876E+03  0.00000000000E+00 0. -1.
         21   -1    0    0  501  502 -0.00000000000E+00 -0.00000000000E+00 -0.58588988296E+03  0.58588988296E+03  0.00000000000E+00 0. -1.
         25    1    1    2    0    0 -0.98447384082E+02 -0.80216888179E+02 -0.25111060058E+03  0.30790935404E+03  0.12500000000E+03 0.  0.
         25    1    1    2    0    0  0.96057339773E+02 -0.68422102983E+02 -0.10220507181E+02  0.17215706627E+03  0.12500000000E+03 0.  0.
         25    1    1    2    0    0  0.23900443092E+01  0.14863899116E+03 -0.17136465644E+03  0.25901758141E+03  0.12500000000E+03 0.  0.
</event>
<event>
 5    0  0.5510933E-005  0.4917878E+03  0.7546771E-02  0.1015945E+00
         21   -1    0    0  502  501  0.00000000000E+00  0.00000000000E+00  0.42643258985E+03  0.42643258985E+03  0.00000000000E+00 0.  1.
         21   -1    0    0  501  502 -0.00000000000E+00 -0.00000000000E+00 -0.56715938028E+03  0.56715938028E+03  0.00000000000E+00 0.  1.
         25    1    1    2    0    0  0.20873941233E+03 -0.26174274133E+03  0.86884567373E+02  0.36777076140E+03  0.12500000000E+03 0.  0.
         25    1    1    2    0    0 -0.16420662155E+03  0.54061221410E+02  0.83349711366E+02  0.22903843478E+03  0.12500000000E+03 0.  0.
         25    1    1    2    0    0 -0.44532790776E+02  0.20768151992E+03 -0.31096106916E+03  0.39678277395E+03  0.12500000000E+03 0.  0.
</event>
<event>
 5    0  0.5510933E-005  0.2581252E+03  0.7546771E-02  0.1108275E+00
         21   -1    0    0  502  501  0.00000000000E+00  0.00000000000E+00  0.77152235391E+02  0.77152235391E+02  0.00000000000E+00 0.  1.
         21   -1    0    0  501  502 -0.00000000000E+00 -0.00000000000E+00 -0.86359913748E+03  0.86359913748E+03  0.00000000000E+00 0.  1.
         25    1    1    2    0    0 -0.24401153247E+02 -0.71238290158E+02 -0.46090361415E+03  0.48345367079E+03  0.12500000000E+03 0.  0.
         25    1    1    2    0    0 -0.10872548482E+02  0.12800813126E+03 -0.17447694024E+03  0.25014295244E+03  0.12500000000E+03 0.  0.
         25    1    1    2    0    0  0.35273701729E+02 -0.56769841102E+02 -0.15106634771E+03  0.20715474965E+03  0.12500000000E+03 0.  0.
</event>
<event>
 5    0  0.6002993E-005  0.4661368E+03  0.7546771E-02  0.1023016E+00
         21   -1    0    0  502  501  0.00000000000E+00  0.00000000000E+00  0.24709046493E+03  0.24709046493E+03  0.00000000000E+00 0.  1.
         21   -1    0    0  501  502 -0.00000000000E+00 -0.00000000000E+00 -0.87936817588E+03  0.87936817588E+03  0.00000000000E+00 0.  1.
         25    1    1    2    0    0  0.21932859347E+03 -0.89687194931E+02  0.27749381676E+00  0.26790651700E+03  0.12500000000E+03 0.  0.
         25    1    1    2    0    0 -0.21358064071E+03 -0.14463322321E+03 -0.19501094577E+03  0.34668390258E+03  0.12500000000E+03 0.  0.
         25    1    1    2    0    0 -0.57479527584E+01  0.23432041814E+03 -0.43754425900E+03  0.51186822123E+03  0.12500000000E+03 0.  0.
</event>
<event>
 5    0  0.5510933E-005  0.2815168E+03  0.7546771E-02  0.1094863E+00
         21   -1    0    0  502  501  0.00000000000E+00  0.00000000000E+00  0.85719017149E+03  0.85719017149E+03  0.00000000000E+00 0.  1.
         21   -1    0    0  501  502 -0.00000000000E+00 -0.00000000000E+00 -0.92455237544E+02  0.92455237544E+02  0.00000000000E+00 0.  1.
         25    1    1    2    0    0 -0.21425023496E+02 -0.91275660171E+02  0.48634848749E+02  0.16364787284E+03  0.12500000000E+03 0.  0.
         25    1    1    2    0    0  0.50521477936E+02 -0.27414738588E+02  0.42205172153E+03  0.44391062532E+03  0.12500000000E+03 0.  0.
         25    1    1    2    0    0 -0.29096454440E+02  0.11869039876E+03  0.29404836367E+03  0.34208691088E+03  0.12500000000E+03 0.  0.
</event>
<event>
 5    0  0.5510933E-005  0.3125320E+03  0.7546771E-02  0.1079139E+00
         21   -1    0    0  502  501  0.00000000000E+00  0.00000000000E+00  0.15729660380E+04  0.15729660380E+04  0.00000000000E+00 0. -1.
         21   -1    0    0  501  502 -0.00000000000E+00 -0.00000000000E+00 -0.62096857373E+02  0.62096857373E+02  0.00000000000E+00 0. -1.
         25    1    1    2    0    0 -0.27330546414E+02  0.44335603333E+02  0.15455542679E+03  0.20548718802E+03  0.12500000000E+03 0.  0.
         25    1    1    2    0    0  0.17027975005E+03 -0.59975086074E+02  0.10169043296E+04  0.10403420686E+04  0.12500000000E+03 0.  0.
         25    1    1    2    0    0 -0.14294920364E+03  0.15639482741E+02  0.33940942422E+03  0.38923363870E+03  0.12500000000E+03 0.  0.
</event>
<event>
 5    0  0.5672458E-005  0.2677364E+03  0.7546771E-02  0.1102582E+00
         21   -1    0    0  502  501  0.00000000000E+00  0.00000000000E+00  0.56522820282E+03  0.56522820282E+03  0.00000000000E+00 0.  1.
         21   -1    0    0  501  502 -0.00000000000E+00 -0.00000000000E+00 -0.12682094118E+03  0.12682094118E+03  0.00000000000E+00 0.  1.
         25    1    1    2    0    0  0.12927164706E+03  0.52449927998E+02  0.53190430639E+02  0.19472127668E+03  0.12500000000E+03 0.  0.
         25    1    1    2    0    0 -0.18116443692E+01 -0.33442826334E+02  0.11630923349E+03  0.17399581169E+03  0.12500000000E+03 0.  0.
         25    1    1    2    0    0 -0.12746000269E+03 -0.19007101665E+02  0.26890759751E+03  0.32333205563E+03  0.12500000000E+03 0.  0.
</event>
<event>
 5    0  0.5510933E-005  0.2918253E+03  0.7546771E-02  0.1089400E+00
         21   -1    0    0  502  501  0.00000000000E+00  0.00000000000E+00  0.90086156295E+03  0.90086156295E+03  0.00000000000E+00 0.  1.
         21   -1    0    0  501  502 -0.00000000000E+00 -0.00000000000E+00 -0.94533931548E+02  0.94533931548E+02  0.00000000000E+00 0.  1.
         25    1    1    2    0    0 -0.11527010377E+03  0.11341831523E+03  0.50716167387E+03  0.54679875136E+03  0.12500000000E+03 0.  0.
         25    1    1    2    0    0  0.80642379620E+01 -0.23852721589E+02  0.50402181894E+02  0.13711077347E+03  0.12500000000E+03 0.  0.
         25    1    1    2    0    0  0.10720586581E+03 -0.89565593641E+02  0.24876377564E+03  0.31148596967E+03  0.12500000000E+03 0.  0.
</event>
<event>
 5    0  0.5510933E-005  0.2993319E+03  0.7546771E-02  0.1085575E+00
         21   -1    0    0  502  501  0.00000000000E+00  0.00000000000E+00  0.84831318027E+02  0.84831318027E+02  0.00000000000E+00 0. -1.
         21   -1    0    0  501  502 -0.00000000000E+00 -0.00000000000E+00 -0.10562091651E+04  0.10562091651E+04  0.00000000000E+00 0. -1.
         25    1    1    2    0    0 -0.30354793000E+02 -0.10802245312E+03 -0.55975530819E+03  0.58441532226E+03  0.12500000000E+03 0.  0.
         25    1    1    2    0    0  0.86273691056E+02  0.15985379365E+03 -0.30095311030E+03  0.37308733523E+03  0.12500000000E+03 0.  0.
         25    1    1    2    0    0 -0.55918898055E+02 -0.51831340532E+02 -0.11066942860E+03  0.18353782566E+03  0.12500000000E+03 0.  0.
</event>
<event>
 5    0  0.5510933E-005  0.2510862E+03  0.7546771E-02  0.1112620E+00
         21   -1    0    0  502  501  0.00000000000E+00  0.00000000000E+00  0.11276014492E+04  0.11276014492E+04  0.00000000000E+00 0. -1.
         21   -1    0    0  501  502 -0.00000000000E+00 -0.00000000000E+00 -0.55910074004E+02  0.55910074004E+02  0.00000000000E+00 0. -1.
         25    1    1    2    0    0 -0.10165774922E+03  0.10529823716E+03  0.32144130438E+03  0.37466188609E+03  0.12500000000E+03 0.  0.
         25    1    1    2    0    0  0.38310013998E+02 -0.14072005633E+02  0.39273227251E+03  0.41416097883E+03  0.12500000000E+03 0.  0.
         25    1    1    2    0    0  0.63347735224E+02 -0.91226231524E+02  0.35751779832E+03  0.39468865830E+03  0.12500000000E+03 0.  0.
</event>
<event>
 5    0  0.6680138E-005  0.2846719E+03  0.7546771E-02  0.1093164E+00
         21   -1    0    0  502  501  0.00000000000E+00  0.00000000000E+00  0.53834931780E+03  0.53834931780E+03  0.00000000000E+00 0. -1.
         21   -1    0    0  501  502 -0.00000000000E+00 -0.00000000000E+00 -0.15053065407E+03  0.15053065407E+03  0.00000000000E+00 0. -1.
         25    1    1    2    0    0  0.17507165250E+03  0.34001052775E+02  0.72091151235E+02  0.22940856389E+03  0.12500000000E+03 0.  0.
         25    1    1    2    0    0 -0.88986149990E+02  0.13650909239E+02  0.23523742141E+03  0.28118770713E+03  0.12500000000E+03 0.  0.
         25    1    1    2    0    0 -0.86085502511E+02 -0.47651962014E+02  0.80490091090E+02  0.17828370085E+03  0.12500000000E+03 0.  0.
</event>
<event>
 5    0  0.5510933E-005  0.2824030E+03  0.7546771E-02  0.1094384E+00
         21   -1    0    0  502  501  0.00000000000E+00  0.00000000000E+00  0.20692560897E+04  0.20692560897E+04  0.00000000000E+00 0. -1.
         21   -1    0    0  501  502 -0.00000000000E+00 -0.00000000000E+00 -0.38541112352E+02  0.38541112352E+02  0.00000000000E+00 0. -1.
         25    1    1    2    0    0 -0.70364949490E+02 -0.66152403476E+02  0.41870728851E+03  0.44751330712E+03  0.12500000000E+03 0.  0.
         25    1    1    2    0    0 -0.64373884373E+02  0.11357129628E+03  0.48868929182E+03  0.52104189876E+03  0.12500000000E+03 0.  0.
         25    1    1    2    0    0  0.13473883386E+03 -0.47418892800E+02  0.11233183970E+04  0.11392419961E+04  0.12500000000E+03 0.  0.
</event>
<event>
 5    0  0.5510933E-005  0.2140387E+03  0.7546771E-02  0.1138407E+00
         21   -1    0    0  502  501  0.00000000000E+00  0.00000000000E+00  0.15658919005E+04  0.15658919005E+04  0.00000000000E+00 0.  1.
         21   -1    0    0  501  502 -0.00000000000E+00 -0.00000000000E+00 -0.29256533233E+02  0.29256533233E+02  0.00000000000E+00 0.  1.
         25    1    1    2    0    0 -0.61213911142E+02  0.65559635941E+01  0.80223738600E+03  0.81424808694E+03  0.12500000000E+03 0.  0.
         25    1    1    2    0    0  0.22802753345E+02 -0.22952187598E+02  0.29165895881E+03  0.31896193618E+03  0.12500000000E+03 0.  0.
         25    1    1    2    0    0  0.38411157798E+02  0.16396224004E+02  0.44273902249E+03  0.46193841065E+03  0.12500000000E+03 0.  0.
</event>
<event>
 5    0  0.6410730E-005  0.2967044E+03  0.7546771E-02  0.1086900E+00
         21   -1    0    0  502  501  0.00000000000E+00  0.00000000000E+00  0.18666507793E+03  0.18666507793E+03  0.00000000000E+00 0. -1.
         21   -1    0    0  501  502 -0.00000000000E+00 -0.00000000000E+00 -0.47161197690E+03  0.47161197690E+03  0.00000000000E+00 0. -1.
         25    1    1    2    0    0  0.10419087317E+01 -0.79797885220E+02 -0.15706488826E+03  0.21601659007E+03  0.12500000000E+03 0.  0.
         25    1    1    2    0    0  0.68510805327E+02  0.19337166496E+03 -0.83107285914E+02  0.25420100753E+03  0.12500000000E+03 0.  0.
         25    1    1    2    0    0 -0.69552714059E+02 -0.11357377974E+03 -0.44774724793E+02  0.18805945724E+03  0.12500000000E+03 0.  0.
</event>
<event>
 5    0  0.5510933E-005  0.2583637E+03  0.7546771E-02  0.1108130E+00
         21   -1    0    0  502  501  0.00000000000E+00  0.00000000000E+00  0.54281323597E+02  0.54281323597E+02  0.00000000000E+00 0.  1.
         21   -1    0    0  501  502 -0.00000000000E+00 -0.00000000000E+00 -0.12297376027E+04  0.12297376027E+04  0.00000000000E+00 0.  1.
         25    1    1    2    0    0  0.11018085307E+03  0.68962320382E+02 -0.71104633124E+03  0.73355811438E+03  0.12500000000E+03 0.  0.
         25    1    1    2    0    0 -0.56165124519E+02 -0.61900202189E+02 -0.30945377349E+03  0.34405347574E+03  0.12500000000E+03 0.  0.
         25    1    1    2    0    0 -0.54015728552E+02 -0.70621181932E+01 -0.15495617435E+03  0.20640733614E+03  0.12500000000E+03 0.  0.
</event>
<event>
 5    0  0.5510933E-005  0.2961934E+03  0.7546771E-02  0.1087159E+00
         21   -1    0    0  502  501  0.00000000000E+00  0.00000000000E+00  0.28083987520E+03  0.28083987520E+03  0.00000000000E+00 0.  1.
         21   -1    0    0  501  502 -0.00000000000E+00 -0.00000000000E+00 -0.31238623594E+03  0.31238623594E+03  0.00000000000E+00 0.  1.
         25    1    1    2    0    0  0.21667381435E+02 -0.17811264700E+03 -0.90096354414E+02  0.23650780857E+03  0.12500000000E+03 0.  0.
         25    1    1    2    0    0  0.53349829832E+01  0.20443378446E+02 -0.37399053460E+02  0.13217444142E+03  0.12500000000E+03 0.  0.
         25    1    1    2    0    0 -0.27002364418E+02  0.15766926855E+03  0.95949047141E+02  0.22454386114E+03  0.12500000000E+03 0.  0.
</event>
<event>
 5    0  0.5510933E-005  0.2732990E+03  0.7546771E-02  0.1099406E+00
         21   -1    0    0  502  501  0.00000000000E+00  0.00000000000E+00  0.28510140181E+03  0.28510140181E+03  0.00000000000E+00 0.  1.
         21   -1    0    0  501  502 -0.00000000000E+00 -0.00000000000E+00 -0.26198514087E+03  0.26198514087E+03  0.00000000000E+00 0.  1.
         25    1    1    2    0    0 -0.92072132167E+01 -0.13115508136E+03 -0.37477545335E+02  0.18524576796E+03  0.12500000000E+03 0.  0.
         25    1    1    2    0    0  0.86857799973E+01  0.13621838310E+03 -0.53355842790E+02  0.19262070664E+03  0.12500000000E+03 0.  0.
         25    1    1    2    0    0  0.52143321945E+00 -0.50633017307E+01  0.11394964907E+03  0.16922006808E+03  0.12500000000E+03 0.  0.
</event>
<event>
 5    0  0.5510933E-005  0.3090510E+03  0.7546771E-02  0.1080802E+00
         21   -1    0    0  502  501  0.00000000000E+00  0.00000000000E+00  0.15348313574E+03  0.15348313574E+03  0.00000000000E+00 0.  1.
         21   -1    0    0  501  502 -0.00000000000E+00 -0.00000000000E+00 -0.62229966174E+03  0.62229966174E+03  0.00000000000E+00 0.  1.
         25    1    1    2    0    0  0.12158013911E+03  0.68522373758E+02 -0.24267580151E+03  0.30658374153E+03  0.12500000000E+03 0.  0.
         25    1    1    2    0    0 -0.16335117039E+03 -0.11857636819E+03 -0.48346753858E+02  0.24229397138E+03  0.12500000000E+03 0.  0.
         25    1    1    2    0    0  0.41771031274E+02  0.50053994428E+02 -0.17779397062E+03  0.22690508457E+03  0.12500000000E+03 0.  0.
</event>
<event>
 5    0  0.6494832E-005  0.2960930E+03  0.7546771E-02  0.1087210E+00
         21   -1    0    0  502  501  0.00000000000E+00  0.00000000000E+00  0.55924598688E+03  0.55924598688E+03  0.00000000000E+00 0.  1.
         21   -1    0    0  501  502 -0.00000000000E+00 -0.00000000000E+00 -0.15676653021E+03  0.15676653021E+03  0.00000000000E+00 0.  1.
         25    1    1    2    0    0 -0.39154487922E+02 -0.75442409838E+02  0.22895512364E+03  0.27435393157E+03  0.12500000000E+03 0.  0.
         25    1    1    2    0    0 -0.74063428021E+02  0.14918908266E+02 -0.50724227973E+02  0.15461536954E+03  0.12500000000E+03 0.  0.
         25    1    1    2    0    0  0.11321791594E+03  0.60523501572E+02  0.22424856100E+03  0.28704321599E+03  0.12500000000E+03 0.  0.
</event>
<event>
 5    0  0.5510933E-005  0.3767468E+03  0.7546771E-02  0.1052143E+00
         21   -1    0    0  502  501  0.00000000000E+00  0.00000000000E+00  0.25413183680E+03  0.25413183680E+03  0.00000000000E+00 0. -1.
         21   -1    0    0  501  502 -0.00000000000E+00 -0.00000000000E+00 -0.55852178144E+03  0.55852178144E+03  0.00000000000E+00 0. -1.
         25    1    1    2    0    0  0.11223795025E+03  0.57513563705E+02 -0.28858701482E+03  0.33884012839E+03  0.12500000000E+03 0.  0.
         25    1    1    2    0    0 -0.19265929886E+03 -0.10579627836E+03  0.10748966892E+03  0.27475350203E+03  0.12500000000E+03 0.  0.
         25    1    1    2    0    0  0.80421348616E+02  0.48282714651E+02 -0.12329259874E+03  0.19905998782E+03  0.12500000000E+03 0.  0.
</event>
<event>
 5    0  0.5510933E-005  0.2437278E+03  0.7546771E-02  0.1117334E+00
         21   -1    0    0  502  501  0.00000000000E+00  0.00000000000E+00  0.10293281628E+03  0.10293281628E+03  0.00000000000E+00 0.  1.
         21   -1    0    0  501  502 -0.00000000000E+00 -0.00000000000E+00 -0.57710712165E+03  0.57710712165E+03  0.00000000000E+00 0.  1.
         25    1    1    2    0    0  0.44719593228E+01  0.12919358875E+03 -0.10893348889E+03  0.21024387457E+03  0.12500000000E+03 0.  0.
         25    1    1    2    0    0  0.12031513568E+02 -0.97574086750E+02 -0.24878818364E+03  0.29527278920E+03  0.12500000000E+03 0.  0.
         25    1    1    2    0    0 -0.16503472891E+02 -0.31619501999E+02 -0.11645263285E+03  0.17452327415E+03  0.12500000000E+03 0.  0.
</event>
<event>
 5    0  0.5510933E-005  0.3031326E+03  0.7546771E-02  0.1083685E+00
         21   -1    0    0  502  501  0.00000000000E+00  0.00000000000E+00  0.23165784495E+03  0.23165784495E+03  0.00000000000E+00 0.  1.
         21   -1    0    0  501  502 -0.00000000000E+00 -0.00000000000E+00 -0.39665993941E+03  0.39665993941E+03  0.00000000000E+00 0.  1.
         25    1    1    2    0    0  0.30537653415E+02  0.41587983735E+02  0.35773562179E+02  0.13988157998E+03  0.12500000000E+03 0.  0.
         25    1    1    2    0    0  0.15658383110E+03 -0.44568260996E+02 -0.15877608630E+03  0.25949888561E+03  0.12500000000E+03 0.  0.
         25    1    1    2    0    0 -0.18712148451E+03  0.29802772607E+01 -0.41999570343E+02  0.22893731877E+03  0.12500000000E+03 0.  0.
</event>
<event>
 5    0  0.5510933E-005  0.2174681E+03  0.7546771E-02  0.1135785E+00
         21   -1    0    0  502  501  0.00000000000E+00  0.00000000000E+00  0.78600869584E+02  0.78600869584E+02  0.00000000000E+00 0. -1.
         21   -1    0    0  501  502 -0.00000000000E+00 -0.00000000000E+00 -0.60167750680E+03  0.60167750680E+03  0.00000000000E+00 0. -1.
         25    1    1    2    0    0  0.49905095782E+02  0.82526273517E+02 -0.15143668275E+03  0.21876739540E+03  0.12500000000E+03 0.  0.
         25    1    1    2    0    0  0.27969989729E+01 -0.37706515240E+02 -0.16928055480E+03  0.21380016541E+03  0.12500000000E+03 0.  0.
         25    1    1    2    0    0 -0.52702094755E+02 -0.44819758276E+02 -0.20235939967E+03  0.24771081558E+03  0.12500000000E+03 0.  0.
</event>
<event>
 5    0  0.5510933E-005  0.3867185E+03  0.7546771E-02  0.1048478E+00
         21   -1    0    0  502  501  0.00000000000E+00  0.00000000000E+00  0.11387345533E+03  0.11387345533E+03  0.00000000000E+00 0. -1.
         21   -1    0    0  501  502 -0.00000000000E+00 -0.00000000000E+00 -0.13133105458E+04  0.13133105458E+04  0.00000000000E+00 0. -1.
         25    1    1    2    0    0  0.52581963660E+02  0.57517079222E+02  0.30035687476E+02  0.15033369491E+03  0.12500000000E+03 0.  0.
         25    1    1    2    0    0  0.36035732960E+02  0.65941809004E+02 -0.45701564710E+03  0.47972408520E+03  0.12500000000E+03 0.  0.
         25    1    1    2    0    0 -0.88617696621E+02 -0.12345888823E+03 -0.77245713083E+03  0.79712622100E+03  0.12500000000E+03 0.  0.
</event>
<event>
 5    0  0.5510933E-005  0.2753499E+03  0.7546771E-02  0.1098256E+00
         21   -1    0    0  502  501  0.00000000000E+00  0.00000000000E+00  0.37628365686E+03  0.37628365686E+03  0.00000000000E+00 0. -1.
         21   -1    0    0  501  502 -0.00000000000E+00 -0.00000000000E+00 -0.20149044042E+03  0.20149044042E+03  0.00000000000E+00 0. -1.
         25    1    1    2    0    0  0.45598121991E+02 -0.22874135095E+02 -0.81615048535E+02  0.15776067613E+03  0.12500000000E+03 0.  0.
         25    1    1    2    0    0 -0.65852244007E+02 -0.72145099092E+02  0.64548910610E+02  0.17126878065E+03  0.12500000000E+03 0.  0.
         25    1    1    2    0    0  0.20254122016E+02  0.95019234188E+02  0.19185935436E+03  0.24874464050E+03  0.12500000000E+03 0.  0.
</event>
<event>
 5    0  0.5510933E-005  0.3922345E+03  0.7546771E-02  0.1046502E+00
         21   -1    0    0  502  501  0.00000000000E+00  0.00000000000E+00  0.87165280810E+03  0.87165280810E+03  0.00000000000E+00 0.  1.
         21   -1    0    0  501  502 -0.00000000000E+00 -0.00000000000E+00 -0.17650139910E+03  0.17650139910E+03  0.00000000000E+00 0.  1.
         25    1    1    2    0    0 -0.19501649544E+03  0.20412724426E+03  0.26744290927E+03  0.40847285719E+03  0.12500000000E+03 0.  0.
         25    1    1    2    0    0  0.20281407775E+03 -0.22584435534E+03  0.38416376314E+03  0.50531774151E+03  0.12500000000E+03 0.  0.
         25    1    1    2    0    0 -0.77975823164E+01  0.21717111074E+02  0.43544736591E+02  0.13436360850E+03  0.12500000000E+03 0.  0.
</event>
<event>
 5    0  0.5510933E-005  0.3133983E+03  0.7546771E-02  0.1078728E+00
         21   -1    0    0  502  501  0.00000000000E+00  0.00000000000E+00  0.29874010567E+02  0.29874010567E+02  0.00000000000E+00 0. -1.
         21   -1    0    0  501  502 -0.00000000000E+00 -0.00000000000E+00 -0.32877566313E+04  0.32877566313E+04  0.00000000000E+00 0. -1.
         25    1    1    2    0    0  0.14883222737E+03 -0.98266647776E+02 -0.98691972961E+03  0.10106645926E+04  0.12500000000E+03 0.  0.
         25    1    1    2    0    0 -0.42389938983E+02 -0.51403760443E+02 -0.43194368585E+03  0.45457628761E+03  0.12500000000E+03 0.  0.
         25    1    1    2    0    0 -0.10644228838E+03  0.14967040822E+03 -0.18390192053E+04  0.18523897617E+04  0.12500000000E+03 0.  0.
</event>
<event>
 5    0  0.5510933E-005  0.3636548E+03  0.7546771E-02  0.1057146E+00
         21   -1    0    0  502  501  0.00000000000E+00  0.00000000000E+00  0.26778359496E+03  0.26778359496E+03  0.00000000000E+00 0.  1.
         21   -1    0    0  501  502 -0.00000000000E+00 -0.00000000000E+00 -0.49384967584E+03  0.49384967584E+03  0.00000000000E+00 0.  1.
         25    1    1    2    0    0  0.20135767532E+03  0.19612114140E+02  0.80899943777E+02  0.25119583861E+03  0.12500000000E+03 0.  0.
         25    1    1    2    0    0 -0.24455626601E+03 -0.50658707619E+01 -0.20225939877E+03  0.34112650833E+03  0.12500000000E+03 0.  0.
         25    1    1    2    0    0  0.43198590697E+02 -0.14546243378E+02 -0.10470662588E+03  0.16931092386E+03  0.12500000000E+03 0.  0.
</event>
<event>
 5    0  0.5510933E-005  0.2456928E+03  0.7546771E-02  0.1116058E+00
         21   -1    0    0  502  501  0.00000000000E+00  0.00000000000E+00  0.72235895448E+02  0.72235895448E+02  0.00000000000E+00 0. -1.
         21   -1    0    0  501  502 -0.00000000000E+00 -0.00000000000E+00 -0.83566401735E+03  0.83566401735E+03  0.00000000000E+00 0. -1.
         25    1    1    2    0    0 -0.21934381184E+02  0.40953774681E+01 -0.88920809640E+02  0.15501548175E+03  0.12500000000E+03 0.  0.
         25    1    1    2    0    0  0.86478134466E+02 -0.55862576562E+02 -0.21252617917E+03  0.26719182628E+03  0.12500000000E+03 0.  0.
         25    1    1    2    0    0 -0.64543753282E+02  0.51767199094E+02 -0.46198113309E+03  0.48569260476E+03  0.12500000000E+03 0.  0.
</event>
<event>
 5    0  0.5510933E-005  0.2487856E+03  0.7546771E-02  0.1114075E+00
         21   -1    0    0  502  501  0.00000000000E+00  0.00000000000E+00  0.21089095199E+03  0.21089095199E+03  0.00000000000E+00 0.  1.
         21   -1    0    0  501  502 -0.00000000000E+00 -0.00000000000E+00 -0.29348942951E+03  0.29348942951E+03  0.00000000000E+00 0.  1.
         25    1    1    2    0    0  0.11831695315E+03 -0.38518418652E+02 -0.72794564242E+02  0.19080518484E+03  0.12500000000E+03 0.  0.
         25    1    1    2    0    0 -0.16071022315E+02 -0.39477799844E+02  0.13380240421E+02  0.13274338128E+03  0.12500000000E+03 0.  0.
         25    1    1    2    0    0 -0.10224593084E+03  0.77996218496E+02 -0.23184153692E+02  0.18083181538E+03  0.12500000000E+03 0.  0.
</event>
<event>
 5    0  0.5510933E-005  0.3852294E+03  0.7546771E-02  0.1049018E+00
         21   -1    0    0  502  501  0.00000000000E+00  0.00000000000E+00  0.71552128638E+03  0.71552128638E+03  0.00000000000E+00 0. -1.
         21   -1    0    0  501  502 -0.00000000000E+00 -0.00000000000E+00 -0.20740355151E+03  0.20740355151E+03  0.00000000000E+00 0. -1.
         25    1    1    2    0    0 -0.73427928679E+01 -0.24633635514E+03  0.29668492731E+03  0.40544107163E+03  0.12500000000E+03 0.  0.
         25    1    1    2    0    0  0.28962863109E+02 -0.14390283661E+02  0.18599838354E+03  0.22642068453E+03  0.12500000000E+03 0.  0.
         25    1    1    2    0    0 -0.21620070241E+02  0.26072663880E+03  0.25434424022E+02  0.29106308173E+03  0.12500000000E+03 0.  0.
</event>
<event>
 5    0  0.5510933E-005  0.2894451E+03  0.7546771E-02  0.1090639E+00
         21   -1    0    0  502  501  0.00000000000E+00  0.00000000000E+00  0.12421642418E+04  0.12421642418E+04  0.00000000000E+00 0.  1.
         21   -1    0    0  501  502 -0.00000000000E+00 -0.00000000000E+00 -0.67445562966E+02  0.67445562966E+02  0.00000000000E+00 0.  1.
         25    1    1    2    0    0 -0.14081098214E+03  0.53854298510E+02  0.30030459386E+03  0.35851899148E+03  0.12500000000E+03 0.  0.
         25    1    1    2    0    0  0.37651548741E+02 -0.13915689623E+03  0.46069887791E+03  0.49864891156E+03  0.12500000000E+03 0.  0.
         25    1    1    2    0    0  0.10315943340E+03  0.85302597718E+02  0.41371520702E+03  0.45244190168E+03  0.12500000000E+03 0.  0.
</event>
<event>
 5    0  0.5510933E-005  0.2993391E+03  0.7546771E-02  0.1085571E+00
         21   -1    0    0  502  501  0.00000000000E+00  0.00000000000E+00  0.71929937694E+03  0.71929937694E+03  0.00000000000E+00 0.  1.
         21   -1    0    0  501  502 -0.00000000000E+00 -0.00000000000E+00 -0.12457104241E+03  0.12457104241E+03  0.00000000000E+00 0.  1.
         25    1    1    2    0    0  0.62071302158E+02  0.14577759478E+03  0.20221636482E+03  0.28569286287E+03  0.12500000000E+03 0.  0.
         25    1    1    2    0    0 -0.30634555458E+00  0.59803813751E+02  0.20278285821E+03  0.24560634676E+03  0.12500000000E+03 0.  0.
         25    1    1    2    0    0 -0.61764956604E+02 -0.20558140853E+03  0.18972911149E+03  0.31257120972E+03  0.12500000000E+03 0.  0.
</event>
<event>
 5    0  0.5510933E-005  0.2760575E+03  0.7546771E-02  0.1097862E+00
         21   -1    0    0  502  501  0.00000000000E+00  0.00000000000E+00  0.12416026157E+03  0.12416026157E+03  0.00000000000E+00 0. -1.
         21   -1    0    0  501  502 -0.00000000000E+00 -0.00000000000E+00 -0.61378533963E+03  0.61378533963E+03  0.00000000000E+00 0. -1.
         25    1    1    2    0    0  0.12696579762E+03 -0.24092478019E+02 -0.16007792813E+03  0.24072952527E+03  0.12500000000E+03 0.  0.
         25    1    1    2    0    0 -0.16194745807E+03 -0.30628521391E+02 -0.27950546424E+03  0.34772602727E+03  0.12500000000E+03 0.  0.
         25    1    1    2    0    0  0.34981660457E+02  0.54720999409E+02 -0.50041685686E+02  0.14949004867E+03  0.12500000000E+03 0.  0.
</event>
<event>
 5    0  0.5510933E-005  0.3650383E+03  0.7546771E-02  0.1056607E+00
         21   -1    0    0  502  501  0.00000000000E+00  0.00000000000E+00  0.99670958413E+02  0.99670958413E+02  0.00000000000E+00 0. -1.
         21   -1    0    0  501  502 -0.00000000000E+00 -0.00000000000E+00 -0.13369282903E+04  0.13369282903E+04  0.00000000000E+00 0. -1.
         25    1    1    2    0    0  0.71584717551E+02 -0.37040150005E+02 -0.84220486029E+03  0.85523702632E+03  0.12500000000E+03 0.  0.
         25    1    1    2    0    0 -0.48277960871E+02 -0.71354929666E+02  0.66623647505E+00  0.15181479297E+03  0.12500000000E+03 0.  0.
         25    1    1    2    0    0 -0.23306756680E+02  0.10839507967E+03 -0.39571870808E+03  0.42954742943E+03  0.12500000000E+03 0.  0.
</event>
<event>
 5    0  0.5510933E-005  0.3798224E+03  0.7546771E-02  0.1050999E+00
         21   -1    0    0  502  501  0.00000000000E+00  0.00000000000E+00  0.26207493518E+03  0.26207493518E+03  0.00000000000E+00 0. -1.
         21   -1    0    0  501  502 -0.00000000000E+00 -0.00000000000E+00 -0.55047241894E+03  0.55047241894E+03  0.00000000000E+00 0. -1.
         25    1    1    2    0    0  0.22057379041E+03  0.10255789013E+03 -0.18166927605E+03  0.32832856060E+03  0.12500000000E+03 0.  0.
         25    1    1    2    0    0 -0.11860541776E+03 -0.35631652790E+02 -0.21569686847E+03  0.27836486644E+03  0.12500000000E+03 0.  0.
         25    1    1    2    0    0 -0.10196837265E+03 -0.66926237342E+02  0.10896866076E+03  0.20585392708E+03  0.12500000000E+03 0.  0.
</event>
<event>
 5    0  0.5510933E-005  0.3287534E+03  0.7546771E-02  0.1071690E+00
         21   -1    0    0  502  501  0.00000000000E+00  0.00000000000E+00  0.14613992654E+03  0.14613992654E+03  0.00000000000E+00 0.  1.
         21   -1    0    0  501  502 -0.00000000000E+00 -0.00000000000E+00 -0.73955673125E+03  0.73955673125E+03  0.00000000000E+00 0.  1.
         25    1    1    2    0    0 -0.12267751185E+03  0.57519826399E+02 -0.28139041703E+03  0.33639837862E+03  0.12500000000E+03 0.  0.
         25    1    1    2    0    0  0.18738608181E+03  0.71306487486E+02 -0.81236981495E+02  0.24984516401E+03  0.12500000000E+03 0.  0.
         25    1    1    2    0    0 -0.64708569964E+02 -0.12882631389E+03 -0.23078940618E+03  0.29945311516E+03  0.12500000000E+03 0.  0.
</event>
<event>
 5    0  0.5510933E-005  0.3253586E+03  0.7546771E-02  0.1073209E+00
         21   -1    0    0  502  501  0.00000000000E+00  0.00000000000E+00  0.50953094555E+03  0.50953094555E+03  0.00000000000E+00 0.  1.
         21   -1    0    0  501  502 -0.00000000000E+00 -0.00000000000E+00 -0.20775621761E+03  0.20775621761E+03  0.00000000000E+00 0.  1.
         25    1    1    2    0    0  0.12089530959E+03 -0.32504517887E+02  0.14275571955E+03  0.22732447081E+03  0.12500000000E+03 0.  0.
         25    1    1    2    0    0 -0.15790730621E+03 -0.11182012200E+03 -0.12438036747E+02  0.23069061922E+03  0.12500000000E+03 0.  0.
         25    1    1    2    0    0  0.37011996620E+02  0.14432463989E+03  0.17145704514E+03  0.25927207312E+03  0.12500000000E+03 0.  0.
</event>
<event>
 5    0  0.5510933E-005  0.2774303E+03  0.7546771E-02  0.1097101E+00
         21   -1    0    0  502  501  0.00000000000E+00  0.00000000000E+00  0.74371622585E+03  0.74371622585E+03  0.00000000000E+00 0.  1.
         21   -1    0    0  501  502 -0.00000000000E+00 -0.00000000000E+00 -0.10349052859E+03  0.10349052859E+03  0.00000000000E+00 0.  1.
         25    1    1    2    0    0  0.10918428166E+03  0.48577338487E+02  0.17494098461E+03  0.24598844134E+03  0.12500000000E+03 0.  0.
         25    1    1    2    0    0 -0.12151237690E+03 -0.44158037131E+02  0.43676536627E+03  0.47233904682E+03  0.12500000000E+03 0.  0.
         25    1    1    2    0    0  0.12328095243E+02 -0.44193013561E+01  0.28519346377E+02  0.12887926627E+03  0.12500000000E+03 0.  0.
</event>
<event>
 5    0  0.5510933E-005  0.2700709E+03  0.7546771E-02  0.1101239E+00
         21   -1    0    0  502  501  0.00000000000E+00  0.00000000000E+00  0.45124733103E+03  0.45124733103E+03  0.00000000000E+00 0. -1.
         21   -1    0    0  501  502 -0.00000000000E+00 -0.00000000000E+00 -0.16163701627E+03  0.16163701627E+03  0.00000000000E+00 0. -1.
         25    1    1    2    0    0  0.36066474454E+01 -0.41939539619E+02  0.21841988915E+03  0.25515520937E+03  0.12500000000E+03 0.  0.
         25    1    1    2    0    0 -0.65398883595E+02 -0.67430403452E+02  0.88502639027E+02  0.17967078338E+03  0.12500000000E+03 0.  0.
         25    1    1    2    0    0  0.61792236150E+02  0.10936994307E+03 -0.17312213416E+02  0.17805835456E+03  0.12500000000E+03 0.  0.
</event>
<event>
 5    0  0.5510933E-005  0.2759584E+03  0.7546771E-02  0.1097917E+00
         21   -1    0    0  502  501  0.00000000000E+00  0.00000000000E+00  0.15369949439E+03  0.15369949439E+03  0.00000000000E+00 0.  1.
         21   -1    0    0  501  502 -0.00000000000E+00 -0.00000000000E+00 -0.49546710287E+03  0.49546710287E+03  0.00000000000E+00 0.  1.
         25    1    1    2    0    0  0.77398414317E+02  0.10480034497E+02  0.54995288462E+02  0.15732077871E+03  0.12500000000E+03 0.  0.
         25    1    1    2    0    0  0.53100220583E+01 -0.26453138021E+02 -0.25331883569E+03  0.28376644862E+03  0.12500000000E+03 0.  0.
         25    1    1    2    0    0 -0.82708436376E+02  0.15973103525E+02 -0.14344406125E+03  0.20807936993E+03  0.12500000000E+03 0.  0.
</event>
<event>
 5    0  0.5510933E-005  0.2434226E+03  0.7546771E-02  0.1117534E+00
         21   -1    0    0  502  501  0.00000000000E+00  0.00000000000E+00  0.28044305007E+03  0.28044305007E+03  0.00000000000E+00 0. -1.
         21   -1    0    0  501  502 -0.00000000000E+00 -0.00000000000E+00 -0.21128916462E+03  0.21128916462E+03  0.00000000000E+00 0. -1.
         25    1    1    2    0    0  0.49164066448E+02 -0.98497148452E+01  0.13642398332E+03  0.19170452665E+03  0.12500000000E+03 0.  0.
         25    1    1    2    0    0  0.22288987321E+02 -0.18688584611E+02 -0.82326715492E+02  0.15247540862E+03  0.12500000000E+03 0.  0.
         25    1    1    2    0    0 -0.71453053769E+02  0.28538299456E+02  0.15056617624E+02  0.14755227942E+03  0.12500000000E+03 0.  0.
</event>
<event>
 5    0  0.5510933E-005  0.4707938E+03  0.7546771E-02  0.1021696E+00
         21   -1    0    0  502  501  0.00000000000E+00  0.00000000000E+00  0.10088670888E+04  0.10088670888E+04  0.00000000000E+00 0.  1.
         21   -1    0    0  501  502 -0.00000000000E+00 -0.00000000000E+00 -0.21969867227E+03  0.21969867227E+03  0.00000000000E+00 0.  1.
         25    1    1    2    0    0  0.22154141640E+03  0.48427357437E+02  0.30868287889E+03  0.40290932957E+03  0.12500000000E+03 0.  0.
         25    1    1    2    0    0  0.37019710703E+02 -0.46670750560E+02  0.51784655919E+03  0.53603980898E+03  0.12500000000E+03 0.  0.
         25    1    1    2    0    0 -0.25856112710E+03 -0.17566068766E+01 -0.37361021559E+02  0.28961662254E+03  0.12500000000E+03 0.  0.
</event>
<event>
 5    0  0.5510933E-005  0.3678693E+03  0.7546771E-02  0.1055511E+00
         21   -1    0    0  502  501  0.00000000000E+00  0.00000000000E+00  0.24503016281E+03  0.24503016281E+03  0.00000000000E+00 0. -1.
         21   -1    0    0  501  502 -0.00000000000E+00 -0.00000000000E+00 -0.55229050433E+03  0.55229050433E+03  0.00000000000E+00 0. -1.
         25    1    1    2    0    0  0.93430688983E+02 -0.62257021126E+02 -0.12345540484E+03  0.20849812303E+03  0.12500000000E+03 0.  0.
         25    1    1    2    0    0  0.52261012800E+02 -0.18736527488E+03 -0.15427668362E+02  0.23173254549E+03  0.12500000000E+03 0.  0.
         25    1    1    2    0    0 -0.14569170178E+03  0.24962229600E+03 -0.16837726832E+03  0.35708999862E+03  0.12500000000E+03 0.  0.
</event>
<event>
 5    0  0.5510933E-005  0.4231054E+03  0.7546771E-02  0.1036060E+00
         21   -1    0    0  502  501  0.00000000000E+00  0.00000000000E+00  0.14244798552E+03  0.14244798552E+03  0.00000000000E+00 0. -1.
         21   -1    0    0  501  502 -0.00000000000E+00 -0.00000000000E+00 -0.12567266615E+04  0.12567266615E+04  0.00000000000E+00 0. -1.
         25    1    1    2    0    0 -0.32329706148E+02 -0.31399494133E+03 -0.58746344312E+03  0.67851037581E+03  0.12500000000E+03 0.  0.
         25    1    1    2    0    0  0.11303792418E+02  0.33395227278E+03 -0.33170042063E+03  0.48713659816E+03  0.12500000000E+03 0.  0.
         25    1    1    2    0    0  0.21025913731E+02 -0.19957331449E+02 -0.19511481222E+03  0.23352767304E+03  0.12500000000E+03 0.  0.
</event>
<event>
 5    0  0.5510933E-005  0.3528177E+03  0.7546771E-02  0.1061464E+00
         21   -1    0    0  502  501  0.00000000000E+00  0.00000000000E+00  0.15685716456E+03  0.15685716456E+03  0.00000000000E+00 0.  1.
         21   -1    0    0  501  502 -0.00000000000E+00 -0.00000000000E+00 -0.79359039428E+03  0.79359039428E+03  0.00000000000E+00 0.  1.
         25    1    1    2    0    0 -0.81697197304E+02 -0.23859477849E+03 -0.40715334313E+03  0.49497549958E+03  0.12500000000E+03 0.  0.
         25    1    1    2    0    0  0.12473858053E+03  0.14749940139E+03 -0.16136259644E+03  0.28103144737E+03  0.12500000000E+03 0.  0.
         25    1    1    2    0    0 -0.43041383226E+02  0.91095377097E+02 -0.68217290163E+02  0.17444061189E+03  0.12500000000E+03 0.  0.
</event>
<event>
 5    0  0.5510933E-005  0.2077549E+03  0.7546771E-02  0.1143356E+00
         21   -1    0    0  502  501  0.00000000000E+00  0.00000000000E+00  0.46163928557E+02  0.46163928557E+02  0.00000000000E+00 0.  1.
         21   -1    0    0  501  502 -0.00000000000E+00 -0.00000000000E+00 -0.93497439835E+03  0.93497439835E+03  0.00000000000E+00 0.  1.
         25    1    1    2    0    0 -0.58892718266E+01 -0.15385530681E+02 -0.17355003153E+03  0.21451342970E+03  0.12500000000E+03 0.  0.
         25    1    1    2    0    0  0.15772951237E+02 -0.30659258406E+02 -0.46750769446E+03  0.48515690297E+03  0.12500000000E+03 0.  0.
         25    1    1    2    0    0 -0.98836794108E+01  0.46044789087E+02 -0.24775274380E+03  0.28146799424E+03  0.12500000000E+03 0.  0.
</event>
<event>
 5    0  0.5510933E-005  0.2815500E+03  0.7546771E-02  0.1094845E+00
         21   -1    0    0  502  501  0.00000000000E+00  0.00000000000E+00  0.45212631193E+03  0.45212631193E+03  0.00000000000E+00 0.  1.
         21   -1    0    0  501  502 -0.00000000000E+00 -0.00000000000E+00 -0.17532795080E+03  0.17532795080E+03  0.00000000000E+00 0.  1.
         25    1    1    2    0    0  0.27105751274E+02  0.75248444454E+02  0.45197918020E+02  0.15512866253E+03  0.12500000000E+03 0.  0.
         25    1    1    2    0    0  0.56421778528E+02 -0.25244013771E+02  0.27475476181E+03  0.30811662802E+03  0.12500000000E+03 0.  0.
         25    1    1    2    0    0 -0.83527529802E+02 -0.50004430683E+02 -0.43154318706E+02  0.16420897218E+03  0.12500000000E+03 0.  0.
</event>
<event>
 5    0  0.5510933E-005  0.3411671E+03  0.7546771E-02  0.1066300E+00
         21   -1    0    0  502  501  0.00000000000E+00  0.00000000000E+00  0.86201171905E+03  0.86201171905E+03  0.00000000000E+00 0. -1.
         21   -1    0    0  501  502 -0.00000000000E+00 -0.00000000000E+00 -0.13502713167E+03  0.13502713167E+03  0.00000000000E+00 0. -1.
         25    1    1    2    0    0 -0.16237249876E+03 -0.59321492675E+02  0.53705884628E+02  0.21998452193E+03  0.12500000000E+03 0.  0.
         25    1    1    2    0    0  0.18359405217E+03 -0.37948056325E+02  0.43922764224E+03  0.49365246143E+03  0.12500000000E+03 0.  0.
         25    1    1    2    0    0 -0.21221553407E+02  0.97269549000E+02  0.23405106051E+03  0.28340186735E+03  0.12500000000E+03 0.  0.
</event>
<event>
 5    0  0.5510933E-005  0.3013309E+03  0.7546771E-02  0.1084577E+00
         21   -1    0    0  502  501  0.00000000000E+00  0.00000000000E+00  0.97323466339E+02  0.97323466339E+02  0.00000000000E+00 0.  1.
         21   -1    0    0  501  502 -0.00000000000E+00 -0.00000000000E+00 -0.93297420880E+03  0.93297420880E+03  0.00000000000E+00 0.  1.
         25    1    1    2    0    0 -0.14119926540E+03 -0.12436937699E+02 -0.16611884541E+03  0.25161951588E+03  0.12500000000E+03 0.  0.
         25    1    1    2    0    0  0.23460504117E+02 -0.76817511235E+02 -0.49928120344E+03  0.52092038297E+03  0.12500000000E+03 0.  0.
         25    1    1    2    0    0  0.11773876129E+03  0.89254448935E+02 -0.17025069361E+03  0.25775777629E+03  0.12500000000E+03 0.  0.
</event>
<event>
 5    0  0.5510933E-005  0.2845735E+03  0.7546771E-02  0.1093217E+00
         21   -1    0    0  502  501  0.00000000000E+00  0.00000000000E+00  0.85986127648E+02  0.85986127648E+02  0.00000000000E+00 0. -1.
         21   -1    0    0  501  502 -0.00000000000E+00 -0.00000000000E+00 -0.94180379892E+03  0.94180379892E+03  0.00000000000E+00 0. -1.
         25    1    1    2    0    0  0.13941766060E+03  0.10851076736E+03 -0.20224082258E+03  0.29620638251E+03  0.12500000000E+03 0.  0.
         25    1    1    2    0    0 -0.68107097972E+02 -0.74511000319E+02 -0.46479310350E+03  0.49178053542E+03  0.12500000000E+03 0.  0.
         25    1    1    2    0    0 -0.71310562626E+02 -0.33999767045E+02 -0.18878374519E+03  0.23980300864E+03  0.12500000000E+03 0.  0.
</event>
<event>
 5    0  0.5510933E-005  0.3715656E+03  0.7546771E-02  0.1054096E+00
         21   -1    0    0  502  501  0.00000000000E+00  0.00000000000E+00  0.11799238882E+03  0.11799238882E+03  0.00000000000E+00 0.  1.
         21   -1    0    0  501  502 -0.00000000000E+00 -0.00000000000E+00 -0.11700840897E+04  0.11700840897E+04  0.00000000000E+00 0.  1.
         25    1    1    2    0    0 -0.14182828394E+03  0.13306959963E+03 -0.46419661900E+03  0.51858102700E+03  0.12500000000E+03 0.  0.
         25    1    1    2    0    0 -0.10436845880E+03 -0.14200950266E+03 -0.20923009775E+03  0.30076852867E+03  0.12500000000E+03 0.  0.
         25    1    1    2    0    0  0.24619674274E+03  0.89399030299E+01 -0.37866498415E+03  0.46872692287E+03  0.12500000000E+03 0.  0.
</event>
<event>
 5    0  0.5510933E-005  0.2592817E+03  0.7546771E-02  0.1107576E+00
         21   -1    0    0  502  501  0.00000000000E+00  0.00000000000E+00  0.57556535872E+03  0.57556535872E+03  0.00000000000E+00 0.  1.
         21   -1    0    0  501  502 -0.00000000000E+00 -0.00000000000E+00 -0.11680165366E+03  0.11680165366E+03  0.00000000000E+00 0.  1.
         25    1    1    2    0    0 -0.46075957463E+02 -0.73511383983E+02  0.60452844885E+02  0.16372679648E+03  0.12500000000E+03 0.  0.
         25    1    1    2    0    0  0.11374821650E+03 -0.18686799009E+00  0.28893858104E+03  0.33473750206E+03  0.12500000000E+03 0.  0.
         25    1    1    2    0    0 -0.67672259037E+02  0.73698251973E+02  0.10937227915E+03  0.19390271384E+03  0.12500000000E+03 0.  0.
</event>
<event>
 5    0  0.5510933E-005  0.2723455E+03  0.7546771E-02  0.1099945E+00
         21   -1    0    0  502  501  0.00000000000E+00  0.00000000000E+00  0.11421489652E+03  0.11421489652E+03  0.00000000000E+00 0.  1.
         21   -1    0    0  501  502 -0.00000000000E+00 -0.00000000000E+00 -0.64940798996E+03  0.64940798996E+03  0.00000000000E+00 0.  1.
         25    1    1    2    0    0  0.29650984944E+02  0.31459598117E+02 -0.74572774244E+02  0.15183868374E+03  0.12500000000E+03 0.  0.
         25    1    1    2    0    0  0.97298275977E+02 -0.12425534963E+03 -0.24461487446E+03  0.31680874866E+03  0.12500000000E+03 0.  0.
         25    1    1    2    0    0 -0.12694926092E+03  0.92795751516E+02 -0.21600544473E+03  0.29497545407E+03  0.12500000000E+03 0.  0.
</event>
<event>
 5    0  0.5510933E-005  0.3144077E+03  0.7546771E-02  0.1078252E+00
         21   -1    0    0  502  501  0.00000000000E+00  0.00000000000E+00  0.14787927693E+03  0.14787927693E+03  0.00000000000E+00 0.  1.
         21   -1    0    0  501  502 -0.00000000000E+00 -0.00000000000E+00 -0.66846554360E+03  0.66846554360E+03  0.00000000000E+00 0.  1.
         25    1    1    2    0    0  0.57267319886E+02 -0.28168895433E+02  0.17538730351E+02  0.14144129404E+03  0.12500000000E+03 0.  0.
         25    1    1    2    0    0 -0.10033870863E+03  0.16401638789E+02 -0.49482604119E+02  0.16855384396E+03  0.12500000000E+03 0.  0.
         25    1    1    2    0    0  0.43071388741E+02  0.11767256643E+02 -0.48864239290E+03  0.50634968253E+03  0.12500000000E+03 0.  0.
</event>
<event>
 5    0  0.5510933E-005  0.2514742E+03  0.7546771E-02  0.1112377E+00
         21   -1    0    0  502  501  0.00000000000E+00  0.00000000000E+00  0.21213100856E+03  0.21213100856E+03  0.00000000000E+00 0. -1.
         21   -1    0    0  501  502 -0.00000000000E+00 -0.00000000000E+00 -0.29811417955E+03  0.29811417955E+03  0.00000000000E+00 0. -1.
         25    1    1    2    0    0  0.34323355775E+02  0.53813083174E+02 -0.31461709012E+02  0.14383594755E+03  0.12500000000E+03 0.  0.
         25    1    1    2    0    0 -0.73157734533E+02  0.80283269513E+02  0.15597544904E+02  0.16633021642E+03  0.12500000000E+03 0.  0.
         25    1    1    2    0    0  0.38834378758E+02 -0.13409635269E+03 -0.70119006879E+02  0.20007902415E+03  0.12500000000E+03 0.  0.
</event>
<event>
 5    0  0.5510933E-005  0.2657590E+03  0.7546771E-02  0.1103732E+00
         21   -1    0    0  502  501  0.00000000000E+00  0.00000000000E+00  0.93613994683E+02  0.93613994683E+02  0.00000000000E+00 0. -1.
         21   -1    0    0  501  502 -0.00000000000E+00 -0.00000000000E+00 -0.75445816745E+03  0.75445816745E+03  0.00000000000E+00 0. -1.
         25    1    1    2    0    0 -0.13415952109E+02 -0.14246735580E+03 -0.10915922196E+03  0.21912934760E+03  0.12500000000E+03 0.  0.
         25    1    1    2    0    0  0.11201729181E+02  0.27030320001E+02 -0.19102645508E+03  0.23015695401E+03  0.12500000000E+03 0.  0.
         25    1    1    2    0    0  0.22142229280E+01  0.11543703580E+03 -0.36065849572E+03  0.39878586052E+03  0.12500000000E+03 0.  0.
</event>
<event>
 5    0  0.5510933E-005  0.3117676E+03  0.7546771E-02  0.1079502E+00
         21   -1    0    0  502  501  0.00000000000E+00  0.00000000000E+00  0.10077339252E+04  0.10077339252E+04  0.00000000000E+00 0. -1.
         21   -1    0    0  501  502 -0.00000000000E+00 -0.00000000000E+00 -0.96453085986E+02  0.96453085986E+02  0.00000000000E+00 0. -1.
         25    1    1    2    0    0 -0.50951933443E+02  0.18701208265E+03  0.40334114931E+03  0.46462748660E+03  0.12500000000E+03 0.  0.
         25    1    1    2    0    0  0.47881139505E+02 -0.15007214356E+03  0.12924026536E+03  0.23904455229E+03  0.12500000000E+03 0.  0.
         25    1    1    2    0    0  0.30707939373E+01 -0.36939939093E+02  0.37869942451E+03  0.40051497225E+03  0.12500000000E+03 0.  0.
</event>
<event>
 5    0  0.5510933E-005  0.2074126E+03  0.7546771E-02  0.1143631E+00
         21   -1    0    0  502  501  0.00000000000E+00  0.00000000000E+00  0.28504508775E+03  0.28504508775E+03  0.00000000000E+00 0.  1.
         21   -1    0    0  501  502 -0.00000000000E+00 -0.00000000000E+00 -0.15092343570E+03  0.15092343570E+03  0.00000000000E+00 0.  1.
         25    1    1    2    0    0  0.69938305122E+02 -0.11387377663E+01  0.36614598291E+02  0.14784550063E+03  0.12500000000E+03 0.  0.
         25    1    1    2    0    0 -0.56721417404E+01  0.20986192581E+02  0.27376342686E+02  0.12979621570E+03  0.12500000000E+03 0.  0.
         25    1    1    2    0    0 -0.64266163382E+02 -0.19847454815E+02  0.70130711072E+02  0.15832680712E+03  0.12500000000E+03 0.  0.
</event>
<event>
 5    0  0.5510933E-005  0.4220303E+03  0.7546771E-02  0.1036408E+00
         21   -1    0    0  502  501  0.00000000000E+00  0.00000000000E+00  0.43640578643E+03  0.43640578643E+03  0.00000000000E+00 0.  1.
         21   -1    0    0  501  502 -0.00000000000E+00 -0.00000000000E+00 -0.40812836351E+03  0.40812836351E+03  0.00000000000E+00 0.  1.
         25    1    1    2    0    0 -0.48129515102E+02 -0.15974871926E+03 -0.87502462815E+02  0.22609242475E+03  0.12500000000E+03 0.  0.
         25    1    1    2    0    0  0.25965943057E+03 -0.18149069558E+02  0.12572413521E+03  0.31493486118E+03  0.12500000000E+03 0.  0.
         25    1    1    2    0    0 -0.21152991547E+03  0.17789778882E+03 -0.99442494669E+01  0.30350686401E+03  0.12500000000E+03 0.  0.
</event>
<event>
 5    0  0.5510933E-005  0.2882791E+03  0.7546771E-02  0.1091251E+00
         21   -1    0    0  502  501  0.00000000000E+00  0.00000000000E+00  0.27044252517E+04  0.27044252517E+04  0.00000000000E+00 0.  1.
         21   -1    0    0  501  502 -0.00000000000E+00 -0.00000000000E+00 -0.30729202813E+02  0.30729202813E+02  0.00000000000E+00 0.  1.
         25    1    1    2    0    0 -0.49511694446E+02 -0.12008388379E+03  0.61237710200E+03  0.63835903855E+03  0.12500000000E+03 0.  0.
         25    1    1    2    0    0  0.15496435910E+03  0.86448305326E+02  0.11835165774E+04  0.12032554804E+04  0.12500000000E+03 0.  0.
         25    1    1    2    0    0 -0.10545266465E+03  0.33635578468E+02  0.87780236942E+03  0.89353993553E+03  0.12500000000E+03 0.  0.
</event>
<event>
 5    0  0.5733459E-005  0.2829010E+03  0.7546771E-02  0.1094115E+00
         21   -1    0    0  502  501  0.00000000000E+00  0.00000000000E+00  0.21324584960E+03  0.21324584960E+03  0.00000000000E+00 0. -1.
         21   -1    0    0  501  502 -0.00000000000E+00 -0.00000000000E+00 -0.37530844929E+03  0.37530844929E+03  0.00000000000E+00 0. -1.
         25    1    1    2    0    0  0.26913325298E+02  0.29594761961E+02  0.68452026300E+02  0.14802316345E+03  0.12500000000E+03 0.  0.
         25    1    1    2    0    0 -0.18358930742E+02 -0.65804629257E+02 -0.26913833377E+03  0.30451230234E+03  0.12500000000E+03 0.  0.
         25    1    1    2    0    0 -0.85543945569E+01  0.36209867297E+02  0.38623707780E+02  0.13601883310E+03  0.12500000000E+03 0.  0.
</event>
<event>
 5    0  0.5510933E-005  0.3865105E+03  0.7546771E-02  0.1048553E+00
         21   -1    0    0  502  501  0.00000000000E+00  0.00000000000E+00  0.11287443194E+04  0.11287443194E+04  0.00000000000E+00 0.  1.
         21   -1    0    0  501  502 -0.00000000000E+00 -0.00000000000E+00 -0.13235093376E+03  0.13235093376E+03  0.00000000000E+00 0.  1.
         25    1    1    2    0    0 -0.38324376691E+02 -0.12646357471E+03  0.61377305005E+03  0.64015947274E+03  0.12500000000E+03 0.  0.
         25    1    1    2    0    0  0.58629391051E+02 -0.11358408473E+03  0.38874619166E+02  0.18296170587E+03  0.12500000000E+03 0.  0.
         25    1    1    2    0    0 -0.20305014361E+02  0.24004765944E+03  0.34374571642E+03  0.43797407454E+03  0.12500000000E+03 0.  0.
</event>
<event>
 5    0  0.6389463E-005  0.2571026E+03  0.7546771E-02  0.1108897E+00
         21   -1    0    0  502  501  0.00000000000E+00  0.00000000000E+00  0.55040558694E+03  0.55040558694E+03  0.00000000000E+00 0.  1.
         21   -1    0    0  501  502 -0.00000000000E+00 -0.00000000000E+00 -0.12009642528E+03  0.12009642528E+03  0.00000000000E+00 0.  1.
         25    1    1    2    0    0 -0.71420956586E+02  0.57150237526E+02  0.68610873756E+02  0.16940942915E+03  0.12500000000E+03 0.  0.
         25    1    1    2    0    0 -0.44458217920E+02  0.53785697187E+02  0.13979008780E+03  0.20008923761E+03  0.12500000000E+03 0.  0.
         25    1    1    2    0    0  0.11587917451E+03 -0.11093593471E+03  0.22190820011E+03  0.30100334545E+03  0.12500000000E+03 0.  0.
</event>
<event>
 5    0  0.5510933E-005  0.4125797E+03  0.7546771E-02  0.1039509E+00
         21   -1    0    0  502  501  0.00000000000E+00  0.00000000000E+00  0.74733193914E+03  0.74733193914E+03  0.00000000000E+00 0.  1.
         21   -1    0    0  501  502 -0.00000000000E+00 -0.00000000000E+00 -0.22777298543E+03  0.22777298543E+03  0.00000000000E+00 0.  1.
         25    1    1    2    0    0  0.10736313775E+03  0.13667444160E+03  0.59823382360E+03  0.63538606692E+03  0.12500000000E+03 0.  0.
         25    1    1    2    0    0 -0.81205110436E+01 -0.64432172468E+02  0.13939204097E+02  0.14155122380E+03  0.12500000000E+03 0.  0.
         25    1    1    2    0    0 -0.99242626704E+02 -0.72242269134E+02 -0.92614073992E+02  0.19816763385E+03  0.12500000000E+03 0.  0.
</event>
<event>
 5    0  0.5510933E-005  0.3141614E+03  0.7546771E-02  0.1078368E+00
         21   -1    0    0  502  501  0.00000000000E+00  0.00000000000E+00  0.10207557359E+04  0.10207557359E+04  0.00000000000E+00 0.  1.
         21   -1    0    0  501  502 -0.00000000000E+00 -0.00000000000E+00 -0.96690519513E+02  0.96690519513E+02  0.00000000000E+00 0.  1.
         25    1    1    2    0    0  0.59984915250E+02 -0.11584539947E+03  0.22368956443E+03  0.28754194107E+03  0.12500000000E+03 0.  0.
         25    1    1    2    0    0  0.99881837544E+02 -0.58632409169E+02  0.34736497412E+03  0.38691286631E+03  0.12500000000E+03 0.  0.
         25    1    1    2    0    0 -0.15986675279E+03  0.17447780864E+03  0.35301067783E+03  0.44299144802E+03  0.12500000000E+03 0.  0.
</event>
<event>
 5    0  0.5510933E-005  0.5409198E+03  0.7546771E-02  0.1003618E+00
         21   -1    0    0  502  501  0.00000000000E+00  0.00000000000E+00  0.48499101256E+03  0.48499101256E+03  0.00000000000E+00 0.  1.
         21   -1    0    0  501  502 -0.00000000000E+00 -0.00000000000E+00 -0.60329818198E+03  0.60329818198E+03  0.00000000000E+00 0.  1.
         25    1    1    2    0    0  0.11303651062E+03  0.90276838410E+02 -0.41946596113E+03  0.46098140183E+03  0.12500000000E+03 0.  0.
         25    1    1    2    0    0  0.11796482078E+03  0.81499835184E+02 -0.30326538618E+01  0.19024226414E+03  0.12500000000E+03 0.  0.
         25    1    1    2    0    0 -0.23100133140E+03 -0.17177667359E+03  0.30419144557E+03  0.43706552857E+03  0.12500000000E+03 0.  0.
</event>
<event>
 5    0  0.5510933E-005  0.3173339E+03  0.7546771E-02  0.1076883E+00
         21   -1    0    0  502  501  0.00000000000E+00  0.00000000000E+00  0.31587862373E+03  0.31587862373E+03  0.00000000000E+00 0.  1.
         21   -1    0    0  501  502 -0.00000000000E+00 -0.00000000000E+00 -0.31879582171E+03  0.31879582171E+03  0.00000000000E+00 0.  1.
         25    1    1    2    0    0  0.80070240054E+01  0.18485325932E+03 -0.80617849951E+02  0.23740066901E+03  0.12500000000E+03 0.  0.
         25    1    1    2    0    0 -0.55632786142E+02 -0.20444129919E+03  0.10310763669E+02  0.24621649733E+03  0.12500000000E+03 0.  0.
         25    1    1    2    0    0  0.47625762137E+02  0.19588039874E+02  0.67389888305E+02  0.15105727911E+03  0.12500000000E+03 0.  0.
</event>
<event>
 5    0  0.5510933E-005  0.3053702E+03  0.7546771E-02  0.1082586E+00
         21   -1    0    0  502  501  0.00000000000E+00  0.00000000000E+00  0.27878030247E+03  0.27878030247E+03  0.00000000000E+00 0.  1.
         21   -1    0    0  501  502 -0.00000000000E+00 -0.00000000000E+00 -0.33449622417E+03  0.33449622417E+03  0.00000000000E+00 0.  1.
         25    1    1    2    0    0 -0.58794415077E+02 -0.21726190809E+03  0.37465253049E+02  0.26016949310E+03  0.12500000000E+03 0.  0.
         25    1    1    2    0    0  0.10373702077E+02  0.10687714285E+03 -0.65193021974E+02  0.17721587816E+03  0.12500000000E+03 0.  0.
         25    1    1    2    0    0  0.48420713000E+02  0.11038476525E+03 -0.27988152771E+02  0.17589115538E+03  0.12500000000E+03 0.  0.
</event>
<event>
 5    0  0.5510933E-005  0.2570560E+03  0.7546771E-02  0.1108925E+00
         21   -1    0    0  502  501  0.00000000000E+00  0.00000000000E+00  0.23513910091E+03  0.23513910091E+03  0.00000000000E+00 0.  1.
         21   -1    0    0  501  502 -0.00000000000E+00 -0.00000000000E+00 -0.28101568379E+03  0.28101568379E+03  0.00000000000E+00 0.  1.
         25    1    1    2    0    0 -0.88772640150E+02 -0.39841314374E+02 -0.28187449703E+02  0.16089575598E+03  0.12500000000E+03 0.  0.
         25    1    1    2    0    0  0.10067745854E+03 -0.29459638674E+02  0.79991149821E+02  0.18173443542E+03  0.12500000000E+03 0.  0.
         25    1    1    2    0    0 -0.11904818392E+02  0.69300953048E+02 -0.97680282994E+02  0.17352459330E+03  0.12500000000E+03 0.  0.
</event>
<event>
 5    0  0.5510933E-005  0.3076038E+03  0.7546771E-02  0.1081500E+00
         21   -1    0    0  502  501  0.00000000000E+00  0.00000000000E+00  0.58940619956E+03  0.58940619956E+03  0.00000000000E+00 0. -1.
         21   -1    0    0  501  502 -0.00000000000E+00 -0.00000000000E+00 -0.16053459470E+03  0.16053459470E+03  0.00000000000E+00 0. -1.
         25    1    1    2    0    0  0.10622979445E+03 -0.13044850727E+03  0.76719004436E+02  0.22318689012E+03  0.12500000000E+03 0.  0.
         25    1    1    2    0    0  0.65295288043E+02  0.57709549000E+02  0.74002933670E+02  0.16939687387E+03  0.12500000000E+03 0.  0.
         25    1    1    2    0    0 -0.17152508249E+03  0.72738958268E+02  0.27814966675E+03  0.35735703028E+03  0.12500000000E+03 0.  0.
</event>
<event>
 5    0  0.5510933E-005  0.3861840E+03  0.7546771E-02  0.1048672E+00
         21   -1    0    0  502  501  0.00000000000E+00  0.00000000000E+00  0.19413065204E+03  0.19413065204E+03  0.00000000000E+00 0.  1.
         21   -1    0    0  501  502 -0.00000000000E+00 -0.00000000000E+00 -0.76823542623E+03  0.76823542623E+03  0.00000000000E+00 0.  1.
         25    1    1    2    0    0  0.84974862155E+02  0.68736276837E+02 -0.55485777161E+02  0.17506877054E+03  0.12500000000E+03 0.  0.
         25    1    1    2    0    0  0.17369199966E+03  0.77284007752E+02 -0.36543746524E+03  0.43047795484E+03  0.12500000000E+03 0.  0.
         25    1    1    2    0    0 -0.25866686182E+03 -0.14602028459E+03 -0.15318153180E+03  0.35681935289E+03  0.12500000000E+03 0.  0.
</event>
<event>
 5    0  0.5510933E-005  0.2968587E+03  0.7546771E-02  0.1086822E+00
         21   -1    0    0  502  501  0.00000000000E+00  0.00000000000E+00  0.38965625377E+03  0.38965625377E+03  0.00000000000E+00 0.  1.
         21   -1    0    0  501  502 -0.00000000000E+00 -0.00000000000E+00 -0.22616108136E+03  0.22616108136E+03  0.00000000000E+00 0.  1.
         25    1    1    2    0    0 -0.74352825714E+02  0.82359439854E+02  0.17711354503E+03  0.24352746839E+03  0.12500000000E+03 0.  0.
         25    1    1    2    0    0  0.10245518190E+02 -0.83931526842E+02 -0.12264047025E+03  0.19446119609E+03  0.12500000000E+03 0.  0.
         25    1    1    2    0    0  0.64107307525E+02  0.15720869882E+01  0.10902209763E+03  0.17782867065E+03  0.12500000000E+03 0.  0.
</event>
<event>
 5    0  0.5510933E-005  0.3197836E+03  0.7546771E-02  0.1075749E+00
         21   -1    0    0  502  501  0.00000000000E+00  0.00000000000E+00  0.93650026533E+03  0.93650026533E+03  0.00000000000E+00 0. -1.
         21   -1    0    0  501  502 -0.00000000000E+00 -0.00000000000E+00 -0.10919542163E+03  0.10919542163E+03  0.00000000000E+00 0. -1.
         25    1    1    2    0    0  0.11721559396E+02 -0.12924488740E+01  0.36719187602E+03  0.38806434929E+03  0.12500000000E+03 0.  0.
         25    1    1    2    0    0 -0.11521048693E+03 -0.14462986444E+03  0.34497615386E+03  0.41088295257E+03  0.12500000000E+03 0.  0.
         25    1    1    2    0    0  0.10348892753E+03  0.14592231332E+03  0.11513681382E+03  0.24674838509E+03  0.12500000000E+03 0.  0.
</event>
<event>
 5    0  0.5510933E-005  0.3533255E+03  0.7546771E-02  0.1061258E+00
         21   -1    0    0  502  501  0.00000000000E+00  0.00000000000E+00  0.13987190027E+04  0.13987190027E+04  0.00000000000E+00 0. -1.
         21   -1    0    0  501  502 -0.00000000000E+00 -0.00000000000E+00 -0.89252321784E+02  0.89252321784E+02  0.00000000000E+00 0. -1.
         25    1    1    2    0    0 -0.91029932637E+02  0.12228810548E+03  0.17535762594E+03  0.26384868078E+03  0.12500000000E+03 0.  0.
         25    1    1    2    0    0 -0.83043594638E+02  0.27339278318E+01  0.16197457572E+03  0.22082680125E+03  0.12500000000E+03 0.  0.
         25    1    1    2    0    0  0.17407352728E+03 -0.12502203331E+03  0.97213447927E+03  0.10032958425E+04  0.12500000000E+03 0.  0.
</event>
<event>
 5    0  0.5510933E-005  0.2537072E+03  0.7546771E-02  0.1110984E+00
         21   -1    0    0  502  501  0.00000000000E+00  0.00000000000E+00  0.85231671941E+02  0.85231671941E+02  0.00000000000E+00 0.  1.
         21   -1    0    0  501  502 -0.00000000000E+00 -0.00000000000E+00 -0.75520428834E+03  0.75520428834E+03  0.00000000000E+00 0.  1.
         25    1    1    2    0    0  0.42063436221E+02 -0.18500884183E+02 -0.16583423597E+03  0.21269134727E+03  0.12500000000E+03 0.  0.
         25    1    1    2    0    0 -0.53552797467E+02 -0.49775618896E+02 -0.45363532169E+03  0.47618853350E+03  0.12500000000E+03 0.  0.
         25    1    1    2    0    0  0.11489361245E+02  0.68276503078E+02 -0.50503058732E+02  0.15155607951E+03  0.12500000000E+03 0.  0.
</event>
<event>
 5    0  0.5649384E-005  0.3509558E+03  0.7546771E-02  0.1062223E+00
         21   -1    0    0  502  501  0.00000000000E+00  0.00000000000E+00  0.18923517408E+03  0.18923517408E+03  0.00000000000E+00 0.  1.
         21   -1    0    0  501  502 -0.00000000000E+00 -0.00000000000E+00 -0.65088299579E+03  0.65088299579E+03  0.00000000000E+00 0.  1.
         25    1    1    2    0    0  0.65555372542E+02  0.43752275607E+02 -0.40989228488E+03  0.43571602414E+03  0.12500000000E+03 0.  0.
         25    1    1    2    0    0 -0.85034690051E+02  0.11867811147E+03 -0.49647966138E+02  0.19850771571E+03  0.12500000000E+03 0.  0.
         25    1    1    2    0    0  0.19479317510E+02 -0.16243038708E+03 -0.21075706954E+01  0.20589443002E+03  0.12500000000E+03 0.  0.
</event>
<event>
 5    0  0.5510933E-005  0.3769938E+03  0.7546771E-02  0.1052050E+00
         21   -1    0    0  502  501  0.00000000000E+00  0.00000000000E+00  0.41489366824E+02  0.41489366824E+02  0.00000000000E+00 0. -1.
         21   -1    0    0  501  502 -0.00000000000E+00 -0.00000000000E+00 -0.34255596989E+04  0.34255596989E+04  0.00000000000E+00 0. -1.
         25    1    1    2    0    0  0.34751249640E+02 -0.28271849203E+03 -0.11110095667E+04  0.11537350876E+04  0.12500000000E+03 0.  0.
         25    1    1    2    0    0 -0.27667627685E+02  0.24291913999E+03 -0.11372472868E+04  0.11699280309E+04  0.12500000000E+03 0.  0.
         25    1    1    2    0    0 -0.70836219544E+01  0.39799352047E+02 -0.11358134786E+04  0.11433859472E+04  0.12500000000E+03 0.  0.
</event>
<event>
 5    0  0.5510933E-005  0.3556302E+03  0.7546771E-02  0.1060328E+00
         21   -1    0    0  502  501  0.00000000000E+00  0.00000000000E+00  0.76878345218E+02  0.76878345218E+02  0.00000000000E+00 0. -1.
         21   -1    0    0  501  502 -0.00000000000E+00 -0.00000000000E+00 -0.16451031492E+04  0.16451031492E+04  0.00000000000E+00 0. -1.
         25    1    1    2    0    0  0.27954755357E+02 -0.23419147116E+03 -0.66960148280E+03  0.72084551693E+03  0.12500000000E+03 0.  0.
         25    1    1    2    0    0  0.51454813948E+02  0.32484165999E+02 -0.12121585409E+03  0.18444810165E+03  0.12500000000E+03 0.  0.
         25    1    1    2    0    0 -0.79409569306E+02  0.20170730516E+03 -0.77740746710E+03  0.81668787585E+03  0.12500000000E+03 0.  0.
</event>
<event>
 5    0  0.5510933E-005  0.2762623E+03  0.7546771E-02  0.1097748E+00
         21   -1    0    0  502  501  0.00000000000E+00  0.00000000000E+00  0.43397649171E+02  0.43397649171E+02  0.00000000000E+00 0.  1.
         21   -1    0    0  501  502 -0.00000000000E+00 -0.00000000000E+00 -0.17586401203E+04  0.17586401203E+04  0.00000000000E+00 0.  1.
         25    1    1    2    0    0  0.86412589858E+02 -0.47241167608E+02 -0.76155142864E+03  0.77800028411E+03  0.12500000000E+03 0.  0.
         25    1    1    2    0    0 -0.15209212490E+03  0.48516822016E+02 -0.74472286385E+03  0.77183096622E+03  0.12500000000E+03 0.  0.
         25    1    1    2    0    0  0.65679535040E+02 -0.12756544080E+01 -0.20896817865E+03  0.25220651916E+03  0.12500000000E+03 0.  0.
</event>
<event>
 5    0  0.6536649E-005  0.3304014E+03  0.7546771E-02  0.1070959E+00
         21   -1    0    0  502  501  0.00000000000E+00  0.00000000000E+00  0.25591272835E+03  0.25591272835E+03  0.00000000000E+00 0.  1.
         21   -1    0    0  501  502 -0.00000000000E+00 -0.00000000000E+00 -0.42657161834E+03  0.42657161834E+03  0.00000000000E+00 0.  1.
         25    1    1    2    0    0  0.52221319457E+02  0.42302808080E+02 -0.27934268509E+03  0.31332719239E+03  0.12500000000E+03 0.  0.
         25    1    1    2    0    0 -0.11368762250E+03 -0.10230415640E+03  0.35245217397E+02  0.20064456453E+03  0.12500000000E+03 0.  0.
         25    1    1    2    0    0  0.61466303042E+02  0.60001348323E+02  0.73438577709E+02  0.16851258976E+03  0.12500000000E+03 0.  0.
</event>
<event>
 5    0  0.5560630E-005  0.4268303E+03  0.7546771E-02  0.1034866E+00
         21   -1    0    0  502  501  0.00000000000E+00  0.00000000000E+00  0.15010783388E+04  0.15010783388E+04  0.00000000000E+00 0.  1.
         21   -1    0    0  501  502 -0.00000000000E+00 -0.00000000000E+00 -0.12136881849E+03  0.12136881849E+03  0.00000000000E+00 0.  1.
         25    1    1    2    0    0 -0.15986185735E+03  0.62150422938E+02  0.87163365431E+02  0.22943613661E+03  0.12500000000E+03 0.  0.
         25    1    1    2    0    0 -0.73967134935E+02 -0.72123433387E+02  0.92837731383E+03  0.94243427544E+03  0.12500000000E+03 0.  0.
         25    1    1    2    0    0  0.23382899229E+03  0.99730104488E+01  0.36416884108E+03  0.45057674527E+03  0.12500000000E+03 0.  0.
</event>
<event>
 5    0  0.5510933E-005  0.4475459E+03  0.7546771E-02  0.1028456E+00
         21   -1    0    0  502  501  0.00000000000E+00  0.00000000000E+00  0.47369609285E+03  0.47369609285E+03  0.00000000000E+00 0. -1.
         21   -1    0    0  501  502 -0.00000000000E+00 -0.00000000000E+00 -0.42283940052E+03  0.42283940052E+03  0.00000000000E+00 0. -1.
         25    1    1    2    0    0 -0.54702472181E+02 -0.56980077337E+01  0.10811712989E+03  0.17418134668E+03  0.12500000000E+03 0.  0.
         25    1    1    2    0    0 -0.80392871467E+02 -0.11874022309E+03  0.26788198362E+03  0.32855442702E+03  0.12500000000E+03 0.  0.
         25    1    1    2    0    0  0.13509534365E+03  0.12443823082E+03 -0.32514242118E+03  0.39379971968E+03  0.12500000000E+03 0.  0.
</event>
<event>
 5    0  0.5510933E-005  0.4042974E+03  0.7546771E-02  0.1042302E+00
         21   -1    0    0  502  501  0.00000000000E+00  0.00000000000E+00  0.10063644607E+03  0.10063644607E+03  0.00000000000E+00 0.  1.
         21   -1    0    0  501  502 -0.00000000000E+00 -0.00000000000E+00 -0.16242262179E+04  0.16242262179E+04  0.00000000000E+00 0.  1.
         25    1    1    2    0    0 -0.30097990408E+03 -0.15287400047E+03 -0.51384902716E+03  0.62739555736E+03  0.12500000000E+03 0.  0.
         25    1    1    2    0    0  0.85339275665E+02  0.62997912085E+02 -0.34927530809E+03  0.38583645465E+03  0.12500000000E+03 0.  0.
         25    1    1    2    0    0  0.21564062841E+03  0.89876088384E+02 -0.66046543656E+03  0.71163065194E+03  0.12500000000E+03 0.  0.
</event>
<event>
 5    0  0.5890107E-005  0.2808591E+03  0.7546771E-02  0.1095221E+00
         21   -1    0    0  502  501  0.00000000000E+00  0.00000000000E+00  0.16240929475E+03  0.16240929475E+03  0.00000000000E+00 0. -1.
         21   -1    0    0  501  502 -0.00000000000E+00 -0.00000000000E+00 -0.48569776848E+03  0.48569776848E+03  0.00000000000E+00 0. -1.
         25    1    1    2    0    0  0.83094215633E+01 -0.32231954148E+02  0.38062839928E+02  0.13483962748E+03  0.12500000000E+03 0.  0.
         25    1    1    2    0    0 -0.28677622323E+02 -0.11334497617E+03 -0.15791390794E+03  0.23287613010E+03  0.12500000000E+03 0.  0.
         25    1    1    2    0    0  0.20368200759E+02  0.14557693032E+03 -0.20343740571E+03  0.28039130565E+03  0.12500000000E+03 0.  0.
</event>
