<event>
 5    0  0.5619558E-005  0.3183299E+03  0.7546771E-02  0.1076421E+00
         21   -1    0    0  502  501  0.00000000000E+00  0.00000000000E+00  0.16548790784E+03  0.16548790784E+03  0.00000000000E+00 0. -1.
         21   -1    0    0  501  502 -0.00000000000E+00 -0.00000000000E+00 -0.61233422097E+03  0.61233422097E+03  0.00000000000E+00 0. -1.
         25    1    1    2    0    0  0.15357466128E+03  0.91444918626E+02 -0.57482550504E+02  0.22555840340E+03  0.12500000000E+03 0.  0.
         25    1    1    2    0    0 -0.15525108302E+03  0.67726597822E+01 -0.10235607775E+03  0.22416630958E+03  0.12500000000E+03 0.  0.
         25    1    1    2    0    0  0.16764217342E+01 -0.98217578408E+02 -0.28700768488E+03  0.32809741583E+03  0.12500000000E+03 0.  0.
</event>
<event>
 5    0  0.5619558E-005  0.6387945E+03  0.7546771E-02  0.9828036E-01
         21   -1    0    0  502  501  0.00000000000E+00  0.00000000000E+00  0.16056306239E+04  0.16056306239E+04  0.00000000000E+00 0.  1.
         21   -1    0    0  501  502 -0.00000000000E+00 -0.00000000000E+00 -0.25414216218E+03  0.25414216218E+03  0.00000000000E+00 0.  1.
         25    1    1    2    0    0  0.33517034550E+03  0.26482610308E+03  0.71521337593E+02  0.45079077975E+03  0.12500000000E+03 0.  0.
         25    1    1    2    0    0  0.12510513299E+02 -0.36679144166E+02  0.49397422199E+03  0.51101605117E+03  0.12500000000E+03 0.  0.
         25    1    1    2    0    0 -0.34768085880E+03 -0.22814695891E+03  0.78599290209E+03  0.89796595513E+03  0.12500000000E+03 0.  0.
</event>
<event>
 5    0  0.5619558E-005  0.3954368E+03  0.7546771E-02  0.1045371E+00
         21   -1    0    0  502  501  0.00000000000E+00  0.00000000000E+00  0.17001650048E+04  0.17001650048E+04  0.00000000000E+00 0.  1.
         21   -1    0    0  501  502 -0.00000000000E+00 -0.00000000000E+00 -0.91973590272E+02  0.91973590272E+02  0.00000000000E+00 0.  1.
         25    1    1    2    0    0  0.11431727524E+03 -0.44285995312E+02  0.47871908998E+03  0.50973194516E+03  0.12500000000E+03 0.  0.
         25    1    1    2    0    0  0.17646889076E+03  0.16140283400E+03  0.49968258091E+03  0.56789068129E+03  0.12500000000E+03 0.  0.
         25    1    1    2    0    0 -0.29078616599E+03 -0.11711683869E+03  0.62978974365E+03  0.71451596865E+03  0.12500000000E+03 0.  0.
</event>
<event>
 5    0  0.5619558E-005  0.2595834E+03  0.7546771E-02  0.1107394E+00
         21   -1    0    0  502  501  0.00000000000E+00  0.00000000000E+00  0.68671432584E+03  0.68671432584E+03  0.00000000000E+00 0. -1.
         21   -1    0    0  501  502 -0.00000000000E+00 -0.00000000000E+00 -0.98124594443E+02  0.98124594443E+02  0.00000000000E+00 0. -1.
         25    1    1    2    0    0  0.30038112366E+02 -0.24436356097E+01  0.15027885486E+03  0.19778016525E+03  0.12500000000E+03 0.  0.
         25    1    1    2    0    0  0.11233983591E+02 -0.14416825171E+03  0.18364895739E+03  0.26507098434E+03  0.12500000000E+03 0.  0.
         25    1    1    2    0    0 -0.41272095957E+02  0.14661188732E+03  0.25466191915E+03  0.32198777069E+03  0.12500000000E+03 0.  0.
</event>
<event>
 5    0  0.5619558E-005  0.4155567E+03  0.7546771E-02  0.1038522E+00
         21   -1    0    0  502  501  0.00000000000E+00  0.00000000000E+00  0.26946109009E+03  0.26946109009E+03  0.00000000000E+00 0.  1.
         21   -1    0    0  501  502 -0.00000000000E+00 -0.00000000000E+00 -0.64086197457E+03  0.64086197457E+03  0.00000000000E+00 0.  1.
         25    1    1    2    0    0  0.30432139321E+03 -0.12918502402E+03 -0.24890213310E+03  0.43229336412E+03  0.12500000000E+03 0.  0.
         25    1    1    2    0    0 -0.26561899053E+03  0.39196933864E+02 -0.11900238684E+03  0.31918085128E+03  0.12500000000E+03 0.  0.
         25    1    1    2    0    0 -0.38702402683E+02  0.89988090160E+02 -0.34963645351E+01  0.15884884925E+03  0.12500000000E+03 0.  0.
</event>
<event>
 5    0  0.5619558E-005  0.4188208E+03  0.7546771E-02  0.1037451E+00
         21   -1    0    0  502  501  0.00000000000E+00  0.00000000000E+00  0.37643168288E+03  0.37643168288E+03  0.00000000000E+00 0.  1.
         21   -1    0    0  501  502 -0.00000000000E+00 -0.00000000000E+00 -0.46598333886E+03  0.46598333886E+03  0.00000000000E+00 0.  1.
         25    1    1    2    0    0  0.23496495792E+02 -0.33185306131E+03 -0.60923451271E+02  0.36057621459E+03  0.12500000000E+03 0.  0.
         25    1    1    2    0    0  0.26217189994E+02  0.25947466920E+03  0.73109141607E+02  0.29830251691E+03  0.12500000000E+03 0.  0.
         25    1    1    2    0    0 -0.49713685786E+02  0.72378392107E+02 -0.10173734631E+03  0.18353629023E+03  0.12500000000E+03 0.  0.
</event>
<event>
 5    0  0.5619558E-005  0.2483784E+03  0.7546771E-02  0.1114334E+00
         21   -1    0    0  502  501  0.00000000000E+00  0.00000000000E+00  0.27634674928E+03  0.27634674928E+03  0.00000000000E+00 0. -1.
         21   -1    0    0  501  502 -0.00000000000E+00 -0.00000000000E+00 -0.22324059354E+03  0.22324059354E+03  0.00000000000E+00 0. -1.
         25    1    1    2    0    0 -0.43694713486E+02  0.79326677127E+02 -0.63854365887E+02  0.16704589110E+03  0.12500000000E+03 0.  0.
         25    1    1    2    0    0  0.96631937054E+01 -0.70070524111E+02 -0.18575177816E+02  0.14482158987E+03  0.12500000000E+03 0.  0.
         25    1    1    2    0    0  0.34031519781E+02 -0.92561530153E+01  0.13553569945E+03  0.18771986185E+03  0.12500000000E+03 0.  0.
</event>
<event>
 5    0  0.5619558E-005  0.3108811E+03  0.7546771E-02  0.1079924E+00
         21   -1    0    0  502  501  0.00000000000E+00  0.00000000000E+00  0.36353816889E+03  0.36353816889E+03  0.00000000000E+00 0.  1.
         21   -1    0    0  501  502 -0.00000000000E+00 -0.00000000000E+00 -0.26585118948E+03  0.26585118948E+03  0.00000000000E+00 0. -1.
         25    1    1    2    0    0 -0.19671800643E+03 -0.53552101998E+02  0.36463532299E+02  0.24190988172E+03  0.12500000000E+03 0.  0.
         25    1    1    2    0    0  0.87549152507E+02 -0.71856756899E+02 -0.62453065161E+01  0.16879647944E+03  0.12500000000E+03 0.  0.
         25    1    1    2    0    0  0.10916885393E+03  0.12540885890E+03  0.67468753619E+02  0.21868299722E+03  0.12500000000E+03 0.  0.
</event>
<event>
 5    0  0.5619558E-005  0.4581765E+03  0.7546771E-02  0.1025311E+00
         21   -1    0    0  502  501  0.00000000000E+00  0.00000000000E+00  0.91451386574E+03  0.91451386574E+03  0.00000000000E+00 0.  1.
         21   -1    0    0  501  502 -0.00000000000E+00 -0.00000000000E+00 -0.22954898423E+03  0.22954898423E+03  0.00000000000E+00 0.  1.
         25    1    1    2    0    0 -0.31182308326E+03 -0.10047753241E+02  0.32021874976E+03  0.46421938811E+03  0.12500000000E+03 0.  0.
         25    1    1    2    0    0  0.55859382318E+02  0.18759074301E+03  0.19733265369E+03  0.30475520286E+03  0.12500000000E+03 0.  0.
         25    1    1    2    0    0  0.25596370094E+03 -0.17754298977E+03  0.16741347806E+03  0.37508825901E+03  0.12500000000E+03 0.  0.
</event>
<event>
 5    0  0.5619558E-005  0.3773820E+03  0.7546771E-02  0.1051906E+00
         21   -1    0    0  502  501  0.00000000000E+00  0.00000000000E+00  0.16626616139E+04  0.16626616139E+04  0.00000000000E+00 0.  1.
         21   -1    0    0  501  502 -0.00000000000E+00 -0.00000000000E+00 -0.85656137785E+02  0.85656137785E+02  0.00000000000E+00 0.  1.
         25    1    1    2    0    0 -0.65786733547E+02  0.14085156771E+03  0.99412606412E+03  0.10139421531E+04  0.12500000000E+03 0.  0.
         25    1    1    2    0    0 -0.82317972011E+02 -0.59805341128E+02  0.61927105737E+02  0.17266410677E+03  0.12500000000E+03 0.  0.
         25    1    1    2    0    0  0.14810470556E+03 -0.81046226585E+02  0.52095230625E+03  0.56171149181E+03  0.12500000000E+03 0.  0.
</event>
<event>
 5    0  0.5619558E-005  0.2550215E+03  0.7546771E-02  0.1110172E+00
         21   -1    0    0  502  501  0.00000000000E+00  0.00000000000E+00  0.59709651252E+02  0.59709651252E+02  0.00000000000E+00 0. -1.
         21   -1    0    0  501  502 -0.00000000000E+00 -0.00000000000E+00 -0.10892039271E+04  0.10892039271E+04  0.00000000000E+00 0. -1.
         25    1    1    2    0    0  0.44180020367E+02 -0.13803930714E+02 -0.14315062977E+03  0.19560042307E+03  0.12500000000E+03 0.  0.
         25    1    1    2    0    0  0.44353444287E+02  0.89257758430E+02 -0.27027230475E+03  0.31401639157E+03  0.12500000000E+03 0.  0.
         25    1    1    2    0    0 -0.88533464654E+02 -0.75453827716E+02 -0.61607134130E+03  0.63929676368E+03  0.12500000000E+03 0.  0.
</event>
<event>
 5    0  0.5619558E-005  0.2771096E+03  0.7546771E-02  0.1097278E+00
         21   -1    0    0  502  501  0.00000000000E+00  0.00000000000E+00  0.42244294627E+03  0.42244294627E+03  0.00000000000E+00 0. -1.
         21   -1    0    0  501  502 -0.00000000000E+00 -0.00000000000E+00 -0.18177533829E+03  0.18177533829E+03  0.00000000000E+00 0. -1.
         25    1    1    2    0    0  0.88118387936E+02  0.44924816396E+02 -0.80411497061E+02  0.17853318538E+03  0.12500000000E+03 0.  0.
         25    1    1    2    0    0 -0.83422746088E+01 -0.15875738527E+02  0.12040897733E+03  0.17448482582E+03  0.12500000000E+03 0.  0.
         25    1    1    2    0    0 -0.79776113327E+02 -0.29049077869E+02  0.20067012771E+03  0.25120027336E+03  0.12500000000E+03 0.  0.
</event>
<event>
 5    0  0.5619558E-005  0.2352024E+03  0.7546771E-02  0.1123031E+00
         21   -1    0    0  502  501  0.00000000000E+00  0.00000000000E+00  0.12044623863E+03  0.12044623863E+03  0.00000000000E+00 0.  1.
         21   -1    0    0  501  502 -0.00000000000E+00 -0.00000000000E+00 -0.45929334833E+03  0.45929334833E+03  0.00000000000E+00 0.  1.
         25    1    1    2    0    0  0.50849571298E+02 -0.10501619789E+03 -0.83547567730E+02  0.19031362745E+03  0.12500000000E+03 0.  0.
         25    1    1    2    0    0 -0.29222859032E+02  0.72941961098E+02 -0.72138746011E+02  0.16432742880E+03  0.12500000000E+03 0.  0.
         25    1    1    2    0    0 -0.21626712266E+02  0.32074236795E+02 -0.18316079596E+03  0.22509853071E+03  0.12500000000E+03 0.  0.
</event>
<event>
 5    0  0.5619558E-005  0.3367650E+03  0.7546771E-02  0.1068182E+00
         21   -1    0    0  502  501  0.00000000000E+00  0.00000000000E+00  0.69246132073E+03  0.69246132073E+03  0.00000000000E+00 0.  1.
         21   -1    0    0  501  502 -0.00000000000E+00 -0.00000000000E+00 -0.16377904606E+03  0.16377904606E+03  0.00000000000E+00 0.  1.
         25    1    1    2    0    0 -0.71818830294E+02  0.19974729546E+03  0.17786231179E+03  0.30383700957E+03  0.12500000000E+03 0.  0.
         25    1    1    2    0    0  0.12649084096E+03 -0.17070672421E+02  0.72968716936E+02  0.19297868886E+03  0.12500000000E+03 0.  0.
         25    1    1    2    0    0 -0.54672010667E+02 -0.18267662304E+03  0.27785124593E+03  0.35942466836E+03  0.12500000000E+03 0.  0.
</event>
<event>
 5    0  0.5619558E-005  0.3102200E+03  0.7546771E-02  0.1080240E+00
         21   -1    0    0  502  501  0.00000000000E+00  0.00000000000E+00  0.29474776421E+03  0.29474776421E+03  0.00000000000E+00 0. -1.
         21   -1    0    0  501  502 -0.00000000000E+00 -0.00000000000E+00 -0.32650435395E+03  0.32650435395E+03  0.00000000000E+00 0. -1.
         25    1    1    2    0    0 -0.32500614166E+02  0.20434420283E+03 -0.13183618356E+02  0.24209843234E+03  0.12500000000E+03 0.  0.
         25    1    1    2    0    0 -0.76085188259E+02 -0.13366452348E+03 -0.19206044633E+02  0.19912064900E+03  0.12500000000E+03 0.  0.
         25    1    1    2    0    0  0.10858580243E+03 -0.70679679348E+02  0.63307324477E+00  0.18003303681E+03  0.12500000000E+03 0.  0.
</event>
<event>
 5    0  0.5619558E-005  0.4149946E+03  0.7546771E-02  0.1038708E+00
         21   -1    0    0  502  501  0.00000000000E+00  0.00000000000E+00  0.43808424989E+03  0.43808424989E+03  0.00000000000E+00 0.  1.
         21   -1    0    0  501  502 -0.00000000000E+00 -0.00000000000E+00 -0.39312194216E+03  0.39312194216E+03  0.00000000000E+00 0.  1.
         25    1    1    2    0    0  0.15797589691E+03  0.26348112085E+03  0.13274719550E+03  0.35724711751E+03  0.12500000000E+03 0.  0.
         25    1    1    2    0    0  0.17051517259E+02 -0.19172869117E+03  0.35026794224E+01  0.22953848048E+03  0.12500000000E+03 0.  0.
         25    1    1    2    0    0 -0.17502741417E+03 -0.71752429684E+02 -0.91287567198E+02  0.24442059406E+03  0.12500000000E+03 0.  0.
</event>
<event>
 5    0  0.5619558E-005  0.3338296E+03  0.7546771E-02  0.1069455E+00
         21   -1    0    0  502  501  0.00000000000E+00  0.00000000000E+00  0.72198309099E+03  0.72198309099E+03  0.00000000000E+00 0.  1.
         21   -1    0    0  501  502 -0.00000000000E+00 -0.00000000000E+00 -0.15435566366E+03  0.15435566366E+03  0.00000000000E+00 0.  1.
         25    1    1    2    0    0  0.74513819403E+02  0.33945629268E+02  0.29104227842E+02  0.15223886201E+03  0.12500000000E+03 0.  0.
         25    1    1    2    0    0  0.23507643743E+02 -0.13125556471E+03  0.50204010098E+03  0.53427511225E+03  0.12500000000E+03 0.  0.
         25    1    1    2    0    0 -0.98021463146E+02  0.97309935444E+02  0.36483098509E+02  0.18982478039E+03  0.12500000000E+03 0.  0.
</event>
<event>
 5    0  0.5619558E-005  0.2644137E+03  0.7546771E-02  0.1104520E+00
         21   -1    0    0  502  501  0.00000000000E+00  0.00000000000E+00  0.52115069386E+03  0.52115069386E+03  0.00000000000E+00 0. -1.
         21   -1    0    0  501  502 -0.00000000000E+00 -0.00000000000E+00 -0.13415431362E+03  0.13415431362E+03  0.00000000000E+00 0. -1.
         25    1    1    2    0    0  0.10559962425E+03 -0.46099699951E+02  0.32501325012E+03  0.36679023397E+03  0.12500000000E+03 0.  0.
         25    1    1    2    0    0 -0.66183848318E+02  0.36532333342E+02  0.57594549415E+02  0.15702561982E+03  0.12500000000E+03 0.  0.
         25    1    1    2    0    0 -0.39415775937E+02  0.95673666096E+01  0.43885806973E+01  0.13148915369E+03  0.12500000000E+03 0.  0.
</event>
<event>
 5    0  0.5619558E-005  0.2738884E+03  0.7546771E-02  0.1099075E+00
         21   -1    0    0  502  501  0.00000000000E+00  0.00000000000E+00  0.19654566063E+04  0.19654566063E+04  0.00000000000E+00 0.  1.
         21   -1    0    0  501  502 -0.00000000000E+00 -0.00000000000E+00 -0.38166617248E+02  0.38166617248E+02  0.00000000000E+00 0.  1.
         25    1    1    2    0    0 -0.67514939522E+02 -0.34425977977E+01  0.38120456822E+03  0.40683171137E+03  0.12500000000E+03 0.  0.
         25    1    1    2    0    0 -0.69296069521E+02  0.20487492899E+02  0.11515692710E+04  0.11605853990E+04  0.12500000000E+03 0.  0.
         25    1    1    2    0    0  0.13681100904E+03 -0.17044895102E+02  0.39451614984E+03  0.43620611312E+03  0.12500000000E+03 0.  0.
</event>
<event>
 5    0  0.5619558E-005  0.2576684E+03  0.7546771E-02  0.1108552E+00
         21   -1    0    0  502  501  0.00000000000E+00  0.00000000000E+00  0.47073592578E+03  0.47073592578E+03  0.00000000000E+00 0.  1.
         21   -1    0    0  501  502 -0.00000000000E+00 -0.00000000000E+00 -0.14104081827E+03  0.14104081827E+03  0.00000000000E+00 0.  1.
         25    1    1    2    0    0  0.88240877423E+02 -0.21832348304E+02  0.52361629461E+02  0.16318653168E+03  0.12500000000E+03 0.  0.
         25    1    1    2    0    0 -0.11252197317E+02 -0.78124165858E+02  0.41858536412E+02  0.15364613339E+03  0.12500000000E+03 0.  0.
         25    1    1    2    0    0 -0.76988680106E+02  0.99956514161E+02  0.23547494164E+03  0.29494407898E+03  0.12500000000E+03 0.  0.
</event>
<event>
 5    0  0.5619558E-005  0.2655562E+03  0.7546771E-02  0.1103850E+00
         21   -1    0    0  502  501  0.00000000000E+00  0.00000000000E+00  0.54242823268E+02  0.54242823268E+02  0.00000000000E+00 0.  1.
         21   -1    0    0  501  502 -0.00000000000E+00 -0.00000000000E+00 -0.13000819826E+04  0.13000819826E+04  0.00000000000E+00 0.  1.
         25    1    1    2    0    0  0.20698278993E+02 -0.58254526037E+02 -0.21655724751E+03  0.25757338761E+03  0.12500000000E+03 0.  0.
         25    1    1    2    0    0  0.99451776633E+02 -0.35934116293E+02 -0.30612333827E+03  0.34715762245E+03  0.12500000000E+03 0.  0.
         25    1    1    2    0    0 -0.12015005563E+03  0.94188642330E+02 -0.72315857350E+03  0.74959379576E+03  0.12500000000E+03 0.  0.
</event>
<event>
 5    0  0.5619558E-005  0.2543685E+03  0.7546771E-02  0.1110575E+00
         21   -1    0    0  502  501  0.00000000000E+00  0.00000000000E+00  0.49378789551E+03  0.49378789551E+03  0.00000000000E+00 0. -1.
         21   -1    0    0  501  502 -0.00000000000E+00 -0.00000000000E+00 -0.13103464837E+03  0.13103464837E+03  0.00000000000E+00 0. -1.
         25    1    1    2    0    0  0.10327419233E+03 -0.99064253128E+02  0.95955006432E+02  0.21286532904E+03  0.12500000000E+03 0.  0.
         25    1    1    2    0    0 -0.11298277216E+03  0.81603438868E+02  0.15431981774E+03  0.24261870123E+03  0.12500000000E+03 0.  0.
         25    1    1    2    0    0  0.97085798280E+01  0.17460814260E+02  0.11247842296E+03  0.16933851360E+03  0.12500000000E+03 0.  0.
</event>
<event>
 5    0  0.5619558E-005  0.3309029E+03  0.7546771E-02  0.1070738E+00
         21   -1    0    0  502  501  0.00000000000E+00  0.00000000000E+00  0.17173393360E+04  0.17173393360E+04  0.00000000000E+00 0.  1.
         21   -1    0    0  501  502 -0.00000000000E+00 -0.00000000000E+00 -0.63759503275E+02  0.63759503275E+02  0.00000000000E+00 0.  1.
         25    1    1    2    0    0  0.74541669601E+02 -0.90900361792E+02  0.48196224932E+03  0.51159744531E+03  0.12500000000E+03 0.  0.
         25    1    1    2    0    0 -0.11017641884E+03  0.18397100651E+03  0.33050518510E+03  0.41333140684E+03  0.12500000000E+03 0.  0.
         25    1    1    2    0    0  0.35634749237E+02 -0.93070644719E+02  0.84111239828E+03  0.85616998709E+03  0.12500000000E+03 0.  0.
</event>
<event>
 5    0  0.5619558E-005  0.2537623E+03  0.7546771E-02  0.1110950E+00
         21   -1    0    0  502  501  0.00000000000E+00  0.00000000000E+00  0.14918478615E+03  0.14918478615E+03  0.00000000000E+00 0.  1.
         21   -1    0    0  501  502 -0.00000000000E+00 -0.00000000000E+00 -0.43164808522E+03  0.43164808522E+03  0.00000000000E+00 0.  1.
         25    1    1    2    0    0  0.14682615000E+02 -0.29596909475E+02 -0.84719474852E+02  0.15457666594E+03  0.12500000000E+03 0.  0.
         25    1    1    2    0    0 -0.13710744857E+03  0.66892722626E+02 -0.12255165216E+03  0.23220033644E+03  0.12500000000E+03 0.  0.
         25    1    1    2    0    0  0.12242483357E+03 -0.37295813151E+02 -0.75192172058E+02  0.19405586900E+03  0.12500000000E+03 0.  0.
</event>
<event>
 5    0  0.5619558E-005  0.3197583E+03  0.7546771E-02  0.1075761E+00
         21   -1    0    0  502  501  0.00000000000E+00  0.00000000000E+00  0.51317045164E+03  0.51317045164E+03  0.00000000000E+00 0. -1.
         21   -1    0    0  501  502 -0.00000000000E+00 -0.00000000000E+00 -0.19924252685E+03  0.19924252685E+03  0.00000000000E+00 0. -1.
         25    1    1    2    0    0 -0.12805366873E+03 -0.87982029680E+01  0.18833924746E+03  0.25994580701E+03  0.12500000000E+03 0.  0.
         25    1    1    2    0    0  0.11206229397E+03  0.32339624899E+02 -0.96289687620E+02  0.19621547597E+03  0.12500000000E+03 0.  0.
         25    1    1    2    0    0  0.15991374756E+02 -0.23541421931E+02  0.22187836496E+03  0.25625169551E+03  0.12500000000E+03 0.  0.
</event>
<event>
 5    0  0.5619558E-005  0.3762249E+03  0.7546771E-02  0.1052338E+00
         21   -1    0    0  502  501  0.00000000000E+00  0.00000000000E+00  0.84705104090E+02  0.84705104090E+02  0.00000000000E+00 0. -1.
         21   -1    0    0  501  502 -0.00000000000E+00 -0.00000000000E+00 -0.16710351276E+04  0.16710351276E+04  0.00000000000E+00 0. -1.
         25    1    1    2    0    0  0.24476776262E+02 -0.13615536093E+02  0.10299966717E+02  0.12851297488E+03  0.12500000000E+03 0.  0.
         25    1    1    2    0    0 -0.21146510971E+02  0.94905161367E+02 -0.65586698273E+03  0.67471524632E+03  0.12500000000E+03 0.  0.
         25    1    1    2    0    0 -0.33302652909E+01 -0.81289625274E+02 -0.94076300749E+03  0.95251201048E+03  0.12500000000E+03 0.  0.
</event>
<event>
 5    0  0.5619558E-005  0.2626796E+03  0.7546771E-02  0.1105544E+00
         21   -1    0    0  502  501  0.00000000000E+00  0.00000000000E+00  0.14698026690E+03  0.14698026690E+03  0.00000000000E+00 0. -1.
         21   -1    0    0  501  502 -0.00000000000E+00 -0.00000000000E+00 -0.46945479642E+03  0.46945479642E+03  0.00000000000E+00 0. -1.
         25    1    1    2    0    0 -0.33429370539E+02  0.97130889908E+01 -0.68693562134E+02  0.14681850153E+03  0.12500000000E+03 0.  0.
         25    1    1    2    0    0  0.11726848126E+03  0.90517763593E+02 -0.20541498947E+03  0.28242818578E+03  0.12500000000E+03 0.  0.
         25    1    1    2    0    0 -0.83839110717E+02 -0.10023085258E+03 -0.48365977923E+02  0.18718837602E+03  0.12500000000E+03 0.  0.
</event>
<event>
 5    0  0.5619558E-005  0.3483365E+03  0.7546771E-02  0.1063300E+00
         21   -1    0    0  502  501  0.00000000000E+00  0.00000000000E+00  0.93925595363E+03  0.93925595363E+03  0.00000000000E+00 0. -1.
         21   -1    0    0  501  502 -0.00000000000E+00 -0.00000000000E+00 -0.12918558251E+03  0.12918558251E+03  0.00000000000E+00 0. -1.
         25    1    1    2    0    0 -0.18711734285E+03 -0.68132171731E+02  0.28300676140E+03  0.36793031925E+03  0.12500000000E+03 0.  0.
         25    1    1    2    0    0  0.38573329386E+02 -0.26189192318E+02  0.45312717548E+03  0.47235898710E+03  0.12500000000E+03 0.  0.
         25    1    1    2    0    0  0.14854401347E+03  0.94321364049E+02  0.73936434237E+02  0.22815222980E+03  0.12500000000E+03 0.  0.
</event>
<event>
 5    0  0.5619558E-005  0.2085526E+03  0.7546771E-02  0.1142717E+00
         21   -1    0    0  502  501  0.00000000000E+00  0.00000000000E+00  0.16514197470E+04  0.16514197470E+04  0.00000000000E+00 0. -1.
         21   -1    0    0  501  502 -0.00000000000E+00 -0.00000000000E+00 -0.26337452253E+02  0.26337452253E+02  0.00000000000E+00 0. -1.
         25    1    1    2    0    0 -0.20364746418E+02  0.56838728620E+02  0.39363512472E+03  0.41739546641E+03  0.12500000000E+03 0.  0.
         25    1    1    2    0    0  0.14996846336E+02 -0.67350534827E+02  0.67103919495E+03  0.68606093104E+03  0.12500000000E+03 0.  0.
         25    1    1    2    0    0  0.53679000821E+01  0.10511806207E+02  0.56040797512E+03  0.57430080185E+03  0.12500000000E+03 0.  0.
</event>
<event>
 5    0  0.5619558E-005  0.2715298E+03  0.7546771E-02  0.1100407E+00
         21   -1    0    0  502  501  0.00000000000E+00  0.00000000000E+00  0.95349081953E+02  0.95349081953E+02  0.00000000000E+00 0.  1.
         21   -1    0    0  501  502 -0.00000000000E+00 -0.00000000000E+00 -0.77324761552E+03  0.77324761552E+03  0.00000000000E+00 0.  1.
         25    1    1    2    0    0  0.91443375750E+02  0.43860119778E+02 -0.47435924336E+03  0.50092643456E+03  0.12500000000E+03 0.  0.
         25    1    1    2    0    0 -0.71193022771E+02 -0.91780956918E+02 -0.10757482563E+03  0.20171646847E+03  0.12500000000E+03 0.  0.
         25    1    1    2    0    0 -0.20250352979E+02  0.47920837140E+02 -0.95964464574E+02  0.16595379444E+03  0.12500000000E+03 0.  0.
</event>
<event>
 5    0  0.5619558E-005  0.2494421E+03  0.7546771E-02  0.1113658E+00
         21   -1    0    0  502  501  0.00000000000E+00  0.00000000000E+00  0.57886105733E+02  0.57886105733E+02  0.00000000000E+00 0.  1.
         21   -1    0    0  501  502 -0.00000000000E+00 -0.00000000000E+00 -0.10748926505E+04  0.10748926505E+04  0.00000000000E+00 0.  1.
         25    1    1    2    0    0  0.44631401552E+02  0.61300276275E+02 -0.21040229829E+03  0.25621048574E+03  0.12500000000E+03 0.  0.
         25    1    1    2    0    0 -0.50143102201E+02  0.66918593828E+02 -0.49266867587E+03  0.51511149578E+03  0.12500000000E+03 0.  0.
         25    1    1    2    0    0  0.55117006492E+01 -0.12821887010E+03 -0.31393557058E+03  0.36145677469E+03  0.12500000000E+03 0.  0.
</event>
<event>
 5    0  0.5619558E-005  0.2467952E+03  0.7546771E-02  0.1115347E+00
         21   -1    0    0  502  501  0.00000000000E+00  0.00000000000E+00  0.61417651561E+03  0.61417651561E+03  0.00000000000E+00 0.  1.
         21   -1    0    0  501  502 -0.00000000000E+00 -0.00000000000E+00 -0.99169987611E+02  0.99169987611E+02  0.00000000000E+00 0.  1.
         25    1    1    2    0    0  0.12578022535E+03  0.36094395303E+02  0.13769387121E+03  0.22739409102E+03  0.12500000000E+03 0.  0.
         25    1    1    2    0    0 -0.14209639893E+02  0.23861615570E+02  0.14842872961E+03  0.19602902422E+03  0.12500000000E+03 0.  0.
         25    1    1    2    0    0 -0.11157058545E+03 -0.59956010873E+02  0.22888392719E+03  0.28992338799E+03  0.12500000000E+03 0.  0.
</event>
<event>
 5    0  0.5901323E-005  0.2814759E+03  0.7546771E-02  0.1094886E+00
         21   -1    0    0  502  501  0.00000000000E+00  0.00000000000E+00  0.51863163641E+03  0.51863163641E+03  0.00000000000E+00 0. -1.
         21   -1    0    0  501  502 -0.00000000000E+00 -0.00000000000E+00 -0.15276489423E+03  0.15276489423E+03  0.00000000000E+00 0. -1.
         25    1    1    2    0    0  0.26623144617E+02 -0.95124957558E+02 -0.16605313516E+02  0.16018203962E+03  0.12500000000E+03 0.  0.
         25    1    1    2    0    0 -0.32840762825E+02 -0.43648842301E+02  0.24062673588E+03  0.27660434407E+03  0.12500000000E+03 0.  0.
         25    1    1    2    0    0  0.62176182085E+01  0.13877379986E+03  0.14184531982E+03  0.23461014696E+03  0.12500000000E+03 0.  0.
</event>
<event>
 5    0  0.5619558E-005  0.4186697E+03  0.7546771E-02  0.1037500E+00
         21   -1    0    0  502  501  0.00000000000E+00  0.00000000000E+00  0.61944186569E+03  0.61944186569E+03  0.00000000000E+00 0. -1.
         21   -1    0    0  501  502 -0.00000000000E+00 -0.00000000000E+00 -0.28297133927E+03  0.28297133927E+03  0.00000000000E+00 0. -1.
         25    1    1    2    0    0 -0.49503046022E+02  0.26911506843E+03 -0.93683678091E+02  0.31507951879E+03  0.12500000000E+03 0.  0.
         25    1    1    2    0    0  0.55140076294E+02 -0.14194409603E+03  0.12338871277E+03  0.23246145670E+03  0.12500000000E+03 0.  0.
         25    1    1    2    0    0 -0.56370302718E+01 -0.12717097240E+03  0.30676549174E+03  0.35487222948E+03  0.12500000000E+03 0.  0.
</event>
<event>
 5    0  0.5619558E-005  0.3708744E+03  0.7546771E-02  0.1054359E+00
         21   -1    0    0  502  501  0.00000000000E+00  0.00000000000E+00  0.12465006479E+03  0.12465006479E+03  0.00000000000E+00 0. -1.
         21   -1    0    0  501  502 -0.00000000000E+00 -0.00000000000E+00 -0.11034714991E+04  0.11034714991E+04  0.00000000000E+00 0. -1.
         25    1    1    2    0    0 -0.14109337892E+02  0.60250799859E+02 -0.12153490062E+02  0.14000692704E+03  0.12500000000E+03 0.  0.
         25    1    1    2    0    0  0.14206664673E+03 -0.10280425812E+03 -0.18129288748E+03  0.28150267965E+03  0.12500000000E+03 0.  0.
         25    1    1    2    0    0 -0.12795730884E+03  0.42553458258E+02 -0.78537505674E+03  0.80661195716E+03  0.12500000000E+03 0.  0.
</event>
<event>
 5    0  0.5619558E-005  0.2548506E+03  0.7546771E-02  0.1110277E+00
         21   -1    0    0  502  501  0.00000000000E+00  0.00000000000E+00  0.11769072878E+03  0.11769072878E+03  0.00000000000E+00 0.  1.
         21   -1    0    0  501  502 -0.00000000000E+00 -0.00000000000E+00 -0.55186003601E+03  0.55186003601E+03  0.00000000000E+00 0.  1.
         25    1    1    2    0    0 -0.11409770673E+03 -0.75726036146E+01 -0.15575121113E+03  0.23012837890E+03  0.12500000000E+03 0.  0.
         25    1    1    2    0    0  0.23896788597E+02  0.96090103899E+02 -0.10396339827E+03  0.19036216208E+03  0.12500000000E+03 0.  0.
         25    1    1    2    0    0  0.90200918134E+02 -0.88517500284E+02 -0.17445469783E+03  0.24906022381E+03  0.12500000000E+03 0.  0.
</event>
<event>
 5    0  0.5619558E-005  0.3548450E+03  0.7546771E-02  0.1060644E+00
         21   -1    0    0  502  501  0.00000000000E+00  0.00000000000E+00  0.49551915750E+03  0.49551915750E+03  0.00000000000E+00 0. -1.
         21   -1    0    0  501  502 -0.00000000000E+00 -0.00000000000E+00 -0.25410722474E+03  0.25410722474E+03  0.00000000000E+00 0. -1.
         25    1    1    2    0    0 -0.41093060122E+02 -0.75613187156E+02  0.23956115003E+03  0.28358515170E+03  0.12500000000E+03 0.  0.
         25    1    1    2    0    0 -0.59480016127E+02 -0.77583595799E+01  0.16983566160E+03  0.21924236911E+03  0.12500000000E+03 0.  0.
         25    1    1    2    0    0  0.10057307625E+03  0.83371546736E+02 -0.16798487887E+03  0.24679886142E+03  0.12500000000E+03 0.  0.
</event>
<event>
 5    0  0.5619558E-005  0.3726202E+03  0.7546771E-02  0.1053696E+00
         21   -1    0    0  502  501  0.00000000000E+00  0.00000000000E+00  0.72998219742E+03  0.72998219742E+03  0.00000000000E+00 0.  1.
         21   -1    0    0  501  502 -0.00000000000E+00 -0.00000000000E+00 -0.19020434568E+03  0.19020434568E+03  0.00000000000E+00 0.  1.
         25    1    1    2    0    0  0.64778792037E+02  0.39502588407E+02  0.35581521429E+03  0.38468976216E+03  0.12500000000E+03 0.  0.
         25    1    1    2    0    0 -0.23764676789E+03  0.71864913295E+01  0.34383098074E+02  0.27080404239E+03  0.12500000000E+03 0.  0.
         25    1    1    2    0    0  0.17286797585E+03 -0.46689079737E+02  0.14957953937E+03  0.26469273855E+03  0.12500000000E+03 0.  0.
</event>
<event>
 5    0  0.5619558E-005  0.3796647E+03  0.7546771E-02  0.1051058E+00
         21   -1    0    0  502  501  0.00000000000E+00  0.00000000000E+00  0.88018271466E+03  0.88018271466E+03  0.00000000000E+00 0.  1.
         21   -1    0    0  501  502 -0.00000000000E+00 -0.00000000000E+00 -0.16376743325E+03  0.16376743325E+03  0.00000000000E+00 0.  1.
         25    1    1    2    0    0  0.34995845899E+02 -0.12832365455E+03 -0.55682355439E+02  0.19083289615E+03  0.12500000000E+03 0.  0.
         25    1    1    2    0    0 -0.33207573598E+02  0.47228601055E+02  0.63787787308E+03  0.65256912635E+03  0.12500000000E+03 0.  0.
         25    1    1    2    0    0 -0.17882723011E+01  0.81095053495E+02  0.13421976377E+03  0.20054812541E+03  0.12500000000E+03 0.  0.
</event>
<event>
 5    0  0.5619558E-005  0.3628040E+03  0.7546771E-02  0.1057479E+00
         21   -1    0    0  502  501  0.00000000000E+00  0.00000000000E+00  0.13221852296E+03  0.13221852296E+03  0.00000000000E+00 0. -1.
         21   -1    0    0  501  502 -0.00000000000E+00 -0.00000000000E+00 -0.99552443994E+03  0.99552443994E+03  0.00000000000E+00 0. -1.
         25    1    1    2    0    0 -0.81046288360E+02  0.33400493000E+02 -0.38414532854E+02  0.15743179515E+03  0.12500000000E+03 0.  0.
         25    1    1    2    0    0 -0.32184243021E+01  0.91130824887E+02 -0.74195285539E+03  0.75791439169E+03  0.12500000000E+03 0.  0.
         25    1    1    2    0    0  0.84264712662E+02 -0.12453131789E+03 -0.82938528727E+02  0.21239677606E+03  0.12500000000E+03 0.  0.
</event>
<event>
 5    0  0.5619558E-005  0.2638854E+03  0.7546771E-02  0.1104831E+00
         21   -1    0    0  502  501  0.00000000000E+00  0.00000000000E+00  0.11485106252E+03  0.11485106252E+03  0.00000000000E+00 0. -1.
         21   -1    0    0  501  502 -0.00000000000E+00 -0.00000000000E+00 -0.60631150281E+03  0.60631150281E+03  0.00000000000E+00 0. -1.
         25    1    1    2    0    0 -0.44871110036E+02 -0.87784867100E+02 -0.18881225805E+03  0.24697098655E+03  0.12500000000E+03 0.  0.
         25    1    1    2    0    0  0.69515974905E+02  0.50287058478E+01 -0.28795317313E+03  0.32155837505E+03  0.12500000000E+03 0.  0.
         25    1    1    2    0    0 -0.24644864869E+02  0.82756161252E+02 -0.14695009119E+02  0.15263320374E+03  0.12500000000E+03 0.  0.
</event>
<event>
 5    0  0.5619558E-005  0.4695189E+03  0.7546771E-02  0.1022056E+00
         21   -1    0    0  502  501  0.00000000000E+00  0.00000000000E+00  0.20545181845E+03  0.20545181845E+03  0.00000000000E+00 0. -1.
         21   -1    0    0  501  502 -0.00000000000E+00 -0.00000000000E+00 -0.10729910945E+04  0.10729910945E+04  0.00000000000E+00 0. -1.
         25    1    1    2    0    0 -0.35482528429E+02 -0.44450328736E+02  0.77731693911E+02  0.15780385859E+03  0.12500000000E+03 0.  0.
         25    1    1    2    0    0 -0.20759645369E+03 -0.10010626075E+03 -0.61318941440E+03  0.66689115225E+03  0.12500000000E+03 0.  0.
         25    1    1    2    0    0  0.24307898212E+03  0.14455658949E+03 -0.33208155552E+03  0.45374790206E+03  0.12500000000E+03 0.  0.
</event>
<event>
 5    0  0.5619558E-005  0.2969706E+03  0.7546771E-02  0.1086765E+00
         21   -1    0    0  502  501  0.00000000000E+00  0.00000000000E+00  0.14153601692E+03  0.14153601692E+03  0.00000000000E+00 0. -1.
         21   -1    0    0  501  502 -0.00000000000E+00 -0.00000000000E+00 -0.62310293519E+03  0.62310293519E+03  0.00000000000E+00 0. -1.
         25    1    1    2    0    0  0.83432379226E+02  0.13882305481E+03 -0.12614148472E+03  0.24035281696E+03  0.12500000000E+03 0.  0.
         25    1    1    2    0    0 -0.46224796756E+02 -0.43764896548E+02 -0.33301295426E+03  0.36135124977E+03  0.12500000000E+03 0.  0.
         25    1    1    2    0    0 -0.37207582470E+02 -0.95058158265E+02 -0.22412479293E+02  0.16293488538E+03  0.12500000000E+03 0.  0.
</event>
<event>
 5    0  0.5619558E-005  0.3037210E+03  0.7546771E-02  0.1083395E+00
         21   -1    0    0  502  501  0.00000000000E+00  0.00000000000E+00  0.12312840238E+03  0.12312840238E+03  0.00000000000E+00 0.  1.
         21   -1    0    0  501  502 -0.00000000000E+00 -0.00000000000E+00 -0.74918891353E+03  0.74918891353E+03  0.00000000000E+00 0.  1.
         25    1    1    2    0    0 -0.11327017023E+03 -0.11271951159E+03 -0.11001030721E+03  0.23078797076E+03  0.12500000000E+03 0.  0.
         25    1    1    2    0    0  0.82655077315E+02  0.42542949462E+02 -0.45817528692E+03  0.48393321637E+03  0.12500000000E+03 0.  0.
         25    1    1    2    0    0  0.30615092911E+02  0.70176562127E+02 -0.57874917022E+02  0.15759612878E+03  0.12500000000E+03 0.  0.
</event>
<event>
 5    0  0.5619558E-005  0.2969470E+03  0.7546771E-02  0.1086777E+00
         21   -1    0    0  502  501  0.00000000000E+00  0.00000000000E+00  0.19078672671E+04  0.19078672671E+04  0.00000000000E+00 0. -1.
         21   -1    0    0  501  502 -0.00000000000E+00 -0.00000000000E+00 -0.46217854009E+02  0.46217854009E+02  0.00000000000E+00 0. -1.
         25    1    1    2    0    0  0.11485528609E+03  0.60530996278E+02  0.64950253761E+03  0.67404323646E+03  0.12500000000E+03 0.  0.
         25    1    1    2    0    0  0.13869787175E+02 -0.59239919260E+02  0.96312999823E+03  0.97311157250E+03  0.12500000000E+03 0.  0.
         25    1    1    2    0    0 -0.12872507327E+03 -0.12910770185E+01  0.24901687728E+03  0.30693031219E+03  0.12500000000E+03 0.  0.
</event>
<event>
 5    0  0.5619558E-005  0.3931447E+03  0.7546771E-02  0.1046180E+00
         21   -1    0    0  502  501  0.00000000000E+00  0.00000000000E+00  0.46604194884E+03  0.46604194884E+03  0.00000000000E+00 0. -1.
         21   -1    0    0  501  502 -0.00000000000E+00 -0.00000000000E+00 -0.33164986153E+03  0.33164986153E+03  0.00000000000E+00 0. -1.
         25    1    1    2    0    0 -0.36564919906E+01  0.10821359784E+03 -0.39681223702E+01  0.16542157866E+03  0.12500000000E+03 0.  0.
         25    1    1    2    0    0 -0.14505387401E+02  0.98290337389E+02 -0.17460724964E+03  0.23660956936E+03  0.12500000000E+03 0.  0.
         25    1    1    2    0    0  0.18161879391E+02 -0.20650393523E+03  0.31296745932E+03  0.39566066234E+03  0.12500000000E+03 0.  0.
</event>
<event>
 5    0  0.5619558E-005  0.3578671E+03  0.7546771E-02  0.1059432E+00
         21   -1    0    0  502  501  0.00000000000E+00  0.00000000000E+00  0.23227417689E+03  0.23227417689E+03  0.00000000000E+00 0.  1.
         21   -1    0    0  501  502 -0.00000000000E+00 -0.00000000000E+00 -0.55136941915E+03  0.55136941915E+03  0.00000000000E+00 0.  1.
         25    1    1    2    0    0  0.20013717113E+02 -0.15388428544E+03  0.26597513346E+02  0.20103071878E+03  0.12500000000E+03 0.  0.
         25    1    1    2    0    0 -0.41592673409E+02 -0.57278877079E+01  0.47131206793E+02  0.14003253134E+03  0.12500000000E+03 0.  0.
         25    1    1    2    0    0  0.21578956295E+02  0.15961217314E+03 -0.39282396240E+03  0.44258034593E+03  0.12500000000E+03 0.  0.
</event>
<event>
 5    0  0.5619558E-005  0.4462436E+03  0.7546771E-02  0.1028848E+00
         21   -1    0    0  502  501  0.00000000000E+00  0.00000000000E+00  0.15665612513E+04  0.15665612513E+04  0.00000000000E+00 0.  1.
         21   -1    0    0  501  502 -0.00000000000E+00 -0.00000000000E+00 -0.12711496124E+03  0.12711496124E+03  0.00000000000E+00 0.  1.
         25    1    1    2    0    0 -0.22757193127E+03 -0.12443564740E+03  0.12489227854E+03  0.31384119469E+03  0.12500000000E+03 0.  0.
         25    1    1    2    0    0  0.19777114226E+03  0.63289105928E+02  0.53421317877E+03  0.58662394770E+03  0.12500000000E+03 0.  0.
         25    1    1    2    0    0  0.29800789012E+02  0.61146541475E+02  0.78034083279E+03  0.79321107020E+03  0.12500000000E+03 0.  0.
</event>
<event>
 5    0  0.5619558E-005  0.2749930E+03  0.7546771E-02  0.1098456E+00
         21   -1    0    0  502  501  0.00000000000E+00  0.00000000000E+00  0.23826131900E+03  0.23826131900E+03  0.00000000000E+00 0. -1.
         21   -1    0    0  501  502 -0.00000000000E+00 -0.00000000000E+00 -0.31738743312E+03  0.31738743312E+03  0.00000000000E+00 0. -1.
         25    1    1    2    0    0 -0.12837190747E+03  0.32932187142E+02  0.62786696833E+02  0.19269417447E+03  0.12500000000E+03 0.  0.
         25    1    1    2    0    0 -0.11103021413E+02 -0.69107100403E+02 -0.63830236997E+02  0.15683866732E+03  0.12500000000E+03 0.  0.
         25    1    1    2    0    0  0.13947492888E+03  0.36174913260E+02 -0.78082573960E+02  0.20611591033E+03  0.12500000000E+03 0.  0.
</event>
<event>
 5    0  0.5619558E-005  0.2538860E+03  0.7546771E-02  0.1110873E+00
         21   -1    0    0  502  501  0.00000000000E+00  0.00000000000E+00  0.75351266536E+03  0.75351266536E+03  0.00000000000E+00 0.  1.
         21   -1    0    0  501  502 -0.00000000000E+00 -0.00000000000E+00 -0.85543513680E+02  0.85543513680E+02  0.00000000000E+00 0.  1.
         25    1    1    2    0    0 -0.35881614434E+02 -0.10710507250E+03  0.34663234498E+03  0.38540623944E+03  0.12500000000E+03 0.  0.
         25    1    1    2    0    0  0.83652959060E+02  0.10378895128E+03  0.15131328873E+03  0.23725656011E+03  0.12500000000E+03 0.  0.
         25    1    1    2    0    0 -0.47771344626E+02  0.33161212153E+01  0.17002351797E+03  0.21639337949E+03  0.12500000000E+03 0.  0.
</event>
<event>
 5    0  0.5619558E-005  0.2855279E+03  0.7546771E-02  0.1092707E+00
         21   -1    0    0  502  501  0.00000000000E+00  0.00000000000E+00  0.54282014847E+03  0.54282014847E+03  0.00000000000E+00 0. -1.
         21   -1    0    0  501  502 -0.00000000000E+00 -0.00000000000E+00 -0.15018999781E+03  0.15018999781E+03  0.00000000000E+00 0. -1.
         25    1    1    2    0    0  0.35925702807E+02 -0.76109535296E+02  0.14789657550E+03  0.21114382428E+03  0.12500000000E+03 0.  0.
         25    1    1    2    0    0 -0.83778144293E+02  0.10213095477E+03 -0.21119093921E+02  0.18308611502E+03  0.12500000000E+03 0.  0.
         25    1    1    2    0    0  0.47852441486E+02 -0.26021419477E+02  0.26585266908E+03  0.29878020699E+03  0.12500000000E+03 0.  0.
</event>
<event>
 5    0  0.5619558E-005  0.3327188E+03  0.7546771E-02  0.1069940E+00
         21   -1    0    0  502  501  0.00000000000E+00  0.00000000000E+00  0.27554886993E+03  0.27554886993E+03  0.00000000000E+00 0. -1.
         21   -1    0    0  501  502 -0.00000000000E+00 -0.00000000000E+00 -0.40175021224E+03  0.40175021224E+03  0.00000000000E+00 0. -1.
         25    1    1    2    0    0 -0.83991961152E+02 -0.11227585720E+03 -0.50640302009E+02  0.19455065622E+03  0.12500000000E+03 0.  0.
         25    1    1    2    0    0  0.15901357415E+03  0.21459865642E+03 -0.17499111337E+02  0.29541347125E+03  0.12500000000E+03 0.  0.
         25    1    1    2    0    0 -0.75021612995E+02 -0.10232279922E+03 -0.58061928971E+02  0.18733495470E+03  0.12500000000E+03 0.  0.
</event>
<event>
 5    0  0.5619558E-005  0.2926242E+03  0.7546771E-02  0.1088987E+00
         21   -1    0    0  502  501  0.00000000000E+00  0.00000000000E+00  0.30645663075E+03  0.30645663075E+03  0.00000000000E+00 0.  1.
         21   -1    0    0  501  502 -0.00000000000E+00 -0.00000000000E+00 -0.27941607809E+03  0.27941607809E+03  0.00000000000E+00 0.  1.
         25    1    1    2    0    0 -0.58211429519E+01  0.61904608982E+02 -0.77371715035E+02  0.15961656745E+03  0.12500000000E+03 0.  0.
         25    1    1    2    0    0 -0.12664697376E+03 -0.12096287332E+03  0.17178561109E+02  0.21585081803E+03  0.12500000000E+03 0.  0.
         25    1    1    2    0    0  0.13246811671E+03  0.59058264337E+02  0.87233706591E+02  0.21040532335E+03  0.12500000000E+03 0.  0.
</event>
<event>
 5    0  0.5619558E-005  0.2613266E+03  0.7546771E-02  0.1106349E+00
         21   -1    0    0  502  501  0.00000000000E+00  0.00000000000E+00  0.27039301603E+03  0.27039301603E+03  0.00000000000E+00 0. -1.
         21   -1    0    0  501  502 -0.00000000000E+00 -0.00000000000E+00 -0.25256421455E+03  0.25256421455E+03  0.00000000000E+00 0. -1.
         25    1    1    2    0    0  0.36505207268E+02 -0.59248578243E+02  0.44805189918E+02  0.14991840856E+03  0.12500000000E+03 0.  0.
         25    1    1    2    0    0 -0.11181819339E+03 -0.18036813126E+02 -0.95966785717E+02  0.19407024234E+03  0.12500000000E+03 0.  0.
         25    1    1    2    0    0  0.75312986120E+02  0.77285391368E+02  0.68990397278E+02  0.17896857968E+03  0.12500000000E+03 0.  0.
</event>
<event>
 5    0  0.5619558E-005  0.2667162E+03  0.7546771E-02  0.1103174E+00
         21   -1    0    0  502  501  0.00000000000E+00  0.00000000000E+00  0.78145771682E+02  0.78145771682E+02  0.00000000000E+00 0.  1.
         21   -1    0    0  501  502 -0.00000000000E+00 -0.00000000000E+00 -0.91031854413E+03  0.91031854413E+03  0.00000000000E+00 0.  1.
         25    1    1    2    0    0  0.51459611721E+02 -0.85548064916E+02 -0.12205059040E+03  0.20121607706E+03  0.12500000000E+03 0.  0.
         25    1    1    2    0    0  0.46178146304E+02 -0.34036468819E+02 -0.34854559577E+03  0.37469979281E+03  0.12500000000E+03 0.  0.
         25    1    1    2    0    0 -0.97637758024E+02  0.11958453374E+03 -0.36157658628E+03  0.41254844594E+03  0.12500000000E+03 0.  0.
</event>
<event>
 5    0  0.5619558E-005  0.2477237E+03  0.7546771E-02  0.1114752E+00
         21   -1    0    0  502  501  0.00000000000E+00  0.00000000000E+00  0.51995594010E+02  0.51995594010E+02  0.00000000000E+00 0.  1.
         21   -1    0    0  501  502 -0.00000000000E+00 -0.00000000000E+00 -0.11802349129E+04  0.11802349129E+04  0.00000000000E+00 0.  1.
         25    1    1    2    0    0 -0.95823149089E+02 -0.53051953452E+02 -0.61657661353E+03  0.63858304552E+03  0.12500000000E+03 0.  0.
         25    1    1    2    0    0  0.39164257915E+02  0.62267590523E+02 -0.15954514564E+03  0.21561712693E+03  0.12500000000E+03 0.  0.
         25    1    1    2    0    0  0.56658891174E+02 -0.92156370717E+01 -0.35211755975E+03  0.37803033450E+03  0.12500000000E+03 0.  0.
</event>
<event>
 5    0  0.5619558E-005  0.3228924E+03  0.7546771E-02  0.1074326E+00
         21   -1    0    0  502  501  0.00000000000E+00  0.00000000000E+00  0.25316551287E+03  0.25316551287E+03  0.00000000000E+00 0. -1.
         21   -1    0    0  501  502 -0.00000000000E+00 -0.00000000000E+00 -0.41182358287E+03  0.41182358287E+03  0.00000000000E+00 0. -1.
         25    1    1    2    0    0 -0.14134971220E+03 -0.84504030995E+02 -0.15032807469E+03  0.25562512090E+03  0.12500000000E+03 0.  0.
         25    1    1    2    0    0 -0.14834235932E+01  0.81710896353E+02 -0.11781973351E+03  0.19022450087E+03  0.12500000000E+03 0.  0.
         25    1    1    2    0    0  0.14283313579E+03  0.27931346421E+01  0.10948973820E+03  0.21913947397E+03  0.12500000000E+03 0.  0.
</event>
<event>
 5    0  0.5619558E-005  0.2806869E+03  0.7546771E-02  0.1095314E+00
         21   -1    0    0  502  501  0.00000000000E+00  0.00000000000E+00  0.28969301134E+03  0.28969301134E+03  0.00000000000E+00 0.  1.
         21   -1    0    0  501  502 -0.00000000000E+00 -0.00000000000E+00 -0.27196069879E+03  0.27196069879E+03  0.00000000000E+00 0.  1.
         25    1    1    2    0    0  0.13382711606E+03  0.63635146521E+02  0.82419394189E+02  0.21065869411E+03  0.12500000000E+03 0.  0.
         25    1    1    2    0    0 -0.79190900306E+02  0.56054317687E+02  0.27968768252E+00  0.15823515238E+03  0.12500000000E+03 0.  0.
         25    1    1    2    0    0 -0.54636215757E+02 -0.11968946421E+03 -0.64966769322E+02  0.19275986364E+03  0.12500000000E+03 0.  0.
</event>
<event>
 5    0  0.5619558E-005  0.3040444E+03  0.7546771E-02  0.1083236E+00
         21   -1    0    0  502  501  0.00000000000E+00  0.00000000000E+00  0.49723565313E+03  0.49723565313E+03  0.00000000000E+00 0. -1.
         21   -1    0    0  501  502 -0.00000000000E+00 -0.00000000000E+00 -0.18591388043E+03  0.18591388043E+03  0.00000000000E+00 0. -1.
         25    1    1    2    0    0 -0.16942924659E+03 -0.86753761806E+02  0.12436734150E+03  0.25947007615E+03  0.12500000000E+03 0.  0.
         25    1    1    2    0    0  0.17477215708E+03  0.10637384700E+03  0.17426581132E+03  0.29640221863E+03  0.12500000000E+03 0.  0.
         25    1    1    2    0    0 -0.53429104974E+01 -0.19620085189E+02  0.12688619876E+02  0.12727723877E+03  0.12500000000E+03 0.  0.
</event>
<event>
 5    0  0.5619558E-005  0.2893249E+03  0.7546771E-02  0.1090702E+00
         21   -1    0    0  502  501  0.00000000000E+00  0.00000000000E+00  0.99439478885E+02  0.99439478885E+02  0.00000000000E+00 0.  1.
         21   -1    0    0  501  502 -0.00000000000E+00 -0.00000000000E+00 -0.84180768831E+03  0.84180768831E+03  0.00000000000E+00 0.  1.
         25    1    1    2    0    0  0.17354807980E+02 -0.18153470078E+02 -0.14527486708E+02  0.12832297419E+03  0.12500000000E+03 0.  0.
         25    1    1    2    0    0  0.82053263351E+02  0.99694817720E+02 -0.41682596206E+03  0.45391703796E+03  0.12500000000E+03 0.  0.
         25    1    1    2    0    0 -0.99408071331E+02 -0.81541347641E+02 -0.31101476066E+03  0.35900715504E+03  0.12500000000E+03 0.  0.
</event>
<event>
 5    0  0.5619558E-005  0.3124097E+03  0.7546771E-02  0.1079197E+00
         21   -1    0    0  502  501  0.00000000000E+00  0.00000000000E+00  0.28552581262E+03  0.28552581262E+03  0.00000000000E+00 0. -1.
         21   -1    0    0  501  502 -0.00000000000E+00 -0.00000000000E+00 -0.34182477015E+03  0.34182477015E+03  0.00000000000E+00 0. -1.
         25    1    1    2    0    0  0.73994435536E+02 -0.82707090966E+02 -0.18095524939E+02  0.16813116133E+03  0.12500000000E+03 0.  0.
         25    1    1    2    0    0 -0.17568966045E+03 -0.62694548425E+02 -0.79640651950E+02  0.23825426887E+03  0.12500000000E+03 0.  0.
         25    1    1    2    0    0  0.10169522491E+03  0.14540163939E+03  0.41437219355E+02  0.22096515258E+03  0.12500000000E+03 0.  0.
</event>
<event>
 5    0  0.5619558E-005  0.2653507E+03  0.7546771E-02  0.1103970E+00
         21   -1    0    0  502  501  0.00000000000E+00  0.00000000000E+00  0.18785975405E+03  0.18785975405E+03  0.00000000000E+00 0. -1.
         21   -1    0    0  501  502 -0.00000000000E+00 -0.00000000000E+00 -0.37480607686E+03  0.37480607686E+03  0.00000000000E+00 0. -1.
         25    1    1    2    0    0 -0.14900005086E+02  0.46348600857E+02 -0.88118441666E+02  0.16049941656E+03  0.12500000000E+03 0.  0.
         25    1    1    2    0    0 -0.93170565107E+02  0.66143793035E+02 -0.11002507372E+03  0.20195611505E+03  0.12500000000E+03 0.  0.
         25    1    1    2    0    0  0.10807057019E+03 -0.11249239389E+03  0.11197192573E+02  0.20021029930E+03  0.12500000000E+03 0.  0.
</event>
<event>
 5    0  0.5619558E-005  0.3134193E+03  0.7546771E-02  0.1078718E+00
         21   -1    0    0  502  501  0.00000000000E+00  0.00000000000E+00  0.65926859999E+02  0.65926859999E+02  0.00000000000E+00 0. -1.
         21   -1    0    0  501  502 -0.00000000000E+00 -0.00000000000E+00 -0.14900099393E+04  0.14900099393E+04  0.00000000000E+00 0. -1.
         25    1    1    2    0    0  0.14481942146E+03  0.56747317969E+02 -0.39225214083E+03  0.44009051900E+03  0.12500000000E+03 0.  0.
         25    1    1    2    0    0 -0.90070100382E+02 -0.59330171261E+02 -0.93259256546E+03  0.94709375743E+03  0.12500000000E+03 0.  0.
         25    1    1    2    0    0 -0.54749321082E+02  0.25828532921E+01 -0.99238372959E+02  0.16875252282E+03  0.12500000000E+03 0.  0.
</event>
<event>
 5    0  0.5619558E-005  0.4394980E+03  0.7546771E-02  0.1030901E+00
         21   -1    0    0  502  501  0.00000000000E+00  0.00000000000E+00  0.29972892781E+03  0.29972892781E+03  0.00000000000E+00 0. -1.
         21   -1    0    0  501  502 -0.00000000000E+00 -0.00000000000E+00 -0.64444384699E+03  0.64444384699E+03  0.00000000000E+00 0. -1.
         25    1    1    2    0    0 -0.11916355276E+03  0.77535479146E+02  0.21308649829E+03  0.28503080287E+03  0.12500000000E+03 0.  0.
         25    1    1    2    0    0  0.45733312769E+02 -0.54155095870E+02 -0.46194459256E+03  0.48377899593E+03  0.12500000000E+03 0.  0.
         25    1    1    2    0    0  0.73430239986E+02 -0.23380383275E+02 -0.95856824915E+02  0.17536297599E+03  0.12500000000E+03 0.  0.
</event>
<event>
 5    0  0.5619558E-005  0.3702542E+03  0.7546771E-02  0.1054596E+00
         21   -1    0    0  502  501  0.00000000000E+00  0.00000000000E+00  0.28100660113E+03  0.28100660113E+03  0.00000000000E+00 0. -1.
         21   -1    0    0  501  502 -0.00000000000E+00 -0.00000000000E+00 -0.48784679267E+03  0.48784679267E+03  0.00000000000E+00 0. -1.
         25    1    1    2    0    0 -0.27056965973E+03  0.40473414219E+01 -0.16143241010E+03  0.33898339896E+03  0.12500000000E+03 0.  0.
         25    1    1    2    0    0  0.20831487304E+03  0.68506020772E+02 -0.87191156113E+02  0.26704954394E+03  0.12500000000E+03 0.  0.
         25    1    1    2    0    0  0.62254786690E+02 -0.72553362194E+02  0.41783374682E+02  0.16282045090E+03  0.12500000000E+03 0.  0.
</event>
<event>
 5    0  0.5619558E-005  0.3084970E+03  0.7546771E-02  0.1081069E+00
         21   -1    0    0  502  501  0.00000000000E+00  0.00000000000E+00  0.26613266905E+03  0.26613266905E+03  0.00000000000E+00 0.  1.
         21   -1    0    0  501  502 -0.00000000000E+00 -0.00000000000E+00 -0.35760513359E+03  0.35760513359E+03  0.00000000000E+00 0.  1.
         25    1    1    2    0    0  0.23293819849E+01 -0.13172670466E+03 -0.16808405136E+03  0.24745625687E+03  0.12500000000E+03 0.  0.
         25    1    1    2    0    0  0.71191209566E+02 -0.14661206898E+02 -0.24657527178E+02  0.14668378559E+03  0.12500000000E+03 0.  0.
         25    1    1    2    0    0 -0.73520591551E+02  0.14638791156E+03  0.10126911400E+03  0.22959776019E+03  0.12500000000E+03 0.  0.
</event>
<event>
 5    0  0.5619558E-005  0.3870913E+03  0.7546771E-02  0.1048343E+00
         21   -1    0    0  502  501  0.00000000000E+00  0.00000000000E+00  0.45212367426E+03  0.45212367426E+03  0.00000000000E+00 0. -1.
         21   -1    0    0  501  502 -0.00000000000E+00 -0.00000000000E+00 -0.33141298596E+03  0.33141298596E+03  0.00000000000E+00 0. -1.
         25    1    1    2    0    0  0.19064579034E+03 -0.53416592708E+02 -0.19755511674E+03  0.30635302170E+03  0.12500000000E+03 0.  0.
         25    1    1    2    0    0 -0.43672809387E+02 -0.41189960865E+02  0.14981918578E+03  0.20414386002E+03  0.12500000000E+03 0.  0.
         25    1    1    2    0    0 -0.14697298096E+03  0.94606553573E+02  0.16844661925E+03  0.27303977851E+03  0.12500000000E+03 0.  0.
</event>
<event>
 5    0  0.5619558E-005  0.2587655E+03  0.7546771E-02  0.1107887E+00
         21   -1    0    0  502  501  0.00000000000E+00  0.00000000000E+00  0.75635452048E+03  0.75635452048E+03  0.00000000000E+00 0. -1.
         21   -1    0    0  501  502 -0.00000000000E+00 -0.00000000000E+00 -0.88529380979E+02  0.88529380979E+02  0.00000000000E+00 0. -1.
         25    1    1    2    0    0  0.64041892597E+02 -0.90170303164E+02  0.17153238940E+03  0.23933325760E+03  0.12500000000E+03 0.  0.
         25    1    1    2    0    0  0.45683843741E+01  0.65238168076E+01  0.38851290726E+03  0.40820424964E+03  0.12500000000E+03 0.  0.
         25    1    1    2    0    0 -0.68610276971E+02  0.83646486357E+02  0.10777984284E+03  0.19734639421E+03  0.12500000000E+03 0.  0.
</event>
<event>
 5    0  0.5619558E-005  0.2845969E+03  0.7546771E-02  0.1093204E+00
         21   -1    0    0  502  501  0.00000000000E+00  0.00000000000E+00  0.17731283750E+03  0.17731283750E+03  0.00000000000E+00 0. -1.
         21   -1    0    0  501  502 -0.00000000000E+00 -0.00000000000E+00 -0.45679386279E+03  0.45679386279E+03  0.00000000000E+00 0. -1.
         25    1    1    2    0    0  0.19120092653E+02  0.11756821116E+02  0.68661739597E+01  0.12718468906E+03  0.12500000000E+03 0.  0.
         25    1    1    2    0    0  0.98746870604E+02  0.12186216527E+03 -0.14243339148E+03  0.24599512757E+03  0.12500000000E+03 0.  0.
         25    1    1    2    0    0 -0.11786696326E+03 -0.13361898639E+03 -0.14391380778E+03  0.26092688367E+03  0.12500000000E+03 0.  0.
</event>
<event>
 5    0  0.5619558E-005  0.3365739E+03  0.7546771E-02  0.1068265E+00
         21   -1    0    0  502  501  0.00000000000E+00  0.00000000000E+00  0.28219109502E+04  0.28219109502E+04  0.00000000000E+00 0. -1.
         21   -1    0    0  501  502 -0.00000000000E+00 -0.00000000000E+00 -0.40143712561E+02  0.40143712561E+02  0.00000000000E+00 0. -1.
         25    1    1    2    0    0 -0.10719670569E+03 -0.10342316868E+03  0.33978825696E+03  0.39149526829E+03  0.12500000000E+03 0.  0.
         25    1    1    2    0    0  0.17646336129E+03  0.57230719402E+02  0.15400331194E+04  0.15561946157E+04  0.12500000000E+03 0.  0.
         25    1    1    2    0    0 -0.69266655606E+02  0.46192449275E+02  0.90194586131E+03  0.91436477879E+03  0.12500000000E+03 0.  0.
</event>
<event>
 5    0  0.5619558E-005  0.7410121E+03  0.7546771E-02  0.9649557E-01
         21   -1    0    0  502  501  0.00000000000E+00  0.00000000000E+00  0.26127024636E+03  0.26127024636E+03  0.00000000000E+00 0. -1.
         21   -1    0    0  501  502 -0.00000000000E+00 -0.00000000000E+00 -0.21016514414E+04  0.21016514414E+04  0.00000000000E+00 0.  1.
         25    1    1    2    0    0 -0.52999418284E+03 -0.43370658760E+02 -0.34654670188E+03  0.64691148117E+03  0.12500000000E+03 0.  0.
         25    1    1    2    0    0 -0.71865452811E+02  0.16301049333E+03 -0.35710847904E+03  0.41819675997E+03  0.12500000000E+03 0.  0.
         25    1    1    2    0    0  0.60185963565E+03 -0.11963983457E+03 -0.11367260141E+04  0.12978134466E+04  0.12500000000E+03 0.  0.
</event>
<event>
 5    0  0.5779131E-005  0.3733447E+03  0.7546771E-02  0.1053421E+00
         21   -1    0    0  502  501  0.00000000000E+00  0.00000000000E+00  0.68279169091E+03  0.68279169091E+03  0.00000000000E+00 0.  1.
         21   -1    0    0  501  502 -0.00000000000E+00 -0.00000000000E+00 -0.20414174412E+03  0.20414174412E+03  0.00000000000E+00 0.  1.
         25    1    1    2    0    0  0.66396004395E+02 -0.15584714240E+03  0.32643552333E+02  0.21304310057E+03  0.12500000000E+03 0.  0.
         25    1    1    2    0    0  0.12090758169E+03  0.19832709659E+03  0.31149070834E+03  0.40817121645E+03  0.12500000000E+03 0.  0.
         25    1    1    2    0    0 -0.18730358609E+03 -0.42479954189E+02  0.13451568612E+03  0.26571911802E+03  0.12500000000E+03 0.  0.
</event>
<event>
 5    0  0.5619558E-005  0.2903476E+03  0.7546771E-02  0.1090168E+00
         21   -1    0    0  502  501  0.00000000000E+00  0.00000000000E+00  0.18798340245E+03  0.18798340245E+03  0.00000000000E+00 0. -1.
         21   -1    0    0  501  502 -0.00000000000E+00 -0.00000000000E+00 -0.44845300958E+03  0.44845300958E+03  0.00000000000E+00 0. -1.
         25    1    1    2    0    0 -0.24258605506E+02 -0.18908402308E+02 -0.33597633887E+02  0.13304062771E+03  0.12500000000E+03 0.  0.
         25    1    1    2    0    0  0.19413362153E+03  0.43755213762E+02 -0.14282100796E+03  0.27500040374E+03  0.12500000000E+03 0.  0.
         25    1    1    2    0    0 -0.16987501603E+03 -0.24846811453E+02 -0.84050965285E+02  0.22839538059E+03  0.12500000000E+03 0.  0.
</event>
<event>
 5    0  0.5619558E-005  0.3315618E+03  0.7546771E-02  0.1070448E+00
         21   -1    0    0  502  501  0.00000000000E+00  0.00000000000E+00  0.78380055222E+03  0.78380055222E+03  0.00000000000E+00 0.  1.
         21   -1    0    0  501  502 -0.00000000000E+00 -0.00000000000E+00 -0.14025659954E+03  0.14025659954E+03  0.00000000000E+00 0.  1.
         25    1    1    2    0    0 -0.93882389163E+02 -0.28792142180E+02  0.29496224539E+03  0.33506807764E+03  0.12500000000E+03 0.  0.
         25    1    1    2    0    0 -0.65438690769E+02  0.10009781274E+03  0.33112125647E+03  0.37358811658E+03  0.12500000000E+03 0.  0.
         25    1    1    2    0    0  0.15932107993E+03 -0.71305670563E+02  0.17460450821E+02  0.21540095754E+03  0.12500000000E+03 0.  0.
</event>
<event>
 5    0  0.5619558E-005  0.4627361E+03  0.7546771E-02  0.1023991E+00
         21   -1    0    0  502  501  0.00000000000E+00  0.00000000000E+00  0.10290825501E+04  0.10290825501E+04  0.00000000000E+00 0. -1.
         21   -1    0    0  501  502 -0.00000000000E+00 -0.00000000000E+00 -0.20807342870E+03  0.20807342870E+03  0.00000000000E+00 0. -1.
         25    1    1    2    0    0 -0.20096455546E+03 -0.15864147831E+03  0.63155474761E+03  0.69284938509E+03  0.12500000000E+03 0.  0.
         25    1    1    2    0    0  0.25760131249E+03  0.21979654021E+02  0.21537779930E+02  0.28797641805E+03  0.12500000000E+03 0.  0.
         25    1    1    2    0    0 -0.56636757029E+02  0.13666182429E+03  0.16791659386E+03  0.25633017567E+03  0.12500000000E+03 0.  0.
</event>
<event>
 5    0  0.5661778E-005  0.2782330E+03  0.7546771E-02  0.1096658E+00
         21   -1    0    0  502  501  0.00000000000E+00  0.00000000000E+00  0.33995734315E+03  0.33995734315E+03  0.00000000000E+00 0.  1.
         21   -1    0    0  501  502 -0.00000000000E+00 -0.00000000000E+00 -0.22771564109E+03  0.22771564109E+03  0.00000000000E+00 0.  1.
         25    1    1    2    0    0  0.62339492848E+02  0.10880487887E+03  0.66708356386E+02  0.18920813631E+03  0.12500000000E+03 0.  0.
         25    1    1    2    0    0  0.17574093445E+02 -0.16820425624E+03  0.58046790110E+02  0.21816496148E+03  0.12500000000E+03 0.  0.
         25    1    1    2    0    0 -0.79913586293E+02  0.59399377366E+02 -0.12513444436E+02  0.16029988645E+03  0.12500000000E+03 0.  0.
</event>
<event>
 5    0  0.5619558E-005  0.4366745E+03  0.7546771E-02  0.1031772E+00
         21   -1    0    0  502  501  0.00000000000E+00  0.00000000000E+00  0.11199043964E+03  0.11199043964E+03  0.00000000000E+00 0. -1.
         21   -1    0    0  501  502 -0.00000000000E+00 -0.00000000000E+00 -0.17026862471E+04  0.17026862471E+04  0.00000000000E+00 0. -1.
         25    1    1    2    0    0 -0.65897413599E+02  0.41432882186E+02 -0.55894158164E+03  0.57801370618E+03  0.12500000000E+03 0.  0.
         25    1    1    2    0    0 -0.26253629259E+03 -0.52600539288E+02 -0.66964533662E+03  0.73194398591E+03  0.12500000000E+03 0.  0.
         25    1    1    2    0    0  0.32843370619E+03  0.11167657102E+02 -0.36210888923E+03  0.50471899468E+03  0.12500000000E+03 0.  0.
</event>
<event>
 5    0  0.5619558E-005  0.2813802E+03  0.7546771E-02  0.1094937E+00
         21   -1    0    0  502  501  0.00000000000E+00  0.00000000000E+00  0.87522303039E+02  0.87522303039E+02  0.00000000000E+00 0. -1.
         21   -1    0    0  501  502 -0.00000000000E+00 -0.00000000000E+00 -0.90462431839E+03  0.90462431839E+03  0.00000000000E+00 0. -1.
         25    1    1    2    0    0 -0.62100754408E+02 -0.95627281990E+02 -0.13054152244E+03  0.21369878296E+03  0.12500000000E+03 0.  0.
         25    1    1    2    0    0 -0.39468364560E+02  0.14781669039E+03 -0.37435369752E+03  0.42328857367E+03  0.12500000000E+03 0.  0.
         25    1    1    2    0    0  0.10156911897E+03 -0.52189408400E+02 -0.31220679539E+03  0.35515926479E+03  0.12500000000E+03 0.  0.
</event>
<event>
 5    0  0.5619558E-005  0.3160382E+03  0.7546771E-02  0.1077487E+00
         21   -1    0    0  502  501  0.00000000000E+00  0.00000000000E+00  0.99778121124E+02  0.99778121124E+02  0.00000000000E+00 0.  1.
         21   -1    0    0  501  502 -0.00000000000E+00 -0.00000000000E+00 -0.10010225693E+04  0.10010225693E+04  0.00000000000E+00 0.  1.
         25    1    1    2    0    0 -0.45652577795E+02 -0.35684474529E+02 -0.48939498491E+03  0.50841910943E+03  0.12500000000E+03 0.  0.
         25    1    1    2    0    0 -0.10964399340E+02  0.17586939138E+03 -0.28934405102E+03  0.36110281186E+03  0.12500000000E+03 0.  0.
         25    1    1    2    0    0  0.56616977135E+02 -0.14018491685E+03 -0.12250541222E+03  0.23127876910E+03  0.12500000000E+03 0.  0.
</event>
<event>
 5    0  0.5619558E-005  0.2773734E+03  0.7546771E-02  0.1097132E+00
         21   -1    0    0  502  501  0.00000000000E+00  0.00000000000E+00  0.19965639653E+03  0.19965639653E+03  0.00000000000E+00 0. -1.
         21   -1    0    0  501  502 -0.00000000000E+00 -0.00000000000E+00 -0.38534200449E+03  0.38534200449E+03  0.00000000000E+00 0. -1.
         25    1    1    2    0    0  0.38502968096E+02 -0.28766892908E+01 -0.10926748829E+03  0.17045567720E+03  0.12500000000E+03 0.  0.
         25    1    1    2    0    0 -0.77809758841E+02 -0.28373170999E+01 -0.19044875936E+03  0.24074496647E+03  0.12500000000E+03 0.  0.
         25    1    1    2    0    0  0.39306790744E+02  0.57140063907E+01  0.11403063970E+03  0.17379775734E+03  0.12500000000E+03 0.  0.
</event>
<event>
 5    0  0.5619558E-005  0.5241968E+03  0.7546771E-02  0.1007649E+00
         21   -1    0    0  502  501  0.00000000000E+00  0.00000000000E+00  0.57011498803E+03  0.57011498803E+03  0.00000000000E+00 0. -1.
         21   -1    0    0  501  502 -0.00000000000E+00 -0.00000000000E+00 -0.48197689830E+03  0.48197689830E+03  0.00000000000E+00 0. -1.
         25    1    1    2    0    0 -0.16390148159E+03 -0.76461204983E+02  0.12547476906E+03  0.25313816229E+03  0.12500000000E+03 0.  0.
         25    1    1    2    0    0  0.44233838554E+03 -0.14456739617E+02 -0.10877498388E+03  0.47257723364E+03  0.12500000000E+03 0.  0.
         25    1    1    2    0    0 -0.27843690395E+03  0.90917944599E+02  0.71438304543E+02  0.32637649040E+03  0.12500000000E+03 0.  0.
</event>
<event>
 5    0  0.5619558E-005  0.4870584E+03  0.7546771E-02  0.1017213E+00
         21   -1    0    0  502  501  0.00000000000E+00  0.00000000000E+00  0.68735564929E+03  0.68735564929E+03  0.00000000000E+00 0. -1.
         21   -1    0    0  501  502 -0.00000000000E+00 -0.00000000000E+00 -0.34512828457E+03  0.34512828457E+03  0.00000000000E+00 0. -1.
         25    1    1    2    0    0 -0.18835706347E+03 -0.93457473344E+02  0.13624352085E+02  0.24499654213E+03  0.12500000000E+03 0.  0.
         25    1    1    2    0    0 -0.22108570542E+03 -0.59428406772E+02  0.12955354573E+03  0.29123829742E+03  0.12500000000E+03 0.  0.
         25    1    1    2    0    0  0.40944276889E+03  0.15288588012E+03  0.19904946691E+03  0.49624909432E+03  0.12500000000E+03 0.  0.
</event>
<event>
 5    0  0.5619558E-005  0.2615868E+03  0.7546771E-02  0.1106194E+00
         21   -1    0    0  502  501  0.00000000000E+00  0.00000000000E+00  0.31472126505E+03  0.31472126505E+03  0.00000000000E+00 0. -1.
         21   -1    0    0  501  502 -0.00000000000E+00 -0.00000000000E+00 -0.21742300049E+03  0.21742300049E+03  0.00000000000E+00 0. -1.
         25    1    1    2    0    0 -0.77002964921E+02  0.56354530925E+02 -0.78185260678E+02  0.17562239251E+03  0.12500000000E+03 0.  0.
         25    1    1    2    0    0 -0.19447342947E+02 -0.78681083023E+02  0.10454306015E+03  0.18199770163E+03  0.12500000000E+03 0.  0.
         25    1    1    2    0    0  0.96450307868E+02  0.22326552099E+02  0.70940465097E+02  0.17452417141E+03  0.12500000000E+03 0.  0.
</event>
<event>
 5    0  0.5654281E-005  0.3112231E+03  0.7546771E-02  0.1079761E+00
         21   -1    0    0  502  501  0.00000000000E+00  0.00000000000E+00  0.66682375128E+03  0.66682375128E+03  0.00000000000E+00 0.  1.
         21   -1    0    0  501  502 -0.00000000000E+00 -0.00000000000E+00 -0.14525548464E+03  0.14525548464E+03  0.00000000000E+00 0.  1.
         25    1    1    2    0    0  0.43285428370E+02  0.93590906501E+02  0.47986377391E+03  0.50648507145E+03  0.12500000000E+03 0.  0.
         25    1    1    2    0    0  0.35918088407E+02 -0.52681007053E+01  0.23923440821E+02  0.13234497716E+03  0.12500000000E+03 0.  0.
         25    1    1    2    0    0 -0.79203516777E+02 -0.88322805795E+02  0.17781051907E+02  0.17324918730E+03  0.12500000000E+03 0.  0.
</event>
<event>
 5    0  0.5619558E-005  0.3660394E+03  0.7546771E-02  0.1056218E+00
         21   -1    0    0  502  501  0.00000000000E+00  0.00000000000E+00  0.95948887101E+03  0.95948887101E+03  0.00000000000E+00 0. -1.
         21   -1    0    0  501  502 -0.00000000000E+00 -0.00000000000E+00 -0.13964189058E+03  0.13964189058E+03  0.00000000000E+00 0. -1.
         25    1    1    2    0    0 -0.14236579958E+03 -0.14165722452E+03  0.19579067758E+03  0.30707292225E+03  0.12500000000E+03 0.  0.
         25    1    1    2    0    0  0.14889184963E+03  0.18761306461E+01  0.56160497681E+03  0.59430417526E+03  0.12500000000E+03 0.  0.
         25    1    1    2    0    0 -0.65260500411E+01  0.13978109388E+03  0.62451326044E+02  0.19775366409E+03  0.12500000000E+03 0.  0.
</event>
<event>
 5    0  0.5619558E-005  0.4564968E+03  0.7546771E-02  0.1025802E+00
         21   -1    0    0  502  501  0.00000000000E+00  0.00000000000E+00  0.10354142255E+04  0.10354142255E+04  0.00000000000E+00 0.  1.
         21   -1    0    0  501  502 -0.00000000000E+00 -0.00000000000E+00 -0.20126181314E+03  0.20126181314E+03  0.00000000000E+00 0. -1.
         25    1    1    2    0    0  0.36248894248E+03  0.70216497281E+02  0.42705180994E+03  0.57821002956E+03  0.12500000000E+03 0.  0.
         25    1    1    2    0    0 -0.16056766081E+03 -0.15822434797E+03  0.15323689814E+03  0.29987241444E+03  0.12500000000E+03 0.  0.
         25    1    1    2    0    0 -0.20192128166E+03  0.88007850690E+02  0.25386370433E+03  0.35859359468E+03  0.12500000000E+03 0.  0.
</event>
<event>
 5    0  0.5619558E-005  0.2354374E+03  0.7546771E-02  0.1122870E+00
         21   -1    0    0  502  501  0.00000000000E+00  0.00000000000E+00  0.32098956565E+03  0.32098956565E+03  0.00000000000E+00 0.  1.
         21   -1    0    0  501  502 -0.00000000000E+00 -0.00000000000E+00 -0.17268716794E+03  0.17268716794E+03  0.00000000000E+00 0.  1.
         25    1    1    2    0    0  0.40015109433E+02  0.64566978635E+02  0.88805133746E+02  0.17111825003E+03  0.12500000000E+03 0.  0.
         25    1    1    2    0    0 -0.37360867854E+02  0.46575499651E+02  0.69477151497E+02  0.15497479213E+03  0.12500000000E+03 0.  0.
         25    1    1    2    0    0 -0.26542415792E+01 -0.11114247829E+03 -0.99798875348E+01  0.16758369143E+03  0.12500000000E+03 0.  0.
</event>
<event>
 5    0  0.5619558E-005  0.1995223E+03  0.7546771E-02  0.1150143E+00
         21   -1    0    0  502  501  0.00000000000E+00  0.00000000000E+00  0.65145501067E+02  0.65145501067E+02  0.00000000000E+00 0.  1.
         21   -1    0    0  501  502 -0.00000000000E+00 -0.00000000000E+00 -0.61108042622E+03  0.61108042622E+03  0.00000000000E+00 0.  1.
         25    1    1    2    0    0  0.33738088060E+02  0.28596246428E+01 -0.17807362075E+03  0.22018549100E+03  0.12500000000E+03 0.  0.
         25    1    1    2    0    0 -0.50526257592E+02 -0.33355229873E+02 -0.17162363735E+03  0.22078303142E+03  0.12500000000E+03 0.  0.
         25    1    1    2    0    0  0.16788169532E+02  0.30495605230E+02 -0.19623766706E+03  0.23525740487E+03  0.12500000000E+03 0.  0.
</event>
<event>
 5    0  0.5619558E-005  0.4619156E+03  0.7546771E-02  0.1024227E+00
         21   -1    0    0  502  501  0.00000000000E+00  0.00000000000E+00  0.81692761875E+03  0.81692761875E+03  0.00000000000E+00 0.  1.
         21   -1    0    0  501  502 -0.00000000000E+00 -0.00000000000E+00 -0.26118109564E+03  0.26118109564E+03  0.00000000000E+00 0.  1.
         25    1    1    2    0    0  0.77223208886E+02 -0.10191244337E+03 -0.16487325658E+02  0.17957283206E+03  0.12500000000E+03 0.  0.
         25    1    1    2    0    0 -0.25775082255E+03  0.20734974350E+03  0.55008621426E+03  0.65394896267E+03  0.12500000000E+03 0.  0.
         25    1    1    2    0    0  0.18052761366E+03 -0.10543730013E+03  0.22147634501E+02  0.24458691966E+03  0.12500000000E+03 0.  0.
</event>
<event>
 5    0  0.5619558E-005  0.3283406E+03  0.7546771E-02  0.1071873E+00
         21   -1    0    0  502  501  0.00000000000E+00  0.00000000000E+00  0.17559217145E+03  0.17559217145E+03  0.00000000000E+00 0.  1.
         21   -1    0    0  501  502 -0.00000000000E+00 -0.00000000000E+00 -0.61396540284E+03  0.61396540284E+03  0.00000000000E+00 0.  1.
         25    1    1    2    0    0  0.15545435430E+02  0.16343758741E+03  0.35416319442E+02  0.20936289361E+03  0.12500000000E+03 0.  0.
         25    1    1    2    0    0 -0.53354723441E+02 -0.35840277837E+02 -0.28377795693E+03  0.31667993443E+03  0.12500000000E+03 0.  0.
         25    1    1    2    0    0  0.37809288011E+02 -0.12759730957E+03 -0.19001159390E+03  0.26351474624E+03  0.12500000000E+03 0.  0.
</event>
<event>
 5    0  0.5619558E-005  0.3951594E+03  0.7546771E-02  0.1045469E+00
         21   -1    0    0  502  501  0.00000000000E+00  0.00000000000E+00  0.11267811773E+03  0.11267811773E+03  0.00000000000E+00 0. -1.
         21   -1    0    0  501  502 -0.00000000000E+00 -0.00000000000E+00 -0.13858142131E+04  0.13858142131E+04  0.00000000000E+00 0. -1.
         25    1    1    2    0    0 -0.58883985627E+02 -0.91336382303E+02 -0.21430735011E+03  0.27085475592E+03  0.12500000000E+03 0.  0.
         25    1    1    2    0    0  0.24486910206E+02  0.25920507908E+03 -0.94243677237E+03  0.98569719068E+03  0.12500000000E+03 0.  0.
         25    1    1    2    0    0  0.34397075421E+02 -0.16786869678E+03 -0.11639197285E+03  0.24194038418E+03  0.12500000000E+03 0.  0.
</event>
<event>
 5    0  0.5619558E-005  0.3039552E+03  0.7546771E-02  0.1083280E+00
         21   -1    0    0  502  501  0.00000000000E+00  0.00000000000E+00  0.13709979761E+03  0.13709979761E+03  0.00000000000E+00 0.  1.
         21   -1    0    0  501  502 -0.00000000000E+00 -0.00000000000E+00 -0.67387959979E+03  0.67387959979E+03  0.00000000000E+00 0.  1.
         25    1    1    2    0    0 -0.49093844297E+02  0.65730961911E+02 -0.34969123492E+03  0.38031529641E+03  0.12500000000E+03 0.  0.
         25    1    1    2    0    0  0.92874432737E+02  0.68538777971E+02 -0.76081532653E+01  0.17031179741E+03  0.12500000000E+03 0.  0.
         25    1    1    2    0    0 -0.43780588440E+02 -0.13426973988E+03 -0.17948041399E+03  0.26035230358E+03  0.12500000000E+03 0.  0.
</event>
<event>
 5    0  0.5619558E-005  0.2861852E+03  0.7546771E-02  0.1092358E+00
         21   -1    0    0  502  501  0.00000000000E+00  0.00000000000E+00  0.60490279073E+02  0.60490279073E+02  0.00000000000E+00 0.  1.
         21   -1    0    0  501  502 -0.00000000000E+00 -0.00000000000E+00 -0.13539694524E+04  0.13539694524E+04  0.00000000000E+00 0.  1.
         25    1    1    2    0    0  0.48079527532E+01 -0.95617593487E+02 -0.78976454135E+03  0.80530669398E+03  0.12500000000E+03 0.  0.
         25    1    1    2    0    0  0.89522927981E+02 -0.60128541456E+01 -0.19521756395E+03  0.24856670397E+03  0.12500000000E+03 0.  0.
         25    1    1    2    0    0 -0.94330880734E+02  0.10163044763E+03 -0.30849706808E+03  0.36058633357E+03  0.12500000000E+03 0.  0.
</event>
<event>
 5    0  0.5619558E-005  0.3111882E+03  0.7546771E-02  0.1079778E+00
         21   -1    0    0  502  501  0.00000000000E+00  0.00000000000E+00  0.14244218690E+03  0.14244218690E+03  0.00000000000E+00 0.  1.
         21   -1    0    0  501  502 -0.00000000000E+00 -0.00000000000E+00 -0.67984126434E+03  0.67984126434E+03  0.00000000000E+00 0.  1.
         25    1    1    2    0    0 -0.13113428507E+03  0.54457033559E+02 -0.23817748220E+03  0.30416324934E+03  0.12500000000E+03 0.  0.
         25    1    1    2    0    0  0.17662971510E+03  0.36445039636E+02 -0.28018262557E+03  0.35588425203E+03  0.12500000000E+03 0.  0.
         25    1    1    2    0    0 -0.45495430039E+02 -0.90902073194E+02 -0.19038969667E+02  0.16223594987E+03  0.12500000000E+03 0.  0.
</event>
<event>
 5    0  0.5619558E-005  0.2928499E+03  0.7546771E-02  0.1088870E+00
         21   -1    0    0  502  501  0.00000000000E+00  0.00000000000E+00  0.10561920867E+03  0.10561920867E+03  0.00000000000E+00 0. -1.
         21   -1    0    0  501  502 -0.00000000000E+00 -0.00000000000E+00 -0.81198364282E+03  0.81198364282E+03  0.00000000000E+00 0. -1.
         25    1    1    2    0    0 -0.14131107041E+03  0.14637974650E+03 -0.17811048366E+03  0.29789963611E+03  0.12500000000E+03 0.  0.
         25    1    1    2    0    0  0.67850654642E+02 -0.54642746889E+02 -0.24202942175E+03  0.28599437427E+03  0.12500000000E+03 0.  0.
         25    1    1    2    0    0  0.73460415769E+02 -0.91736999614E+02 -0.28622452874E+03  0.33370884111E+03  0.12500000000E+03 0.  0.
</event>
<event>
 5    0  0.5619558E-005  0.2222408E+03  0.7546771E-02  0.1132223E+00
         21   -1    0    0  502  501  0.00000000000E+00  0.00000000000E+00  0.64392015843E+02  0.64392015843E+02  0.00000000000E+00 0.  1.
         21   -1    0    0  501  502 -0.00000000000E+00 -0.00000000000E+00 -0.76703571731E+03  0.76703571731E+03  0.00000000000E+00 0.  1.
         25    1    1    2    0    0  0.36109783192E+02  0.69156716566E+01 -0.22779868638E+03  0.26242900845E+03  0.12500000000E+03 0.  0.
         25    1    1    2    0    0  0.71338314045E+02  0.16553473543E+02 -0.25418950065E+03  0.29257558814E+03  0.12500000000E+03 0.  0.
         25    1    1    2    0    0 -0.10744809724E+03 -0.23469145199E+02 -0.22065551443E+03  0.27642313656E+03  0.12500000000E+03 0.  0.
</event>
<event>
 5    0  0.5619558E-005  0.2563658E+03  0.7546771E-02  0.1109347E+00
         21   -1    0    0  502  501  0.00000000000E+00  0.00000000000E+00  0.25789099794E+04  0.25789099794E+04  0.00000000000E+00 0.  1.
         21   -1    0    0  501  502 -0.00000000000E+00 -0.00000000000E+00 -0.25484964382E+02  0.25484964382E+02  0.00000000000E+00 0.  1.
         25    1    1    2    0    0  0.95713005098E+02 -0.30750351861E+02  0.63136266293E+03  0.65142181083E+03  0.12500000000E+03 0.  0.
         25    1    1    2    0    0 -0.77074911788E+02 -0.32706163164E+02  0.45759003788E+03  0.48168856941E+03  0.12500000000E+03 0.  0.
         25    1    1    2    0    0 -0.18638093311E+02  0.63456515025E+02  0.14644723142E+04  0.14712845636E+04  0.12500000000E+03 0.  0.
</event>
<event>
 5    0  0.5619558E-005  0.2518027E+03  0.7546771E-02  0.1112171E+00
         21   -1    0    0  502  501  0.00000000000E+00  0.00000000000E+00  0.13706015537E+03  0.13706015537E+03  0.00000000000E+00 0. -1.
         21   -1    0    0  501  502 -0.00000000000E+00 -0.00000000000E+00 -0.46260429571E+03  0.46260429571E+03  0.00000000000E+00 0. -1.
         25    1    1    2    0    0 -0.14761597563E+03 -0.32964389016E+02 -0.15732848388E+03  0.25150423265E+03  0.12500000000E+03 0.  0.
         25    1    1    2    0    0  0.84446098523E+02 -0.11248142954E+02 -0.49033956020E+02  0.15901884517E+03  0.12500000000E+03 0.  0.
         25    1    1    2    0    0  0.63169877108E+02  0.44212531971E+02 -0.11918170044E+03  0.18914137325E+03  0.12500000000E+03 0.  0.
</event>
<event>
 5    0  0.7147235E-005  0.2932506E+03  0.7546771E-02  0.1088664E+00
         21   -1    0    0  502  501  0.00000000000E+00  0.00000000000E+00  0.47416038007E+03  0.47416038007E+03  0.00000000000E+00 0.  1.
         21   -1    0    0  501  502 -0.00000000000E+00 -0.00000000000E+00 -0.18136455804E+03  0.18136455804E+03  0.00000000000E+00 0.  1.
         25    1    1    2    0    0  0.53797916543E+02  0.99747401186E-03 -0.85615572557E+02  0.16077699490E+03  0.12500000000E+03 0.  0.
         25    1    1    2    0    0 -0.53341369087E+02  0.88792256330E+02  0.16038570897E+03  0.22820592035E+03  0.12500000000E+03 0.  0.
         25    1    1    2    0    0 -0.45654745590E+00 -0.88793253804E+02  0.21802568562E+03  0.26654202285E+03  0.12500000000E+03 0.  0.
</event>
<event>
 5    0  0.5619558E-005  0.2035770E+03  0.7546771E-02  0.1146756E+00
         21   -1    0    0  502  501  0.00000000000E+00  0.00000000000E+00  0.22059911944E+02  0.22059911944E+02  0.00000000000E+00 0.  1.
         21   -1    0    0  501  502 -0.00000000000E+00 -0.00000000000E+00 -0.18786843603E+04  0.18786843603E+04  0.00000000000E+00 0.  1.
         25    1    1    2    0    0  0.37453704801E+02 -0.10581430133E+02 -0.55728471605E+03  0.57245611309E+03  0.12500000000E+03 0.  0.
         25    1    1    2    0    0 -0.60401503118E+02  0.33062002893E+02 -0.79429405159E+03  0.80701268764E+03  0.12500000000E+03 0.  0.
         25    1    1    2    0    0  0.22947798317E+02 -0.22480572760E+02 -0.50504568070E+03  0.52127547151E+03  0.12500000000E+03 0.  0.
</event>
<event>
 5    0  0.5619558E-005  0.2995946E+03  0.7546771E-02  0.1085443E+00
         21   -1    0    0  502  501  0.00000000000E+00  0.00000000000E+00  0.89104481597E+03  0.89104481597E+03  0.00000000000E+00 0.  1.
         21   -1    0    0  501  502 -0.00000000000E+00 -0.00000000000E+00 -0.10073223114E+03  0.10073223114E+03  0.00000000000E+00 0.  1.
         25    1    1    2    0    0 -0.37932553693E+02 -0.15161385813E+02  0.21810576986E+03  0.25468386893E+03  0.12500000000E+03 0.  0.
         25    1    1    2    0    0 -0.46914857129E+02 -0.16436757388E+03  0.17045409332E+03  0.27184058029E+03  0.12500000000E+03 0.  0.
         25    1    1    2    0    0  0.84847410822E+02  0.17952895969E+03  0.40175272165E+03  0.46525259789E+03  0.12500000000E+03 0.  0.
</event>
<event>
 5    0  0.6734355E-005  0.2909610E+03  0.7546771E-02  0.1089848E+00
         21   -1    0    0  502  501  0.00000000000E+00  0.00000000000E+00  0.48065630402E+03  0.48065630402E+03  0.00000000000E+00 0. -1.
         21   -1    0    0  501  502 -0.00000000000E+00 -0.00000000000E+00 -0.17613062087E+03  0.17613062087E+03  0.00000000000E+00 0. -1.
         25    1    1    2    0    0 -0.89134699712E+02  0.13279059993E+03  0.92052471803E+02  0.22288336790E+03  0.12500000000E+03 0.  0.
         25    1    1    2    0    0  0.91947588895E+00 -0.12068153389E+03  0.24345884935E+01  0.17376940259E+03  0.12500000000E+03 0.  0.
         25    1    1    2    0    0  0.88215223823E+02 -0.12109066039E+02  0.21003862285E+03  0.26013415440E+03  0.12500000000E+03 0.  0.
</event>
<event>
 5    0  0.5619558E-005  0.6123747E+03  0.7546771E-02  0.9880060E-01
         21   -1    0    0  502  501  0.00000000000E+00  0.00000000000E+00  0.53890113094E+03  0.53890113094E+03  0.00000000000E+00 0.  1.
         21   -1    0    0  501  502 -0.00000000000E+00 -0.00000000000E+00 -0.69586553870E+03  0.69586553870E+03  0.00000000000E+00 0.  1.
         25    1    1    2    0    0  0.74703418457E+02  0.35448603369E+02 -0.96625387100E+02  0.17832181482E+03  0.12500000000E+03 0.  0.
         25    1    1    2    0    0  0.32189466350E+03  0.20702918055E+03  0.25905183451E+03  0.47875892572E+03  0.12500000000E+03 0.  0.
         25    1    1    2    0    0 -0.39659808195E+03 -0.24247778392E+03 -0.31939085518E+03  0.57768592910E+03  0.12500000000E+03 0.  0.
</event>
<event>
 5    0  0.5619558E-005  0.2650200E+03  0.7546771E-02  0.1104164E+00
         21   -1    0    0  502  501  0.00000000000E+00  0.00000000000E+00  0.58185470508E+03  0.58185470508E+03  0.00000000000E+00 0.  1.
         21   -1    0    0  501  502 -0.00000000000E+00 -0.00000000000E+00 -0.12070988037E+03  0.12070988037E+03  0.00000000000E+00 0.  1.
         25    1    1    2    0    0 -0.86062147072E+02 -0.79986497474E+02  0.27153708873E+03  0.32118829912E+03  0.12500000000E+03 0.  0.
         25    1    1    2    0    0  0.71037736733E+02  0.10762716789E+03  0.40181695122E+02  0.18403677875E+03  0.12500000000E+03 0.  0.
         25    1    1    2    0    0  0.15024410339E+02 -0.27640670415E+02  0.14942604086E+03  0.19733950758E+03  0.12500000000E+03 0.  0.
</event>
<event>
 5    0  0.5619558E-005  0.3920780E+03  0.7546771E-02  0.1046558E+00
         21   -1    0    0  502  501  0.00000000000E+00  0.00000000000E+00  0.16701623827E+03  0.16701623827E+03  0.00000000000E+00 0. -1.
         21   -1    0    0  501  502 -0.00000000000E+00 -0.00000000000E+00 -0.92042051265E+03  0.92042051265E+03  0.00000000000E+00 0. -1.
         25    1    1    2    0    0  0.10667951546E+03  0.17823812224E+03 -0.11974435004E+03  0.27039426141E+03  0.12500000000E+03 0.  0.
         25    1    1    2    0    0 -0.11727381467E+03 -0.17945803195E+03 -0.97871134304E+02  0.26676223828E+03  0.12500000000E+03 0.  0.
         25    1    1    2    0    0  0.10594299210E+02  0.12199097125E+01 -0.53578879005E+03  0.55028025123E+03  0.12500000000E+03 0.  0.
</event>
<event>
 5    0  0.5619558E-005  0.2877930E+03  0.7546771E-02  0.1091507E+00
         21   -1    0    0  502  501  0.00000000000E+00  0.00000000000E+00  0.10612853057E+04  0.10612853057E+04  0.00000000000E+00 0.  1.
         21   -1    0    0  501  502 -0.00000000000E+00 -0.00000000000E+00 -0.78041968651E+02  0.78041968651E+02  0.00000000000E+00 0.  1.
         25    1    1    2    0    0  0.11748632762E+03  0.62712654334E+02  0.29258613573E+03  0.34491674505E+03  0.12500000000E+03 0.  0.
         25    1    1    2    0    0 -0.63976592019E+02  0.93131335457E+01  0.74303626870E+02  0.15914071682E+03  0.12500000000E+03 0.  0.
         25    1    1    2    0    0 -0.53509735596E+02 -0.72025787880E+02  0.61635357440E+03  0.63526981245E+03  0.12500000000E+03 0.  0.
</event>
<event>
 5    0  0.5619558E-005  0.3040203E+03  0.7546771E-02  0.1083248E+00
         21   -1    0    0  502  501  0.00000000000E+00  0.00000000000E+00  0.15020714766E+03  0.15020714766E+03  0.00000000000E+00 0.  1.
         21   -1    0    0  501  502 -0.00000000000E+00 -0.00000000000E+00 -0.61533908868E+03  0.61533908868E+03  0.00000000000E+00 0.  1.
         25    1    1    2    0    0  0.43660885594E+02 -0.12620642761E+02 -0.26785270553E+03  0.29905789642E+03  0.12500000000E+03 0.  0.
         25    1    1    2    0    0  0.27150664781E+01  0.75528915869E+02 -0.26628304612E+03  0.30371639628E+03  0.12500000000E+03 0.  0.
         25    1    1    2    0    0 -0.46375952072E+02 -0.62908273108E+02  0.69003810627E+02  0.16277194364E+03  0.12500000000E+03 0.  0.
</event>
<event>
 5    0  0.5619558E-005  0.3360256E+03  0.7546771E-02  0.1068501E+00
         21   -1    0    0  502  501  0.00000000000E+00  0.00000000000E+00  0.98305243979E+03  0.98305243979E+03  0.00000000000E+00 0. -1.
         21   -1    0    0  501  502 -0.00000000000E+00 -0.00000000000E+00 -0.11485981867E+03  0.11485981867E+03  0.00000000000E+00 0. -1.
         25    1    1    2    0    0  0.16227098399E+03  0.17372586570E+03  0.18900082617E+03  0.32841872807E+03  0.12500000000E+03 0.  0.
         25    1    1    2    0    0 -0.10234090696E+03 -0.14930304850E+03  0.44100525376E+03  0.49282420332E+03  0.12500000000E+03 0.  0.
         25    1    1    2    0    0 -0.59930077024E+02 -0.24422817199E+02  0.23818654119E+03  0.27666932706E+03  0.12500000000E+03 0.  0.
</event>
<event>
 5    0  0.5619558E-005  0.4487834E+03  0.7546771E-02  0.1028085E+00
         21   -1    0    0  502  501  0.00000000000E+00  0.00000000000E+00  0.60008419537E+03  0.60008419537E+03  0.00000000000E+00 0. -1.
         21   -1    0    0  501  502 -0.00000000000E+00 -0.00000000000E+00 -0.33563051336E+03  0.33563051336E+03  0.00000000000E+00 0. -1.
         25    1    1    2    0    0  0.31750199510E+02 -0.16144126031E+03  0.15938247917E+03  0.26095810079E+03  0.12500000000E+03 0.  0.
         25    1    1    2    0    0  0.22756198380E+03  0.76689766477E+02 -0.12347468412E+03  0.29755129704E+03  0.12500000000E+03 0.  0.
         25    1    1    2    0    0 -0.25931218331E+03  0.84751493834E+02  0.22854588697E+03  0.37720531090E+03  0.12500000000E+03 0.  0.
</event>
<event>
 5    0  0.5619558E-005  0.3919135E+03  0.7546771E-02  0.1046616E+00
         21   -1    0    0  502  501  0.00000000000E+00  0.00000000000E+00  0.49077648555E+03  0.49077648555E+03  0.00000000000E+00 0.  1.
         21   -1    0    0  501  502 -0.00000000000E+00 -0.00000000000E+00 -0.31296568357E+03  0.31296568357E+03  0.00000000000E+00 0.  1.
         25    1    1    2    0    0 -0.37104709522E+02  0.73895846130E+02 -0.77661870139E+02  0.16880083417E+03  0.12500000000E+03 0.  0.
         25    1    1    2    0    0 -0.12180066046E+03  0.13216994473E+03  0.26791532358E+03  0.34598831741E+03  0.12500000000E+03 0.  0.
         25    1    1    2    0    0  0.15890536999E+03 -0.20606579085E+03 -0.12442651457E+02  0.28895301754E+03  0.12500000000E+03 0.  0.
</event>
<event>
 5    0  0.5836906E-005  0.2543569E+03  0.7546771E-02  0.1110582E+00
         21   -1    0    0  502  501  0.00000000000E+00  0.00000000000E+00  0.57221191276E+03  0.57221191276E+03  0.00000000000E+00 0. -1.
         21   -1    0    0  501  502 -0.00000000000E+00 -0.00000000000E+00 -0.11306547297E+03  0.11306547297E+03  0.00000000000E+00 0. -1.
         25    1    1    2    0    0  0.91007570562E+02  0.12106138926E+03  0.25392571842E+03  0.32100079181E+03  0.12500000000E+03 0.  0.
         25    1    1    2    0    0 -0.75396287845E+02 -0.75926262560E+02  0.13681695557E+03  0.21399363752E+03  0.12500000000E+03 0.  0.
         25    1    1    2    0    0 -0.15611282717E+02 -0.45135126703E+02  0.68403765801E+02  0.15028295641E+03  0.12500000000E+03 0.  0.
</event>
<event>
 5    0  0.5619558E-005  0.2645081E+03  0.7546771E-02  0.1104465E+00
         21   -1    0    0  502  501  0.00000000000E+00  0.00000000000E+00  0.67828737117E+02  0.67828737117E+02  0.00000000000E+00 0. -1.
         21   -1    0    0  501  502 -0.00000000000E+00 -0.00000000000E+00 -0.10314877646E+04  0.10314877646E+04  0.00000000000E+00 0. -1.
         25    1    1    2    0    0 -0.16426065800E+02  0.88878914025E+02 -0.14331642435E+03  0.21055610769E+03  0.12500000000E+03 0.  0.
         25    1    1    2    0    0 -0.94780304926E+02 -0.73175436314E+02 -0.44685374831E+03  0.47920895553E+03  0.12500000000E+03 0.  0.
         25    1    1    2    0    0  0.11120637073E+03 -0.15703477711E+02 -0.37348885484E+03  0.40955143852E+03  0.12500000000E+03 0.  0.
</event>
<event>
 5    0  0.5619558E-005  0.2531907E+03  0.7546771E-02  0.1111305E+00
         21   -1    0    0  502  501  0.00000000000E+00  0.00000000000E+00  0.59168531157E+03  0.59168531157E+03  0.00000000000E+00 0. -1.
         21   -1    0    0  501  502 -0.00000000000E+00 -0.00000000000E+00 -0.10834394113E+03  0.10834394113E+03  0.00000000000E+00 0. -1.
         25    1    1    2    0    0  0.14034914124E+03  0.59954790743E+02  0.27280915276E+03  0.33666347027E+03  0.12500000000E+03 0.  0.
         25    1    1    2    0    0 -0.79328242826E+02 -0.35346430670E+02  0.84694142865E+02  0.17418506855E+03  0.12500000000E+03 0.  0.
         25    1    1    2    0    0 -0.61020898418E+02 -0.24608360073E+02  0.12583807482E+03  0.18918071388E+03  0.12500000000E+03 0.  0.
</event>
<event>
 5    0  0.5619558E-005  0.7255942E+03  0.7546771E-02  0.9674437E-01
         21   -1    0    0  502  501  0.00000000000E+00  0.00000000000E+00  0.33357530701E+03  0.33357530701E+03  0.00000000000E+00 0.  1.
         21   -1    0    0  501  502 -0.00000000000E+00 -0.00000000000E+00 -0.15783150111E+04  0.15783150111E+04  0.00000000000E+00 0.  1.
         25    1    1    2    0    0  0.63755253283E+02  0.11876436607E+03 -0.83827315022E+03  0.85819379009E+03  0.12500000000E+03 0.  0.
         25    1    1    2    0    0  0.31647243422E+03 -0.44508378595E+02 -0.52724014246E+03  0.62908104821E+03  0.12500000000E+03 0.  0.
         25    1    1    2    0    0 -0.38022768751E+03 -0.74255987478E+02  0.12077358856E+03  0.42461547984E+03  0.12500000000E+03 0.  0.
</event>
<event>
 5    0  0.5619558E-005  0.5857038E+03  0.7546771E-02  0.9935518E-01
         21   -1    0    0  502  501  0.00000000000E+00  0.00000000000E+00  0.27584516496E+04  0.27584516496E+04  0.00000000000E+00 0. -1.
         21   -1    0    0  501  502 -0.00000000000E+00 -0.00000000000E+00 -0.12436285142E+03  0.12436285142E+03  0.00000000000E+00 0. -1.
         25    1    1    2    0    0 -0.23508733358E+03 -0.31229219990E+03  0.61805126766E+03  0.74189274291E+03  0.12500000000E+03 0.  0.
         25    1    1    2    0    0  0.48317849204E+02  0.10992231574E+03  0.97851195193E+02  0.19904116772E+03  0.12500000000E+03 0.  0.
         25    1    1    2    0    0  0.18676948438E+03  0.20236988416E+03  0.19181863353E+04  0.19418805904E+04  0.12500000000E+03 0.  0.
</event>
<event>
 5    0  0.5619558E-005  0.2616566E+03  0.7546771E-02  0.1106152E+00
         21   -1    0    0  502  501  0.00000000000E+00  0.00000000000E+00  0.21826237391E+03  0.21826237391E+03  0.00000000000E+00 0.  1.
         21   -1    0    0  501  502 -0.00000000000E+00 -0.00000000000E+00 -0.31367839237E+03  0.31367839237E+03  0.00000000000E+00 0.  1.
         25    1    1    2    0    0 -0.18912865805E+02  0.77176579150E+02  0.76964664195E+02  0.16692058111E+03  0.12500000000E+03 0.  0.
         25    1    1    2    0    0 -0.61019267794E+02  0.17594700970E+02 -0.11011203576E+03  0.17827670898E+03  0.12500000000E+03 0.  0.
         25    1    1    2    0    0  0.79932133599E+02 -0.94771280120E+02 -0.62268646892E+02  0.18674347620E+03  0.12500000000E+03 0.  0.
</event>
<event>
 5    0  0.5619558E-005  0.2610479E+03  0.7546771E-02  0.1106515E+00
         21   -1    0    0  502  501  0.00000000000E+00  0.00000000000E+00  0.12369916024E+03  0.12369916024E+03  0.00000000000E+00 0.  1.
         21   -1    0    0  501  502 -0.00000000000E+00 -0.00000000000E+00 -0.55090101167E+03  0.55090101167E+03  0.00000000000E+00 0.  1.
         25    1    1    2    0    0  0.39645331409E+02 -0.74184582696E+01 -0.18530421274E+02  0.13264675774E+03  0.12500000000E+03 0.  0.
         25    1    1    2    0    0  0.63596117412E+02  0.88026022992E+02 -0.25720045820E+03  0.30589233821E+03  0.12500000000E+03 0.  0.
         25    1    1    2    0    0 -0.10324144882E+03 -0.80607564723E+02 -0.15147097195E+03  0.23606107597E+03  0.12500000000E+03 0.  0.
</event>
<event>
 5    0  0.5619558E-005  0.6113827E+03  0.7546771E-02  0.9882068E-01
         21   -1    0    0  502  501  0.00000000000E+00  0.00000000000E+00  0.23718712651E+03  0.23718712651E+03  0.00000000000E+00 0.  1.
         21   -1    0    0  501  502 -0.00000000000E+00 -0.00000000000E+00 -0.15759237627E+04  0.15759237627E+04  0.00000000000E+00 0.  1.
         25    1    1    2    0    0 -0.39916008162E+02  0.13035341411E+03 -0.12741394305E+04  0.12874943063E+04  0.12500000000E+03 0.  0.
         25    1    1    2    0    0 -0.19906511606E+03 -0.70051685929E+02 -0.29798924868E+02  0.24707718441E+03  0.12500000000E+03 0.  0.
         25    1    1    2    0    0  0.23898112423E+03 -0.60301728183E+02 -0.34798280752E+02  0.27853939847E+03  0.12500000000E+03 0.  0.
</event>
<event>
 5    0  0.5619558E-005  0.2172911E+03  0.7546771E-02  0.1135919E+00
         21   -1    0    0  502  501  0.00000000000E+00  0.00000000000E+00  0.48209214017E+03  0.48209214017E+03  0.00000000000E+00 0. -1.
         21   -1    0    0  501  502 -0.00000000000E+00 -0.00000000000E+00 -0.97938598369E+02  0.97938598369E+02  0.00000000000E+00 0. -1.
         25    1    1    2    0    0 -0.22893044289E+02 -0.11458719376E+02  0.41335289728E+02  0.13412307745E+03  0.12500000000E+03 0.  0.
         25    1    1    2    0    0 -0.14321005407E+02 -0.51453081265E+02  0.20521448577E+03  0.24615136794E+03  0.12500000000E+03 0.  0.
         25    1    1    2    0    0  0.37214049696E+02  0.62911800641E+02  0.13760376630E+03  0.19975629315E+03  0.12500000000E+03 0.  0.
</event>
<event>
 5    0  0.5619558E-005  0.3450371E+03  0.7546771E-02  0.1064671E+00
         21   -1    0    0  502  501  0.00000000000E+00  0.00000000000E+00  0.69753376941E+03  0.69753376941E+03  0.00000000000E+00 0.  1.
         21   -1    0    0  501  502 -0.00000000000E+00 -0.00000000000E+00 -0.17067355553E+03  0.17067355553E+03  0.00000000000E+00 0. -1.
         25    1    1    2    0    0  0.16288944567E+03 -0.18821531062E+03  0.32900795509E+03  0.43107912171E+03  0.12500000000E+03 0.  0.
         25    1    1    2    0    0 -0.42616022714E+02  0.26275378763E+02  0.13710089074E+03  0.19216705015E+03  0.12500000000E+03 0.  0.
         25    1    1    2    0    0 -0.12027342295E+03  0.16193993185E+03  0.60751368046E+02  0.24496115308E+03  0.12500000000E+03 0.  0.
</event>
<event>
 5    0  0.5619558E-005  0.7025017E+03  0.7546771E-02  0.9712964E-01
         21   -1    0    0  502  501  0.00000000000E+00  0.00000000000E+00  0.17081391994E+04  0.17081391994E+04  0.00000000000E+00 0.  1.
         21   -1    0    0  501  502 -0.00000000000E+00 -0.00000000000E+00 -0.28891590733E+03  0.28891590733E+03  0.00000000000E+00 0.  1.
         25    1    1    2    0    0 -0.30988167965E+03 -0.29649726855E+03  0.79219713859E+03  0.90947160045E+03  0.12500000000E+03 0.  0.
         25    1    1    2    0    0 -0.17961512744E+03 -0.58935936138E+02  0.33466815498E+03  0.40418165784E+03  0.12500000000E+03 0.  0.
         25    1    1    2    0    0  0.48949680709E+03  0.35543320469E+03  0.29235799848E+03  0.68340184842E+03  0.12500000000E+03 0.  0.
</event>
<event>
 5    0  0.5619558E-005  0.3662449E+03  0.7546771E-02  0.1056138E+00
         21   -1    0    0  502  501  0.00000000000E+00  0.00000000000E+00  0.71268615376E+03  0.71268615376E+03  0.00000000000E+00 0.  1.
         21   -1    0    0  501  502 -0.00000000000E+00 -0.00000000000E+00 -0.18821098446E+03  0.18821098446E+03  0.00000000000E+00 0.  1.
         25    1    1    2    0    0  0.84266648568E+01 -0.78708946966E+02  0.36830092356E+03  0.39690890304E+03  0.12500000000E+03 0.  0.
         25    1    1    2    0    0 -0.77061000424E+02  0.11870725904E+03 -0.95779662486E+02  0.21172754870E+03  0.12500000000E+03 0.  0.
         25    1    1    2    0    0  0.68634335567E+02 -0.39998312071E+02  0.25195390823E+03  0.29226068648E+03  0.12500000000E+03 0.  0.
</event>
<event>
 5    0  0.5619558E-005  0.2449978E+03  0.7546771E-02  0.1116508E+00
         21   -1    0    0  502  501  0.00000000000E+00  0.00000000000E+00  0.97751450383E+02  0.97751450383E+02  0.00000000000E+00 0. -1.
         21   -1    0    0  501  502 -0.00000000000E+00 -0.00000000000E+00 -0.61404612369E+03  0.61404612369E+03  0.00000000000E+00 0. -1.
         25    1    1    2    0    0  0.53036128312E+02  0.72739724574E+01 -0.28449834686E+03  0.31532530972E+03  0.12500000000E+03 0.  0.
         25    1    1    2    0    0 -0.34966581352E+02  0.75931334960E+02 -0.46739983540E+02  0.15747334854E+03  0.12500000000E+03 0.  0.
         25    1    1    2    0    0 -0.18069546960E+02 -0.83205307417E+02 -0.18505634291E+03  0.23899891581E+03  0.12500000000E+03 0.  0.
</event>
<event>
 5    0  0.5619558E-005  0.4203804E+03  0.7546771E-02  0.1036943E+00
         21   -1    0    0  502  501  0.00000000000E+00  0.00000000000E+00  0.26891075039E+03  0.26891075039E+03  0.00000000000E+00 0.  1.
         21   -1    0    0  501  502 -0.00000000000E+00 -0.00000000000E+00 -0.65716846337E+03  0.65716846337E+03  0.00000000000E+00 0.  1.
         25    1    1    2    0    0  0.62161353806E+02  0.82353707397E+02 -0.48550577181E+03  0.51184667772E+03  0.12500000000E+03 0.  0.
         25    1    1    2    0    0 -0.32365796540E+01  0.85357831241E+02 -0.40776161661E+02  0.15679327206E+03  0.12500000000E+03 0.  0.
         25    1    1    2    0    0 -0.58924774152E+02 -0.16771153864E+03  0.13802422048E+03  0.25743926399E+03  0.12500000000E+03 0.  0.
</event>
<event>
 5    0  0.5619558E-005  0.2850405E+03  0.7546771E-02  0.1092967E+00
         21   -1    0    0  502  501  0.00000000000E+00  0.00000000000E+00  0.38882472450E+03  0.38882472450E+03  0.00000000000E+00 0. -1.
         21   -1    0    0  501  502 -0.00000000000E+00 -0.00000000000E+00 -0.20895818620E+03  0.20895818620E+03  0.00000000000E+00 0. -1.
         25    1    1    2    0    0 -0.11758547773E+03 -0.51729510466E+02  0.24938770481E+01  0.17925821111E+03  0.12500000000E+03 0.  0.
         25    1    1    2    0    0  0.85703319891E+02 -0.87265631050E+02  0.14276353847E+03  0.22575822758E+03  0.12500000000E+03 0.  0.
         25    1    1    2    0    0  0.31882157841E+02  0.13899514152E+03  0.34609122785E+02  0.19276647202E+03  0.12500000000E+03 0.  0.
</event>
<event>
 5    0  0.5619558E-005  0.2742888E+03  0.7546771E-02  0.1098850E+00
         21   -1    0    0  502  501  0.00000000000E+00  0.00000000000E+00  0.36704995216E+02  0.36704995216E+02  0.00000000000E+00 0.  1.
         21   -1    0    0  501  502 -0.00000000000E+00 -0.00000000000E+00 -0.20497036135E+04  0.20497036135E+04  0.00000000000E+00 0.  1.
         25    1    1    2    0    0  0.12933552132E+02 -0.95005462085E+02 -0.11954168383E+04  0.12057527657E+04  0.12500000000E+03 0.  0.
         25    1    1    2    0    0  0.31135220018E+02 -0.37270876539E+02 -0.42591889004E+03  0.44653154542E+03  0.12500000000E+03 0.  0.
         25    1    1    2    0    0 -0.44068772150E+02  0.13227633862E+03 -0.39166288992E+03  0.43412429761E+03  0.12500000000E+03 0.  0.
</event>
<event>
 5    0  0.5619558E-005  0.2249458E+03  0.7546771E-02  0.1130249E+00
         21   -1    0    0  502  501  0.00000000000E+00  0.00000000000E+00  0.22267197938E+03  0.22267197938E+03  0.00000000000E+00 0.  1.
         21   -1    0    0  501  502 -0.00000000000E+00 -0.00000000000E+00 -0.22724288948E+03  0.22724288948E+03  0.00000000000E+00 0.  1.
         25    1    1    2    0    0  0.64759911015E+02  0.96867661338E+01 -0.56141119428E+02  0.15187002602E+03  0.12500000000E+03 0.  0.
         25    1    1    2    0    0 -0.76570585219E+02  0.16664407572E+02 -0.23516339138E+02  0.14939469605E+03  0.12500000000E+03 0.  0.
         25    1    1    2    0    0  0.11810674203E+02 -0.26351173706E+02  0.75086548467E+02  0.14865014679E+03  0.12500000000E+03 0.  0.
</event>
<event>
 5    0  0.5619558E-005  0.4785573E+03  0.7546771E-02  0.1019532E+00
         21   -1    0    0  502  501  0.00000000000E+00  0.00000000000E+00  0.24793346018E+03  0.24793346018E+03  0.00000000000E+00 0.  1.
         21   -1    0    0  501  502 -0.00000000000E+00 -0.00000000000E+00 -0.92370388583E+03  0.92370388583E+03  0.00000000000E+00 0.  1.
         25    1    1    2    0    0 -0.30048570118E+03  0.28179916302E+02  0.32649365647E+02  0.32829368769E+03  0.12500000000E+03 0.  0.
         25    1    1    2    0    0  0.32013562126E+02  0.26240882321E+02 -0.10298111297E+03  0.16716327855E+03  0.12500000000E+03 0.  0.
         25    1    1    2    0    0  0.26847213906E+03 -0.54420798623E+02 -0.60543867833E+03  0.67618037977E+03  0.12500000000E+03 0.  0.
</event>
<event>
 5    0  0.5619558E-005  0.3530661E+03  0.7546771E-02  0.1061364E+00
         21   -1    0    0  502  501  0.00000000000E+00  0.00000000000E+00  0.81220448574E+03  0.81220448574E+03  0.00000000000E+00 0.  1.
         21   -1    0    0  501  502 -0.00000000000E+00 -0.00000000000E+00 -0.15347819864E+03  0.15347819864E+03  0.00000000000E+00 0.  1.
         25    1    1    2    0    0  0.15896989713E+03  0.19728345532E+02  0.21759767297E+03  0.29771527185E+03  0.12500000000E+03 0.  0.
         25    1    1    2    0    0 -0.66045145709E+02  0.18360170749E+03  0.13261647941E+03  0.26699003516E+03  0.12500000000E+03 0.  0.
         25    1    1    2    0    0 -0.92924751420E+02 -0.20333005302E+03  0.30851213473E+03  0.40097737737E+03  0.12500000000E+03 0.  0.
</event>
<event>
 5    0  0.5619558E-005  0.2742437E+03  0.7546771E-02  0.1098875E+00
         21   -1    0    0  502  501  0.00000000000E+00  0.00000000000E+00  0.55591509081E+03  0.55591509081E+03  0.00000000000E+00 0. -1.
         21   -1    0    0  501  502 -0.00000000000E+00 -0.00000000000E+00 -0.13528978623E+03  0.13528978623E+03  0.00000000000E+00 0. -1.
         25    1    1    2    0    0 -0.53554291427E+02 -0.67275310527E+02  0.12260379668E+03  0.19506593885E+03  0.12500000000E+03 0.  0.
         25    1    1    2    0    0  0.72061386813E+02  0.57128424026E+02  0.33063550604E+03  0.36524147924E+03  0.12500000000E+03 0.  0.
         25    1    1    2    0    0 -0.18507095387E+02  0.10146886500E+02 -0.32613998139E+02  0.13089745895E+03  0.12500000000E+03 0.  0.
</event>
<event>
 5    0  0.5619558E-005  0.4296187E+03  0.7546771E-02  0.1033980E+00
         21   -1    0    0  502  501  0.00000000000E+00  0.00000000000E+00  0.73459503497E+03  0.73459503497E+03  0.00000000000E+00 0. -1.
         21   -1    0    0  501  502 -0.00000000000E+00 -0.00000000000E+00 -0.25125710826E+03  0.25125710826E+03  0.00000000000E+00 0. -1.
         25    1    1    2    0    0  0.21846789192E+03  0.26619858283E+03  0.13226198675E+03  0.38949728939E+03  0.12500000000E+03 0.  0.
         25    1    1    2    0    0 -0.16244326776E+03 -0.22436917182E+03  0.33488196570E+03  0.45221706232E+03  0.12500000000E+03 0.  0.
         25    1    1    2    0    0 -0.56024624164E+02 -0.41829411014E+02  0.16193974255E+02  0.14413779151E+03  0.12500000000E+03 0.  0.
</event>
<event>
 5    0  0.5619558E-005  0.2799785E+03  0.7546771E-02  0.1095701E+00
         21   -1    0    0  502  501  0.00000000000E+00  0.00000000000E+00  0.22126964106E+03  0.22126964106E+03  0.00000000000E+00 0. -1.
         21   -1    0    0  501  502 -0.00000000000E+00 -0.00000000000E+00 -0.35426430225E+03  0.35426430225E+03  0.00000000000E+00 0. -1.
         25    1    1    2    0    0  0.15501518437E+03  0.57039913952E+02 -0.42209356400E+02  0.21139983192E+03  0.12500000000E+03 0.  0.
         25    1    1    2    0    0 -0.10785902910E+03 -0.11964977252E+03 -0.37841664501E+02  0.20738039877E+03  0.12500000000E+03 0.  0.
         25    1    1    2    0    0 -0.47156155269E+02  0.62609858570E+02 -0.52943640294E+02  0.15675371261E+03  0.12500000000E+03 0.  0.
</event>
<event>
 5    0  0.5619558E-005  0.3181256E+03  0.7546771E-02  0.1076515E+00
         21   -1    0    0  502  501  0.00000000000E+00  0.00000000000E+00  0.29299843307E+03  0.29299843307E+03  0.00000000000E+00 0.  1.
         21   -1    0    0  501  502 -0.00000000000E+00 -0.00000000000E+00 -0.34540754798E+03  0.34540754798E+03  0.00000000000E+00 0.  1.
         25    1    1    2    0    0 -0.12238842332E+03 -0.11256331773E+03 -0.12028621768E+03  0.24029814986E+03  0.12500000000E+03 0.  0.
         25    1    1    2    0    0  0.87887437371E+02 -0.52023597498E+02  0.94253819398E+02  0.18692094269E+03  0.12500000000E+03 0.  0.
         25    1    1    2    0    0  0.34500985953E+02  0.16458691523E+03 -0.26376716628E+02  0.21118688850E+03  0.12500000000E+03 0.  0.
</event>
<event>
 5    0  0.5619558E-005  0.4481875E+03  0.7546771E-02  0.1028264E+00
         21   -1    0    0  502  501  0.00000000000E+00  0.00000000000E+00  0.33635674998E+03  0.33635674998E+03  0.00000000000E+00 0.  1.
         21   -1    0    0  501  502 -0.00000000000E+00 -0.00000000000E+00 -0.59719945466E+03  0.59719945466E+03  0.00000000000E+00 0.  1.
         25    1    1    2    0    0  0.15382833177E+03  0.10392449953E+03  0.68454690244E+00  0.22380555369E+03  0.12500000000E+03 0.  0.
         25    1    1    2    0    0 -0.64674190769E+02 -0.15939624975E+03 -0.42717893290E+03  0.47717581257E+03  0.12500000000E+03 0.  0.
         25    1    1    2    0    0 -0.89154140997E+02  0.55471750226E+02  0.16565168131E+03  0.23257483839E+03  0.12500000000E+03 0.  0.
</event>
<event>
 5    0  0.5619558E-005  0.3623732E+03  0.7546771E-02  0.1057648E+00
         21   -1    0    0  502  501  0.00000000000E+00  0.00000000000E+00  0.15322537207E+04  0.15322537207E+04  0.00000000000E+00 0.  1.
         21   -1    0    0  501  502 -0.00000000000E+00 -0.00000000000E+00 -0.85700120201E+02  0.85700120201E+02  0.00000000000E+00 0.  1.
         25    1    1    2    0    0  0.12526989029E+03  0.14718223941E+03  0.10385254488E+04  0.10637270631E+04  0.12500000000E+03 0.  0.
         25    1    1    2    0    0 -0.15614612783E+02 -0.14089495233E+03  0.12724638457E+03  0.22784171285E+03  0.12500000000E+03 0.  0.
         25    1    1    2    0    0 -0.10965527750E+03 -0.62872870785E+01  0.28078176714E+03  0.32638506495E+03  0.12500000000E+03 0.  0.
</event>
<event>
 5    0  0.5619558E-005  0.5160052E+03  0.7546771E-02  0.1009684E+00
         21   -1    0    0  502  501  0.00000000000E+00  0.00000000000E+00  0.13069380217E+04  0.13069380217E+04  0.00000000000E+00 0.  1.
         21   -1    0    0  501  502 -0.00000000000E+00 -0.00000000000E+00 -0.20372918478E+03  0.20372918478E+03  0.00000000000E+00 0.  1.
         25    1    1    2    0    0 -0.87786181314E+02  0.53206842442E+02  0.20672611623E+03  0.26248441639E+03  0.12500000000E+03 0.  0.
         25    1    1    2    0    0  0.34914891833E+03 -0.22625947234E+03  0.77698539216E+03  0.89018515806E+03  0.12500000000E+03 0.  0.
         25    1    1    2    0    0 -0.26136273701E+03  0.17305262990E+03  0.11949732852E+03  0.35799763203E+03  0.12500000000E+03 0.  0.
</event>
<event>
 5    0  0.5619558E-005  0.3651764E+03  0.7546771E-02  0.1056553E+00
         21   -1    0    0  502  501  0.00000000000E+00  0.00000000000E+00  0.77873233650E+03  0.77873233650E+03  0.00000000000E+00 0.  1.
         21   -1    0    0  501  502 -0.00000000000E+00 -0.00000000000E+00 -0.17124471244E+03  0.17124471244E+03  0.00000000000E+00 0.  1.
         25    1    1    2    0    0 -0.12000678719E+03 -0.30859219596E+02  0.11473108738E+03  0.21010031608E+03  0.12500000000E+03 0.  0.
         25    1    1    2    0    0  0.20269724290E+03 -0.17151923512E+03  0.32163129000E+03  0.43540407325E+03  0.12500000000E+03 0.  0.
         25    1    1    2    0    0 -0.82690455710E+02  0.20237845472E+03  0.17112524668E+03  0.30447265961E+03  0.12500000000E+03 0.  0.
</event>
<event>
 5    0  0.6774934E-005  0.3513262E+03  0.7546771E-02  0.1062072E+00
         21   -1    0    0  502  501  0.00000000000E+00  0.00000000000E+00  0.53032387212E+03  0.53032387212E+03  0.00000000000E+00 0.  1.
         21   -1    0    0  501  502 -0.00000000000E+00 -0.00000000000E+00 -0.23274481466E+03  0.23274481466E+03  0.00000000000E+00 0.  1.
         25    1    1    2    0    0 -0.47851673375E+02  0.97733174754E+02 -0.30634101246E+02  0.16853784219E+03  0.12500000000E+03 0.  0.
         25    1    1    2    0    0  0.17801910158E+03  0.72757720911E+02  0.78560959114E+02  0.24244857347E+03  0.12500000000E+03 0.  0.
         25    1    1    2    0    0 -0.13016742821E+03 -0.17049089566E+03  0.24965219960E+03  0.35208227112E+03  0.12500000000E+03 0.  0.
</event>
<event>
 5    0  0.5619558E-005  0.1990856E+03  0.7546771E-02  0.1150513E+00
         21   -1    0    0  502  501  0.00000000000E+00  0.00000000000E+00  0.42441540891E+03  0.42441540891E+03  0.00000000000E+00 0.  1.
         21   -1    0    0  501  502 -0.00000000000E+00 -0.00000000000E+00 -0.93387478226E+02  0.93387478226E+02  0.00000000000E+00 0.  1.
         25    1    1    2    0    0 -0.14291405448E+01 -0.16576837404E+02  0.14711299963E+03  0.19376291864E+03  0.12500000000E+03 0.  0.
         25    1    1    2    0    0 -0.34239808601E+02  0.37938417191E+02  0.91424425908E+02  0.16308008353E+03  0.12500000000E+03 0.  0.
         25    1    1    2    0    0  0.35668949146E+02 -0.21361579787E+02  0.92490505144E+02  0.16095988496E+03  0.12500000000E+03 0.  0.
</event>
<event>
 5    0  0.5619558E-005  0.3056514E+03  0.7546771E-02  0.1082449E+00
         21   -1    0    0  502  501  0.00000000000E+00  0.00000000000E+00  0.27049277841E+03  0.27049277841E+03  0.00000000000E+00 0.  1.
         21   -1    0    0  501  502 -0.00000000000E+00 -0.00000000000E+00 -0.34537992115E+03  0.34537992115E+03  0.00000000000E+00 0.  1.
         25    1    1    2    0    0 -0.70882648237E+01 -0.17181577531E+03 -0.11826937754E+03  0.24327669393E+03  0.12500000000E+03 0.  0.
         25    1    1    2    0    0  0.70464440636E+02  0.17895591982E+03  0.34781849978E+02  0.23200266318E+03  0.12500000000E+03 0.  0.
         25    1    1    2    0    0 -0.63376175813E+02 -0.71401445150E+01  0.86003848280E+01  0.14059334246E+03  0.12500000000E+03 0.  0.
</event>
<event>
 5    0  0.5619558E-005  0.2919399E+03  0.7546771E-02  0.1089341E+00
         21   -1    0    0  502  501  0.00000000000E+00  0.00000000000E+00  0.28604037068E+03  0.28604037068E+03  0.00000000000E+00 0. -1.
         21   -1    0    0  501  502 -0.00000000000E+00 -0.00000000000E+00 -0.29796116865E+03  0.29796116865E+03  0.00000000000E+00 0.  1.
         25    1    1    2    0    0 -0.19841667232E+03 -0.32596929908E+02  0.97719197646E+01  0.23696460941E+03  0.12500000000E+03 0.  0.
         25    1    1    2    0    0  0.16200954593E+03  0.58700743351E+02 -0.24024851149E+02  0.21423133224E+03  0.12500000000E+03 0.  0.
         25    1    1    2    0    0  0.36407126395E+02 -0.26103813443E+02  0.23321334089E+01  0.13280559768E+03  0.12500000000E+03 0.  0.
</event>
<event>
 5    0  0.5619558E-005  0.2128358E+03  0.7546771E-02  0.1139340E+00
         21   -1    0    0  502  501  0.00000000000E+00  0.00000000000E+00  0.33556262508E+02  0.33556262508E+02  0.00000000000E+00 0.  1.
         21   -1    0    0  501  502 -0.00000000000E+00 -0.00000000000E+00 -0.13499445561E+04  0.13499445561E+04  0.00000000000E+00 0.  1.
         25    1    1    2    0    0 -0.49808314953E+02  0.75007983534E-01 -0.23598841245E+03  0.27165493678E+03  0.12500000000E+03 0.  0.
         25    1    1    2    0    0 -0.14942368811E+01  0.17370747388E+02 -0.50354359713E+03  0.51911957179E+03  0.12500000000E+03 0.  0.
         25    1    1    2    0    0  0.51302551834E+02 -0.17445755371E+02 -0.57685628398E+03  0.59272631000E+03  0.12500000000E+03 0.  0.
</event>
<event>
 5    0  0.5619558E-005  0.3275422E+03  0.7546771E-02  0.1072230E+00
         21   -1    0    0  502  501  0.00000000000E+00  0.00000000000E+00  0.10208501020E+04  0.10208501020E+04  0.00000000000E+00 0. -1.
         21   -1    0    0  501  502 -0.00000000000E+00 -0.00000000000E+00 -0.10509269780E+03  0.10509269780E+03  0.00000000000E+00 0. -1.
         25    1    1    2    0    0  0.13630675063E+03  0.21352821241E+02  0.38983144741E+03  0.43200582245E+03  0.12500000000E+03 0.  0.
         25    1    1    2    0    0 -0.16349654657E+03 -0.10696112472E+03  0.12284242071E+03  0.26246345130E+03  0.12500000000E+03 0.  0.
         25    1    1    2    0    0  0.27189795941E+02  0.85608303481E+02  0.40308353604E+03  0.43147352602E+03  0.12500000000E+03 0.  0.
</event>
<event>
 5    0  0.5619558E-005  0.2907149E+03  0.7546771E-02  0.1089976E+00
         21   -1    0    0  502  501  0.00000000000E+00  0.00000000000E+00  0.18808089090E+03  0.18808089090E+03  0.00000000000E+00 0. -1.
         21   -1    0    0  501  502 -0.00000000000E+00 -0.00000000000E+00 -0.44935542779E+03  0.44935542779E+03  0.00000000000E+00 0. -1.
         25    1    1    2    0    0 -0.10562340850E+03  0.13122058156E+03 -0.17524148611E+02  0.21049285316E+03  0.12500000000E+03 0.  0.
         25    1    1    2    0    0 -0.18972871239E+02 -0.36112637446E+02 -0.31972561592E+02  0.13531938930E+03  0.12500000000E+03 0.  0.
         25    1    1    2    0    0  0.12459627974E+03 -0.95107944117E+02 -0.21177782669E+03  0.29162407623E+03  0.12500000000E+03 0.  0.
</event>
<event>
 5    0  0.5619558E-005  0.3037604E+03  0.7546771E-02  0.1083376E+00
         21   -1    0    0  502  501  0.00000000000E+00  0.00000000000E+00  0.59178582324E+02  0.59178582324E+02  0.00000000000E+00 0. -1.
         21   -1    0    0  501  502 -0.00000000000E+00 -0.00000000000E+00 -0.15591850990E+04  0.15591850990E+04  0.00000000000E+00 0. -1.
         25    1    1    2    0    0  0.10418914430E+03  0.25174872837E+02 -0.39033488645E+03  0.42364545978E+03  0.12500000000E+03 0.  0.
         25    1    1    2    0    0  0.38999440593E+02  0.13881786991E+03 -0.51563060919E+03  0.54981022408E+03  0.12500000000E+03 0.  0.
         25    1    1    2    0    0 -0.14318858489E+03 -0.16399274274E+03 -0.59404102104E+03  0.64490799746E+03  0.12500000000E+03 0.  0.
</event>
<event>
 5    0  0.5619558E-005  0.2844324E+03  0.7546771E-02  0.1093292E+00
         21   -1    0    0  502  501  0.00000000000E+00  0.00000000000E+00  0.38351956436E+03  0.38351956436E+03  0.00000000000E+00 0.  1.
         21   -1    0    0  501  502 -0.00000000000E+00 -0.00000000000E+00 -0.21094570392E+03  0.21094570392E+03  0.00000000000E+00 0.  1.
         25    1    1    2    0    0  0.11526769603E+03  0.50033718494E+02  0.12332046453E+00  0.17724285583E+03  0.12500000000E+03 0.  0.
         25    1    1    2    0    0 -0.57982637328E+02  0.92873514151E+02  0.20589291945E+02  0.16744072027E+03  0.12500000000E+03 0.  0.
         25    1    1    2    0    0 -0.57285058698E+02 -0.14290723265E+03  0.15186124803E+03  0.24978169218E+03  0.12500000000E+03 0.  0.
</event>
<event>
 5    0  0.5619558E-005  0.3573440E+03  0.7546771E-02  0.1059641E+00
         21   -1    0    0  502  501  0.00000000000E+00  0.00000000000E+00  0.35376264932E+03  0.35376264932E+03  0.00000000000E+00 0.  1.
         21   -1    0    0  501  502 -0.00000000000E+00 -0.00000000000E+00 -0.36096152985E+03  0.36096152985E+03  0.00000000000E+00 0.  1.
         25    1    1    2    0    0  0.30119734411E+01 -0.24544758721E+02 -0.11084001302E+03  0.16888465191E+03  0.12500000000E+03 0.  0.
         25    1    1    2    0    0  0.86374853476E+02 -0.68341265347E+02 -0.15727217953E+03  0.22910845099E+03  0.12500000000E+03 0.  0.
         25    1    1    2    0    0 -0.89386826917E+02  0.92886024068E+02  0.26091331201E+03  0.31673107627E+03  0.12500000000E+03 0.  0.
</event>
<event>
 5    0  0.5619558E-005  0.4187703E+03  0.7546771E-02  0.1037467E+00
         21   -1    0    0  502  501  0.00000000000E+00  0.00000000000E+00  0.10010165262E+03  0.10010165262E+03  0.00000000000E+00 0.  1.
         21   -1    0    0  501  502 -0.00000000000E+00 -0.00000000000E+00 -0.17519046116E+04  0.17519046116E+04  0.00000000000E+00 0.  1.
         25    1    1    2    0    0 -0.18690132869E+03  0.12895959154E+03 -0.23314138996E+03  0.34862958944E+03  0.12500000000E+03 0.  0.
         25    1    1    2    0    0  0.16774984847E+03 -0.21627158806E+03 -0.11929926254E+04  0.12303535328E+04  0.12500000000E+03 0.  0.
         25    1    1    2    0    0  0.19151480224E+02  0.87311996519E+02 -0.22566894357E+03  0.27302314192E+03  0.12500000000E+03 0.  0.
</event>
<event>
 5    0  0.5619558E-005  0.2907324E+03  0.7546771E-02  0.1089967E+00
         21   -1    0    0  502  501  0.00000000000E+00  0.00000000000E+00  0.56260010275E+03  0.56260010275E+03  0.00000000000E+00 0.  1.
         21   -1    0    0  501  502 -0.00000000000E+00 -0.00000000000E+00 -0.15024051877E+03  0.15024051877E+03  0.00000000000E+00 0.  1.
         25    1    1    2    0    0 -0.10660952687E+03  0.14858246543E+03  0.70021937131E+02  0.23231532866E+03  0.12500000000E+03 0.  0.
         25    1    1    2    0    0  0.94669969427E+02 -0.21170231997E+02  0.15506385601E+03  0.22154092461E+03  0.12500000000E+03 0.  0.
         25    1    1    2    0    0  0.11939557443E+02 -0.12741223343E+03  0.18727379084E+03  0.25898436824E+03  0.12500000000E+03 0.  0.
</event>
<event>
 5    0  0.5619558E-005  0.2989638E+03  0.7546771E-02  0.1085760E+00
         21   -1    0    0  502  501  0.00000000000E+00  0.00000000000E+00  0.12551500142E+03  0.12551500142E+03  0.00000000000E+00 0. -1.
         21   -1    0    0  501  502 -0.00000000000E+00 -0.00000000000E+00 -0.71210094755E+03  0.71210094755E+03  0.00000000000E+00 0. -1.
         25    1    1    2    0    0  0.11683337345E+02 -0.53769092023E+02 -0.18369705173E+03  0.22890439586E+03  0.12500000000E+03 0.  0.
         25    1    1    2    0    0 -0.55211236227E+02  0.11434641854E+03  0.22715727262E+01  0.17819524147E+03  0.12500000000E+03 0.  0.
         25    1    1    2    0    0  0.43527898881E+02 -0.60577326518E+02 -0.40516046712E+03  0.43051631164E+03  0.12500000000E+03 0.  0.
</event>
<event>
 5    0  0.5619558E-005  0.4210760E+03  0.7546771E-02  0.1036717E+00
         21   -1    0    0  502  501  0.00000000000E+00  0.00000000000E+00  0.40908358540E+03  0.40908358540E+03  0.00000000000E+00 0.  1.
         21   -1    0    0  501  502 -0.00000000000E+00 -0.00000000000E+00 -0.43342002425E+03  0.43342002425E+03  0.00000000000E+00 0.  1.
         25    1    1    2    0    0 -0.32888059343E+03  0.40241007716E+02 -0.98732977947E+02  0.36763430793E+03  0.12500000000E+03 0.  0.
         25    1    1    2    0    0  0.50101404627E+02 -0.44652568003E+02 -0.41898060744E+02  0.14793393819E+03  0.12500000000E+03 0.  0.
         25    1    1    2    0    0  0.27877918880E+03  0.44115602871E+01  0.11629459983E+03  0.32693536352E+03  0.12500000000E+03 0.  0.
</event>
<event>
 5    0  0.5619558E-005  0.3062359E+03  0.7546771E-02  0.1082164E+00
         21   -1    0    0  502  501  0.00000000000E+00  0.00000000000E+00  0.84783133850E+02  0.84783133850E+02  0.00000000000E+00 0. -1.
         21   -1    0    0  501  502 -0.00000000000E+00 -0.00000000000E+00 -0.11061213670E+04  0.11061213670E+04  0.00000000000E+00 0. -1.
         25    1    1    2    0    0  0.48465910446E+02  0.17945665936E+03 -0.27911066186E+03  0.35788461636E+03  0.12500000000E+03 0.  0.
         25    1    1    2    0    0 -0.10843742438E+02 -0.84356871400E+02 -0.59691245431E+03  0.61576224845E+03  0.12500000000E+03 0.  0.
         25    1    1    2    0    0 -0.37622168008E+02 -0.95099787955E+02 -0.14531511697E+03  0.21725763603E+03  0.12500000000E+03 0.  0.
</event>
<event>
 5    0  0.5619558E-005  0.2438920E+03  0.7546771E-02  0.1117227E+00
         21   -1    0    0  502  501  0.00000000000E+00  0.00000000000E+00  0.29823342714E+03  0.29823342714E+03  0.00000000000E+00 0. -1.
         21   -1    0    0  501  502 -0.00000000000E+00 -0.00000000000E+00 -0.19945210309E+03  0.19945210309E+03  0.00000000000E+00 0. -1.
         25    1    1    2    0    0 -0.81166487888E+02  0.35355852374E+02  0.69253950022E+02  0.16810456462E+03  0.12500000000E+03 0.  0.
         25    1    1    2    0    0  0.13403268041E+03 -0.54130297105E+02  0.21973167869E+02  0.19236077716E+03  0.12500000000E+03 0.  0.
         25    1    1    2    0    0 -0.52866192525E+02  0.18774444731E+02  0.75542061654E+01  0.13722018845E+03  0.12500000000E+03 0.  0.
</event>
<event>
 5    0  0.5619558E-005  0.3503343E+03  0.7546771E-02  0.1062478E+00
         21   -1    0    0  502  501  0.00000000000E+00  0.00000000000E+00  0.13573428745E+04  0.13573428745E+04  0.00000000000E+00 0. -1.
         21   -1    0    0  501  502 -0.00000000000E+00 -0.00000000000E+00 -0.90422352764E+02  0.90422352764E+02  0.00000000000E+00 0. -1.
         25    1    1    2    0    0  0.21269643630E+03 -0.38072477813E+02  0.56766015064E+03  0.62012283800E+03  0.12500000000E+03 0.  0.
         25    1    1    2    0    0 -0.65352298623E+02 -0.11829197220E+03  0.21295323465E+03  0.28149243999E+03  0.12500000000E+03 0.  0.
         25    1    1    2    0    0 -0.14734413768E+03  0.15636445001E+03  0.48630713643E+03  0.54614994926E+03  0.12500000000E+03 0.  0.
</event>
<event>
 5    0  0.6225054E-005  0.3270465E+03  0.7546771E-02  0.1072451E+00
         21   -1    0    0  502  501  0.00000000000E+00  0.00000000000E+00  0.57990232156E+03  0.57990232156E+03  0.00000000000E+00 0. -1.
         21   -1    0    0  501  502 -0.00000000000E+00 -0.00000000000E+00 -0.18444388598E+03  0.18444388598E+03  0.00000000000E+00 0. -1.
         25    1    1    2    0    0  0.91802901285E+01  0.96571184710E+02  0.26102716081E+03  0.30523834969E+03  0.12500000000E+03 0.  0.
         25    1    1    2    0    0 -0.12762089575E+03 -0.16806273692E+03  0.11728533009E+03  0.27186950036E+03  0.12500000000E+03 0.  0.
         25    1    1    2    0    0  0.11844060562E+03  0.71491552211E+02  0.17145944683E+02  0.18723835749E+03  0.12500000000E+03 0.  0.
</event>
<event>
 5    0  0.5619558E-005  0.4072785E+03  0.7546771E-02  0.1041288E+00
         21   -1    0    0  502  501  0.00000000000E+00  0.00000000000E+00  0.50983971975E+03  0.50983971975E+03  0.00000000000E+00 0. -1.
         21   -1    0    0  501  502 -0.00000000000E+00 -0.00000000000E+00 -0.32534884406E+03  0.32534884406E+03  0.00000000000E+00 0.  1.
         25    1    1    2    0    0  0.29753404889E+02  0.16218876599E+03  0.14973988421E+03  0.25541631475E+03  0.12500000000E+03 0.  0.
         25    1    1    2    0    0 -0.15496021775E+03  0.10847143896E+03  0.10343337440E+03  0.24920310009E+03  0.12500000000E+03 0.  0.
         25    1    1    2    0    0  0.12520681286E+03 -0.27066020495E+03 -0.68682382922E+02  0.33056914897E+03  0.12500000000E+03 0.  0.
</event>
<event>
 5    0  0.5619558E-005  0.3074520E+03  0.7546771E-02  0.1081574E+00
         21   -1    0    0  502  501  0.00000000000E+00  0.00000000000E+00  0.59505881167E+03  0.59505881167E+03  0.00000000000E+00 0. -1.
         21   -1    0    0  501  502 -0.00000000000E+00 -0.00000000000E+00 -0.15885274181E+03  0.15885274181E+03  0.00000000000E+00 0. -1.
         25    1    1    2    0    0  0.46525053137E+02 -0.39238771387E+02 -0.68147240515E+02  0.15483316227E+03  0.12500000000E+03 0.  0.
         25    1    1    2    0    0 -0.73197970754E+02 -0.36733513145E+02  0.13684063470E+03  0.20262688177E+03  0.12500000000E+03 0.  0.
         25    1    1    2    0    0  0.26672917617E+02  0.75972284532E+02  0.36751267568E+03  0.39645150944E+03  0.12500000000E+03 0.  0.
</event>
<event>
 5    0  0.5619558E-005  0.3190513E+03  0.7546771E-02  0.1076087E+00
         21   -1    0    0  502  501  0.00000000000E+00  0.00000000000E+00  0.18219404565E+03  0.18219404565E+03  0.00000000000E+00 0. -1.
         21   -1    0    0  501  502 -0.00000000000E+00 -0.00000000000E+00 -0.55871064499E+03  0.55871064499E+03  0.00000000000E+00 0. -1.
         25    1    1    2    0    0  0.12842049312E+03 -0.32663631817E+02 -0.92203977231E+02  0.20416980510E+03  0.12500000000E+03 0.  0.
         25    1    1    2    0    0  0.10256045244E+03 -0.11958986754E+01 -0.20340169918E+03  0.25984096637E+03  0.12500000000E+03 0.  0.
         25    1    1    2    0    0 -0.23098094556E+03  0.33859530493E+02 -0.80910922935E+02  0.27689391916E+03  0.12500000000E+03 0.  0.
</event>
<event>
 5    0  0.5619558E-005  0.3160519E+03  0.7546771E-02  0.1077481E+00
         21   -1    0    0  502  501  0.00000000000E+00  0.00000000000E+00  0.34464049869E+03  0.34464049869E+03  0.00000000000E+00 0. -1.
         21   -1    0    0  501  502 -0.00000000000E+00 -0.00000000000E+00 -0.28983479340E+03  0.28983479340E+03  0.00000000000E+00 0. -1.
         25    1    1    2    0    0 -0.13900185563E+03  0.13054933993E+03  0.15385094037E+01  0.22801757177E+03  0.12500000000E+03 0.  0.
         25    1    1    2    0    0 -0.67508984949E+01 -0.72288358793E+02  0.12726194240E+03  0.19259227251E+03  0.12500000000E+03 0.  0.
         25    1    1    2    0    0  0.14575275412E+03 -0.58260981133E+02 -0.73994746509E+02  0.21386544781E+03  0.12500000000E+03 0.  0.
</event>
<event>
 5    0  0.5619558E-005  0.3097010E+03  0.7546771E-02  0.1080489E+00
         21   -1    0    0  502  501  0.00000000000E+00  0.00000000000E+00  0.17685146944E+03  0.17685146944E+03  0.00000000000E+00 0.  1.
         21   -1    0    0  501  502 -0.00000000000E+00 -0.00000000000E+00 -0.54234628089E+03  0.54234628089E+03  0.00000000000E+00 0.  1.
         25    1    1    2    0    0 -0.18179871476E+03 -0.79717001863E+02 -0.11644503617E+03  0.26189696356E+03  0.12500000000E+03 0.  0.
         25    1    1    2    0    0  0.38230402034E+02  0.11347114622E+02 -0.21545833379E+03  0.25226496834E+03  0.12500000000E+03 0.  0.
         25    1    1    2    0    0  0.14356831273E+03  0.68369887241E+02 -0.33591441491E+02  0.20503581844E+03  0.12500000000E+03 0.  0.
</event>
<event>
 5    0  0.5619558E-005  0.2383491E+03  0.7546771E-02  0.1120898E+00
         21   -1    0    0  502  501  0.00000000000E+00  0.00000000000E+00  0.48179499375E+02  0.48179499375E+02  0.00000000000E+00 0. -1.
         21   -1    0    0  501  502 -0.00000000000E+00 -0.00000000000E+00 -0.11791379733E+04  0.11791379733E+04  0.00000000000E+00 0. -1.
         25    1    1    2    0    0  0.17643728319E+02 -0.11056961114E+03 -0.48727226691E+03  0.51536026443E+03  0.12500000000E+03 0.  0.
         25    1    1    2    0    0  0.34262391161E+02  0.71293743823E+02 -0.21719433557E+03  0.26278334948E+03  0.12500000000E+03 0.  0.
         25    1    1    2    0    0 -0.51906119480E+02  0.39275867318E+02 -0.42649187143E+03  0.44917385876E+03  0.12500000000E+03 0.  0.
</event>
<event>
 5    0  0.6738165E-005  0.2962908E+03  0.7546771E-02  0.1087110E+00
         21   -1    0    0  502  501  0.00000000000E+00  0.00000000000E+00  0.51877228519E+03  0.51877228519E+03  0.00000000000E+00 0.  1.
         21   -1    0    0  501  502 -0.00000000000E+00 -0.00000000000E+00 -0.16922303786E+03  0.16922303786E+03  0.00000000000E+00 0.  1.
         25    1    1    2    0    0 -0.93373729013E+02 -0.36206809591E+02  0.33108253606E+02  0.16355654309E+03  0.12500000000E+03 0.  0.
         25    1    1    2    0    0 -0.16894518825E+02 -0.11081358574E+03  0.23265433034E+03  0.28691133295E+03  0.12500000000E+03 0.  0.
         25    1    1    2    0    0  0.11026824784E+03  0.14702039533E+03  0.83786663384E+02  0.23752744701E+03  0.12500000000E+03 0.  0.
</event>
<event>
 5    0  0.5619558E-005  0.3069079E+03  0.7546771E-02  0.1081837E+00
         21   -1    0    0  502  501  0.00000000000E+00  0.00000000000E+00  0.11417449040E+03  0.11417449040E+03  0.00000000000E+00 0. -1.
         21   -1    0    0  501  502 -0.00000000000E+00 -0.00000000000E+00 -0.82498714734E+03  0.82498714734E+03  0.00000000000E+00 0. -1.
         25    1    1    2    0    0 -0.14568561443E+03  0.35359598716E+02 -0.13670599391E+03  0.23830259806E+03  0.12500000000E+03 0.  0.
         25    1    1    2    0    0  0.60628979012E+02 -0.87109992563E+02 -0.81768663605E+02  0.18323519926E+03  0.12500000000E+03 0.  0.
         25    1    1    2    0    0  0.85056635415E+02  0.51750393847E+02 -0.49233799943E+03  0.51762384042E+03  0.12500000000E+03 0.  0.
</event>
<event>
 5    0  0.6247723E-005  0.2920604E+03  0.7546771E-02  0.1089278E+00
         21   -1    0    0  502  501  0.00000000000E+00  0.00000000000E+00  0.71555894803E+02  0.71555894803E+02  0.00000000000E+00 0.  1.
         21   -1    0    0  501  502 -0.00000000000E+00 -0.00000000000E+00 -0.11920650736E+04  0.11920650736E+04  0.00000000000E+00 0.  1.
         25    1    1    2    0    0 -0.14846789403E+03  0.11340492905E+02 -0.38821785544E+03  0.43417672164E+03  0.12500000000E+03 0.  0.
         25    1    1    2    0    0  0.41497911749E+02  0.21145736498E+02 -0.60330877289E+03  0.61787999992E+03  0.12500000000E+03 0.  0.
         25    1    1    2    0    0  0.10696998228E+03 -0.32486229403E+02 -0.12898255043E+03  0.21156424681E+03  0.12500000000E+03 0.  0.
</event>
<event>
 5    0  0.5619558E-005  0.4339130E+03  0.7546771E-02  0.1032631E+00
         21   -1    0    0  502  501  0.00000000000E+00  0.00000000000E+00  0.40604994464E+03  0.40604994464E+03  0.00000000000E+00 0.  1.
         21   -1    0    0  501  502 -0.00000000000E+00 -0.00000000000E+00 -0.46368793098E+03  0.46368793098E+03  0.00000000000E+00 0.  1.
         25    1    1    2    0    0 -0.15348286256E+03  0.19050219026E+03 -0.87399751374E+02  0.28829115514E+03  0.12500000000E+03 0.  0.
         25    1    1    2    0    0  0.60980971865E+02 -0.33799554110E+03  0.34282526884E+01  0.36550843718E+03  0.12500000000E+03 0.  0.
         25    1    1    2    0    0  0.92501890697E+02  0.14749335083E+03  0.26333512345E+02  0.21593828330E+03  0.12500000000E+03 0.  0.
</event>
<event>
 5    0  0.5619558E-005  0.2855902E+03  0.7546771E-02  0.1092674E+00
         21   -1    0    0  502  501  0.00000000000E+00  0.00000000000E+00  0.48697356728E+02  0.48697356728E+02  0.00000000000E+00 0.  1.
         21   -1    0    0  501  502 -0.00000000000E+00 -0.00000000000E+00 -0.16748701061E+04  0.16748701061E+04  0.00000000000E+00 0.  1.
         25    1    1    2    0    0  0.94110909634E+02  0.35109452173E+01 -0.11635733046E+04  0.11740515429E+04  0.12500000000E+03 0.  0.
         25    1    1    2    0    0 -0.79594178520E+02 -0.68024539942E+01 -0.14312145021E+03  0.20613164761E+03  0.12500000000E+03 0.  0.
         25    1    1    2    0    0 -0.14516731113E+02  0.32915087769E+01 -0.31947799450E+03  0.34338427233E+03  0.12500000000E+03 0.  0.
</event>
<event>
 5    0  0.5619558E-005  0.2759317E+03  0.7546771E-02  0.1097932E+00
         21   -1    0    0  502  501  0.00000000000E+00  0.00000000000E+00  0.12175606450E+03  0.12175606450E+03  0.00000000000E+00 0. -1.
         21   -1    0    0  501  502 -0.00000000000E+00 -0.00000000000E+00 -0.62533495561E+03  0.62533495561E+03  0.00000000000E+00 0. -1.
         25    1    1    2    0    0  0.55934184908E+02 -0.95626618266E+02 -0.32579059228E+03  0.36611144912E+03  0.12500000000E+03 0.  0.
         25    1    1    2    0    0  0.19269258016E+02  0.12046673433E+03 -0.40890586984E+02  0.17938946036E+03  0.12500000000E+03 0.  0.
         25    1    1    2    0    0 -0.75203442924E+02 -0.24840116060E+02 -0.13689771185E+03  0.20159011063E+03  0.12500000000E+03 0.  0.
</event>
<event>
 5    0  0.5619558E-005  0.3820860E+03  0.7546771E-02  0.1050165E+00
         21   -1    0    0  502  501  0.00000000000E+00  0.00000000000E+00  0.59903421250E+03  0.59903421250E+03  0.00000000000E+00 0.  1.
         21   -1    0    0  501  502 -0.00000000000E+00 -0.00000000000E+00 -0.24370842024E+03  0.24370842024E+03  0.00000000000E+00 0.  1.
         25    1    1    2    0    0  0.18682605886E+03  0.18419345533E+03  0.21885368421E+03  0.36380371129E+03  0.12500000000E+03 0.  0.
         25    1    1    2    0    0 -0.18295355369E+03 -0.16737656199E+01  0.51442537641E+01  0.22164446225E+03  0.12500000000E+03 0.  0.
         25    1    1    2    0    0 -0.38725051745E+01 -0.18251968971E+03  0.13132785428E+03  0.25729445921E+03  0.12500000000E+03 0.  0.
</event>
<event>
 5    0  0.5619558E-005  0.2445813E+03  0.7546771E-02  0.1116778E+00
         21   -1    0    0  502  501  0.00000000000E+00  0.00000000000E+00  0.87202215139E+03  0.87202215139E+03  0.00000000000E+00 0.  1.
         21   -1    0    0  501  502 -0.00000000000E+00 -0.00000000000E+00 -0.68599203644E+02  0.68599203644E+02  0.00000000000E+00 0.  1.
         25    1    1    2    0    0  0.31019563535E+02 -0.64125082113E+01  0.74739914296E+02  0.14904492065E+03  0.12500000000E+03 0.  0.
         25    1    1    2    0    0 -0.77943387463E+01 -0.83186662816E+02  0.30042385713E+03  0.33594682097E+03  0.12500000000E+03 0.  0.
         25    1    1    2    0    0 -0.23225224789E+02  0.89599171028E+02  0.42825917632E+03  0.45562961341E+03  0.12500000000E+03 0.  0.
</event>
<event>
 5    0  0.5619558E-005  0.5266530E+03  0.7546771E-02  0.1007047E+00
         21   -1    0    0  502  501  0.00000000000E+00  0.00000000000E+00  0.96752135187E+03  0.96752135187E+03  0.00000000000E+00 0. -1.
         21   -1    0    0  501  502 -0.00000000000E+00 -0.00000000000E+00 -0.28667413145E+03  0.28667413145E+03  0.00000000000E+00 0. -1.
         25    1    1    2    0    0 -0.29786749242E+03  0.20064362951E+03  0.32479113790E+03  0.50009718292E+03  0.12500000000E+03 0.  0.
         25    1    1    2    0    0 -0.10596798990E+03  0.22493046334E+02  0.13389731071E+02  0.16595010369E+03  0.12500000000E+03 0.  0.
         25    1    1    2    0    0  0.40383548232E+03 -0.22313667585E+03  0.34266635145E+03  0.58814819671E+03  0.12500000000E+03 0.  0.
</event>
<event>
 5    0  0.5619558E-005  0.3011474E+03  0.7546771E-02  0.1084668E+00
         21   -1    0    0  502  501  0.00000000000E+00  0.00000000000E+00  0.10896086967E+04  0.10896086967E+04  0.00000000000E+00 0.  1.
         21   -1    0    0  501  502 -0.00000000000E+00 -0.00000000000E+00 -0.83231500206E+02  0.83231500206E+02  0.00000000000E+00 0.  1.
         25    1    1    2    0    0  0.84199759994E+02 -0.52499539886E+02  0.10187618298E+03  0.18933979489E+03  0.12500000000E+03 0.  0.
         25    1    1    2    0    0 -0.11613907090E+03 -0.75558842665E+02  0.31003205743E+03  0.36185950192E+03  0.12500000000E+03 0.  0.
         25    1    1    2    0    0  0.31939310910E+02  0.12805838255E+03  0.59446895606E+03  0.62164090007E+03  0.12500000000E+03 0.  0.
</event>
<event>
 5    0  0.6408988E-005  0.4414012E+03  0.7546771E-02  0.1030318E+00
         21   -1    0    0  502  501  0.00000000000E+00  0.00000000000E+00  0.49282289758E+03  0.49282289758E+03  0.00000000000E+00 0.  1.
         21   -1    0    0  501  502 -0.00000000000E+00 -0.00000000000E+00 -0.39534486307E+03  0.39534486307E+03  0.00000000000E+00 0.  1.
         25    1    1    2    0    0  0.17138917359E+03 -0.31429941797E+02  0.19103708411E+03  0.28719724506E+03  0.12500000000E+03 0.  0.
         25    1    1    2    0    0 -0.39805795940E+02  0.25212923707E+03 -0.13069838761E+03  0.31282698429E+03  0.12500000000E+03 0.  0.
         25    1    1    2    0    0 -0.13158337765E+03 -0.22069929527E+03  0.37139338008E+02  0.28814353131E+03  0.12500000000E+03 0.  0.
</event>
<event>
 5    0  0.5619558E-005  0.2982722E+03  0.7546771E-02  0.1086107E+00
         21   -1    0    0  502  501  0.00000000000E+00  0.00000000000E+00  0.38547496529E+03  0.38547496529E+03  0.00000000000E+00 0. -1.
         21   -1    0    0  501  502 -0.00000000000E+00 -0.00000000000E+00 -0.23079665501E+03  0.23079665501E+03  0.00000000000E+00 0. -1.
         25    1    1    2    0    0  0.10074733610E+03  0.89614981851E+02  0.70331976954E+02  0.19685643928E+03  0.12500000000E+03 0.  0.
         25    1    1    2    0    0 -0.95433944575E+02 -0.17740424688E+03  0.11505619356E+03  0.26352007943E+03  0.12500000000E+03 0.  0.
         25    1    1    2    0    0 -0.53133915241E+01  0.87789265026E+02 -0.30709860232E+02  0.15589510159E+03  0.12500000000E+03 0.  0.
</event>
<event>
 5    0  0.5619558E-005  0.3681695E+03  0.7546771E-02  0.1055395E+00
         21   -1    0    0  502  501  0.00000000000E+00  0.00000000000E+00  0.66771311771E+03  0.66771311771E+03  0.00000000000E+00 0.  1.
         21   -1    0    0  501  502 -0.00000000000E+00 -0.00000000000E+00 -0.20300451326E+03  0.20300451326E+03  0.00000000000E+00 0.  1.
         25    1    1    2    0    0  0.11288027317E+03 -0.14978104124E+03  0.54398432689E+02  0.23186311881E+03  0.12500000000E+03 0.  0.
         25    1    1    2    0    0 -0.10033273250E+03  0.18505432254E+03  0.44137063670E+03  0.50472249648E+03  0.12500000000E+03 0.  0.
         25    1    1    2    0    0 -0.12547540661E+02 -0.35273281306E+02 -0.31060464949E+02  0.13413201569E+03  0.12500000000E+03 0.  0.
</event>
<event>
 5    0  0.5619558E-005  0.2634751E+03  0.7546771E-02  0.1105073E+00
         21   -1    0    0  502  501  0.00000000000E+00  0.00000000000E+00  0.62443276663E+03  0.62443276663E+03  0.00000000000E+00 0.  1.
         21   -1    0    0  501  502 -0.00000000000E+00 -0.00000000000E+00 -0.11117146559E+03  0.11117146559E+03  0.00000000000E+00 0.  1.
         25    1    1    2    0    0 -0.12377225232E+03  0.94485801868E+02  0.19268490740E+03  0.27748803711E+03  0.12500000000E+03 0.  0.
         25    1    1    2    0    0  0.81293780295E+02  0.15089761153E+02  0.19276929076E+03  0.24417489442E+03  0.12500000000E+03 0.  0.
         25    1    1    2    0    0  0.42478472025E+02 -0.10957556302E+03  0.12780710288E+03  0.21394130069E+03  0.12500000000E+03 0.  0.
</event>
<event>
 5    0  0.5619558E-005  0.3189552E+03  0.7546771E-02  0.1076131E+00
         21   -1    0    0  502  501  0.00000000000E+00  0.00000000000E+00  0.43054988563E+03  0.43054988563E+03  0.00000000000E+00 0.  1.
         21   -1    0    0  501  502 -0.00000000000E+00 -0.00000000000E+00 -0.23628493031E+03  0.23628493031E+03  0.00000000000E+00 0.  1.
         25    1    1    2    0    0  0.80866489813E+02  0.28915685406E+02  0.63607483098E+02  0.16445795190E+03  0.12500000000E+03 0.  0.
         25    1    1    2    0    0 -0.20596505017E+03 -0.84112421854E+02  0.17803345899E+03  0.31115496770E+03  0.12500000000E+03 0.  0.
         25    1    1    2    0    0  0.12509856036E+03  0.55196736448E+02 -0.47375986774E+02  0.19122189634E+03  0.12500000000E+03 0.  0.
</event>
<event>
 5    0  0.5619558E-005  0.2087770E+03  0.7546771E-02  0.1142538E+00
         21   -1    0    0  502  501  0.00000000000E+00  0.00000000000E+00  0.66973464144E+02  0.66973464144E+02  0.00000000000E+00 0. -1.
         21   -1    0    0  501  502 -0.00000000000E+00 -0.00000000000E+00 -0.65082274654E+03  0.65082274654E+03  0.00000000000E+00 0. -1.
         25    1    1    2    0    0  0.25536609771E+02 -0.45355465004E+02 -0.24467913462E+03  0.27964641167E+03  0.12500000000E+03 0.  0.
         25    1    1    2    0    0  0.19659325517E+02 -0.21685649746E+02 -0.15043934113E+03  0.19777196931E+03  0.12500000000E+03 0.  0.
         25    1    1    2    0    0 -0.45195935288E+02  0.67041114750E+02 -0.18873080665E+03  0.24037782970E+03  0.12500000000E+03 0.  0.
</event>
<event>
 5    0  0.5619558E-005  0.3066590E+03  0.7546771E-02  0.1081958E+00
         21   -1    0    0  502  501  0.00000000000E+00  0.00000000000E+00  0.53488466633E+03  0.53488466633E+03  0.00000000000E+00 0.  1.
         21   -1    0    0  501  502 -0.00000000000E+00 -0.00000000000E+00 -0.17581310728E+03  0.17581310728E+03  0.00000000000E+00 0.  1.
         25    1    1    2    0    0 -0.18769725806E+02  0.88964872079E+02  0.58581668160E+02  0.16529931311E+03  0.12500000000E+03 0.  0.
         25    1    1    2    0    0  0.11664826886E+03  0.32770458050E+02  0.29823302534E+03  0.34532399128E+03  0.12500000000E+03 0.  0.
         25    1    1    2    0    0 -0.97878543055E+02 -0.12173533013E+03  0.22568655527E+01  0.20007446922E+03  0.12500000000E+03 0.  0.
</event>
<event>
 5    0  0.5619558E-005  0.3652922E+03  0.7546771E-02  0.1056508E+00
         21   -1    0    0  502  501  0.00000000000E+00  0.00000000000E+00  0.19019259143E+04  0.19019259143E+04  0.00000000000E+00 0. -1.
         21   -1    0    0  501  502 -0.00000000000E+00 -0.00000000000E+00 -0.70159619475E+02  0.70159619475E+02  0.00000000000E+00 0. -1.
         25    1    1    2    0    0  0.13797461546E+03  0.79115287056E+02  0.70773046926E+03  0.73607312156E+03  0.12500000000E+03 0.  0.
         25    1    1    2    0    0  0.11332435270E+03 -0.14533274529E+03  0.42439092755E+03  0.47926680999E+03  0.12500000000E+03 0.  0.
         25    1    1    2    0    0 -0.25129896816E+03  0.66217458234E+02  0.69964489797E+03  0.75674560219E+03  0.12500000000E+03 0.  0.
</event>
<event>
 5    0  0.5619558E-005  0.2545850E+03  0.7546771E-02  0.1110441E+00
         21   -1    0    0  502  501  0.00000000000E+00  0.00000000000E+00  0.45392691530E+03  0.45392691530E+03  0.00000000000E+00 0.  1.
         21   -1    0    0  501  502 -0.00000000000E+00 -0.00000000000E+00 -0.14278406990E+03  0.14278406990E+03  0.00000000000E+00 0.  1.
         25    1    1    2    0    0  0.87815897997E+02  0.57804255508E+00  0.15720297027E+03  0.21920250897E+03  0.12500000000E+03 0.  0.
         25    1    1    2    0    0 -0.17976560498E+02  0.62122211004E+02  0.16962676466E+03  0.22040999323E+03  0.12500000000E+03 0.  0.
         25    1    1    2    0    0 -0.69839337498E+02 -0.62700253559E+02 -0.15686889542E+02  0.15709848300E+03  0.12500000000E+03 0.  0.
</event>
<event>
 5    0  0.5619558E-005  0.2787003E+03  0.7546771E-02  0.1096401E+00
         21   -1    0    0  502  501  0.00000000000E+00  0.00000000000E+00  0.27569844692E+03  0.27569844692E+03  0.00000000000E+00 0. -1.
         21   -1    0    0  501  502 -0.00000000000E+00 -0.00000000000E+00 -0.28173475050E+03  0.28173475050E+03  0.00000000000E+00 0. -1.
         25    1    1    2    0    0 -0.13982662473E+03  0.12413368893E+02 -0.89530512252E+02  0.20819771693E+03  0.12500000000E+03 0.  0.
         25    1    1    2    0    0  0.13293003964E+03 -0.32752282749E+02  0.11550716265E+03  0.21842621657E+03  0.12500000000E+03 0.  0.
         25    1    1    2    0    0  0.68965850982E+01  0.20338913856E+02 -0.32012953975E+02  0.13080926391E+03  0.12500000000E+03 0.  0.
</event>
<event>
 5    0  0.5619558E-005  0.3351282E+03  0.7546771E-02  0.1068890E+00
         21   -1    0    0  502  501  0.00000000000E+00  0.00000000000E+00  0.43469836429E+03  0.43469836429E+03  0.00000000000E+00 0.  1.
         21   -1    0    0  501  502 -0.00000000000E+00 -0.00000000000E+00 -0.25836520689E+03  0.25836520689E+03  0.00000000000E+00 0.  1.
         25    1    1    2    0    0 -0.17355015107E+03 -0.14490993536E+03  0.11549183620E+03  0.28298747063E+03  0.12500000000E+03 0.  0.
         25    1    1    2    0    0 -0.95186229619E+01  0.75580164854E+02  0.96162560964E+02  0.17514338022E+03  0.12500000000E+03 0.  0.
         25    1    1    2    0    0  0.18306877403E+03  0.69329770510E+02 -0.35321239768E+02  0.23493272033E+03  0.12500000000E+03 0.  0.
</event>
<event>
 5    0  0.5619558E-005  0.3060263E+03  0.7546771E-02  0.1082266E+00
         21   -1    0    0  502  501  0.00000000000E+00  0.00000000000E+00  0.12461582499E+04  0.12461582499E+04  0.00000000000E+00 0.  1.
         21   -1    0    0  501  502 -0.00000000000E+00 -0.00000000000E+00 -0.75152651272E+02  0.75152651272E+02  0.00000000000E+00 0.  1.
         25    1    1    2    0    0  0.89217668736E+02 -0.11173417567E+03  0.19075758616E+03  0.26917981928E+03  0.12500000000E+03 0.  0.
         25    1    1    2    0    0 -0.16581143733E+03  0.10970406875E+03  0.57077567262E+03  0.61720197983E+03  0.12500000000E+03 0.  0.
         25    1    1    2    0    0  0.76593768597E+02  0.20301069269E+01  0.40947233981E+03  0.43492910203E+03  0.12500000000E+03 0.  0.
</event>
<event>
 5    0  0.5619558E-005  0.4841860E+03  0.7546771E-02  0.1017991E+00
         21   -1    0    0  502  501  0.00000000000E+00  0.00000000000E+00  0.65580369829E+03  0.65580369829E+03  0.00000000000E+00 0. -1.
         21   -1    0    0  501  502 -0.00000000000E+00 -0.00000000000E+00 -0.35747909236E+03  0.35747909236E+03  0.00000000000E+00 0. -1.
         25    1    1    2    0    0 -0.66555028965E+02 -0.15837772171E+03  0.10096631294E+03  0.23522812537E+03  0.12500000000E+03 0.  0.
         25    1    1    2    0    0  0.34030677473E+03 -0.76712739089E+02  0.10527955648E+03  0.38523023022E+03  0.12500000000E+03 0.  0.
         25    1    1    2    0    0 -0.27375174576E+03  0.23509046080E+03  0.92078736507E+02  0.39282443506E+03  0.12500000000E+03 0.  0.
</event>
<event>
 5    0  0.5619558E-005  0.4359532E+03  0.7546771E-02  0.1031996E+00
         21   -1    0    0  502  501  0.00000000000E+00  0.00000000000E+00  0.14440958893E+04  0.14440958893E+04  0.00000000000E+00 0. -1.
         21   -1    0    0  501  502 -0.00000000000E+00 -0.00000000000E+00 -0.13160841625E+03  0.13160841625E+03  0.00000000000E+00 0. -1.
         25    1    1    2    0    0  0.12312114710E+03 -0.24621475318E+03  0.74207450746E+03  0.80129900547E+03  0.12500000000E+03 0.  0.
         25    1    1    2    0    0 -0.21376678528E+03  0.89760697404E+02  0.15822727852E+03  0.30726876339E+03  0.12500000000E+03 0.  0.
         25    1    1    2    0    0  0.90645638178E+02  0.15645405577E+03  0.41218568704E+03  0.46713653667E+03  0.12500000000E+03 0.  0.
</event>
<event>
 5    0  0.5619558E-005  0.3494363E+03  0.7546771E-02  0.1062847E+00
         21   -1    0    0  502  501  0.00000000000E+00  0.00000000000E+00  0.12563877564E+04  0.12563877564E+04  0.00000000000E+00 0. -1.
         21   -1    0    0  501  502 -0.00000000000E+00 -0.00000000000E+00 -0.97187906588E+02  0.97187906588E+02  0.00000000000E+00 0. -1.
         25    1    1    2    0    0  0.23400291773E+03  0.97747974798E+02  0.44161620246E+03  0.52436809816E+03  0.12500000000E+03 0.  0.
         25    1    1    2    0    0 -0.20458990490E+03 -0.94264809894E+02  0.31672258002E+03  0.40826593817E+03  0.12500000000E+03 0.  0.
         25    1    1    2    0    0 -0.29413012830E+02 -0.34831649042E+01  0.40086106730E+03  0.42094162664E+03  0.12500000000E+03 0.  0.
</event>
<event>
 5    0  0.5619558E-005  0.3565637E+03  0.7546771E-02  0.1059953E+00
         21   -1    0    0  502  501  0.00000000000E+00  0.00000000000E+00  0.18698741389E+03  0.18698741389E+03  0.00000000000E+00 0.  1.
         21   -1    0    0  501  502 -0.00000000000E+00 -0.00000000000E+00 -0.67992629185E+03  0.67992629185E+03  0.00000000000E+00 0.  1.
         25    1    1    2    0    0  0.11030692853E+03  0.14022530937E+03 -0.27335024911E+03  0.34953700027E+03  0.12500000000E+03 0.  0.
         25    1    1    2    0    0  0.79932334927E+02  0.34373952782E+02  0.60053135811E+01  0.15241984972E+03  0.12500000000E+03 0.  0.
         25    1    1    2    0    0 -0.19023926345E+03 -0.17459926216E+03 -0.22559394243E+03  0.36495685576E+03  0.12500000000E+03 0.  0.
</event>
<event>
 5    0  0.5619558E-005  0.3018289E+03  0.7546771E-02  0.1084330E+00
         21   -1    0    0  502  501  0.00000000000E+00  0.00000000000E+00  0.61248215833E+03  0.61248215833E+03  0.00000000000E+00 0. -1.
         21   -1    0    0  501  502 -0.00000000000E+00 -0.00000000000E+00 -0.14874017814E+03  0.14874017814E+03  0.00000000000E+00 0. -1.
         25    1    1    2    0    0  0.18057418112E+03 -0.27040681375E+02  0.93213077433E+02  0.24010812386E+03  0.12500000000E+03 0.  0.
         25    1    1    2    0    0 -0.56609641798E+02 -0.44818400678E+02  0.58594156981E+02  0.15579350377E+03  0.12500000000E+03 0.  0.
         25    1    1    2    0    0 -0.12396453932E+03  0.71859082053E+02  0.31193474578E+03  0.36532070884E+03  0.12500000000E+03 0.  0.
</event>
<event>
 5    0  0.5619558E-005  0.4275999E+03  0.7546771E-02  0.1034621E+00
         21   -1    0    0  502  501  0.00000000000E+00  0.00000000000E+00  0.13634580679E+03  0.13634580679E+03  0.00000000000E+00 0.  1.
         21   -1    0    0  501  502 -0.00000000000E+00 -0.00000000000E+00 -0.13410141727E+04  0.13410141727E+04  0.00000000000E+00 0.  1.
         25    1    1    2    0    0  0.19461996339E+03  0.17416899083E+03 -0.69604738122E+03  0.75386916930E+03  0.12500000000E+03 0.  0.
         25    1    1    2    0    0  0.92113358297E+02 -0.88449390578E+00 -0.12787082424E+03  0.20115069176E+03  0.12500000000E+03 0.  0.
         25    1    1    2    0    0 -0.28673332169E+03 -0.17328449692E+03 -0.38075016050E+03  0.52234011847E+03  0.12500000000E+03 0.  0.
</event>
<event>
 5    0  0.5619558E-005  0.2576818E+03  0.7546771E-02  0.1108544E+00
         21   -1    0    0  502  501  0.00000000000E+00  0.00000000000E+00  0.87259260588E+03  0.87259260588E+03  0.00000000000E+00 0.  1.
         21   -1    0    0  501  502 -0.00000000000E+00 -0.00000000000E+00 -0.76094981940E+02  0.76094981940E+02  0.00000000000E+00 0.  1.
         25    1    1    2    0    0  0.10908699703E+02  0.19828294721E+02  0.25816560978E+03  0.28772668120E+03  0.12500000000E+03 0.  0.
         25    1    1    2    0    0  0.21817892486E+02  0.19457242291E+02  0.50608295692E+03  0.52211068175E+03  0.12500000000E+03 0.  0.
         25    1    1    2    0    0 -0.32726592189E+02 -0.39285537012E+02  0.32249057241E+02  0.13885022487E+03  0.12500000000E+03 0.  0.
</event>
<event>
 5    0  0.5619558E-005  0.3093814E+03  0.7546771E-02  0.1080643E+00
         21   -1    0    0  502  501  0.00000000000E+00  0.00000000000E+00  0.10661115428E+03  0.10661115428E+03  0.00000000000E+00 0.  1.
         21   -1    0    0  501  502 -0.00000000000E+00 -0.00000000000E+00 -0.89781252828E+03  0.89781252828E+03  0.00000000000E+00 0.  1.
         25    1    1    2    0    0  0.68953059253E+02 -0.58754350264E+02 -0.22627488481E+03  0.27391955306E+03  0.12500000000E+03 0.  0.
         25    1    1    2    0    0  0.12238291314E+03 -0.79582147263E+02 -0.19107548726E+03  0.27100874049E+03  0.12500000000E+03 0.  0.
         25    1    1    2    0    0 -0.19133597239E+03  0.13833649753E+03 -0.37385100193E+03  0.45949538901E+03  0.12500000000E+03 0.  0.
</event>
<event>
 5    0  0.5619558E-005  0.3205120E+03  0.7546771E-02  0.1075414E+00
         21   -1    0    0  502  501  0.00000000000E+00  0.00000000000E+00  0.63167250852E+03  0.63167250852E+03  0.00000000000E+00 0.  1.
         21   -1    0    0  501  502 -0.00000000000E+00 -0.00000000000E+00 -0.16262843351E+03  0.16262843351E+03  0.00000000000E+00 0.  1.
         25    1    1    2    0    0 -0.23040681417E+03 -0.65663819228E+02  0.18558122512E+03  0.32781767538E+03  0.12500000000E+03 0.  0.
         25    1    1    2    0    0  0.58941274115E+02 -0.15405322851E+02  0.74106889015E+02  0.15756975841E+03  0.12500000000E+03 0.  0.
         25    1    1    2    0    0  0.17146554005E+03  0.81069142079E+02  0.20935596087E+03  0.30891350824E+03  0.12500000000E+03 0.  0.
</event>
<event>
 5    0  0.5619558E-005  0.2708181E+03  0.7546771E-02  0.1100812E+00
         21   -1    0    0  502  501  0.00000000000E+00  0.00000000000E+00  0.61755926860E+03  0.61755926860E+03  0.00000000000E+00 0.  1.
         21   -1    0    0  501  502 -0.00000000000E+00 -0.00000000000E+00 -0.11876178150E+03  0.11876178150E+03  0.00000000000E+00 0.  1.
         25    1    1    2    0    0  0.44828194019E+02  0.57908572343E+02  0.17415693066E+02  0.14591530453E+03  0.12500000000E+03 0.  0.
         25    1    1    2    0    0  0.74234491843E+02 -0.64000242632E+02  0.15950736770E+03  0.22510973143E+03  0.12500000000E+03 0.  0.
         25    1    1    2    0    0 -0.11906268586E+03  0.60916702888E+01  0.32187442634E+03  0.36529601414E+03  0.12500000000E+03 0.  0.
</event>
<event>
 5    0  0.5619558E-005  0.2975190E+03  0.7546771E-02  0.1086487E+00
         21   -1    0    0  502  501  0.00000000000E+00  0.00000000000E+00  0.99895904142E+02  0.99895904142E+02  0.00000000000E+00 0. -1.
         21   -1    0    0  501  502 -0.00000000000E+00 -0.00000000000E+00 -0.88609814379E+03  0.88609814379E+03  0.00000000000E+00 0. -1.
         25    1    1    2    0    0 -0.40167721211E+02 -0.56850328173E+02 -0.29402125225E+02  0.14606467954E+03  0.12500000000E+03 0.  0.
         25    1    1    2    0    0 -0.80554481244E+02  0.25709988797E+02 -0.53810581064E+03  0.55886750793E+03  0.12500000000E+03 0.  0.
         25    1    1    2    0    0  0.12072220246E+03  0.31140339375E+02 -0.21869430378E+03  0.28106186047E+03  0.12500000000E+03 0.  0.
</event>
<event>
 5    0  0.5619558E-005  0.3381951E+03  0.7546771E-02  0.1067567E+00
         21   -1    0    0  502  501  0.00000000000E+00  0.00000000000E+00  0.93834601283E+03  0.93834601283E+03  0.00000000000E+00 0. -1.
         21   -1    0    0  501  502 -0.00000000000E+00 -0.00000000000E+00 -0.12189097118E+03  0.12189097118E+03  0.00000000000E+00 0. -1.
         25    1    1    2    0    0 -0.10742703900E+02 -0.35041987759E+02  0.35580068027E+03  0.37889638514E+03  0.12500000000E+03 0.  0.
         25    1    1    2    0    0  0.68745902599E+02 -0.18880558818E+03  0.18434457164E+03  0.29996911565E+03  0.12500000000E+03 0.  0.
         25    1    1    2    0    0 -0.58003198698E+02  0.22384757593E+03  0.27630978974E+03  0.38137148322E+03  0.12500000000E+03 0.  0.
</event>
<event>
 5    0  0.5619558E-005  0.2854321E+03  0.7546771E-02  0.1092758E+00
         21   -1    0    0  502  501  0.00000000000E+00  0.00000000000E+00  0.16741476476E+03  0.16741476476E+03  0.00000000000E+00 0. -1.
         21   -1    0    0  501  502 -0.00000000000E+00 -0.00000000000E+00 -0.48664464238E+03  0.48664464238E+03  0.00000000000E+00 0. -1.
         25    1    1    2    0    0 -0.12042835997E+03 -0.32472003952E+02 -0.20804850189E+03  0.27288569047E+03  0.12500000000E+03 0.  0.
         25    1    1    2    0    0  0.47389457100E+02  0.94112858603E+02  0.34105600183E+02  0.16700653509E+03  0.12500000000E+03 0.  0.
         25    1    1    2    0    0  0.73038902871E+02 -0.61640854650E+02 -0.14528697591E+03  0.21416718158E+03  0.12500000000E+03 0.  0.
</event>
<event>
 5    0  0.6557828E-005  0.6516188E+03  0.7546771E-02  0.9803746E-01
         21   -1    0    0  502  501  0.00000000000E+00  0.00000000000E+00  0.86011014429E+03  0.86011014429E+03  0.00000000000E+00 0.  1.
         21   -1    0    0  501  502 -0.00000000000E+00 -0.00000000000E+00 -0.49366592057E+03  0.49366592057E+03  0.00000000000E+00 0.  1.
         25    1    1    2    0    0  0.31368566896E+03  0.55320858631E+02 -0.39126309313E+02  0.34440523281E+03  0.12500000000E+03 0.  0.
         25    1    1    2    0    0  0.12799101529E+03 -0.23196289915E+03  0.42612378276E+03  0.51710247032E+03  0.12500000000E+03 0.  0.
         25    1    1    2    0    0 -0.44167668425E+03  0.17664204052E+03 -0.20553249730E+02  0.49226836173E+03  0.12500000000E+03 0.  0.
</event>
<event>
 5    0  0.5619558E-005  0.4411597E+03  0.7546771E-02  0.1030392E+00
         21   -1    0    0  502  501  0.00000000000E+00  0.00000000000E+00  0.66553594807E+03  0.66553594807E+03  0.00000000000E+00 0. -1.
         21   -1    0    0  501  502 -0.00000000000E+00 -0.00000000000E+00 -0.29242885848E+03  0.29242885848E+03  0.00000000000E+00 0. -1.
         25    1    1    2    0    0 -0.59916849513E+02 -0.90813735051E+02  0.20507648217E+03  0.26366366240E+03  0.12500000000E+03 0.  0.
         25    1    1    2    0    0 -0.90397878709E+02  0.28168377187E+03 -0.73685944335E+02  0.32950287131E+03  0.12500000000E+03 0.  0.
         25    1    1    2    0    0  0.15031472822E+03 -0.19087003682E+03  0.24171655175E+03  0.36479827284E+03  0.12500000000E+03 0.  0.
</event>
<event>
 5    0  0.5619558E-005  0.3917969E+03  0.7546771E-02  0.1046658E+00
         21   -1    0    0  502  501  0.00000000000E+00  0.00000000000E+00  0.13309607874E+04  0.13309607874E+04  0.00000000000E+00 0. -1.
         21   -1    0    0  501  502 -0.00000000000E+00 -0.00000000000E+00 -0.11533385912E+03  0.11533385912E+03  0.00000000000E+00 0. -1.
         25    1    1    2    0    0 -0.24165550445E+03  0.29822094207E+02  0.38751499928E+03  0.47442556297E+03  0.12500000000E+03 0.  0.
         25    1    1    2    0    0  0.10822846434E+03  0.17622777311E+02  0.74874102314E+03  0.76698245254E+03  0.12500000000E+03 0.  0.
         25    1    1    2    0    0  0.13342704011E+03 -0.47444871518E+02  0.79370905848E+02  0.20488663099E+03  0.12500000000E+03 0.  0.
</event>
<event>
 5    0  0.5619558E-005  0.3065829E+03  0.7546771E-02  0.1081995E+00
         21   -1    0    0  502  501  0.00000000000E+00  0.00000000000E+00  0.64295591647E+02  0.64295591647E+02  0.00000000000E+00 0.  1.
         21   -1    0    0  501  502 -0.00000000000E+00 -0.00000000000E+00 -0.14618894744E+04  0.14618894744E+04  0.00000000000E+00 0.  1.
         25    1    1    2    0    0 -0.61350141278E+02  0.89301338962E+02 -0.19990675600E+03  0.25947308159E+03  0.12500000000E+03 0.  0.
         25    1    1    2    0    0  0.60157305134E+01 -0.90343492194E+02 -0.16858395590E+03  0.22856877692E+03  0.12500000000E+03 0.  0.
         25    1    1    2    0    0  0.55334410764E+02  0.10421532322E+01 -0.10291031708E+04  0.10381432075E+04  0.12500000000E+03 0.  0.
</event>
<event>
 5    0  0.5619558E-005  0.5107765E+03  0.7546771E-02  0.1011004E+00
         21   -1    0    0  502  501  0.00000000000E+00  0.00000000000E+00  0.21442860956E+04  0.21442860956E+04  0.00000000000E+00 0.  1.
         21   -1    0    0  501  502 -0.00000000000E+00 -0.00000000000E+00 -0.12166875254E+03  0.12166875254E+03  0.00000000000E+00 0.  1.
         25    1    1    2    0    0 -0.16910071949E+02 -0.45009540233E+03  0.69798091295E+03  0.84004415156E+03  0.12500000000E+03 0.  0.
         25    1    1    2    0    0 -0.30015406042E+02  0.22818481510E+03  0.78085479543E+03  0.82360697300E+03  0.12500000000E+03 0.  0.
         25    1    1    2    0    0  0.46925477991E+02  0.22191058723E+03  0.54378163466E+03  0.60230372356E+03  0.12500000000E+03 0.  0.
</event>
<event>
 5    0  0.5619558E-005  0.4959166E+03  0.7546771E-02  0.1014850E+00
         21   -1    0    0  502  501  0.00000000000E+00  0.00000000000E+00  0.16740026582E+04  0.16740026582E+04  0.00000000000E+00 0. -1.
         21   -1    0    0  501  502 -0.00000000000E+00 -0.00000000000E+00 -0.14691330259E+03  0.14691330259E+03  0.00000000000E+00 0. -1.
         25    1    1    2    0    0  0.27671522966E+03  0.18890212740E+03  0.46256754115E+03  0.58467859734E+03  0.12500000000E+03 0.  0.
         25    1    1    2    0    0 -0.53297133402E+02  0.14923642391E+03  0.39729688669E+03  0.44562530317E+03  0.12500000000E+03 0.  0.
         25    1    1    2    0    0 -0.22341809626E+03 -0.33813855132E+03  0.66722492782E+03  0.79061206032E+03  0.12500000000E+03 0.  0.
</event>
<event>
 5    0  0.5619558E-005  0.4323327E+03  0.7546771E-02  0.1033126E+00
         21   -1    0    0  502  501  0.00000000000E+00  0.00000000000E+00  0.24848614148E+04  0.24848614148E+04  0.00000000000E+00 0.  1.
         21   -1    0    0  501  502 -0.00000000000E+00 -0.00000000000E+00 -0.75220132827E+02  0.75220132827E+02  0.00000000000E+00 0.  1.
         25    1    1    2    0    0  0.21284361858E+03 -0.52376427173E+02  0.42678783591E+03  0.49580092071E+03  0.12500000000E+03 0.  0.
         25    1    1    2    0    0 -0.32488182087E+03 -0.83235055570E+02  0.12717769262E+04  0.13211804654E+04  0.12500000000E+03 0.  0.
         25    1    1    2    0    0  0.11203820229E+03  0.13561148274E+03  0.71107651987E+03  0.74310016158E+03  0.12500000000E+03 0.  0.
</event>
<event>
 5    0  0.5619558E-005  0.6024876E+03  0.7546771E-02  0.9900258E-01
         21   -1    0    0  502  501  0.00000000000E+00  0.00000000000E+00  0.51702051457E+03  0.51702051457E+03  0.00000000000E+00 0. -1.
         21   -1    0    0  501  502 -0.00000000000E+00 -0.00000000000E+00 -0.70208299586E+03  0.70208299586E+03  0.00000000000E+00 0. -1.
         25    1    1    2    0    0  0.28968949426E+03  0.39623713329E+03  0.17933484362E+03  0.53731727593E+03  0.12500000000E+03 0.  0.
         25    1    1    2    0    0 -0.26184009874E+03 -0.27735914805E+03 -0.25998188432E+03  0.47822998075E+03  0.12500000000E+03 0.  0.
         25    1    1    2    0    0 -0.27849395523E+02 -0.11887798524E+03 -0.10441544059E+03  0.20355625375E+03  0.12500000000E+03 0.  0.
</event>
<event>
 5    0  0.5619558E-005  0.2583958E+03  0.7546771E-02  0.1108111E+00
         21   -1    0    0  502  501  0.00000000000E+00  0.00000000000E+00  0.68710926625E+02  0.68710926625E+02  0.00000000000E+00 0.  1.
         21   -1    0    0  501  502 -0.00000000000E+00 -0.00000000000E+00 -0.97172888821E+03  0.97172888821E+03  0.00000000000E+00 0.  1.
         25    1    1    2    0    0 -0.10674463747E+02  0.72523988547E+02 -0.21792063899E+03  0.26170226974E+03  0.12500000000E+03 0.  0.
         25    1    1    2    0    0  0.41713791115E+02 -0.15531622163E+03 -0.49061750575E+03  0.53121907535E+03  0.12500000000E+03 0.  0.
         25    1    1    2    0    0 -0.31039327369E+02  0.82792233081E+02 -0.19447981685E+03  0.24751846974E+03  0.12500000000E+03 0.  0.
</event>
<event>
 5    0  0.5619558E-005  0.4806967E+03  0.7546771E-02  0.1018944E+00
         21   -1    0    0  502  501  0.00000000000E+00  0.00000000000E+00  0.19783164800E+04  0.19783164800E+04  0.00000000000E+00 0.  1.
         21   -1    0    0  501  502 -0.00000000000E+00 -0.00000000000E+00 -0.11680099081E+03  0.11680099081E+03  0.00000000000E+00 0.  1.
         25    1    1    2    0    0 -0.19716962756E+02 -0.15822876610E+03  0.46774082064E+03  0.50973677162E+03  0.12500000000E+03 0.  0.
         25    1    1    2    0    0  0.60947271346E+02 -0.21636254854E+03  0.19558176171E+03  0.32311692591E+03  0.12500000000E+03 0.  0.
         25    1    1    2    0    0 -0.41230308589E+02  0.37459131464E+03  0.11981929068E+04  0.12622637733E+04  0.12500000000E+03 0.  0.
</event>
<event>
 5    0  0.5619558E-005  0.3457284E+03  0.7546771E-02  0.1064382E+00
         21   -1    0    0  502  501  0.00000000000E+00  0.00000000000E+00  0.15377349335E+03  0.15377349335E+03  0.00000000000E+00 0. -1.
         21   -1    0    0  501  502 -0.00000000000E+00 -0.00000000000E+00 -0.77730006610E+03  0.77730006610E+03  0.00000000000E+00 0. -1.
         25    1    1    2    0    0 -0.14580546512E+03  0.47257380481E+02 -0.26015205008E+03  0.32679746454E+03  0.12500000000E+03 0.  0.
         25    1    1    2    0    0  0.21415536924E+03  0.10369581766E+03 -0.15550648196E+03  0.31051990388E+03  0.12500000000E+03 0.  0.
         25    1    1    2    0    0 -0.68349904119E+02 -0.15095319814E+03 -0.20786804071E+03  0.29375619103E+03  0.12500000000E+03 0.  0.
</event>
<event>
 5    0  0.5619558E-005  0.2962810E+03  0.7546771E-02  0.1087115E+00
         21   -1    0    0  502  501  0.00000000000E+00  0.00000000000E+00  0.28430907882E+03  0.28430907882E+03  0.00000000000E+00 0. -1.
         21   -1    0    0  501  502 -0.00000000000E+00 -0.00000000000E+00 -0.30875700763E+03  0.30875700763E+03  0.00000000000E+00 0. -1.
         25    1    1    2    0    0  0.55859366822E+02 -0.10131045393E+03  0.29721400053E+02  0.17289429880E+03  0.12500000000E+03 0.  0.
         25    1    1    2    0    0 -0.10398103199E+02  0.17028146504E+03 -0.13403264300E+03  0.25038699502E+03  0.12500000000E+03 0.  0.
         25    1    1    2    0    0 -0.45461263623E+02 -0.68971011107E+02  0.79863314135E+02  0.16978479263E+03  0.12500000000E+03 0.  0.
</event>
<event>
 5    0  0.5619558E-005  0.4449827E+03  0.7546771E-02  0.1029229E+00
         21   -1    0    0  502  501  0.00000000000E+00  0.00000000000E+00  0.35950138354E+03  0.35950138354E+03  0.00000000000E+00 0. -1.
         21   -1    0    0  501  502 -0.00000000000E+00 -0.00000000000E+00 -0.55078950088E+03  0.55078950088E+03  0.00000000000E+00 0. -1.
         25    1    1    2    0    0  0.18980526945E+03 -0.28767297321E+02 -0.11570170952E+03  0.25664271525E+03  0.12500000000E+03 0.  0.
         25    1    1    2    0    0 -0.71217140852E+02  0.27423129086E+03 -0.15082522882E+03  0.34445309069E+03  0.12500000000E+03 0.  0.
         25    1    1    2    0    0 -0.11858812859E+03 -0.24546399354E+03  0.75238821002E+02  0.30919507848E+03  0.12500000000E+03 0.  0.
</event>
<event>
 5    0  0.5619558E-005  0.6829783E+03  0.7546771E-02  0.9746793E-01
         21   -1    0    0  502  501  0.00000000000E+00  0.00000000000E+00  0.28806364790E+04  0.28806364790E+04  0.00000000000E+00 0. -1.
         21   -1    0    0  501  502 -0.00000000000E+00 -0.00000000000E+00 -0.16192926256E+03  0.16192926256E+03  0.00000000000E+00 0. -1.
         25    1    1    2    0    0 -0.55739354270E+02 -0.40699289325E+03  0.22814977198E+04  0.23215526994E+04  0.12500000000E+03 0.  0.
         25    1    1    2    0    0  0.81629626608E+02  0.36076190668E+03  0.17947852166E+03  0.42970930754E+03  0.12500000000E+03 0.  0.
         25    1    1    2    0    0 -0.25890272338E+02  0.46230986570E+02  0.25773097501E+03  0.29130373462E+03  0.12500000000E+03 0.  0.
</event>
<event>
 5    0  0.5619558E-005  0.3569772E+03  0.7546771E-02  0.1059787E+00
         21   -1    0    0  502  501  0.00000000000E+00  0.00000000000E+00  0.12128129075E+04  0.12128129075E+04  0.00000000000E+00 0. -1.
         21   -1    0    0  501  502 -0.00000000000E+00 -0.00000000000E+00 -0.10507202814E+03  0.10507202814E+03  0.00000000000E+00 0. -1.
         25    1    1    2    0    0  0.93648627611E+02 -0.98385351503E+02  0.89278542460E+03  0.91166910511E+03  0.12500000000E+03 0.  0.
         25    1    1    2    0    0 -0.12456699410E+03  0.11340070753E+03  0.16651266919E+03  0.26782106991E+03  0.12500000000E+03 0.  0.
         25    1    1    2    0    0  0.30918366487E+02 -0.15015356022E+02  0.48442785615E+02  0.13839476067E+03  0.12500000000E+03 0.  0.
</event>
<event>
 5    0  0.5619558E-005  0.2798892E+03  0.7546771E-02  0.1095749E+00
         21   -1    0    0  502  501  0.00000000000E+00  0.00000000000E+00  0.11268204374E+04  0.11268204374E+04  0.00000000000E+00 0. -1.
         21   -1    0    0  501  502 -0.00000000000E+00 -0.00000000000E+00 -0.69521250822E+02  0.69521250822E+02  0.00000000000E+00 0. -1.
         25    1    1    2    0    0  0.48514426355E+02  0.50690788283E+02  0.44088010844E+03  0.46359839904E+03  0.12500000000E+03 0.  0.
         25    1    1    2    0    0  0.12626293207E+03 -0.23839300957E+02  0.26402041586E+03  0.31912759247E+03  0.12500000000E+03 0.  0.
         25    1    1    2    0    0 -0.17477735843E+03 -0.26851487326E+02  0.35239866233E+03  0.41361569675E+03  0.12500000000E+03 0.  0.
</event>
<event>
 5    0  0.5619558E-005  0.2921907E+03  0.7546771E-02  0.1089211E+00
         21   -1    0    0  502  501  0.00000000000E+00  0.00000000000E+00  0.73881283516E+03  0.73881283516E+03  0.00000000000E+00 0.  1.
         21   -1    0    0  501  502 -0.00000000000E+00 -0.00000000000E+00 -0.11555759253E+03  0.11555759253E+03  0.00000000000E+00 0.  1.
         25    1    1    2    0    0 -0.10404027478E+03 -0.46194610751E+02  0.62703890233E+02  0.18031943514E+03  0.12500000000E+03 0.  0.
         25    1    1    2    0    0 -0.45175280664E+02 -0.62576407762E+02  0.27469717178E+03  0.31151267867E+03  0.12500000000E+03 0.  0.
         25    1    1    2    0    0  0.14921555544E+03  0.10877101851E+03  0.28585418061E+03  0.36253831388E+03  0.12500000000E+03 0.  0.
</event>
<event>
 5    0  0.5619558E-005  0.2904517E+03  0.7546771E-02  0.1090114E+00
         21   -1    0    0  502  501  0.00000000000E+00  0.00000000000E+00  0.10918640820E+03  0.10918640820E+03  0.00000000000E+00 0.  1.
         21   -1    0    0  501  502 -0.00000000000E+00 -0.00000000000E+00 -0.77264370842E+03  0.77264370842E+03  0.00000000000E+00 0.  1.
         25    1    1    2    0    0 -0.11012329870E+03  0.11780335065E+03 -0.29478918127E+03  0.35851141089E+03  0.12500000000E+03 0.  0.
         25    1    1    2    0    0  0.14929717162E+03 -0.34149471106E+02 -0.12369138364E+03  0.23319603388E+03  0.12500000000E+03 0.  0.
         25    1    1    2    0    0 -0.39173872919E+02 -0.83653879542E+02 -0.24497673531E+03  0.29012267186E+03  0.12500000000E+03 0.  0.
</event>
<event>
 5    0  0.5619558E-005  0.3220250E+03  0.7546771E-02  0.1074721E+00
         21   -1    0    0  502  501  0.00000000000E+00  0.00000000000E+00  0.10420790655E+04  0.10420790655E+04  0.00000000000E+00 0. -1.
         21   -1    0    0  501  502 -0.00000000000E+00 -0.00000000000E+00 -0.99512699500E+02  0.99512699500E+02  0.00000000000E+00 0. -1.
         25    1    1    2    0    0 -0.98380810447E+02 -0.11839456285E+03  0.22144412616E+03  0.29725167348E+03  0.12500000000E+03 0.  0.
         25    1    1    2    0    0  0.16224282717E+03  0.13637713203E+03  0.62916823930E+03  0.67557318660E+03  0.12500000000E+03 0.  0.
         25    1    1    2    0    0 -0.63862016723E+02 -0.17982569186E+02  0.91954000496E+02  0.16876690488E+03  0.12500000000E+03 0.  0.
</event>
<event>
 5    0  0.5619558E-005  0.3641446E+03  0.7546771E-02  0.1056955E+00
         21   -1    0    0  502  501  0.00000000000E+00  0.00000000000E+00  0.27162391937E+04  0.27162391937E+04  0.00000000000E+00 0.  1.
         21   -1    0    0  501  502 -0.00000000000E+00 -0.00000000000E+00 -0.48817968175E+02  0.48817968175E+02  0.00000000000E+00 0.  1.
         25    1    1    2    0    0 -0.14646130352E+03 -0.39352549992E+02  0.93476864348E+03  0.95520518918E+03  0.12500000000E+03 0.  0.
         25    1    1    2    0    0  0.29069101538E+03  0.25494918544E+02  0.12723919467E+04  0.13113952582E+04  0.12500000000E+03 0.  0.
         25    1    1    2    0    0 -0.14422971186E+03  0.13857631448E+02  0.46026063534E+03  0.49845671444E+03  0.12500000000E+03 0.  0.
</event>
<event>
 5    0  0.5619558E-005  0.2394077E+03  0.7546771E-02  0.1120188E+00
         21   -1    0    0  502  501  0.00000000000E+00  0.00000000000E+00  0.37085046387E+03  0.37085046387E+03  0.00000000000E+00 0.  1.
         21   -1    0    0  501  502 -0.00000000000E+00 -0.00000000000E+00 -0.15455303802E+03  0.15455303802E+03  0.00000000000E+00 0.  1.
         25    1    1    2    0    0 -0.65212574936E+02 -0.35125930183E+02  0.11700012422E+03  0.18654902832E+03  0.12500000000E+03 0.  0.
         25    1    1    2    0    0  0.68095223780E+02  0.27410537288E+02 -0.41120430909E+02  0.15067908579E+03  0.12500000000E+03 0.  0.
         25    1    1    2    0    0 -0.28826488445E+01  0.77153928955E+01  0.14041773254E+03  0.18817538777E+03  0.12500000000E+03 0.  0.
</event>
<event>
 5    0  0.5620013E-005  0.2909053E+03  0.7546771E-02  0.1089877E+00
         21   -1    0    0  502  501  0.00000000000E+00  0.00000000000E+00  0.11510245955E+03  0.11510245955E+03  0.00000000000E+00 0. -1.
         21   -1    0    0  501  502 -0.00000000000E+00 -0.00000000000E+00 -0.73522217661E+03  0.73522217661E+03  0.00000000000E+00 0. -1.
         25    1    1    2    0    0 -0.14963130330E+02  0.46010809465E+02 -0.31066328557E+03  0.33834533668E+03  0.12500000000E+03 0.  0.
         25    1    1    2    0    0  0.10625297971E+03 -0.12504518377E+03 -0.73621681432E+02  0.21902316238E+03  0.12500000000E+03 0.  0.
         25    1    1    2    0    0 -0.91289849383E+02  0.79034374304E+02 -0.23583475007E+03  0.29295613710E+03  0.12500000000E+03 0.  0.
</event>
<event>
 5    0  0.5619558E-005  0.3037969E+03  0.7546771E-02  0.1083358E+00
         21   -1    0    0  502  501  0.00000000000E+00  0.00000000000E+00  0.24394284435E+04  0.24394284435E+04  0.00000000000E+00 0.  1.
         21   -1    0    0  501  502 -0.00000000000E+00 -0.00000000000E+00 -0.37833689128E+02  0.37833689128E+02  0.00000000000E+00 0.  1.
         25    1    1    2    0    0 -0.84100698945E+02 -0.28822736616E+02  0.10024985117E+04  0.10141656392E+04  0.12500000000E+03 0.  0.
         25    1    1    2    0    0  0.19968041836E+03  0.64931276556E+02  0.96390302179E+03  0.99439548248E+03  0.12500000000E+03 0.  0.
         25    1    1    2    0    0 -0.11557971941E+03 -0.36108539940E+02  0.43519322090E+03  0.46870101100E+03  0.12500000000E+03 0.  0.
</event>
<event>
 5    0  0.5619558E-005  0.5174352E+03  0.7546771E-02  0.1009326E+00
         21   -1    0    0  502  501  0.00000000000E+00  0.00000000000E+00  0.87446815756E+03  0.87446815756E+03  0.00000000000E+00 0. -1.
         21   -1    0    0  501  502 -0.00000000000E+00 -0.00000000000E+00 -0.30617378301E+03  0.30617378301E+03  0.00000000000E+00 0. -1.
         25    1    1    2    0    0 -0.27942527297E+03 -0.32729949291E+03  0.29479298854E+03  0.53640595385E+03  0.12500000000E+03 0.  0.
         25    1    1    2    0    0 -0.18266091291E+02  0.17920166059E+03  0.15965500332E+03  0.27122242779E+03  0.12500000000E+03 0.  0.
         25    1    1    2    0    0  0.29769136426E+03  0.14809783231E+03  0.11384638269E+03  0.37301355893E+03  0.12500000000E+03 0.  0.
</event>
<event>
 5    0  0.5619558E-005  0.3924089E+03  0.7546771E-02  0.1046440E+00
         21   -1    0    0  502  501  0.00000000000E+00  0.00000000000E+00  0.85410852391E+03  0.85410852391E+03  0.00000000000E+00 0. -1.
         21   -1    0    0  501  502 -0.00000000000E+00 -0.00000000000E+00 -0.18028706598E+03  0.18028706598E+03  0.00000000000E+00 0. -1.
         25    1    1    2    0    0 -0.21820732771E+02  0.87367277754E+02 -0.60693542977E+02  0.16558348879E+03  0.12500000000E+03 0.  0.
         25    1    1    2    0    0 -0.13471391862E+03  0.74294334223E+02  0.40281689565E+03  0.44894759091E+03  0.12500000000E+03 0.  0.
         25    1    1    2    0    0  0.15653465140E+03 -0.16166161198E+03  0.33169810526E+03  0.41986451018E+03  0.12500000000E+03 0.  0.
</event>
<event>
 5    0  0.6070573E-005  0.3459109E+03  0.7546771E-02  0.1064306E+00
         21   -1    0    0  502  501  0.00000000000E+00  0.00000000000E+00  0.27388277692E+03  0.27388277692E+03  0.00000000000E+00 0.  1.
         21   -1    0    0  501  502 -0.00000000000E+00 -0.00000000000E+00 -0.43688171074E+03  0.43688171074E+03  0.00000000000E+00 0.  1.
         25    1    1    2    0    0 -0.58631323545E+02 -0.19554826038E+03 -0.28808351365E+02  0.24110511266E+03  0.12500000000E+03 0.  0.
         25    1    1    2    0    0  0.14418510505E+03  0.11889791500E+03  0.37807345035E+02  0.22799222366E+03  0.12500000000E+03 0.  0.
         25    1    1    2    0    0 -0.85553781508E+02  0.76650345383E+02 -0.17199792749E+03  0.24166715134E+03  0.12500000000E+03 0.  0.
</event>
<event>
 5    0  0.5619558E-005  0.3743706E+03  0.7546771E-02  0.1053034E+00
         21   -1    0    0  502  501  0.00000000000E+00  0.00000000000E+00  0.60250769658E+03  0.60250769658E+03  0.00000000000E+00 0.  1.
         21   -1    0    0  501  502 -0.00000000000E+00 -0.00000000000E+00 -0.23261674706E+03  0.23261674706E+03  0.00000000000E+00 0.  1.
         25    1    1    2    0    0 -0.24555526068E+03 -0.34674671059E+01  0.23428396280E+03  0.36169515424E+03  0.12500000000E+03 0.  0.
         25    1    1    2    0    0  0.29178728828E+03  0.24060480759E+02  0.86234563646E+02  0.32981832621E+03  0.12500000000E+03 0.  0.
         25    1    1    2    0    0 -0.46232027595E+02 -0.20593013653E+02  0.49372423074E+02  0.14361096319E+03  0.12500000000E+03 0.  0.
</event>
<event>
 5    0  0.5619558E-005  0.2810117E+03  0.7546771E-02  0.1095138E+00
         21   -1    0    0  502  501  0.00000000000E+00  0.00000000000E+00  0.69722051556E+02  0.69722051556E+02  0.00000000000E+00 0.  1.
         21   -1    0    0  501  502 -0.00000000000E+00 -0.00000000000E+00 -0.11326054697E+04  0.11326054697E+04  0.00000000000E+00 0.  1.
         25    1    1    2    0    0  0.24657130677E+02  0.33864705969E+01 -0.20506169738E+02  0.12909277777E+03  0.12500000000E+03 0.  0.
         25    1    1    2    0    0 -0.12069105316E+02  0.21058994413E+02 -0.54006056076E+03  0.55486895195E+03  0.12500000000E+03 0.  0.
         25    1    1    2    0    0 -0.12588025361E+02 -0.24445465010E+02 -0.50231668763E+03  0.51836579151E+03  0.12500000000E+03 0.  0.
</event>
<event>
 5    0  0.5619558E-005  0.2914206E+03  0.7546771E-02  0.1089610E+00
         21   -1    0    0  502  501  0.00000000000E+00  0.00000000000E+00  0.25294498272E+03  0.25294498272E+03  0.00000000000E+00 0. -1.
         21   -1    0    0  501  502 -0.00000000000E+00 -0.00000000000E+00 -0.33574873687E+03  0.33574873687E+03  0.00000000000E+00 0. -1.
         25    1    1    2    0    0 -0.74665970401E+02  0.11152521207E+03 -0.43117989615E+02  0.18840658452E+03  0.12500000000E+03 0.  0.
         25    1    1    2    0    0 -0.27919293637E+02  0.28145839358E+01  0.96111343064E+02  0.16015554660E+03  0.12500000000E+03 0.  0.
         25    1    1    2    0    0  0.10258526404E+03 -0.11433979601E+03 -0.13579710760E+03  0.24013158847E+03  0.12500000000E+03 0.  0.
</event>
<event>
 5    0  0.5619558E-005  0.2599304E+03  0.7546771E-02  0.1107185E+00
         21   -1    0    0  502  501  0.00000000000E+00  0.00000000000E+00  0.21675466874E+03  0.21675466874E+03  0.00000000000E+00 0. -1.
         21   -1    0    0  501  502 -0.00000000000E+00 -0.00000000000E+00 -0.31170627394E+03  0.31170627394E+03  0.00000000000E+00 0. -1.
         25    1    1    2    0    0  0.15588706951E+02 -0.49200180724E+02 -0.89698028293E+02  0.16227877818E+03  0.12500000000E+03 0.  0.
         25    1    1    2    0    0  0.11999732870E+03  0.54127154475E+02 -0.75190474179E+01  0.18168831503E+03  0.12500000000E+03 0.  0.
         25    1    1    2    0    0 -0.13558603565E+03 -0.49269737505E+01  0.22654705097E+01  0.18449384946E+03  0.12500000000E+03 0.  0.
</event>
<event>
 5    0  0.5619558E-005  0.3073933E+03  0.7546771E-02  0.1081602E+00
         21   -1    0    0  502  501  0.00000000000E+00  0.00000000000E+00  0.49307167854E+02  0.49307167854E+02  0.00000000000E+00 0.  1.
         21   -1    0    0  501  502 -0.00000000000E+00 -0.00000000000E+00 -0.19163671489E+04  0.19163671489E+04  0.00000000000E+00 0.  1.
         25    1    1    2    0    0 -0.33300034947E+02 -0.10345725706E+03 -0.42011655615E+03  0.45159187008E+03  0.12500000000E+03 0.  0.
         25    1    1    2    0    0 -0.36232596357E+02 -0.12222234062E+03 -0.59829331571E+03  0.62436447145E+03  0.12500000000E+03 0.  0.
         25    1    1    2    0    0  0.69532631304E+02  0.22567959768E+03 -0.84865010922E+03  0.88971797526E+03  0.12500000000E+03 0.  0.
</event>
<event>
 5    0  0.5619558E-005  0.3461894E+03  0.7546771E-02  0.1064190E+00
         21   -1    0    0  502  501  0.00000000000E+00  0.00000000000E+00  0.49845082594E+02  0.49845082594E+02  0.00000000000E+00 0. -1.
         21   -1    0    0  501  502 -0.00000000000E+00 -0.00000000000E+00 -0.24043923474E+04  0.24043923474E+04  0.00000000000E+00 0. -1.
         25    1    1    2    0    0  0.10050565425E+03 -0.14114578746E+03 -0.89438004875E+03  0.91954564403E+03  0.12500000000E+03 0.  0.
         25    1    1    2    0    0 -0.19955279007E+03  0.18767033115E+03 -0.82768427596E+03  0.88075406891E+03  0.12500000000E+03 0.  0.
         25    1    1    2    0    0  0.99047135821E+02 -0.46524543685E+02 -0.63248294007E+03  0.65393771703E+03  0.12500000000E+03 0.  0.
</event>
<event>
 5    0  0.5619558E-005  0.2271631E+03  0.7546771E-02  0.1128653E+00
         21   -1    0    0  502  501  0.00000000000E+00  0.00000000000E+00  0.28504878252E+03  0.28504878252E+03  0.00000000000E+00 0. -1.
         21   -1    0    0  501  502 -0.00000000000E+00 -0.00000000000E+00 -0.18103242436E+03  0.18103242436E+03  0.00000000000E+00 0. -1.
         25    1    1    2    0    0 -0.36294577679E+02 -0.36463892537E+02  0.51405927227E+02  0.14461839849E+03  0.12500000000E+03 0.  0.
         25    1    1    2    0    0  0.10194784907E+03 -0.16131404322E+02  0.53757918865E+02  0.17078788006E+03  0.12500000000E+03 0.  0.
         25    1    1    2    0    0 -0.65653271393E+02  0.52595296859E+02 -0.11474879377E+01  0.15067492832E+03  0.12500000000E+03 0.  0.
</event>
<event>
 5    0  0.5619558E-005  0.2999121E+03  0.7546771E-02  0.1085285E+00
         21   -1    0    0  502  501  0.00000000000E+00  0.00000000000E+00  0.19539988710E+03  0.19539988710E+03  0.00000000000E+00 0.  1.
         21   -1    0    0  501  502 -0.00000000000E+00 -0.00000000000E+00 -0.46032389925E+03  0.46032389925E+03  0.00000000000E+00 0.  1.
         25    1    1    2    0    0  0.80182841253E+02  0.12164051535E+03 -0.21199267526E+02  0.19313236898E+03  0.12500000000E+03 0.  0.
         25    1    1    2    0    0  0.69242695698E+02  0.10963306442E+02 -0.34400617458E+02  0.14738774534E+03  0.12500000000E+03 0.  0.
         25    1    1    2    0    0 -0.14942553695E+03 -0.13260382179E+03 -0.20932412716E+03  0.31520367203E+03  0.12500000000E+03 0.  0.
</event>
<event>
 5    0  0.5619558E-005  0.2740798E+03  0.7546771E-02  0.1098967E+00
         21   -1    0    0  502  501  0.00000000000E+00  0.00000000000E+00  0.37659741301E+02  0.37659741301E+02  0.00000000000E+00 0. -1.
         21   -1    0    0  501  502 -0.00000000000E+00 -0.00000000000E+00 -0.19946963517E+04  0.19946963517E+04  0.00000000000E+00 0. -1.
         25    1    1    2    0    0 -0.10511834278E+03 -0.24990258545E+02 -0.57566620522E+03  0.59890813890E+03  0.12500000000E+03 0.  0.
         25    1    1    2    0    0  0.13675125375E+03 -0.37544989244E+02 -0.11156092088E+04  0.11315120142E+04  0.12500000000E+03 0.  0.
         25    1    1    2    0    0 -0.31632910968E+02  0.62535247789E+02 -0.26576119634E+03  0.30193593982E+03  0.12500000000E+03 0.  0.
</event>
<event>
 5    0  0.5619558E-005  0.3865514E+03  0.7546771E-02  0.1048539E+00
         21   -1    0    0  502  501  0.00000000000E+00  0.00000000000E+00  0.36787973003E+03  0.36787973003E+03  0.00000000000E+00 0. -1.
         21   -1    0    0  501  502 -0.00000000000E+00 -0.00000000000E+00 -0.40617074876E+03  0.40617074876E+03  0.00000000000E+00 0. -1.
         25    1    1    2    0    0  0.11556874355E+03  0.10077240145E+02 -0.82611431443E+02  0.18949230554E+03  0.12500000000E+03 0.  0.
         25    1    1    2    0    0 -0.10109911775E+03  0.24340343479E+03  0.71262147285E+02  0.30028246254E+03  0.12500000000E+03 0.  0.
         25    1    1    2    0    0 -0.14469625801E+02 -0.25348067493E+03 -0.26941734575E+02  0.28427571070E+03  0.12500000000E+03 0.  0.
</event>
<event>
 5    0  0.5619558E-005  0.4444642E+03  0.7546771E-02  0.1029386E+00
         21   -1    0    0  502  501  0.00000000000E+00  0.00000000000E+00  0.14990284662E+03  0.14990284662E+03  0.00000000000E+00 0.  1.
         21   -1    0    0  501  502 -0.00000000000E+00 -0.00000000000E+00 -0.13178428367E+04  0.13178428367E+04  0.00000000000E+00 0.  1.
         25    1    1    2    0    0  0.64673551624E+02 -0.27509103643E+03 -0.22190800732E+03  0.38042858767E+03  0.12500000000E+03 0.  0.
         25    1    1    2    0    0  0.66814611710E+02  0.25491186665E+03 -0.31013371452E+03  0.42573721118E+03  0.12500000000E+03 0.  0.
         25    1    1    2    0    0 -0.13148816333E+03  0.20179169777E+02 -0.63589826825E+03  0.66157988449E+03  0.12500000000E+03 0.  0.
</event>
<event>
 5    0  0.5619558E-005  0.8553822E+03  0.7546771E-02  0.9483141E-01
         21   -1    0    0  502  501  0.00000000000E+00  0.00000000000E+00  0.41005533858E+03  0.41005533858E+03  0.00000000000E+00 0. -1.
         21   -1    0    0  501  502 -0.00000000000E+00 -0.00000000000E+00 -0.17843414007E+04  0.17843414007E+04  0.00000000000E+00 0. -1.
         25    1    1    2    0    0  0.63249366146E+02  0.11138612788E+03 -0.19638710891E+00  0.17897594914E+03  0.12500000000E+03 0.  0.
         25    1    1    2    0    0  0.21570111176E+03  0.30521538666E+03 -0.14414329523E+04  0.14943350889E+04  0.12500000000E+03 0.  0.
         25    1    1    2    0    0 -0.27895047791E+03 -0.41660151454E+03  0.67343277304E+02  0.52108570125E+03  0.12500000000E+03 0.  0.
</event>
<event>
 5    0  0.5761531E-005  0.2898568E+03  0.7546771E-02  0.1090424E+00
         21   -1    0    0  502  501  0.00000000000E+00  0.00000000000E+00  0.25274601810E+03  0.25274601810E+03  0.00000000000E+00 0.  1.
         21   -1    0    0  501  502 -0.00000000000E+00 -0.00000000000E+00 -0.33241651355E+03  0.33241651355E+03  0.00000000000E+00 0.  1.
         25    1    1    2    0    0 -0.32373168016E+02 -0.13554667407E+03 -0.39374518956E+02  0.19130153058E+03  0.12500000000E+03 0.  0.
         25    1    1    2    0    0  0.50131907683E+01 -0.14707559624E+02 -0.12648230559E+03  0.17850551257E+03  0.12500000000E+03 0.  0.
         25    1    1    2    0    0  0.27359977247E+02  0.15025423370E+03  0.86186329092E+02  0.21535548849E+03  0.12500000000E+03 0.  0.
</event>
<event>
 5    0  0.5619558E-005  0.3840812E+03  0.7546771E-02  0.1049436E+00
         21   -1    0    0  502  501  0.00000000000E+00  0.00000000000E+00  0.51395218865E+03  0.51395218865E+03  0.00000000000E+00 0.  1.
         21   -1    0    0  501  502 -0.00000000000E+00 -0.00000000000E+00 -0.28702745898E+03  0.28702745898E+03  0.00000000000E+00 0.  1.
         25    1    1    2    0    0  0.17489387669E+03 -0.13941735881E+03  0.27284264440E+03  0.37429023050E+03  0.12500000000E+03 0.  0.
         25    1    1    2    0    0 -0.10840581098E+03  0.14353278779E+03 -0.13693848370E+03  0.25832272324E+03  0.12500000000E+03 0.  0.
         25    1    1    2    0    0 -0.66488065712E+02 -0.41154289754E+01  0.91020568967E+02  0.16836669389E+03  0.12500000000E+03 0.  0.
</event>
<event>
 5    0  0.5619558E-005  0.2576652E+03  0.7546771E-02  0.1108554E+00
         21   -1    0    0  502  501  0.00000000000E+00  0.00000000000E+00  0.12183392568E+04  0.12183392568E+04  0.00000000000E+00 0. -1.
         21   -1    0    0  501  502 -0.00000000000E+00 -0.00000000000E+00 -0.54493334582E+02  0.54493334582E+02  0.00000000000E+00 0. -1.
         25    1    1    2    0    0  0.61761656118E+02  0.35491428028E+02  0.15320730811E+03  0.21017046150E+03  0.12500000000E+03 0.  0.
         25    1    1    2    0    0 -0.85345158915E+02 -0.10224482819E+03  0.62464002879E+03  0.65079794607E+03  0.12500000000E+03 0.  0.
         25    1    1    2    0    0  0.23583502797E+02  0.66753400160E+02  0.38599858529E+03  0.41186418378E+03  0.12500000000E+03 0.  0.
</event>
<event>
 5    0  0.5619558E-005  0.3845367E+03  0.7546771E-02  0.1049270E+00
         21   -1    0    0  502  501  0.00000000000E+00  0.00000000000E+00  0.99974623259E+03  0.99974623259E+03  0.00000000000E+00 0. -1.
         21   -1    0    0  501  502 -0.00000000000E+00 -0.00000000000E+00 -0.14790599535E+03  0.14790599535E+03  0.00000000000E+00 0. -1.
         25    1    1    2    0    0 -0.10903076002E+03  0.31123478602E+02  0.72439833052E+03  0.74379722964E+03  0.12500000000E+03 0.  0.
         25    1    1    2    0    0  0.18410731536E+03 -0.63151381985E+02  0.54280381882E+02  0.23760252623E+03  0.12500000000E+03 0.  0.
         25    1    1    2    0    0 -0.75076555331E+02  0.32027903383E+02  0.73161524833E+02  0.16625247208E+03  0.12500000000E+03 0.  0.
</event>
<event>
 5    0  0.5619558E-005  0.2744104E+03  0.7546771E-02  0.1098782E+00
         21   -1    0    0  502  501  0.00000000000E+00  0.00000000000E+00  0.15086263365E+03  0.15086263365E+03  0.00000000000E+00 0.  1.
         21   -1    0    0  501  502 -0.00000000000E+00 -0.00000000000E+00 -0.49913648355E+03  0.49913648355E+03  0.00000000000E+00 0.  1.
         25    1    1    2    0    0  0.12168048231E+03 -0.10249743959E+03 -0.14836964427E+03  0.25089921530E+03  0.12500000000E+03 0.  0.
         25    1    1    2    0    0 -0.10010542890E+03 -0.10022385740E+02 -0.15634625648E+03  0.22403280346E+03  0.12500000000E+03 0.  0.
         25    1    1    2    0    0 -0.21575053407E+02  0.11251982533E+03 -0.43557949148E+02  0.17506709844E+03  0.12500000000E+03 0.  0.
</event>
<event>
 5    0  0.5619558E-005  0.2339361E+03  0.7546771E-02  0.1123900E+00
         21   -1    0    0  502  501  0.00000000000E+00  0.00000000000E+00  0.67813116261E+02  0.67813116261E+02  0.00000000000E+00 0.  1.
         21   -1    0    0  501  502 -0.00000000000E+00 -0.00000000000E+00 -0.80701365412E+03  0.80701365412E+03  0.00000000000E+00 0.  1.
         25    1    1    2    0    0 -0.41381802094E+02 -0.42284616298E+02 -0.18021965866E+03  0.22716638767E+03  0.12500000000E+03 0.  0.
         25    1    1    2    0    0 -0.38530980618E+02  0.92102571047E+02 -0.20045990169E+03  0.25646967120E+03  0.12500000000E+03 0.  0.
         25    1    1    2    0    0  0.79912782712E+02 -0.49817954749E+02 -0.35852097751E+03  0.39119071151E+03  0.12500000000E+03 0.  0.
</event>
<event>
 5    0  0.5619558E-005  0.2771378E+03  0.7546771E-02  0.1097263E+00
         21   -1    0    0  502  501  0.00000000000E+00  0.00000000000E+00  0.17643952995E+03  0.17643952995E+03  0.00000000000E+00 0. -1.
         21   -1    0    0  501  502 -0.00000000000E+00 -0.00000000000E+00 -0.43530694053E+03  0.43530694053E+03  0.00000000000E+00 0. -1.
         25    1    1    2    0    0  0.67741305849E+02  0.13967308573E+02 -0.52826203566E+02  0.15231407686E+03  0.12500000000E+03 0.  0.
         25    1    1    2    0    0 -0.34576315982E+02  0.10428388794E+03  0.26226953373E+02  0.16847404546E+03  0.12500000000E+03 0.  0.
         25    1    1    2    0    0 -0.33164989867E+02 -0.11825119651E+03 -0.23226816039E+03  0.29095834815E+03  0.12500000000E+03 0.  0.
</event>
<event>
 5    0  0.5619558E-005  0.2578335E+03  0.7546771E-02  0.1108452E+00
         21   -1    0    0  502  501  0.00000000000E+00  0.00000000000E+00  0.89625559817E+02  0.89625559817E+02  0.00000000000E+00 0. -1.
         21   -1    0    0  501  502 -0.00000000000E+00 -0.00000000000E+00 -0.74173142646E+03  0.74173142646E+03  0.00000000000E+00 0. -1.
         25    1    1    2    0    0 -0.89514917908E+02 -0.55644249427E+02 -0.28323545689E+03  0.32704208760E+03  0.12500000000E+03 0.  0.
         25    1    1    2    0    0  0.10885137534E+02  0.12074617756E+03 -0.24638873037E+03  0.30171266475E+03  0.12500000000E+03 0.  0.
         25    1    1    2    0    0  0.78629780374E+02 -0.65101928136E+02 -0.12248167938E+03  0.20260223393E+03  0.12500000000E+03 0.  0.
</event>
<event>
 5    0  0.6438058E-005  0.2757517E+03  0.7546771E-02  0.1098032E+00
         21   -1    0    0  502  501  0.00000000000E+00  0.00000000000E+00  0.36408069468E+03  0.36408069468E+03  0.00000000000E+00 0.  1.
         21   -1    0    0  501  502 -0.00000000000E+00 -0.00000000000E+00 -0.20885207278E+03  0.20885207278E+03  0.00000000000E+00 0.  1.
         25    1    1    2    0    0  0.10276623100E+02 -0.99492370752E+02  0.64998059327E+02  0.17278335723E+03  0.12500000000E+03 0.  0.
         25    1    1    2    0    0  0.89458886712E+02 -0.57518017196E+02  0.56166536181E+02  0.17346727213E+03  0.12500000000E+03 0.  0.
         25    1    1    2    0    0 -0.99735509812E+02  0.15701038795E+03  0.34064026393E+02  0.22668213810E+03  0.12500000000E+03 0.  0.
</event>
<event>
 5    0  0.5619558E-005  0.4763398E+03  0.7546771E-02  0.1020146E+00
         21   -1    0    0  502  501  0.00000000000E+00  0.00000000000E+00  0.14423239596E+04  0.14423239596E+04  0.00000000000E+00 0.  1.
         21   -1    0    0  501  502 -0.00000000000E+00 -0.00000000000E+00 -0.15731530978E+03  0.15731530978E+03  0.00000000000E+00 0.  1.
         25    1    1    2    0    0 -0.26198645386E+03  0.92351599739E+02  0.48742464753E+03  0.57478126883E+03  0.12500000000E+03 0.  0.
         25    1    1    2    0    0  0.13560204267E+03  0.12389357743E+03  0.69013407890E+03  0.72501557181E+03  0.12500000000E+03 0.  0.
         25    1    1    2    0    0  0.12638441119E+03 -0.21624517717E+03  0.10744992339E+03  0.29984242874E+03  0.12500000000E+03 0.  0.
</event>
<event>
 5    0  0.5619558E-005  0.2225176E+03  0.7546771E-02  0.1132020E+00
         21   -1    0    0  502  501  0.00000000000E+00  0.00000000000E+00  0.56053100276E+03  0.56053100276E+03  0.00000000000E+00 0. -1.
         21   -1    0    0  501  502 -0.00000000000E+00 -0.00000000000E+00 -0.88334268107E+02  0.88334268107E+02  0.00000000000E+00 0. -1.
         25    1    1    2    0    0  0.68520796036E+02 -0.40442241780E+02  0.19060258383E+03  0.24142290565E+03  0.12500000000E+03 0.  0.
         25    1    1    2    0    0 -0.68847237272E+02  0.17485945403E+02  0.22792982554E+03  0.26948600286E+03  0.12500000000E+03 0.  0.
         25    1    1    2    0    0  0.32644123648E+00  0.22956296377E+02  0.53664325286E+02  0.13795636236E+03  0.12500000000E+03 0.  0.
</event>
<event>
 5    0  0.5619558E-005  0.2431175E+03  0.7546771E-02  0.1117733E+00
         21   -1    0    0  502  501  0.00000000000E+00  0.00000000000E+00  0.83843334897E+02  0.83843334897E+02  0.00000000000E+00 0.  1.
         21   -1    0    0  501  502 -0.00000000000E+00 -0.00000000000E+00 -0.70495878927E+03  0.70495878927E+03  0.00000000000E+00 0.  1.
         25    1    1    2    0    0  0.91896934392E+02  0.38319351965E+02 -0.11459226162E+03  0.19664639765E+03  0.12500000000E+03 0.  0.
         25    1    1    2    0    0 -0.20762203391E+01 -0.45317736750E+02 -0.13288422325E+03  0.18799261885E+03  0.12500000000E+03 0.  0.
         25    1    1    2    0    0 -0.89820714053E+02  0.69983847845E+01 -0.37363896950E+03  0.40416310766E+03  0.12500000000E+03 0.  0.
</event>
<event>
 5    0  0.5619558E-005  0.2686714E+03  0.7546771E-02  0.1102042E+00
         21   -1    0    0  502  501  0.00000000000E+00  0.00000000000E+00  0.21202844043E+03  0.21202844043E+03  0.00000000000E+00 0. -1.
         21   -1    0    0  501  502 -0.00000000000E+00 -0.00000000000E+00 -0.34044632222E+03  0.34044632222E+03  0.00000000000E+00 0. -1.
         25    1    1    2    0    0 -0.91369962136E+01  0.10533364949E+03 -0.89734598677E+01  0.16396397591E+03  0.12500000000E+03 0.  0.
         25    1    1    2    0    0 -0.74307885464E+02  0.79380349196E+01 -0.13641860364E+03  0.19954876512E+03  0.12500000000E+03 0.  0.
         25    1    1    2    0    0  0.83444881678E+02 -0.11327168441E+03  0.16974181715E+02  0.18896202161E+03  0.12500000000E+03 0.  0.
</event>
<event>
 5    0  0.5619558E-005  0.2442796E+03  0.7546771E-02  0.1116974E+00
         21   -1    0    0  502  501  0.00000000000E+00  0.00000000000E+00  0.62903505758E+02  0.62903505758E+02  0.00000000000E+00 0.  1.
         21   -1    0    0  501  502 -0.00000000000E+00 -0.00000000000E+00 -0.94863597359E+03  0.94863597359E+03  0.00000000000E+00 0.  1.
         25    1    1    2    0    0  0.32101173343E+02 -0.59895372911E+02 -0.98327708763E+02  0.17294877663E+03  0.12500000000E+03 0.  0.
         25    1    1    2    0    0 -0.89372969197E+01  0.37580170795E+02 -0.21388848171E+03  0.25072978906E+03  0.12500000000E+03 0.  0.
         25    1    1    2    0    0 -0.23163876423E+02  0.22315202117E+02 -0.57351627735E+03  0.58786091366E+03  0.12500000000E+03 0.  0.
</event>
<event>
 5    0  0.5619558E-005  0.4463593E+03  0.7546771E-02  0.1028813E+00
         21   -1    0    0  502  501  0.00000000000E+00  0.00000000000E+00  0.71040731905E+03  0.71040731905E+03  0.00000000000E+00 0. -1.
         21   -1    0    0  501  502 -0.00000000000E+00 -0.00000000000E+00 -0.28045405541E+03  0.28045405541E+03  0.00000000000E+00 0. -1.
         25    1    1    2    0    0 -0.54079409575E+02  0.49351347743E+01  0.51145586599E+03  0.52930240974E+03  0.12500000000E+03 0.  0.
         25    1    1    2    0    0 -0.80921072209E+02  0.10506582964E+03  0.74044467552E+02  0.19670951086E+03  0.12500000000E+03 0.  0.
         25    1    1    2    0    0  0.13500048178E+03 -0.11000096442E+03 -0.15554706991E+03  0.26484945386E+03  0.12500000000E+03 0.  0.
</event>
<event>
 5    0  0.5619558E-005  0.4053048E+03  0.7546771E-02  0.1041958E+00
         21   -1    0    0  502  501  0.00000000000E+00  0.00000000000E+00  0.33857544300E+03  0.33857544300E+03  0.00000000000E+00 0.  1.
         21   -1    0    0  501  502 -0.00000000000E+00 -0.00000000000E+00 -0.48518573694E+03  0.48518573694E+03  0.00000000000E+00 0.  1.
         25    1    1    2    0    0  0.65376949597E+02 -0.26483488035E+03  0.10288160147E+03  0.31720858013E+03  0.12500000000E+03 0.  0.
         25    1    1    2    0    0 -0.11491921460E+03  0.20909035610E+03 -0.23987145034E+03  0.36067785570E+03  0.12500000000E+03 0.  0.
         25    1    1    2    0    0  0.49542265006E+02  0.55744524245E+02 -0.96204450641E+01  0.14587474411E+03  0.12500000000E+03 0.  0.
</event>
<event>
 5    0  0.5619558E-005  0.2126979E+03  0.7546771E-02  0.1139447E+00
         21   -1    0    0  502  501  0.00000000000E+00  0.00000000000E+00  0.53085535260E+03  0.53085535260E+03  0.00000000000E+00 0. -1.
         21   -1    0    0  501  502 -0.00000000000E+00 -0.00000000000E+00 -0.85221738654E+02  0.85221738654E+02  0.00000000000E+00 0. -1.
         25    1    1    2    0    0  0.93904785250E+01 -0.56369417926E+02  0.18671793809E+03  0.23184969435E+03  0.12500000000E+03 0.  0.
         25    1    1    2    0    0 -0.32326173709E+02  0.60364774246E+02  0.19605720651E+03  0.24238876975E+03  0.12500000000E+03 0.  0.
         25    1    1    2    0    0  0.22935695184E+02 -0.39953563198E+01  0.62858469348E+02  0.14183862716E+03  0.12500000000E+03 0.  0.
</event>
<event>
 5    0  0.5619558E-005  0.2609979E+03  0.7546771E-02  0.1106545E+00
         21   -1    0    0  502  501  0.00000000000E+00  0.00000000000E+00  0.95813326398E+02  0.95813326398E+02  0.00000000000E+00 0.  1.
         21   -1    0    0  501  502 -0.00000000000E+00 -0.00000000000E+00 -0.71096503511E+03  0.71096503511E+03  0.00000000000E+00 0.  1.
         25    1    1    2    0    0 -0.11781708980E+03  0.90671971578E+01 -0.26282787096E+03  0.31411235325E+03  0.12500000000E+03 0.  0.
         25    1    1    2    0    0  0.14703439886E+03 -0.12592307831E+02 -0.29332600407E+03  0.35134431165E+03  0.12500000000E+03 0.  0.
         25    1    1    2    0    0 -0.29217309062E+02  0.35251106728E+01 -0.58997833691E+02  0.14132169662E+03  0.12500000000E+03 0.  0.
</event>
<event>
 5    0  0.5619558E-005  0.3576259E+03  0.7546771E-02  0.1059528E+00
         21   -1    0    0  502  501  0.00000000000E+00  0.00000000000E+00  0.13887574601E+03  0.13887574601E+03  0.00000000000E+00 0. -1.
         21   -1    0    0  501  502 -0.00000000000E+00 -0.00000000000E+00 -0.92094015931E+03  0.92094015931E+03  0.00000000000E+00 0. -1.
         25    1    1    2    0    0  0.17253467228E+02  0.75094760284E+02 -0.90663122863E+02  0.17257377263E+03  0.12500000000E+03 0.  0.
         25    1    1    2    0    0 -0.37686341470E+02 -0.20095199297E+03 -0.66485312568E+03  0.70672246500E+03  0.12500000000E+03 0.  0.
         25    1    1    2    0    0  0.20432874242E+02  0.12585723268E+03 -0.26548164751E+02  0.18051966768E+03  0.12500000000E+03 0.  0.
</event>
<event>
 5    0  0.5619558E-005  0.2899637E+03  0.7546771E-02  0.1090368E+00
         21   -1    0    0  502  501  0.00000000000E+00  0.00000000000E+00  0.24521980424E+03  0.24521980424E+03  0.00000000000E+00 0. -1.
         21   -1    0    0  501  502 -0.00000000000E+00 -0.00000000000E+00 -0.34287172259E+03  0.34287172259E+03  0.00000000000E+00 0. -1.
         25    1    1    2    0    0  0.71197759047E+02 -0.12607612045E+02 -0.12243566954E+03  0.18932397088E+03  0.12500000000E+03 0.  0.
         25    1    1    2    0    0  0.81201634803E+01 -0.65732803171E+02 -0.11365860072E+03  0.18146629435E+03  0.12500000000E+03 0.  0.
         25    1    1    2    0    0 -0.79317922527E+02  0.78340415216E+02  0.13844235191E+03  0.21730126160E+03  0.12500000000E+03 0.  0.
</event>
<event>
 5    0  0.5619558E-005  0.3007243E+03  0.7546771E-02  0.1084879E+00
         21   -1    0    0  502  501  0.00000000000E+00  0.00000000000E+00  0.21294981891E+03  0.21294981891E+03  0.00000000000E+00 0.  1.
         21   -1    0    0  501  502 -0.00000000000E+00 -0.00000000000E+00 -0.42467804542E+03  0.42467804542E+03  0.00000000000E+00 0.  1.
         25    1    1    2    0    0 -0.79129620114E+02 -0.92732796049E+02 -0.20879158353E+03  0.27217603420E+03  0.12500000000E+03 0.  0.
         25    1    1    2    0    0  0.13927169829E+02  0.15404352266E+03 -0.49276452231E+02  0.20488177488E+03  0.12500000000E+03 0.  0.
         25    1    1    2    0    0  0.65202450285E+02 -0.61310726611E+02  0.46339809256E+02  0.16057005525E+03  0.12500000000E+03 0.  0.
</event>
<event>
 5    0  0.5619558E-005  0.3676621E+03  0.7546771E-02  0.1055590E+00
         21   -1    0    0  502  501  0.00000000000E+00  0.00000000000E+00  0.77295834620E+03  0.77295834620E+03  0.00000000000E+00 0. -1.
         21   -1    0    0  501  502 -0.00000000000E+00 -0.00000000000E+00 -0.17488064791E+03  0.17488064791E+03  0.00000000000E+00 0.  1.
         25    1    1    2    0    0 -0.18462977754E+03  0.42729314771E+02  0.49488363847E+03  0.54447108713E+03  0.12500000000E+03 0.  0.
         25    1    1    2    0    0  0.14293875359E+03 -0.10160103476E+03 -0.16331683165E+02  0.21597680759E+03  0.12500000000E+03 0.  0.
         25    1    1    2    0    0  0.41691023942E+02  0.58871719988E+02  0.11952574300E+03  0.18739109939E+03  0.12500000000E+03 0.  0.
</event>
<event>
 5    0  0.5619558E-005  0.2266524E+03  0.7546771E-02  0.1129018E+00
         21   -1    0    0  502  501  0.00000000000E+00  0.00000000000E+00  0.37905572950E+03  0.37905572950E+03  0.00000000000E+00 0. -1.
         21   -1    0    0  501  502 -0.00000000000E+00 -0.00000000000E+00 -0.13552445978E+03  0.13552445978E+03  0.00000000000E+00 0. -1.
         25    1    1    2    0    0 -0.62021846308E+02  0.50270048161E+02  0.11390294843E+02  0.14875659978E+03  0.12500000000E+03 0.  0.
         25    1    1    2    0    0  0.73277560311E+02 -0.46123594757E+02  0.16117605367E+03  0.22158453717E+03  0.12500000000E+03 0.  0.
         25    1    1    2    0    0 -0.11255714003E+02 -0.41464534036E+01  0.70964921215E+02  0.14423905233E+03  0.12500000000E+03 0.  0.
</event>
<event>
 5    0  0.5619558E-005  0.2529016E+03  0.7546771E-02  0.1111485E+00
         21   -1    0    0  502  501  0.00000000000E+00  0.00000000000E+00  0.33222189104E+02  0.33222189104E+02  0.00000000000E+00 0.  1.
         21   -1    0    0  501  502 -0.00000000000E+00 -0.00000000000E+00 -0.19251961239E+04  0.19251961239E+04  0.00000000000E+00 0.  1.
         25    1    1    2    0    0  0.11236803448E+03 -0.76787700946E+02 -0.98966260699E+03  0.10067671041E+04  0.12500000000E+03 0.  0.
         25    1    1    2    0    0 -0.10895353869E+03  0.32780027089E+02 -0.54088397887E+03  0.56667969998E+03  0.12500000000E+03 0.  0.
         25    1    1    2    0    0 -0.34144957881E+01  0.44007673856E+02 -0.36142734896E+03  0.38497150897E+03  0.12500000000E+03 0.  0.
</event>
<event>
 5    0  0.5619558E-005  0.2894766E+03  0.7546771E-02  0.1090623E+00
         21   -1    0    0  502  501  0.00000000000E+00  0.00000000000E+00  0.36153400812E+03  0.36153400812E+03  0.00000000000E+00 0.  1.
         21   -1    0    0  501  502 -0.00000000000E+00 -0.00000000000E+00 -0.23178102284E+03  0.23178102284E+03  0.00000000000E+00 0.  1.
         25    1    1    2    0    0 -0.12651730660E+03  0.49575773183E+01 -0.53045582454E+02  0.18566108978E+03  0.12500000000E+03 0.  0.
         25    1    1    2    0    0  0.14202139096E+03 -0.82723697273E+01  0.46303455828E+01  0.18943322753E+03  0.12500000000E+03 0.  0.
         25    1    1    2    0    0 -0.15504084361E+02  0.33147924090E+01  0.17816822215E+03  0.21822071365E+03  0.12500000000E+03 0.  0.
</event>
<event>
 5    0  0.5619558E-005  0.2576274E+03  0.7546771E-02  0.1108577E+00
         21   -1    0    0  502  501  0.00000000000E+00  0.00000000000E+00  0.46823490193E+02  0.46823490193E+02  0.00000000000E+00 0. -1.
         21   -1    0    0  501  502 -0.00000000000E+00 -0.00000000000E+00 -0.14174908401E+04  0.14174908401E+04  0.00000000000E+00 0. -1.
         25    1    1    2    0    0 -0.14682841371E+03 -0.30664577355E+02 -0.59751576993E+03  0.62860877713E+03  0.12500000000E+03 0.  0.
         25    1    1    2    0    0  0.11230054860E+03  0.36526981100E+02 -0.30770499000E+03  0.35249538214E+03  0.12500000000E+03 0.  0.
         25    1    1    2    0    0  0.34527865117E+02 -0.58624037452E+01 -0.46544658999E+03  0.48321017103E+03  0.12500000000E+03 0.  0.
</event>
<event>
 5    0  0.5619558E-005  0.2434161E+03  0.7546771E-02  0.1117538E+00
         21   -1    0    0  502  501  0.00000000000E+00  0.00000000000E+00  0.21692065346E+04  0.21692065346E+04  0.00000000000E+00 0.  1.
         21   -1    0    0  501  502 -0.00000000000E+00 -0.00000000000E+00 -0.27314781978E+02  0.27314781978E+02  0.00000000000E+00 0.  1.
         25    1    1    2    0    0 -0.88068029393E+01  0.91107090283E+01  0.23854373641E+03  0.26960838076E+03  0.12500000000E+03 0.  0.
         25    1    1    2    0    0 -0.53766957384E+02  0.47817710853E+02  0.11103865939E+04  0.11197146096E+04  0.12500000000E+03 0.  0.
         25    1    1    2    0    0  0.62573760323E+02 -0.56928419881E+02  0.79296142236E+03  0.80719832620E+03  0.12500000000E+03 0.  0.
</event>
<event>
 5    0  0.5619558E-005  0.4152405E+03  0.7546771E-02  0.1038627E+00
         21   -1    0    0  502  501  0.00000000000E+00  0.00000000000E+00  0.26948270218E+03  0.26948270218E+03  0.00000000000E+00 0. -1.
         21   -1    0    0  501  502 -0.00000000000E+00 -0.00000000000E+00 -0.63983566902E+03  0.63983566902E+03  0.00000000000E+00 0. -1.
         25    1    1    2    0    0  0.24075331291E+03 -0.29883215055E+02 -0.31089861147E+03  0.41368842241E+03  0.12500000000E+03 0.  0.
         25    1    1    2    0    0 -0.16631699676E+03 -0.10701031279E+03  0.85200466520E+02  0.24899130497E+03  0.12500000000E+03 0.  0.
         25    1    1    2    0    0 -0.74436316157E+02  0.13689352785E+03 -0.14465482189E+03  0.24663864382E+03  0.12500000000E+03 0.  0.
</event>
<event>
 5    0  0.5619558E-005  0.2540063E+03  0.7546771E-02  0.1110799E+00
         21   -1    0    0  502  501  0.00000000000E+00  0.00000000000E+00  0.14526271091E+03  0.14526271091E+03  0.00000000000E+00 0.  1.
         21   -1    0    0  501  502 -0.00000000000E+00 -0.00000000000E+00 -0.44415515383E+03  0.44415515383E+03  0.00000000000E+00 0.  1.
         25    1    1    2    0    0 -0.88577366975E+02  0.37986222929E+02 -0.20779440374E+03  0.26094523812E+03  0.12500000000E+03 0.  0.
         25    1    1    2    0    0  0.59587100938E+00 -0.30947625655E+02 -0.11614586674E+03  0.17341560760E+03  0.12500000000E+03 0.  0.
         25    1    1    2    0    0  0.87981495965E+02 -0.70385972739E+01  0.25047827564E+02  0.15505701903E+03  0.12500000000E+03 0.  0.
</event>
<event>
 5    0  0.5619558E-005  0.3450466E+03  0.7546771E-02  0.1064667E+00
         21   -1    0    0  502  501  0.00000000000E+00  0.00000000000E+00  0.15448138501E+04  0.15448138501E+04  0.00000000000E+00 0. -1.
         21   -1    0    0  501  502 -0.00000000000E+00 -0.00000000000E+00 -0.77068943437E+02  0.77068943437E+02  0.00000000000E+00 0. -1.
         25    1    1    2    0    0  0.79311431127E+02  0.12322293660E+03  0.16864272432E+03  0.25600696021E+03  0.12500000000E+03 0.  0.
         25    1    1    2    0    0  0.26316518590E+02 -0.14821228988E+03  0.33740949143E+03  0.39003795575E+03  0.12500000000E+03 0.  0.
         25    1    1    2    0    0 -0.10562794972E+03  0.24989353288E+02  0.96169269092E+03  0.97583787758E+03  0.12500000000E+03 0.  0.
</event>
<event>
 5    0  0.5619558E-005  0.3327863E+03  0.7546771E-02  0.1069911E+00
         21   -1    0    0  502  501  0.00000000000E+00  0.00000000000E+00  0.10243994566E+04  0.10243994566E+04  0.00000000000E+00 0. -1.
         21   -1    0    0  501  502 -0.00000000000E+00 -0.00000000000E+00 -0.10810892950E+03  0.10810892950E+03  0.00000000000E+00 0. -1.
         25    1    1    2    0    0  0.37429388445E+02  0.12814589247E+03  0.53124440916E+03  0.56184335107E+03  0.12500000000E+03 0.  0.
         25    1    1    2    0    0 -0.16741395997E+03 -0.19536593334E+02  0.21009302230E+03  0.29693970851E+03  0.12500000000E+03 0.  0.
         25    1    1    2    0    0  0.12998457153E+03 -0.10860929914E+03  0.17495309561E+03  0.27372532649E+03  0.12500000000E+03 0.  0.
</event>
<event>
 5    0  0.5619558E-005  0.2690603E+03  0.7546771E-02  0.1101819E+00
         21   -1    0    0  502  501  0.00000000000E+00  0.00000000000E+00  0.16158986846E+03  0.16158986846E+03  0.00000000000E+00 0.  1.
         21   -1    0    0  501  502 -0.00000000000E+00 -0.00000000000E+00 -0.44800746967E+03  0.44800746967E+03  0.00000000000E+00 0.  1.
         25    1    1    2    0    0  0.13183330415E+03  0.99125646273E+02 -0.10046768432E+03  0.23005362294E+03  0.12500000000E+03 0.  0.
         25    1    1    2    0    0 -0.57473489487E+02 -0.70770189432E+02 -0.18302129117E+02  0.15579341975E+03  0.12500000000E+03 0.  0.
         25    1    1    2    0    0 -0.74359814667E+02 -0.28355456841E+02 -0.16764778777E+03  0.22375029545E+03  0.12500000000E+03 0.  0.
</event>
<event>
 5    0  0.5619558E-005  0.2656478E+03  0.7546771E-02  0.1103797E+00
         21   -1    0    0  502  501  0.00000000000E+00  0.00000000000E+00  0.18662583570E+04  0.18662583570E+04  0.00000000000E+00 0. -1.
         21   -1    0    0  501  502 -0.00000000000E+00 -0.00000000000E+00 -0.37812968664E+02  0.37812968664E+02  0.00000000000E+00 0. -1.
         25    1    1    2    0    0  0.28714008935E+02  0.69511486696E+02  0.99675825792E+03  0.10073769730E+04  0.12500000000E+03 0.  0.
         25    1    1    2    0    0 -0.60612347084E+02 -0.40043009938E+02  0.17590693820E+03  0.22769617953E+03  0.12500000000E+03 0.  0.
         25    1    1    2    0    0  0.31898338149E+02 -0.29468476758E+02  0.65578019225E+03  0.66899817313E+03  0.12500000000E+03 0.  0.
</event>
<event>
 5    0  0.5619558E-005  0.4031819E+03  0.7546771E-02  0.1042683E+00
         21   -1    0    0  502  501  0.00000000000E+00  0.00000000000E+00  0.30333992587E+03  0.30333992587E+03  0.00000000000E+00 0. -1.
         21   -1    0    0  501  502 -0.00000000000E+00 -0.00000000000E+00 -0.53588613358E+03  0.53588613358E+03  0.00000000000E+00 0. -1.
         25    1    1    2    0    0  0.86625226503E+02  0.16038248874E+03 -0.13731313243E+03  0.26020447517E+03  0.12500000000E+03 0.  0.
         25    1    1    2    0    0  0.30198583811E+01 -0.27237372456E+03 -0.20144603278E+03  0.36111226717E+03  0.12500000000E+03 0.  0.
         25    1    1    2    0    0 -0.89645084884E+02  0.11199123583E+03  0.10621295750E+03  0.21790931712E+03  0.12500000000E+03 0.  0.
</event>
<event>
 5    0  0.5619558E-005  0.2171837E+03  0.7546771E-02  0.1136000E+00
         21   -1    0    0  502  501  0.00000000000E+00  0.00000000000E+00  0.79567877120E+03  0.79567877120E+03  0.00000000000E+00 0.  1.
         21   -1    0    0  501  502 -0.00000000000E+00 -0.00000000000E+00 -0.59281136018E+02  0.59281136018E+02  0.00000000000E+00 0.  1.
         25    1    1    2    0    0  0.56507585650E+02 -0.43946908061E+01  0.40009739446E+03  0.42298385973E+03  0.12500000000E+03 0.  0.
         25    1    1    2    0    0 -0.53071933947E+02  0.11647131511E+02  0.23156818002E+03  0.26870263833E+03  0.12500000000E+03 0.  0.
         25    1    1    2    0    0 -0.34356517033E+01 -0.72524407052E+01  0.10473206070E+03  0.16327340916E+03  0.12500000000E+03 0.  0.
</event>
<event>
 5    0  0.5619558E-005  0.2472200E+03  0.7546771E-02  0.1115074E+00
         21   -1    0    0  502  501  0.00000000000E+00  0.00000000000E+00  0.30349471257E+02  0.30349471257E+02  0.00000000000E+00 0. -1.
         21   -1    0    0  501  502 -0.00000000000E+00 -0.00000000000E+00 -0.20137995763E+04  0.20137995763E+04  0.00000000000E+00 0. -1.
         25    1    1    2    0    0  0.45772361657E+02 -0.77160109963E+01 -0.66579713968E+03  0.67901802416E+03  0.12500000000E+03 0.  0.
         25    1    1    2    0    0  0.57583674292E+01 -0.71373878612E+02 -0.27182743827E+03  0.30764028595E+03  0.12500000000E+03 0.  0.
         25    1    1    2    0    0 -0.51530729086E+02  0.79089889608E+02 -0.10458255271E+04  0.10574907374E+04  0.12500000000E+03 0.  0.
</event>
<event>
 5    0  0.5619558E-005  0.3828049E+03  0.7546771E-02  0.1049902E+00
         21   -1    0    0  502  501  0.00000000000E+00  0.00000000000E+00  0.55061400315E+03  0.55061400315E+03  0.00000000000E+00 0. -1.
         21   -1    0    0  501  502 -0.00000000000E+00 -0.00000000000E+00 -0.26613845366E+03  0.26613845366E+03  0.00000000000E+00 0. -1.
         25    1    1    2    0    0 -0.38854371855E+02  0.52756945239E+02  0.17882310550E+03  0.22780619075E+03  0.12500000000E+03 0.  0.
         25    1    1    2    0    0  0.10065018543E+03 -0.12990832607E+03  0.28313054315E+03  0.35042051520E+03  0.12500000000E+03 0.  0.
         25    1    1    2    0    0 -0.61795813576E+02  0.77151380831E+02 -0.17747809916E+03  0.23852575086E+03  0.12500000000E+03 0.  0.
</event>
<event>
 5    0  0.5619558E-005  0.4007419E+03  0.7546771E-02  0.1043523E+00
         21   -1    0    0  502  501  0.00000000000E+00  0.00000000000E+00  0.15939447772E+03  0.15939447772E+03  0.00000000000E+00 0.  1.
         21   -1    0    0  501  502 -0.00000000000E+00 -0.00000000000E+00 -0.10075261861E+04  0.10075261861E+04  0.00000000000E+00 0.  1.
         25    1    1    2    0    0 -0.72685778992E+02 -0.10972649397E+03 -0.58698476282E+02  0.19077116413E+03  0.12500000000E+03 0.  0.
         25    1    1    2    0    0  0.80734581893E+02 -0.47175123987E+02 -0.75681751089E+03  0.77274918947E+03  0.12500000000E+03 0.  0.
         25    1    1    2    0    0 -0.80488029008E+01  0.15690161795E+03 -0.32615721261E+02  0.20340031027E+03  0.12500000000E+03 0.  0.
</event>
<event>
 5    0  0.5619558E-005  0.3174034E+03  0.7546771E-02  0.1076851E+00
         21   -1    0    0  502  501  0.00000000000E+00  0.00000000000E+00  0.29261607137E+03  0.29261607137E+03  0.00000000000E+00 0.  1.
         21   -1    0    0  501  502 -0.00000000000E+00 -0.00000000000E+00 -0.34429044146E+03  0.34429044146E+03  0.00000000000E+00 0.  1.
         25    1    1    2    0    0  0.19914699293E+03 -0.89907989538E+02  0.78759910393E+02  0.26376333116E+03  0.12500000000E+03 0.  0.
         25    1    1    2    0    0 -0.14810624864E+03  0.27091671108E+02 -0.10496962626E+03  0.22206540020E+03  0.12500000000E+03 0.  0.
         25    1    1    2    0    0 -0.51040744297E+02  0.62816318431E+02 -0.25464654216E+02  0.15107778147E+03  0.12500000000E+03 0.  0.
</event>
<event>
 5    0  0.5619558E-005  0.4296041E+03  0.7546771E-02  0.1033985E+00
         21   -1    0    0  502  501  0.00000000000E+00  0.00000000000E+00  0.52527280387E+03  0.52527280387E+03  0.00000000000E+00 0.  1.
         21   -1    0    0  501  502 -0.00000000000E+00 -0.00000000000E+00 -0.35135960371E+03  0.35135960371E+03  0.00000000000E+00 0.  1.
         25    1    1    2    0    0  0.64502460615E+02  0.24830366741E+03  0.15443761651E+03  0.32448614156E+03  0.12500000000E+03 0.  0.
         25    1    1    2    0    0  0.14097582220E+03 -0.23266906107E+02 -0.83005518121E+02  0.20719663946E+03  0.12500000000E+03 0.  0.
         25    1    1    2    0    0 -0.20547828282E+03 -0.22503676130E+03  0.10248110177E+03  0.34494962656E+03  0.12500000000E+03 0.  0.
</event>
<event>
 5    0  0.5619558E-005  0.2217356E+03  0.7546771E-02  0.1132596E+00
         21   -1    0    0  502  501  0.00000000000E+00  0.00000000000E+00  0.13546566524E+04  0.13546566524E+04  0.00000000000E+00 0.  1.
         21   -1    0    0  501  502 -0.00000000000E+00 -0.00000000000E+00 -0.36294555045E+02  0.36294555045E+02  0.00000000000E+00 0.  1.
         25    1    1    2    0    0  0.10210055675E+03 -0.40338278145E+01  0.54350562989E+03  0.56697809939E+03  0.12500000000E+03 0.  0.
         25    1    1    2    0    0 -0.11678546137E+02 -0.53892747315E+01  0.35032938968E+03  0.37218424738E+03  0.12500000000E+03 0.  0.
         25    1    1    2    0    0 -0.90422010617E+02  0.94231025460E+01  0.42452707775E+03  0.45178886065E+03  0.12500000000E+03 0.  0.
</event>
<event>
 5    0  0.5619558E-005  0.3060920E+03  0.7546771E-02  0.1082234E+00
         21   -1    0    0  502  501  0.00000000000E+00  0.00000000000E+00  0.31133105183E+03  0.31133105183E+03  0.00000000000E+00 0.  1.
         21   -1    0    0  501  502 -0.00000000000E+00 -0.00000000000E+00 -0.30094102363E+03  0.30094102363E+03  0.00000000000E+00 0.  1.
         25    1    1    2    0    0  0.51423401042E+02 -0.14370861861E+03 -0.30026305135E+02  0.19955729061E+03  0.12500000000E+03 0.  0.
         25    1    1    2    0    0 -0.12808806417E+03  0.62199098998E+02  0.12282272454E+03  0.22580013676E+03  0.12500000000E+03 0.  0.
         25    1    1    2    0    0  0.76664663125E+02  0.81509519608E+02 -0.82406391209E+02  0.18691464809E+03  0.12500000000E+03 0.  0.
</event>
<event>
 5    0  0.5619558E-005  0.3394565E+03  0.7546771E-02  0.1067028E+00
         21   -1    0    0  502  501  0.00000000000E+00  0.00000000000E+00  0.10126865870E+04  0.10126865870E+04  0.00000000000E+00 0. -1.
         21   -1    0    0  501  502 -0.00000000000E+00 -0.00000000000E+00 -0.11378717468E+03  0.11378717468E+03  0.00000000000E+00 0. -1.
         25    1    1    2    0    0  0.23006968704E+03 -0.78039452300E+02  0.36467013724E+03  0.45566602463E+03  0.12500000000E+03 0.  0.
         25    1    1    2    0    0 -0.47801627189E+02  0.12060604379E+03  0.22174265354E+03  0.28570197367E+03  0.12500000000E+03 0.  0.
         25    1    1    2    0    0 -0.18226805985E+03 -0.42566591493E+02  0.31248662159E+03  0.38510576343E+03  0.12500000000E+03 0.  0.
</event>
<event>
 5    0  0.5619558E-005  0.2504228E+03  0.7546771E-02  0.1113038E+00
         21   -1    0    0  502  501  0.00000000000E+00  0.00000000000E+00  0.69143445822E+03  0.69143445822E+03  0.00000000000E+00 0.  1.
         21   -1    0    0  501  502 -0.00000000000E+00 -0.00000000000E+00 -0.90697776992E+02  0.90697776992E+02  0.00000000000E+00 0.  1.
         25    1    1    2    0    0  0.14456383078E+03 -0.51125198202E+01  0.18376676583E+03  0.26517930397E+03  0.12500000000E+03 0.  0.
         25    1    1    2    0    0 -0.37510800406E+02 -0.37082622441E+02  0.18630286740E+03  0.23046895547E+03  0.12500000000E+03 0.  0.
         25    1    1    2    0    0 -0.10705303037E+03  0.42195142262E+02  0.23066704800E+03  0.28648397578E+03  0.12500000000E+03 0.  0.
</event>
<event>
 5    0  0.5619558E-005  0.6395697E+03  0.7546771E-02  0.9826550E-01
         21   -1    0    0  502  501  0.00000000000E+00  0.00000000000E+00  0.36563607392E+03  0.36563607392E+03  0.00000000000E+00 0.  1.
         21   -1    0    0  501  502 -0.00000000000E+00 -0.00000000000E+00 -0.11187336895E+04  0.11187336895E+04  0.00000000000E+00 0.  1.
         25    1    1    2    0    0 -0.21280970049E+03 -0.11672688157E+03  0.25379203675E+02  0.27419379548E+03  0.12500000000E+03 0.  0.
         25    1    1    2    0    0  0.65245686001E+02  0.12378788482E+03 -0.93972961995E+03  0.95827824696E+03  0.12500000000E+03 0.  0.
         25    1    1    2    0    0  0.14756401449E+03 -0.70610032514E+01  0.16125280065E+03  0.25189772102E+03  0.12500000000E+03 0.  0.
</event>
<event>
 5    0  0.5619558E-005  0.2891564E+03  0.7546771E-02  0.1090790E+00
         21   -1    0    0  502  501  0.00000000000E+00  0.00000000000E+00  0.11961632335E+03  0.11961632335E+03  0.00000000000E+00 0.  1.
         21   -1    0    0  501  502 -0.00000000000E+00 -0.00000000000E+00 -0.69899697651E+03  0.69899697651E+03  0.00000000000E+00 0.  1.
         25    1    1    2    0    0  0.57014673337E+02 -0.94812598248E+01 -0.18911290008E+03  0.23394284823E+03  0.12500000000E+03 0.  0.
         25    1    1    2    0    0  0.15432206094E+01  0.17233310317E+03 -0.25391306466E+03  0.33135769855E+03  0.12500000000E+03 0.  0.
         25    1    1    2    0    0 -0.58557893947E+02 -0.16285184335E+03 -0.13635468842E+03  0.25331275309E+03  0.12500000000E+03 0.  0.
</event>
<event>
 5    0  0.5619558E-005  0.3613861E+03  0.7546771E-02  0.1058036E+00
         21   -1    0    0  502  501  0.00000000000E+00  0.00000000000E+00  0.21005417329E+03  0.21005417329E+03  0.00000000000E+00 0.  1.
         21   -1    0    0  501  502 -0.00000000000E+00 -0.00000000000E+00 -0.62174395125E+03  0.62174395125E+03  0.00000000000E+00 0.  1.
         25    1    1    2    0    0  0.16334044689E+03  0.19574617327E+03 -0.19812265670E+03  0.34622861384E+03  0.12500000000E+03 0.  0.
         25    1    1    2    0    0 -0.24374198965E+02 -0.16192561321E+03 -0.86963466146E+01  0.20619076660E+03  0.12500000000E+03 0.  0.
         25    1    1    2    0    0 -0.13896624793E+03 -0.33820560063E+02 -0.20487077464E+03  0.27937874409E+03  0.12500000000E+03 0.  0.
</event>
<event>
 5    0  0.5619558E-005  0.2636822E+03  0.7546771E-02  0.1104951E+00
         21   -1    0    0  502  501  0.00000000000E+00  0.00000000000E+00  0.28747966844E+03  0.28747966844E+03  0.00000000000E+00 0. -1.
         21   -1    0    0  501  502 -0.00000000000E+00 -0.00000000000E+00 -0.24185473095E+03  0.24185473095E+03  0.00000000000E+00 0. -1.
         25    1    1    2    0    0  0.65123714752E+02 -0.24536077362E+02 -0.99611023784E+02  0.17432863613E+03  0.12500000000E+03 0.  0.
         25    1    1    2    0    0 -0.46648162725E+02  0.45119313984E+02  0.17393157409E+03  0.22380571048E+03  0.12500000000E+03 0.  0.
         25    1    1    2    0    0 -0.18475552027E+02 -0.20583236622E+02 -0.28695612814E+02  0.13120005277E+03  0.12500000000E+03 0.  0.
</event>
<event>
 5    0  0.5619558E-005  0.3188520E+03  0.7546771E-02  0.1076179E+00
         21   -1    0    0  502  501  0.00000000000E+00  0.00000000000E+00  0.17280151770E+03  0.17280151770E+03  0.00000000000E+00 0. -1.
         21   -1    0    0  501  502 -0.00000000000E+00 -0.00000000000E+00 -0.58834325495E+03  0.58834325495E+03  0.00000000000E+00 0. -1.
         25    1    1    2    0    0  0.85314676691E+02  0.86648154439E+02 -0.19942535704E+03  0.26491879842E+03  0.12500000000E+03 0.  0.
         25    1    1    2    0    0 -0.11646322682E+03 -0.74931518505E+02  0.56124788561E+02  0.19481634315E+03  0.12500000000E+03 0.  0.
         25    1    1    2    0    0  0.31148550127E+02 -0.11716635933E+02 -0.27224116878E+03  0.30140963108E+03  0.12500000000E+03 0.  0.
</event>
<event>
 5    0  0.5898030E-005  0.3037806E+03  0.7546771E-02  0.1083366E+00
         21   -1    0    0  502  501  0.00000000000E+00  0.00000000000E+00  0.21157645463E+03  0.21157645463E+03  0.00000000000E+00 0. -1.
         21   -1    0    0  501  502 -0.00000000000E+00 -0.00000000000E+00 -0.43616705748E+03  0.43616705748E+03  0.00000000000E+00 0. -1.
         25    1    1    2    0    0  0.17107128790E+03 -0.32153233686E+02  0.47428328493E+02  0.21948499339E+03  0.12500000000E+03 0.  0.
         25    1    1    2    0    0 -0.10934756783E+03  0.65319169432E+02 -0.10071102072E+03  0.20491753019E+03  0.12500000000E+03 0.  0.
         25    1    1    2    0    0 -0.61723720072E+02 -0.33165935747E+02 -0.17130791062E+03  0.22334098853E+03  0.12500000000E+03 0.  0.
</event>
<event>
 5    0  0.5619558E-005  0.2603069E+03  0.7546771E-02  0.1106959E+00
         21   -1    0    0  502  501  0.00000000000E+00  0.00000000000E+00  0.12030981160E+04  0.12030981160E+04  0.00000000000E+00 0.  1.
         21   -1    0    0  501  502 -0.00000000000E+00 -0.00000000000E+00 -0.56321015962E+02  0.56321015962E+02  0.00000000000E+00 0.  1.
         25    1    1    2    0    0 -0.66318121341E+01  0.29040269158E+02  0.19290731653E+03  0.23178772818E+03  0.12500000000E+03 0.  0.
         25    1    1    2    0    0 -0.12758268455E+03 -0.39355696209E+02  0.62176662216E+03  0.64810874447E+03  0.12500000000E+03 0.  0.
         25    1    1    2    0    0  0.13421449669E+03  0.10315427051E+02  0.33210316135E+03  0.37952265931E+03  0.12500000000E+03 0.  0.
</event>
<event>
 5    0  0.5619558E-005  0.3318553E+03  0.7546771E-02  0.1070319E+00
         21   -1    0    0  502  501  0.00000000000E+00  0.00000000000E+00  0.96751992883E+03  0.96751992883E+03  0.00000000000E+00 0.  1.
         21   -1    0    0  501  502 -0.00000000000E+00 -0.00000000000E+00 -0.11382496200E+03  0.11382496200E+03  0.00000000000E+00 0.  1.
         25    1    1    2    0    0 -0.12042863927E+03 -0.62551183318E+02  0.35520958824E+03  0.40026810923E+03  0.12500000000E+03 0.  0.
         25    1    1    2    0    0 -0.79529252471E+02 -0.51224770703E+02  0.55112347607E+02  0.16616633230E+03  0.12500000000E+03 0.  0.
         25    1    1    2    0    0  0.19995789174E+03  0.11377595402E+03  0.44337303098E+03  0.51491044928E+03  0.12500000000E+03 0.  0.
</event>
<event>
 5    0  0.5619558E-005  0.2979424E+03  0.7546771E-02  0.1086274E+00
         21   -1    0    0  502  501  0.00000000000E+00  0.00000000000E+00  0.73346026856E+03  0.73346026856E+03  0.00000000000E+00 0.  1.
         21   -1    0    0  501  502 -0.00000000000E+00 -0.00000000000E+00 -0.12102858997E+03  0.12102858997E+03  0.00000000000E+00 0.  1.
         25    1    1    2    0    0 -0.23905343484E+02 -0.10584936426E+03  0.28215744444E+03  0.32712899109E+03  0.12500000000E+03 0.  0.
         25    1    1    2    0    0  0.10881593067E+03  0.87117348917E+02  0.32491133797E+03  0.37499695571E+03  0.12500000000E+03 0.  0.
         25    1    1    2    0    0 -0.84910587182E+02  0.18732015344E+02  0.53628961893E+01  0.15236291173E+03  0.12500000000E+03 0.  0.
</event>
<event>
 5    0  0.5619558E-005  0.2982478E+03  0.7546771E-02  0.1086120E+00
         21   -1    0    0  502  501  0.00000000000E+00  0.00000000000E+00  0.74804910113E+02  0.74804910113E+02  0.00000000000E+00 0. -1.
         21   -1    0    0  501  502 -0.00000000000E+00 -0.00000000000E+00 -0.11891163935E+04  0.11891163935E+04  0.00000000000E+00 0. -1.
         25    1    1    2    0    0  0.79588885139E+02  0.82902456445E+01 -0.27452934952E+03  0.31208089105E+03  0.12500000000E+03 0.  0.
         25    1    1    2    0    0  0.81390954563E+02 -0.11422980331E+03 -0.21155698789E+03  0.28293867635E+03  0.12500000000E+03 0.  0.
         25    1    1    2    0    0 -0.16097983970E+03  0.10593955767E+03 -0.62822514597E+03  0.66890173620E+03  0.12500000000E+03 0.  0.
</event>
<event>
 5    0  0.5619558E-005  0.2366280E+03  0.7546771E-02  0.1122060E+00
         21   -1    0    0  502  501  0.00000000000E+00  0.00000000000E+00  0.16602128106E+03  0.16602128106E+03  0.00000000000E+00 0. -1.
         21   -1    0    0  501  502 -0.00000000000E+00 -0.00000000000E+00 -0.33726290490E+03  0.33726290490E+03  0.00000000000E+00 0. -1.
         25    1    1    2    0    0  0.19579593728E+02 -0.14069053900E+02  0.56028871413E+02  0.13908822092E+03  0.12500000000E+03 0.  0.
         25    1    1    2    0    0 -0.39693570973E+02 -0.40647738559E+02 -0.67100393783E+02  0.15282434712E+03  0.12500000000E+03 0.  0.
         25    1    1    2    0    0  0.20113977245E+02  0.54716792459E+02 -0.16017010147E+03  0.21137161792E+03  0.12500000000E+03 0.  0.
</event>
<event>
 5    0  0.5619558E-005  0.2587396E+03  0.7546771E-02  0.1107903E+00
         21   -1    0    0  502  501  0.00000000000E+00  0.00000000000E+00  0.14561930032E+03  0.14561930032E+03  0.00000000000E+00 0. -1.
         21   -1    0    0  501  502 -0.00000000000E+00 -0.00000000000E+00 -0.45973412755E+03  0.45973412755E+03  0.00000000000E+00 0. -1.
         25    1    1    2    0    0  0.14588702303E+02 -0.93796276887E+02 -0.93725882131E+02  0.18281168665E+03  0.12500000000E+03 0.  0.
         25    1    1    2    0    0  0.52417251255E+02  0.46811732098E+02 -0.23193871818E+03  0.27268933878E+03  0.12500000000E+03 0.  0.
         25    1    1    2    0    0 -0.67005953558E+02  0.46984544789E+02  0.11549773086E+02  0.14985240245E+03  0.12500000000E+03 0.  0.
</event>
<event>
 5    0  0.5619558E-005  0.2610485E+03  0.7546771E-02  0.1106515E+00
         21   -1    0    0  502  501  0.00000000000E+00  0.00000000000E+00  0.40712018885E+02  0.40712018885E+02  0.00000000000E+00 0. -1.
         21   -1    0    0  501  502 -0.00000000000E+00 -0.00000000000E+00 -0.16738624324E+04  0.16738624324E+04  0.00000000000E+00 0. -1.
         25    1    1    2    0    0 -0.89709461949E+02 -0.81130864937E+02 -0.81365501999E+03  0.83203935986E+03  0.12500000000E+03 0.  0.
         25    1    1    2    0    0 -0.53298484425E+01 -0.30411182010E+02 -0.41513707415E+03  0.43464587610E+03  0.12500000000E+03 0.  0.
         25    1    1    2    0    0  0.95039310391E+02  0.11154204695E+03 -0.40435831940E+03  0.44788921535E+03  0.12500000000E+03 0.  0.
</event>
<event>
 5    0  0.5619558E-005  0.3109382E+03  0.7546771E-02  0.1079897E+00
         21   -1    0    0  502  501  0.00000000000E+00  0.00000000000E+00  0.15191768950E+04  0.15191768950E+04  0.00000000000E+00 0.  1.
         21   -1    0    0  501  502 -0.00000000000E+00 -0.00000000000E+00 -0.63641421504E+02  0.63641421504E+02  0.00000000000E+00 0.  1.
         25    1    1    2    0    0  0.78855997462E+02 -0.13797525894E+02  0.70233373276E+03  0.71784839084E+03  0.12500000000E+03 0.  0.
         25    1    1    2    0    0 -0.26459414250E+02 -0.47154747593E+02  0.48194122845E+02  0.14446918114E+03  0.12500000000E+03 0.  0.
         25    1    1    2    0    0 -0.52396583211E+02  0.60952273487E+02  0.70500761787E+03  0.72050074450E+03  0.12500000000E+03 0.  0.
</event>
<event>
 5    0  0.5619558E-005  0.2509969E+03  0.7546771E-02  0.1112676E+00
         21   -1    0    0  502  501  0.00000000000E+00  0.00000000000E+00  0.64879607737E+02  0.64879607737E+02  0.00000000000E+00 0. -1.
         21   -1    0    0  501  502 -0.00000000000E+00 -0.00000000000E+00 -0.97102062149E+03  0.97102062149E+03  0.00000000000E+00 0. -1.
         25    1    1    2    0    0 -0.95006176872E+02 -0.27877382864E+02 -0.14010142128E+03  0.21226570699E+03  0.12500000000E+03 0.  0.
         25    1    1    2    0    0  0.11831163296E+03  0.33074578108E+02 -0.45203447197E+03  0.48482134241E+03  0.12500000000E+03 0.  0.
         25    1    1    2    0    0 -0.23305456083E+02 -0.51971952442E+01 -0.31400512050E+03  0.33881317982E+03  0.12500000000E+03 0.  0.
</event>
<event>
 5    0  0.5619558E-005  0.3978585E+03  0.7546771E-02  0.1044524E+00
         21   -1    0    0  502  501  0.00000000000E+00  0.00000000000E+00  0.97803060952E+03  0.97803060952E+03  0.00000000000E+00 0.  1.
         21   -1    0    0  501  502 -0.00000000000E+00 -0.00000000000E+00 -0.16184708116E+03  0.16184708116E+03  0.00000000000E+00 0.  1.
         25    1    1    2    0    0  0.81562452205E+02  0.38188760981E+02  0.20398310045E+03  0.25562652512E+03  0.12500000000E+03 0.  0.
         25    1    1    2    0    0  0.21796835674E+03  0.36906250176E+02  0.44293101217E+03  0.51057336141E+03  0.12500000000E+03 0.  0.
         25    1    1    2    0    0 -0.29953080895E+03 -0.75095011157E+02  0.16926941574E+03  0.37367780415E+03  0.12500000000E+03 0.  0.
</event>
<event>
 5    0  0.5619558E-005  0.2057894E+03  0.7546771E-02  0.1144944E+00
         21   -1    0    0  502  501  0.00000000000E+00  0.00000000000E+00  0.39728064182E+03  0.39728064182E+03  0.00000000000E+00 0. -1.
         21   -1    0    0  501  502 -0.00000000000E+00 -0.00000000000E+00 -0.10659783587E+03  0.10659783587E+03  0.00000000000E+00 0. -1.
         25    1    1    2    0    0 -0.55679539011E+02 -0.80776855416E+01  0.79143353815E+02  0.15828496619E+03  0.12500000000E+03 0.  0.
         25    1    1    2    0    0  0.44670688480E+02 -0.13790654109E+02  0.56456476434E+02  0.14490681931E+03  0.12500000000E+03 0.  0.
         25    1    1    2    0    0  0.11008850531E+02  0.21868339651E+02  0.15508297570E+03  0.20068669219E+03  0.12500000000E+03 0.  0.
</event>
<event>
 5    0  0.5619558E-005  0.2348295E+03  0.7546771E-02  0.1123286E+00
         21   -1    0    0  502  501  0.00000000000E+00  0.00000000000E+00  0.31662400809E+03  0.31662400809E+03  0.00000000000E+00 0.  1.
         21   -1    0    0  501  502 -0.00000000000E+00 -0.00000000000E+00 -0.17416521723E+03  0.17416521723E+03  0.00000000000E+00 0.  1.
         25    1    1    2    0    0 -0.79769230187E+01 -0.66249949375E+02 -0.25220393377E+01  0.14171819846E+03  0.12500000000E+03 0.  0.
         25    1    1    2    0    0  0.24452306650E+02 -0.54415994933E+02  0.93522562123E+02  0.16712416172E+03  0.12500000000E+03 0.  0.
         25    1    1    2    0    0 -0.16475383631E+02  0.12066594431E+03  0.51458268077E+02  0.18194686514E+03  0.12500000000E+03 0.  0.
</event>
<event>
 5    0  0.5619558E-005  0.2710716E+03  0.7546771E-02  0.1100668E+00
         21   -1    0    0  502  501  0.00000000000E+00  0.00000000000E+00  0.37059399171E+03  0.37059399171E+03  0.00000000000E+00 0. -1.
         21   -1    0    0  501  502 -0.00000000000E+00 -0.00000000000E+00 -0.19827580049E+03  0.19827580049E+03  0.00000000000E+00 0. -1.
         25    1    1    2    0    0  0.33359764409E+02  0.14895234210E+03 -0.27837495802E+01  0.19731300860E+03  0.12500000000E+03 0.  0.
         25    1    1    2    0    0 -0.56634660857E+02 -0.81044166554E+01  0.63581664128E+02  0.15146218800E+03  0.12500000000E+03 0.  0.
         25    1    1    2    0    0  0.23274896448E+02 -0.14084792545E+03  0.11152027666E+03  0.22009459561E+03  0.12500000000E+03 0.  0.
</event>
<event>
 5    0  0.5619558E-005  0.3828512E+03  0.7546771E-02  0.1049885E+00
         21   -1    0    0  502  501  0.00000000000E+00  0.00000000000E+00  0.87229828598E+03  0.87229828598E+03  0.00000000000E+00 0. -1.
         21   -1    0    0  501  502 -0.00000000000E+00 -0.00000000000E+00 -0.16803313838E+03  0.16803313838E+03  0.00000000000E+00 0. -1.
         25    1    1    2    0    0  0.20037655622E+03 -0.14642993087E+03  0.17305810759E+03  0.32736309740E+03  0.12500000000E+03 0.  0.
         25    1    1    2    0    0 -0.78151310221E+02 -0.43465336505E+02  0.38901865729E+03  0.41827906772E+03  0.12500000000E+03 0.  0.
         25    1    1    2    0    0 -0.12222524600E+03  0.18989526737E+03  0.14218838272E+03  0.29468925924E+03  0.12500000000E+03 0.  0.
</event>
<event>
 5    0  0.5619558E-005  0.2395798E+03  0.7546771E-02  0.1120073E+00
         21   -1    0    0  502  501  0.00000000000E+00  0.00000000000E+00  0.69255476222E+02  0.69255476222E+02  0.00000000000E+00 0.  1.
         21   -1    0    0  501  502 -0.00000000000E+00 -0.00000000000E+00 -0.82879362024E+03  0.82879362024E+03  0.00000000000E+00 0.  1.
         25    1    1    2    0    0 -0.10904414705E+03  0.17662350150E+02 -0.31809109510E+03  0.35917896570E+03  0.12500000000E+03 0.  0.
         25    1    1    2    0    0  0.52149472191E+02 -0.78582638431E+02 -0.19308155459E+03  0.24859663158E+03  0.12500000000E+03 0.  0.
         25    1    1    2    0    0  0.56894674861E+02  0.60920288281E+02 -0.24836549433E+03  0.29027349918E+03  0.12500000000E+03 0.  0.
</event>
<event>
 5    0  0.5619558E-005  0.2680394E+03  0.7546771E-02  0.1102407E+00
         21   -1    0    0  502  501  0.00000000000E+00  0.00000000000E+00  0.29302079967E+03  0.29302079967E+03  0.00000000000E+00 0.  1.
         21   -1    0    0  501  502 -0.00000000000E+00 -0.00000000000E+00 -0.24518770718E+03  0.24518770718E+03  0.00000000000E+00 0.  1.
         25    1    1    2    0    0  0.63646253153E+02  0.41383043652E+02 -0.14025784804E+02  0.14691876831E+03  0.12500000000E+03 0.  0.
         25    1    1    2    0    0 -0.88836774301E+02 -0.11912018235E+01  0.16288261334E+03  0.22371664479E+03  0.12500000000E+03 0.  0.
         25    1    1    2    0    0  0.25190521148E+02 -0.40191841828E+02 -0.10102373604E+03  0.16757309375E+03  0.12500000000E+03 0.  0.
</event>
<event>
 5    0  0.5619558E-005  0.3766542E+03  0.7546771E-02  0.1052177E+00
         21   -1    0    0  502  501  0.00000000000E+00  0.00000000000E+00  0.11514732694E+04  0.11514732694E+04  0.00000000000E+00 0.  1.
         21   -1    0    0  501  502 -0.00000000000E+00 -0.00000000000E+00 -0.12320600037E+03  0.12320600037E+03  0.00000000000E+00 0.  1.
         25    1    1    2    0    0 -0.24245734848E+03 -0.30551392388E+02  0.22448706589E+03  0.35459610286E+03  0.12500000000E+03 0.  0.
         25    1    1    2    0    0  0.13635528092E+03  0.12266027215E+03  0.61409301787E+03  0.65297284752E+03  0.12500000000E+03 0.  0.
         25    1    1    2    0    0  0.10610206757E+03 -0.92108879765E+02  0.18968718531E+03  0.26711031943E+03  0.12500000000E+03 0.  0.
</event>
<event>
 5    0  0.5619558E-005  0.3395443E+03  0.7546771E-02  0.1066990E+00
         21   -1    0    0  502  501  0.00000000000E+00  0.00000000000E+00  0.11496814010E+03  0.11496814010E+03  0.00000000000E+00 0. -1.
         21   -1    0    0  501  502 -0.00000000000E+00 -0.00000000000E+00 -0.10028023830E+04  0.10028023830E+04  0.00000000000E+00 0. -1.
         25    1    1    2    0    0 -0.69178941204E+02 -0.26357394179E+03 -0.39592007749E+03  0.49662325404E+03  0.12500000000E+03 0.  0.
         25    1    1    2    0    0  0.11061734629E+02  0.77723594341E+02 -0.20300347920E+03  0.25099548135E+03  0.12500000000E+03 0.  0.
         25    1    1    2    0    0  0.58117206575E+02  0.18585034745E+03 -0.28891068624E+03  0.37015178775E+03  0.12500000000E+03 0.  0.
</event>
<event>
 5    0  0.5619558E-005  0.2848768E+03  0.7546771E-02  0.1093055E+00
         21   -1    0    0  502  501  0.00000000000E+00  0.00000000000E+00  0.16949485001E+03  0.16949485001E+03  0.00000000000E+00 0.  1.
         21   -1    0    0  501  502 -0.00000000000E+00 -0.00000000000E+00 -0.47880402827E+03  0.47880402827E+03  0.00000000000E+00 0. -1.
         25    1    1    2    0    0 -0.32610023464E+02 -0.14626938670E+00 -0.85475353280E+02  0.15490148819E+03  0.12500000000E+03 0.  0.
         25    1    1    2    0    0  0.13457641841E+03  0.44921490113E+02  0.27843101524E+02  0.19112558952E+03  0.12500000000E+03 0.  0.
         25    1    1    2    0    0 -0.10196639494E+03 -0.44775220726E+02 -0.25167692650E+03  0.30227180057E+03  0.12500000000E+03 0.  0.
</event>
<event>
 5    0  0.5619558E-005  0.3007234E+03  0.7546771E-02  0.1084880E+00
         21   -1    0    0  502  501  0.00000000000E+00  0.00000000000E+00  0.14455605198E+03  0.14455605198E+03  0.00000000000E+00 0.  1.
         21   -1    0    0  501  502 -0.00000000000E+00 -0.00000000000E+00 -0.62560209610E+03  0.62560209610E+03  0.00000000000E+00 0.  1.
         25    1    1    2    0    0  0.12274294963E+03  0.39570297143E+02 -0.11009069310E+02  0.17993843310E+03  0.12500000000E+03 0.  0.
         25    1    1    2    0    0 -0.36423353309E+02 -0.10815025683E+03 -0.13681171014E+03  0.21763635438E+03  0.12500000000E+03 0.  0.
         25    1    1    2    0    0 -0.86319596318E+02  0.68579959683E+02 -0.33322526467E+03  0.37258336060E+03  0.12500000000E+03 0.  0.
</event>
<event>
 5    0  0.5619558E-005  0.2505064E+03  0.7546771E-02  0.1112985E+00
         21   -1    0    0  502  501  0.00000000000E+00  0.00000000000E+00  0.11332533836E+04  0.11332533836E+04  0.00000000000E+00 0. -1.
         21   -1    0    0  501  502 -0.00000000000E+00 -0.00000000000E+00 -0.55374590942E+02  0.55374590942E+02  0.00000000000E+00 0. -1.
         25    1    1    2    0    0 -0.10158012676E+02 -0.48435201450E+02  0.20719950543E+03  0.24699349994E+03  0.12500000000E+03 0.  0.
         25    1    1    2    0    0  0.97640797761E+02 -0.59053010420E+02  0.47214838772E+03  0.50156762600E+03  0.12500000000E+03 0.  0.
         25    1    1    2    0    0 -0.87482785085E+02  0.10748821187E+03  0.39853089953E+03  0.44006684863E+03  0.12500000000E+03 0.  0.
</event>
<event>
 5    0  0.5619558E-005  0.4232524E+03  0.7546771E-02  0.1036013E+00
         21   -1    0    0  502  501  0.00000000000E+00  0.00000000000E+00  0.33423890627E+03  0.33423890627E+03  0.00000000000E+00 0. -1.
         21   -1    0    0  501  502 -0.00000000000E+00 -0.00000000000E+00 -0.53597180099E+03  0.53597180099E+03  0.00000000000E+00 0. -1.
         25    1    1    2    0    0 -0.17960994432E+03  0.10528964004E+03 -0.34399990433E+03  0.42107787235E+03  0.12500000000E+03 0.  0.
         25    1    1    2    0    0  0.80627238796E+02 -0.61058893612E+02  0.21492675083E+03  0.26841655751E+03  0.12500000000E+03 0.  0.
         25    1    1    2    0    0  0.98982705527E+02 -0.44230746427E+02 -0.72659741218E+02  0.18071627740E+03  0.12500000000E+03 0.  0.
</event>
<event>
 5    0  0.5619558E-005  0.3568852E+03  0.7546771E-02  0.1059824E+00
         21   -1    0    0  502  501  0.00000000000E+00  0.00000000000E+00  0.99175191723E+03  0.99175191723E+03  0.00000000000E+00 0.  1.
         21   -1    0    0  501  502 -0.00000000000E+00 -0.00000000000E+00 -0.12842628638E+03  0.12842628638E+03  0.00000000000E+00 0.  1.
         25    1    1    2    0    0  0.92683275549E+02  0.22832973179E+03  0.29244543139E+03  0.40233566375E+03  0.12500000000E+03 0.  0.
         25    1    1    2    0    0 -0.21330153460E+02 -0.13015301123E+03  0.49594065898E+03  0.52818265686E+03  0.12500000000E+03 0.  0.
         25    1    1    2    0    0 -0.71353122088E+02 -0.98176720559E+02  0.74939540473E+02  0.18965988300E+03  0.12500000000E+03 0.  0.
</event>
<event>
 5    0  0.5619558E-005  0.3748508E+03  0.7546771E-02  0.1052853E+00
         21   -1    0    0  502  501  0.00000000000E+00  0.00000000000E+00  0.11262579666E+04  0.11262579666E+04  0.00000000000E+00 0.  1.
         21   -1    0    0  501  502 -0.00000000000E+00 -0.00000000000E+00 -0.12476106333E+03  0.12476106333E+03  0.00000000000E+00 0.  1.
         25    1    1    2    0    0 -0.28252310952E+03 -0.53351709854E+02  0.66755550271E+03  0.73751004167E+03  0.12500000000E+03 0.  0.
         25    1    1    2    0    0  0.19777388745E+03  0.31787096972E+02  0.22404754354E+03  0.32549536381E+03  0.12500000000E+03 0.  0.
         25    1    1    2    0    0  0.84749222068E+02  0.21564612882E+02  0.10989385703E+03  0.18801362446E+03  0.12500000000E+03 0.  0.
</event>
<event>
 5    0  0.5619558E-005  0.2245194E+03  0.7546771E-02  0.1130558E+00
         21   -1    0    0  502  501  0.00000000000E+00  0.00000000000E+00  0.45383596813E+03  0.45383596813E+03  0.00000000000E+00 0.  1.
         21   -1    0    0  501  502 -0.00000000000E+00 -0.00000000000E+00 -0.11107307951E+03  0.11107307951E+03  0.00000000000E+00 0.  1.
         25    1    1    2    0    0 -0.52060420984E+02  0.90705711279E+01  0.23373796649E+02  0.13770946614E+03  0.12500000000E+03 0.  0.
         25    1    1    2    0    0  0.13896246321E-01  0.10308633131E+02  0.23528895240E+03  0.26663112952E+03  0.12500000000E+03 0.  0.
         25    1    1    2    0    0  0.52046524738E+02 -0.19379204259E+02  0.84100139566E+02  0.16056845198E+03  0.12500000000E+03 0.  0.
</event>
<event>
 5    0  0.5619558E-005  0.3434913E+03  0.7546771E-02  0.1065319E+00
         21   -1    0    0  502  501  0.00000000000E+00  0.00000000000E+00  0.63605877056E+03  0.63605877056E+03  0.00000000000E+00 0. -1.
         21   -1    0    0  501  502 -0.00000000000E+00 -0.00000000000E+00 -0.18549581683E+03  0.18549581683E+03  0.00000000000E+00 0. -1.
         25    1    1    2    0    0 -0.16782565278E+03 -0.58331364761E+02  0.29518790483E+03  0.36650906811E+03  0.12500000000E+03 0.  0.
         25    1    1    2    0    0 -0.77562067677E+02  0.30771375314E+02  0.42875691301E+02  0.15628844099E+03  0.12500000000E+03 0.  0.
         25    1    1    2    0    0  0.24538772046E+03  0.27559989446E+02  0.11249935760E+03  0.29875707830E+03  0.12500000000E+03 0.  0.
</event>
<event>
 5    0  0.5619558E-005  0.4132691E+03  0.7546771E-02  0.1039279E+00
         21   -1    0    0  502  501  0.00000000000E+00  0.00000000000E+00  0.35489048044E+03  0.35489048044E+03  0.00000000000E+00 0.  1.
         21   -1    0    0  501  502 -0.00000000000E+00 -0.00000000000E+00 -0.48125095636E+03  0.48125095636E+03  0.00000000000E+00 0.  1.
         25    1    1    2    0    0 -0.69213579084E+02 -0.91312423590E+02  0.28037585308E+03  0.32766461088E+03  0.12500000000E+03 0.  0.
         25    1    1    2    0    0  0.54849451168E+02 -0.17431103609E+02 -0.20703729676E+03  0.24859957345E+03  0.12500000000E+03 0.  0.
         25    1    1    2    0    0  0.14364127916E+02  0.10874352720E+03 -0.19969903224E+03  0.25987725248E+03  0.12500000000E+03 0.  0.
</event>
<event>
 5    0  0.5619558E-005  0.3211936E+03  0.7546771E-02  0.1075101E+00
         21   -1    0    0  502  501  0.00000000000E+00  0.00000000000E+00  0.16106191103E+04  0.16106191103E+04  0.00000000000E+00 0. -1.
         21   -1    0    0  501  502 -0.00000000000E+00 -0.00000000000E+00 -0.64053211791E+02  0.64053211791E+02  0.00000000000E+00 0. -1.
         25    1    1    2    0    0 -0.80523011134E+02  0.44891208308E+02  0.42196510235E+03  0.44964288442E+03  0.12500000000E+03 0.  0.
         25    1    1    2    0    0 -0.10160422009E+03  0.41317583093E-01  0.13528751891E+03  0.21035953038E+03  0.12500000000E+03 0.  0.
         25    1    1    2    0    0  0.18212723122E+03 -0.44932525892E+02  0.98931327726E+03  0.10146699073E+04  0.12500000000E+03 0.  0.
</event>
<event>
 5    0  0.5619558E-005  0.2238212E+03  0.7546771E-02  0.1131066E+00
         21   -1    0    0  502  501  0.00000000000E+00  0.00000000000E+00  0.99098711127E+03  0.99098711127E+03  0.00000000000E+00 0. -1.
         21   -1    0    0  501  502 -0.00000000000E+00 -0.00000000000E+00 -0.50551523078E+02  0.50551523078E+02  0.00000000000E+00 0. -1.
         25    1    1    2    0    0 -0.18407173503E+02  0.11008779231E+02  0.33423821521E+03  0.35749154082E+03  0.12500000000E+03 0.  0.
         25    1    1    2    0    0 -0.67914246494E+02 -0.57803407544E+02  0.35494874206E+03  0.38673917346E+03  0.12500000000E+03 0.  0.
         25    1    1    2    0    0  0.86321419996E+02  0.46794628312E+02  0.25124863093E+03  0.29730792006E+03  0.12500000000E+03 0.  0.
</event>
<event>
 5    0  0.5619558E-005  0.3977192E+03  0.7546771E-02  0.1044572E+00
         21   -1    0    0  502  501  0.00000000000E+00  0.00000000000E+00  0.10791510063E+04  0.10791510063E+04  0.00000000000E+00 0. -1.
         21   -1    0    0  501  502 -0.00000000000E+00 -0.00000000000E+00 -0.14657874443E+03  0.14657874443E+03  0.00000000000E+00 0. -1.
         25    1    1    2    0    0 -0.15947974650E+03 -0.99093300443E+02  0.20557181131E+03  0.30518525742E+03  0.12500000000E+03 0.  0.
         25    1    1    2    0    0  0.75576506196E+02 -0.18781962128E+03  0.35312619169E+03  0.42580644158E+03  0.12500000000E+03 0.  0.
         25    1    1    2    0    0  0.83903240307E+02  0.28691292173E+03  0.37387425885E+03  0.49473805172E+03  0.12500000000E+03 0.  0.
</event>
<event>
 5    0  0.5619558E-005  0.3349940E+03  0.7546771E-02  0.1068948E+00
         21   -1    0    0  502  501  0.00000000000E+00  0.00000000000E+00  0.68171849197E+03  0.68171849197E+03  0.00000000000E+00 0. -1.
         21   -1    0    0  501  502 -0.00000000000E+00 -0.00000000000E+00 -0.16461487372E+03  0.16461487372E+03  0.00000000000E+00 0. -1.
         25    1    1    2    0    0 -0.11270775769E+03 -0.34445802786E+02  0.99950975364E+02  0.19875801732E+03  0.12500000000E+03 0.  0.
         25    1    1    2    0    0  0.20223113044E+03  0.14753724320E+02  0.42287398030E+02  0.24192628326E+03  0.12500000000E+03 0.  0.
         25    1    1    2    0    0 -0.89523372755E+02  0.19692078466E+02  0.37486524485E+03  0.40564906511E+03  0.12500000000E+03 0.  0.
</event>
<event>
 5    0  0.5619558E-005  0.2480769E+03  0.7546771E-02  0.1114526E+00
         21   -1    0    0  502  501  0.00000000000E+00  0.00000000000E+00  0.12901159097E+03  0.12901159097E+03  0.00000000000E+00 0.  1.
         21   -1    0    0  501  502 -0.00000000000E+00 -0.00000000000E+00 -0.47702811111E+03  0.47702811111E+03  0.00000000000E+00 0.  1.
         25    1    1    2    0    0  0.61053836394E+02  0.45587602813E+02 -0.10433469303E+02  0.14676395249E+03  0.12500000000E+03 0.  0.
         25    1    1    2    0    0 -0.22214422920E+01 -0.68397493580E+02 -0.73447245646E+02  0.16032045979E+03  0.12500000000E+03 0.  0.
         25    1    1    2    0    0 -0.58832394102E+02  0.22809890767E+02 -0.26413580519E+03  0.29895528980E+03  0.12500000000E+03 0.  0.
</event>
<event>
 5    0  0.5619558E-005  0.2570894E+03  0.7546771E-02  0.1108905E+00
         21   -1    0    0  502  501  0.00000000000E+00  0.00000000000E+00  0.57935447272E+03  0.57935447272E+03  0.00000000000E+00 0.  1.
         21   -1    0    0  501  502 -0.00000000000E+00 -0.00000000000E+00 -0.11408378524E+03  0.11408378524E+03  0.00000000000E+00 0.  1.
         25    1    1    2    0    0 -0.27441969644E+02 -0.13837594134E+02  0.96102259918E+01  0.12908097130E+03  0.12500000000E+03 0.  0.
         25    1    1    2    0    0 -0.55140453070E+02 -0.71854134145E+02  0.16225454308E+03  0.22395317124E+03  0.12500000000E+03 0.  0.
         25    1    1    2    0    0  0.82582422713E+02  0.85691728279E+02  0.29340591841E+03  0.34040411542E+03  0.12500000000E+03 0.  0.
</event>
<event>
 5    0  0.5619558E-005  0.2593049E+03  0.7546771E-02  0.1107562E+00
         21   -1    0    0  502  501  0.00000000000E+00  0.00000000000E+00  0.64321023823E+03  0.64321023823E+03  0.00000000000E+00 0.  1.
         21   -1    0    0  501  502 -0.00000000000E+00 -0.00000000000E+00 -0.10453660822E+03  0.10453660822E+03  0.00000000000E+00 0.  1.
         25    1    1    2    0    0 -0.12570480055E+03 -0.10208456296E+03  0.20935326281E+03  0.29270589937E+03  0.12500000000E+03 0.  0.
         25    1    1    2    0    0  0.69807337001E+02  0.67247299167E+02  0.10474112631E+03  0.18971285430E+03  0.12500000000E+03 0.  0.
         25    1    1    2    0    0  0.55897463549E+02  0.34837263790E+02  0.22457924090E+03  0.26532809279E+03  0.12500000000E+03 0.  0.
</event>
<event>
 5    0  0.5619558E-005  0.3041038E+03  0.7546771E-02  0.1083207E+00
         21   -1    0    0  502  501  0.00000000000E+00  0.00000000000E+00  0.16573443726E+03  0.16573443726E+03  0.00000000000E+00 0.  1.
         21   -1    0    0  501  502 -0.00000000000E+00 -0.00000000000E+00 -0.55799589016E+03  0.55799589016E+03  0.00000000000E+00 0.  1.
         25    1    1    2    0    0  0.85932408213E+02  0.16526745244E+02 -0.70004342090E+02  0.16787828925E+03  0.12500000000E+03 0.  0.
         25    1    1    2    0    0 -0.17230809788E+03 -0.10541157957E+03 -0.29334786447E+03  0.37746476827E+03  0.12500000000E+03 0.  0.
         25    1    1    2    0    0  0.86375689664E+02  0.88884834322E+02 -0.28909246338E+02  0.17838726990E+03  0.12500000000E+03 0.  0.
</event>
<event>
 5    0  0.5619558E-005  0.2498401E+03  0.7546771E-02  0.1113406E+00
         21   -1    0    0  502  501  0.00000000000E+00  0.00000000000E+00  0.21941027783E+03  0.21941027783E+03  0.00000000000E+00 0.  1.
         21   -1    0    0  501  502 -0.00000000000E+00 -0.00000000000E+00 -0.28449013884E+03  0.28449013884E+03  0.00000000000E+00 0.  1.
         25    1    1    2    0    0  0.10219026325E+03 -0.98183961838E+02 -0.66037905500E+02  0.20017228886E+03  0.12500000000E+03 0.  0.
         25    1    1    2    0    0 -0.38062190145E+02  0.77255894278E+02 -0.37924226964E+02  0.15646229741E+03  0.12500000000E+03 0.  0.
         25    1    1    2    0    0 -0.64128073103E+02  0.20928067560E+02  0.38882271446E+02  0.14726583040E+03  0.12500000000E+03 0.  0.
</event>
<event>
 5    0  0.5619558E-005  0.2606700E+03  0.7546771E-02  0.1106741E+00
         21   -1    0    0  502  501  0.00000000000E+00  0.00000000000E+00  0.14341763538E+03  0.14341763538E+03  0.00000000000E+00 0.  1.
         21   -1    0    0  501  502 -0.00000000000E+00 -0.00000000000E+00 -0.47378301601E+03  0.47378301601E+03  0.00000000000E+00 0.  1.
         25    1    1    2    0    0 -0.96613827008E+02 -0.30121844441E+02 -0.41258898946E+01  0.16088374700E+03  0.12500000000E+03 0.  0.
         25    1    1    2    0    0  0.13681251690E+03  0.20855093208E+02 -0.17392477667E+03  0.25500476002E+03  0.12500000000E+03 0.  0.
         25    1    1    2    0    0 -0.40198689892E+02  0.92667512326E+01 -0.15231471407E+03  0.20131214437E+03  0.12500000000E+03 0.  0.
</event>
<event>
 5    0  0.5619558E-005  0.2990966E+03  0.7546771E-02  0.1085693E+00
         21   -1    0    0  502  501  0.00000000000E+00  0.00000000000E+00  0.55976487986E+02  0.55976487986E+02  0.00000000000E+00 0. -1.
         21   -1    0    0  501  502 -0.00000000000E+00 -0.00000000000E+00 -0.15981495965E+04  0.15981495965E+04  0.00000000000E+00 0. -1.
         25    1    1    2    0    0  0.12113589949E+03 -0.14205643495E+02 -0.15572265481E+03  0.23398771693E+03  0.12500000000E+03 0.  0.
         25    1    1    2    0    0 -0.12217194751E+03  0.28622913440E+02 -0.92696816836E+03  0.94373737930E+03  0.12500000000E+03 0.  0.
         25    1    1    2    0    0  0.10360480155E+01 -0.14417269945E+02 -0.45948228529E+03  0.47640098821E+03  0.12500000000E+03 0.  0.
</event>
<event>
 5    0  0.5619558E-005  0.2400650E+03  0.7546771E-02  0.1119750E+00
         21   -1    0    0  502  501  0.00000000000E+00  0.00000000000E+00  0.57344858112E+02  0.57344858112E+02  0.00000000000E+00 0.  1.
         21   -1    0    0  501  502 -0.00000000000E+00 -0.00000000000E+00 -0.10049935079E+04  0.10049935079E+04  0.00000000000E+00 0.  1.
         25    1    1    2    0    0  0.64251724640E+02  0.68521797239E+02 -0.25856297659E+03  0.30216441498E+03  0.12500000000E+03 0.  0.
         25    1    1    2    0    0 -0.11587697060E+02 -0.79308483542E+02 -0.18064818943E+03  0.23384370556E+03  0.12500000000E+03 0.  0.
         25    1    1    2    0    0 -0.52664027580E+02  0.10786686303E+02 -0.50843748380E+03  0.52633024551E+03  0.12500000000E+03 0.  0.
</event>
<event>
 5    0  0.5619558E-005  0.3326761E+03  0.7546771E-02  0.1069959E+00
         21   -1    0    0  502  501  0.00000000000E+00  0.00000000000E+00  0.19114581374E+03  0.19114581374E+03  0.00000000000E+00 0. -1.
         21   -1    0    0  501  502 -0.00000000000E+00 -0.00000000000E+00 -0.57899970658E+03  0.57899970658E+03  0.00000000000E+00 0. -1.
         25    1    1    2    0    0  0.19886521605E+03 -0.11699242212E+03 -0.29672367805E+02  0.26408341561E+03  0.12500000000E+03 0.  0.
         25    1    1    2    0    0 -0.64501155645E+02  0.15815317530E+01 -0.14454123250E+03  0.20169300488E+03  0.12500000000E+03 0.  0.
         25    1    1    2    0    0 -0.13436406040E+03  0.11541089036E+03 -0.21364029253E+03  0.30436909984E+03  0.12500000000E+03 0.  0.
</event>
<event>
 5    0  0.5619558E-005  0.2927465E+03  0.7546771E-02  0.1088924E+00
         21   -1    0    0  502  501  0.00000000000E+00  0.00000000000E+00  0.10145255133E+03  0.10145255133E+03  0.00000000000E+00 0.  1.
         21   -1    0    0  501  502 -0.00000000000E+00 -0.00000000000E+00 -0.84473494342E+03  0.84473494342E+03  0.00000000000E+00 0.  1.
         25    1    1    2    0    0  0.33785895493E+02  0.17759252210E+03 -0.21404392972E+03  0.30679047327E+03  0.12500000000E+03 0.  0.
         25    1    1    2    0    0 -0.59042481234E+02 -0.49687525158E+02 -0.11194774234E+03  0.18469478001E+03  0.12500000000E+03 0.  0.
         25    1    1    2    0    0  0.25256585741E+02 -0.12790499695E+03 -0.41729072003E+03  0.45470224146E+03  0.12500000000E+03 0.  0.
</event>
<event>
 5    0  0.5619558E-005  0.3301504E+03  0.7546771E-02  0.1071070E+00
         21   -1    0    0  502  501  0.00000000000E+00  0.00000000000E+00  0.20386846505E+03  0.20386846505E+03  0.00000000000E+00 0.  1.
         21   -1    0    0  501  502 -0.00000000000E+00 -0.00000000000E+00 -0.53465493601E+03  0.53465493601E+03  0.00000000000E+00 0.  1.
         25    1    1    2    0    0 -0.95682759892E+02  0.10001912574E+02 -0.15073401808E+03  0.21817647216E+03  0.12500000000E+03 0.  0.
         25    1    1    2    0    0 -0.88238239595E+02 -0.11347594673E+03  0.35552230679E+02  0.19378270955E+03  0.12500000000E+03 0.  0.
         25    1    1    2    0    0  0.18392099949E+03  0.10347403415E+03 -0.21560468355E+03  0.32656421936E+03  0.12500000000E+03 0.  0.
</event>
<event>
 5    0  0.5619558E-005  0.2963967E+03  0.7546771E-02  0.1087056E+00
         21   -1    0    0  502  501  0.00000000000E+00  0.00000000000E+00  0.11332161890E+04  0.11332161890E+04  0.00000000000E+00 0. -1.
         21   -1    0    0  501  502 -0.00000000000E+00 -0.00000000000E+00 -0.77523622724E+02  0.77523622724E+02  0.00000000000E+00 0. -1.
         25    1    1    2    0    0 -0.11195426147E+03 -0.49630761200E+02  0.38099544141E+03  0.41926065341E+03  0.12500000000E+03 0.  0.
         25    1    1    2    0    0  0.78799826124E+02 -0.99915796043E+02  0.15814956558E+03  0.23838805337E+03  0.12500000000E+03 0.  0.
         25    1    1    2    0    0  0.33154435349E+02  0.14954655724E+03  0.51654755925E+03  0.55309110491E+03  0.12500000000E+03 0.  0.
</event>
<event>
 5    0  0.5619558E-005  0.2624177E+03  0.7546771E-02  0.1105699E+00
         21   -1    0    0  502  501  0.00000000000E+00  0.00000000000E+00  0.23408173719E+03  0.23408173719E+03  0.00000000000E+00 0.  1.
         21   -1    0    0  501  502 -0.00000000000E+00 -0.00000000000E+00 -0.29418373804E+03  0.29418373804E+03  0.00000000000E+00 0.  1.
         25    1    1    2    0    0  0.34194068898E+02 -0.33460614247E+02  0.36729844122E+02  0.13879095253E+03  0.12500000000E+03 0.  0.
         25    1    1    2    0    0 -0.48637501217E+02  0.10298668834E+03  0.57446373645E+02  0.17859717339E+03  0.12500000000E+03 0.  0.
         25    1    1    2    0    0  0.14443432319E+02 -0.69526074088E+02 -0.15427821861E+03  0.21087734931E+03  0.12500000000E+03 0.  0.
</event>
<event>
 5    0  0.5619558E-005  0.2215869E+03  0.7546771E-02  0.1132705E+00
         21   -1    0    0  502  501  0.00000000000E+00  0.00000000000E+00  0.22595178185E+03  0.22595178185E+03  0.00000000000E+00 0. -1.
         21   -1    0    0  501  502 -0.00000000000E+00 -0.00000000000E+00 -0.21730643047E+03  0.21730643047E+03  0.00000000000E+00 0. -1.
         25    1    1    2    0    0  0.81241722851E+02  0.61696745761E+02  0.25626887772E+02  0.16336597977E+03  0.12500000000E+03 0.  0.
         25    1    1    2    0    0 -0.46632532914E+02 -0.14993419884E+02  0.23323851475E+02  0.13626590848E+03  0.12500000000E+03 0.  0.
         25    1    1    2    0    0 -0.34609189937E+02 -0.46703325877E+02 -0.40305387870E+02  0.14362632408E+03  0.12500000000E+03 0.  0.
</event>
<event>
 5    0  0.5619558E-005  0.2523842E+03  0.7546771E-02  0.1111807E+00
         21   -1    0    0  502  501  0.00000000000E+00  0.00000000000E+00  0.21520968142E+03  0.21520968142E+03  0.00000000000E+00 0.  1.
         21   -1    0    0  501  502 -0.00000000000E+00 -0.00000000000E+00 -0.29598004570E+03  0.29598004570E+03  0.00000000000E+00 0.  1.
         25    1    1    2    0    0  0.65577437857E+02 -0.27441557601E+02  0.27367372494E+02  0.14638105245E+03  0.12500000000E+03 0.  0.
         25    1    1    2    0    0 -0.14659745743E+03  0.16363396128E+02 -0.93357664883E+02  0.21470730973E+03  0.12500000000E+03 0.  0.
         25    1    1    2    0    0  0.81020019571E+02  0.11078161473E+02 -0.14780071893E+02  0.15010136494E+03  0.12500000000E+03 0.  0.
</event>
<event>
 5    0  0.5619558E-005  0.4732864E+03  0.7546771E-02  0.1020997E+00
         21   -1    0    0  502  501  0.00000000000E+00  0.00000000000E+00  0.42211381216E+03  0.42211381216E+03  0.00000000000E+00 0.  1.
         21   -1    0    0  501  502 -0.00000000000E+00 -0.00000000000E+00 -0.53066268361E+03  0.53066268361E+03  0.00000000000E+00 0.  1.
         25    1    1    2    0    0  0.43111336417E+02 -0.42106325362E+02 -0.41000395181E+03  0.43285074848E+03  0.12500000000E+03 0.  0.
         25    1    1    2    0    0 -0.49128352161E+02  0.26984563608E+02 -0.50557774458E+02  0.14602345776E+03  0.12500000000E+03 0.  0.
         25    1    1    2    0    0  0.60170157443E+01  0.15121761755E+02  0.35201285481E+03  0.37390228952E+03  0.12500000000E+03 0.  0.
</event>
<event>
 5    0  0.5619558E-005  0.2999682E+03  0.7546771E-02  0.1085257E+00
         21   -1    0    0  502  501  0.00000000000E+00  0.00000000000E+00  0.56366116333E+02  0.56366116333E+02  0.00000000000E+00 0.  1.
         21   -1    0    0  501  502 -0.00000000000E+00 -0.00000000000E+00 -0.15963655693E+04  0.15963655693E+04  0.00000000000E+00 0.  1.
         25    1    1    2    0    0  0.11521939176E+03 -0.14738111690E+02 -0.11227259601E+04  0.11356193471E+04  0.12500000000E+03 0.  0.
         25    1    1    2    0    0 -0.57054815162E+02 -0.50457225727E+02 -0.15130467332E+03  0.21052146620E+03  0.12500000000E+03 0.  0.
         25    1    1    2    0    0 -0.58164576603E+02  0.65195337417E+02 -0.26596881960E+03  0.30659087232E+03  0.12500000000E+03 0.  0.
</event>
<event>
 5    0  0.5619558E-005  0.2129105E+03  0.7546771E-02  0.1139282E+00
         21   -1    0    0  502  501  0.00000000000E+00  0.00000000000E+00  0.22100611562E+03  0.22100611562E+03  0.00000000000E+00 0.  1.
         21   -1    0    0  501  502 -0.00000000000E+00 -0.00000000000E+00 -0.20511150728E+03  0.20511150728E+03  0.00000000000E+00 0.  1.
         25    1    1    2    0    0 -0.19101674485E+02  0.95825822063E+00  0.80957434703E+02  0.15014958695E+03  0.12500000000E+03 0.  0.
         25    1    1    2    0    0 -0.28889548601E+02  0.39941313625E+01 -0.32214333001E+01  0.12839757294E+03  0.12500000000E+03 0.  0.
         25    1    1    2    0    0  0.47991223086E+02 -0.49523895831E+01 -0.61841393062E+02  0.14757046301E+03  0.12500000000E+03 0.  0.
</event>
<event>
 5    0  0.5619558E-005  0.3084026E+03  0.7546771E-02  0.1081114E+00
         21   -1    0    0  502  501  0.00000000000E+00  0.00000000000E+00  0.20453564284E+03  0.20453564284E+03  0.00000000000E+00 0.  1.
         21   -1    0    0  501  502 -0.00000000000E+00 -0.00000000000E+00 -0.46501513761E+03  0.46501513761E+03  0.00000000000E+00 0.  1.
         25    1    1    2    0    0  0.39992251948E+01 -0.73566398220E+02 -0.25964723211E+03  0.29743855482E+03  0.12500000000E+03 0.  0.
         25    1    1    2    0    0  0.89708030378E+02  0.33621826788E+02 -0.96418028423E+02  0.18466021270E+03  0.12500000000E+03 0.  0.
         25    1    1    2    0    0 -0.93707255572E+02  0.39944571432E+02  0.95585765768E+02  0.18745201293E+03  0.12500000000E+03 0.  0.
</event>
<event>
 5    0  0.5619558E-005  0.2365389E+03  0.7546771E-02  0.1122120E+00
         21   -1    0    0  502  501  0.00000000000E+00  0.00000000000E+00  0.10221237834E+03  0.10221237834E+03  0.00000000000E+00 0.  1.
         21   -1    0    0  501  502 -0.00000000000E+00 -0.00000000000E+00 -0.54739581855E+03  0.54739581855E+03  0.00000000000E+00 0.  1.
         25    1    1    2    0    0 -0.29546452616E+02 -0.47731506376E+02 -0.25769086512E+02  0.13942860317E+03  0.12500000000E+03 0.  0.
         25    1    1    2    0    0  0.62395722385E+02  0.25631203129E+02 -0.30381164905E+03  0.33537546548E+03  0.12500000000E+03 0.  0.
         25    1    1    2    0    0 -0.32849269769E+02  0.22100303246E+02 -0.11560270465E+03  0.17480412824E+03  0.12500000000E+03 0.  0.
</event>
<event>
 5    0  0.5619558E-005  0.2467532E+03  0.7546771E-02  0.1115374E+00
         21   -1    0    0  502  501  0.00000000000E+00  0.00000000000E+00  0.22382705534E+03  0.22382705534E+03  0.00000000000E+00 0. -1.
         21   -1    0    0  501  502 -0.00000000000E+00 -0.00000000000E+00 -0.27202761562E+03  0.27202761562E+03  0.00000000000E+00 0. -1.
         25    1    1    2    0    0 -0.80692968438E+02  0.28292919366E+02 -0.12330653923E+03  0.19529809794E+03  0.12500000000E+03 0.  0.
         25    1    1    2    0    0  0.47947038134E+02  0.43683749325E+02  0.55424843299E+02  0.15134101122E+03  0.12500000000E+03 0.  0.
         25    1    1    2    0    0  0.32745930305E+02 -0.71976668691E+02  0.19681135648E+02  0.14921556182E+03  0.12500000000E+03 0.  0.
</event>
<event>
 5    0  0.5619558E-005  0.2274264E+03  0.7546771E-02  0.1128464E+00
         21   -1    0    0  502  501  0.00000000000E+00  0.00000000000E+00  0.16849955480E+03  0.16849955480E+03  0.00000000000E+00 0. -1.
         21   -1    0    0  501  502 -0.00000000000E+00 -0.00000000000E+00 -0.30696082580E+03  0.30696082580E+03  0.00000000000E+00 0. -1.
         25    1    1    2    0    0  0.24152911568E+02  0.17185575904E+02 -0.62889805234E+02  0.14303438313E+03  0.12500000000E+03 0.  0.
         25    1    1    2    0    0  0.11025314638E+02 -0.98084004882E+02 -0.82314363102E+02  0.17928380839E+03  0.12500000000E+03 0.  0.
         25    1    1    2    0    0 -0.35178226206E+02  0.80898428978E+02  0.67428973322E+01  0.15314218907E+03  0.12500000000E+03 0.  0.
</event>
<event>
 5    0  0.5619558E-005  0.2625139E+03  0.7546771E-02  0.1105642E+00
         21   -1    0    0  502  501  0.00000000000E+00  0.00000000000E+00  0.97135289025E+02  0.97135289025E+02  0.00000000000E+00 0.  1.
         21   -1    0    0  501  502 -0.00000000000E+00 -0.00000000000E+00 -0.70945968536E+03  0.70945968536E+03  0.00000000000E+00 0.  1.
         25    1    1    2    0    0  0.93122162305E+02  0.92294567446E+02 -0.14455694575E+03  0.23175792296E+03  0.12500000000E+03 0.  0.
         25    1    1    2    0    0 -0.12486782590E+03 -0.72807324117E+02 -0.35158976930E+03  0.40016652318E+03  0.12500000000E+03 0.  0.
         25    1    1    2    0    0  0.31745663597E+02 -0.19487243329E+02 -0.11617768128E+03  0.17467052825E+03  0.12500000000E+03 0.  0.
</event>
<event>
 5    0  0.5619558E-005  0.3183621E+03  0.7546771E-02  0.1076406E+00
         21   -1    0    0  502  501  0.00000000000E+00  0.00000000000E+00  0.44482906220E+03  0.44482906220E+03  0.00000000000E+00 0.  1.
         21   -1    0    0  501  502 -0.00000000000E+00 -0.00000000000E+00 -0.22785030665E+03  0.22785030665E+03  0.00000000000E+00 0.  1.
         25    1    1    2    0    0 -0.23575547355E+01 -0.10656026840E+03 -0.15990902542E+02  0.16504956174E+03  0.12500000000E+03 0.  0.
         25    1    1    2    0    0 -0.31484487770E+02 -0.79976578646E+02 -0.35706225543E+02  0.15584434749E+03  0.12500000000E+03 0.  0.
         25    1    1    2    0    0  0.33842042506E+02  0.18653684705E+03  0.26867588364E+03  0.35178545962E+03  0.12500000000E+03 0.  0.
</event>
<event>
 5    0  0.5619558E-005  0.4514275E+03  0.7546771E-02  0.1027297E+00
         21   -1    0    0  502  501  0.00000000000E+00  0.00000000000E+00  0.84668797660E+03  0.84668797660E+03  0.00000000000E+00 0.  1.
         21   -1    0    0  501  502 -0.00000000000E+00 -0.00000000000E+00 -0.24068698930E+03  0.24068698930E+03  0.00000000000E+00 0.  1.
         25    1    1    2    0    0  0.16521565684E+02 -0.33692169631E+03  0.13413605259E+03  0.38393576569E+03  0.12500000000E+03 0.  0.
         25    1    1    2    0    0  0.12822587972E+03  0.20506721221E+03  0.16422177822E+03  0.31794375319E+03  0.12500000000E+03 0.  0.
         25    1    1    2    0    0 -0.14474744540E+03  0.13185448409E+03  0.30764315650E+03  0.38549544701E+03  0.12500000000E+03 0.  0.
</event>
<event>
 5    0  0.5619558E-005  0.3235035E+03  0.7546771E-02  0.1074048E+00
         21   -1    0    0  502  501  0.00000000000E+00  0.00000000000E+00  0.91917710249E+02  0.91917710249E+02  0.00000000000E+00 0. -1.
         21   -1    0    0  501  502 -0.00000000000E+00 -0.00000000000E+00 -0.11385676195E+04  0.11385676195E+04  0.00000000000E+00 0. -1.
         25    1    1    2    0    0  0.14829567874E+02  0.20445541635E+03 -0.74897724718E+03  0.78652008884E+03  0.12500000000E+03 0.  0.
         25    1    1    2    0    0  0.41619458529E+01 -0.12335341861E+03 -0.12798592068E+03  0.21734484941E+03  0.12500000000E+03 0.  0.
         25    1    1    2    0    0 -0.18991513727E+02 -0.81101997739E+02 -0.16968674134E+03  0.22662039144E+03  0.12500000000E+03 0.  0.
</event>
<event>
 5    0  0.5619558E-005  0.3782273E+03  0.7546771E-02  0.1051591E+00
         21   -1    0    0  502  501  0.00000000000E+00  0.00000000000E+00  0.65498245949E+03  0.65498245949E+03  0.00000000000E+00 0.  1.
         21   -1    0    0  501  502 -0.00000000000E+00 -0.00000000000E+00 -0.21841179953E+03  0.21841179953E+03  0.00000000000E+00 0.  1.
         25    1    1    2    0    0  0.10943374950E+03  0.21921561602E+03  0.30972966093E+02  0.27679515253E+03  0.12500000000E+03 0.  0.
         25    1    1    2    0    0 -0.57205175508E+02 -0.22989955857E+03  0.14970094520E+03  0.30685764147E+03  0.12500000000E+03 0.  0.
         25    1    1    2    0    0 -0.52228573994E+02  0.10683942557E+02  0.25589674867E+03  0.28974146501E+03  0.12500000000E+03 0.  0.
</event>
<event>
 5    0  0.5619558E-005  0.4591293E+03  0.7546771E-02  0.1025034E+00
         21   -1    0    0  502  501  0.00000000000E+00  0.00000000000E+00  0.56070663065E+03  0.56070663065E+03  0.00000000000E+00 0. -1.
         21   -1    0    0  501  502 -0.00000000000E+00 -0.00000000000E+00 -0.37595367706E+03  0.37595367706E+03  0.00000000000E+00 0. -1.
         25    1    1    2    0    0 -0.21087512571E+03  0.10314561653E+03  0.36684404430E+03  0.45310803313E+03  0.12500000000E+03 0.  0.
         25    1    1    2    0    0  0.66723499179E+02 -0.13667036272E+03  0.26775087925E+02  0.19867742379E+03  0.12500000000E+03 0.  0.
         25    1    1    2    0    0  0.14415162653E+03  0.33524746192E+02 -0.20886617863E+03  0.28487485080E+03  0.12500000000E+03 0.  0.
</event>
<event>
 5    0  0.5619558E-005  0.2604648E+03  0.7546771E-02  0.1106864E+00
         21   -1    0    0  502  501  0.00000000000E+00  0.00000000000E+00  0.57552209522E+03  0.57552209522E+03  0.00000000000E+00 0.  1.
         21   -1    0    0  501  502 -0.00000000000E+00 -0.00000000000E+00 -0.11787889814E+03  0.11787889814E+03  0.00000000000E+00 0.  1.
         25    1    1    2    0    0  0.65850417556E+02  0.83976775789E+02  0.23350179414E+03  0.28554590564E+03  0.12500000000E+03 0.  0.
         25    1    1    2    0    0  0.25554420908E+02 -0.12301548327E+03  0.87388091142E+02  0.19760444333E+03  0.12500000000E+03 0.  0.
         25    1    1    2    0    0 -0.91404838464E+02  0.39038707478E+02  0.13675331180E+03  0.21025064438E+03  0.12500000000E+03 0.  0.
</event>
<event>
 5    0  0.5619558E-005  0.3228921E+03  0.7546771E-02  0.1074326E+00
         21   -1    0    0  502  501  0.00000000000E+00  0.00000000000E+00  0.48254378581E+03  0.48254378581E+03  0.00000000000E+00 0.  1.
         21   -1    0    0  501  502 -0.00000000000E+00 -0.00000000000E+00 -0.21606180427E+03  0.21606180427E+03  0.00000000000E+00 0.  1.
         25    1    1    2    0    0  0.25224051893E+02  0.12716995748E+03  0.14204175997E+03  0.22936720004E+03  0.12500000000E+03 0.  0.
         25    1    1    2    0    0  0.49928126659E+02  0.10285688486E+03  0.97705076737E+02  0.19555980828E+03  0.12500000000E+03 0.  0.
         25    1    1    2    0    0 -0.75152178552E+02 -0.23002684234E+03  0.26735144836E+02  0.27367858175E+03  0.12500000000E+03 0.  0.
</event>
<event>
 5    0  0.5619558E-005  0.4281837E+03  0.7546771E-02  0.1034435E+00
         21   -1    0    0  502  501  0.00000000000E+00  0.00000000000E+00  0.24427882204E+03  0.24427882204E+03  0.00000000000E+00 0. -1.
         21   -1    0    0  501  502 -0.00000000000E+00 -0.00000000000E+00 -0.75054088525E+03  0.75054088525E+03  0.00000000000E+00 0. -1.
         25    1    1    2    0    0 -0.39685146870E+01 -0.78286207907E+02 -0.14790721527E+03  0.20891630809E+03  0.12500000000E+03 0.  0.
         25    1    1    2    0    0  0.28014099113E+03  0.12862228644E+03 -0.34362965751E+03  0.47825621689E+03  0.12500000000E+03 0.  0.
         25    1    1    2    0    0 -0.27617247644E+03 -0.50336078536E+02 -0.14725190423E+02  0.30764718230E+03  0.12500000000E+03 0.  0.
</event>
<event>
 5    0  0.5619558E-005  0.3020469E+03  0.7546771E-02  0.1084222E+00
         21   -1    0    0  502  501  0.00000000000E+00  0.00000000000E+00  0.59565946700E+03  0.59565946700E+03  0.00000000000E+00 0.  1.
         21   -1    0    0  501  502 -0.00000000000E+00 -0.00000000000E+00 -0.15316193429E+03  0.15316193429E+03  0.00000000000E+00 0.  1.
         25    1    1    2    0    0 -0.61673500800E+00 -0.22378528339E+02 -0.13961323632E+02  0.12775405062E+03  0.12500000000E+03 0.  0.
         25    1    1    2    0    0  0.10604447540E+03 -0.25782971037E+02  0.39451782689E+02  0.17056270259E+03  0.12500000000E+03 0.  0.
         25    1    1    2    0    0 -0.10542774039E+03  0.48161499376E+02  0.41700707365E+03  0.45050464808E+03  0.12500000000E+03 0.  0.
</event>
<event>
 5    0  0.5619558E-005  0.3178670E+03  0.7546771E-02  0.1076635E+00
         21   -1    0    0  502  501  0.00000000000E+00  0.00000000000E+00  0.73668601032E+03  0.73668601032E+03  0.00000000000E+00 0. -1.
         21   -1    0    0  501  502 -0.00000000000E+00 -0.00000000000E+00 -0.13715399977E+03  0.13715399977E+03  0.00000000000E+00 0. -1.
         25    1    1    2    0    0 -0.85519675455E+02 -0.15483933990E+02  0.44499276616E+02  0.15861447828E+03  0.12500000000E+03 0.  0.
         25    1    1    2    0    0  0.12254601366E+03  0.10286033196E+03  0.51453296260E+03  0.55314278713E+03  0.12500000000E+03 0.  0.
         25    1    1    2    0    0 -0.37026338204E+02 -0.87376397966E+02  0.40499771342E+02  0.16208274467E+03  0.12500000000E+03 0.  0.
</event>
<event>
 5    0  0.6101643E-005  0.4641270E+03  0.7546771E-02  0.1023591E+00
         21   -1    0    0  502  501  0.00000000000E+00  0.00000000000E+00  0.76228068194E+03  0.76228068194E+03  0.00000000000E+00 0. -1.
         21   -1    0    0  501  502 -0.00000000000E+00 -0.00000000000E+00 -0.28259121744E+03  0.28259121744E+03  0.00000000000E+00 0. -1.
         25    1    1    2    0    0 -0.21912896936E+02  0.12196034546E+03 -0.13099507728E+03  0.21940649760E+03  0.12500000000E+03 0.  0.
         25    1    1    2    0    0  0.96421288586E+02  0.15644044945E+03  0.36210639625E+03  0.42487259422E+03  0.12500000000E+03 0.  0.
         25    1    1    2    0    0 -0.74508391651E+02 -0.27840079491E+03  0.24857814552E+03  0.40059280755E+03  0.12500000000E+03 0.  0.
</event>
<event>
 5    0  0.5619558E-005  0.2710817E+03  0.7546771E-02  0.1100662E+00
         21   -1    0    0  502  501  0.00000000000E+00  0.00000000000E+00  0.14340559636E+03  0.14340559636E+03  0.00000000000E+00 0. -1.
         21   -1    0    0  501  502 -0.00000000000E+00 -0.00000000000E+00 -0.51242965397E+03  0.51242965397E+03  0.00000000000E+00 0. -1.
         25    1    1    2    0    0  0.18425099587E+02  0.21263208548E+02 -0.34187125199E+02  0.13260983320E+03  0.12500000000E+03 0.  0.
         25    1    1    2    0    0 -0.53739398108E+02 -0.38551561267E+02 -0.36266748832E+03  0.38926450245E+03  0.12500000000E+03 0.  0.
         25    1    1    2    0    0  0.35314298521E+02  0.17288352720E+02  0.27830555912E+02  0.13396091468E+03  0.12500000000E+03 0.  0.
</event>
<event>
 5    0  0.5619558E-005  0.2403420E+03  0.7546771E-02  0.1119565E+00
         21   -1    0    0  502  501  0.00000000000E+00  0.00000000000E+00  0.10923535173E+03  0.10923535173E+03  0.00000000000E+00 0. -1.
         21   -1    0    0  501  502 -0.00000000000E+00 -0.00000000000E+00 -0.52880588014E+03  0.52880588014E+03  0.00000000000E+00 0. -1.
         25    1    1    2    0    0  0.32513946369E+02  0.43189103594E+01 -0.14462206010E+03  0.19394934896E+03  0.12500000000E+03 0.  0.
         25    1    1    2    0    0 -0.88018420732E+02 -0.22146075447E+02 -0.26381930327E+03  0.30571770610E+03  0.12500000000E+03 0.  0.
         25    1    1    2    0    0  0.55504474364E+02  0.17827165087E+02 -0.11129165035E+02  0.13837417680E+03  0.12500000000E+03 0.  0.
</event>
<event>
 5    0  0.5650938E-005  0.2892310E+03  0.7546771E-02  0.1090751E+00
         21   -1    0    0  502  501  0.00000000000E+00  0.00000000000E+00  0.45456939497E+03  0.45456939497E+03  0.00000000000E+00 0. -1.
         21   -1    0    0  501  502 -0.00000000000E+00 -0.00000000000E+00 -0.18403041525E+03  0.18403041525E+03  0.00000000000E+00 0. -1.
         25    1    1    2    0    0  0.98778021619E+02  0.70349092634E+02  0.16824060471E+03  0.24214870114E+03  0.12500000000E+03 0.  0.
         25    1    1    2    0    0 -0.17211649053E+03 -0.36287096228E+02  0.11935912557E+03  0.24660178532E+03  0.12500000000E+03 0.  0.
         25    1    1    2    0    0  0.73338468908E+02 -0.34061996407E+02 -0.17060750575E+02  0.14984932376E+03  0.12500000000E+03 0.  0.
</event>
<event>
 5    0  0.6256434E-005  0.3609122E+03  0.7546771E-02  0.1058223E+00
         21   -1    0    0  502  501  0.00000000000E+00  0.00000000000E+00  0.47076078488E+03  0.47076078488E+03  0.00000000000E+00 0.  1.
         21   -1    0    0  501  502 -0.00000000000E+00 -0.00000000000E+00 -0.27669592213E+03  0.27669592213E+03  0.00000000000E+00 0.  1.
         25    1    1    2    0    0 -0.98370878422E+01  0.30590520600E+02 -0.15765401686E+03  0.20374576628E+03  0.12500000000E+03 0.  0.
         25    1    1    2    0    0 -0.14743587134E+03  0.46476016754E+02  0.15369441744E+03  0.25128535620E+03  0.12500000000E+03 0.  0.
         25    1    1    2    0    0  0.15727295918E+03 -0.77066537354E+02  0.19802446217E+03  0.29242558453E+03  0.12500000000E+03 0.  0.
</event>
<event>
 5    0  0.5619558E-005  0.2657531E+03  0.7546771E-02  0.1103735E+00
         21   -1    0    0  502  501  0.00000000000E+00  0.00000000000E+00  0.50073094117E+03  0.50073094117E+03  0.00000000000E+00 0.  1.
         21   -1    0    0  501  502 -0.00000000000E+00 -0.00000000000E+00 -0.14104325108E+03  0.14104325108E+03  0.00000000000E+00 0.  1.
         25    1    1    2    0    0 -0.32318545152E+02 -0.29575527161E+02  0.13541397406E+03  0.18942318902E+03  0.12500000000E+03 0.  0.
         25    1    1    2    0    0  0.13966021509E+03  0.10111124350E+03  0.12972372625E+03  0.24936259622E+03  0.12500000000E+03 0.  0.
         25    1    1    2    0    0 -0.10734166993E+03 -0.71535716343E+02  0.94549989782E+02  0.20298840702E+03  0.12500000000E+03 0.  0.
</event>
<event>
 5    0  0.5619558E-005  0.2362079E+03  0.7546771E-02  0.1122345E+00
         21   -1    0    0  502  501  0.00000000000E+00  0.00000000000E+00  0.38153232897E+02  0.38153232897E+02  0.00000000000E+00 0.  1.
         21   -1    0    0  501  502 -0.00000000000E+00 -0.00000000000E+00 -0.14623707086E+04  0.14623707086E+04  0.00000000000E+00 0.  1.
         25    1    1    2    0    0 -0.13163629098E+02  0.68438314613E+02 -0.22029325039E+03  0.26269982909E+03  0.12500000000E+03 0.  0.
         25    1    1    2    0    0 -0.13623487329E+02 -0.87282860359E+01 -0.80221388772E+03  0.81205535774E+03  0.12500000000E+03 0.  0.
         25    1    1    2    0    0  0.26787116426E+02 -0.59710028577E+02 -0.40171033761E+03  0.42576875468E+03  0.12500000000E+03 0.  0.
</event>
<event>
 5    0  0.5619558E-005  0.3901017E+03  0.7546771E-02  0.1047262E+00
         21   -1    0    0  502  501  0.00000000000E+00  0.00000000000E+00  0.45439225864E+03  0.45439225864E+03  0.00000000000E+00 0. -1.
         21   -1    0    0  501  502 -0.00000000000E+00 -0.00000000000E+00 -0.33490746177E+03  0.33490746177E+03  0.00000000000E+00 0. -1.
         25    1    1    2    0    0 -0.24393292782E+03 -0.35034785763E+02 -0.28497610197E+02  0.27779097048E+03  0.12500000000E+03 0.  0.
         25    1    1    2    0    0  0.18837693034E+03 -0.12573678457E+03  0.15264317838E+03  0.30036735306E+03  0.12500000000E+03 0.  0.
         25    1    1    2    0    0  0.55555997482E+02  0.16077157033E+03 -0.46607713032E+01  0.21114139687E+03  0.12500000000E+03 0.  0.
</event>
<event>
 5    0  0.6383481E-005  0.3111535E+03  0.7546771E-02  0.1079794E+00
         21   -1    0    0  502  501  0.00000000000E+00  0.00000000000E+00  0.46332882786E+03  0.46332882786E+03  0.00000000000E+00 0.  1.
         21   -1    0    0  501  502 -0.00000000000E+00 -0.00000000000E+00 -0.20895844103E+03  0.20895844103E+03  0.00000000000E+00 0.  1.
         25    1    1    2    0    0  0.64744850497E+02  0.43740439598E+02  0.14654651734E+03  0.20786053850E+03  0.12500000000E+03 0.  0.
         25    1    1    2    0    0  0.14290916154E+03 -0.37909765368E+02  0.10858425254E+03  0.22198134755E+03  0.12500000000E+03 0.  0.
         25    1    1    2    0    0 -0.20765401203E+03 -0.58306742298E+01 -0.76038304972E+00  0.24244538283E+03  0.12500000000E+03 0.  0.
</event>
<event>
 5    0  0.5619558E-005  0.4483800E+03  0.7546771E-02  0.1028206E+00
         21   -1    0    0  502  501  0.00000000000E+00  0.00000000000E+00  0.10221234807E+03  0.10221234807E+03  0.00000000000E+00 0. -1.
         21   -1    0    0  501  502 -0.00000000000E+00 -0.00000000000E+00 -0.19669308570E+04  0.19669308570E+04  0.00000000000E+00 0. -1.
         25    1    1    2    0    0 -0.46610665148E+02  0.71044583268E+02 -0.31011310874E+03  0.34498554626E+03  0.12500000000E+03 0.  0.
         25    1    1    2    0    0  0.84355702845E+02 -0.10694875126E+03 -0.15762180136E+04  0.15870230453E+04  0.12500000000E+03 0.  0.
         25    1    1    2    0    0 -0.37745037698E+02  0.35904167991E+02  0.21612613429E+02  0.13713461346E+03  0.12500000000E+03 0.  0.
</event>
<event>
 5    0  0.5619558E-005  0.3300488E+03  0.7546771E-02  0.1071115E+00
         21   -1    0    0  502  501  0.00000000000E+00  0.00000000000E+00  0.17503003211E+04  0.17503003211E+04  0.00000000000E+00 0.  1.
         21   -1    0    0  501  502 -0.00000000000E+00 -0.00000000000E+00 -0.62236312803E+02  0.62236312803E+02  0.00000000000E+00 0.  1.
         25    1    1    2    0    0  0.10126327180E+03 -0.13926941130E+03  0.99919565191E+03  0.10216002985E+04  0.12500000000E+03 0.  0.
         25    1    1    2    0    0 -0.66828231927E+02  0.14032304594E+03  0.18990220110E+03  0.27539864884E+03  0.12500000000E+03 0.  0.
         25    1    1    2    0    0 -0.34435039876E+02 -0.10536346376E+01  0.49896615527E+03  0.51553768652E+03  0.12500000000E+03 0.  0.
</event>
<event>
 5    0  0.5619558E-005  0.3363332E+03  0.7546771E-02  0.1068368E+00
         21   -1    0    0  502  501  0.00000000000E+00  0.00000000000E+00  0.97025220381E+02  0.97025220381E+02  0.00000000000E+00 0.  1.
         21   -1    0    0  501  502 -0.00000000000E+00 -0.00000000000E+00 -0.11658829606E+04  0.11658829606E+04  0.00000000000E+00 0.  1.
         25    1    1    2    0    0 -0.23657773175E+02  0.18778591221E+02 -0.13731017265E+02  0.12932852182E+03  0.12500000000E+03 0.  0.
         25    1    1    2    0    0 -0.11757789338E+03  0.15739982635E+02 -0.77624299221E+03  0.79514180560E+03  0.12500000000E+03 0.  0.
         25    1    1    2    0    0  0.14123566656E+03 -0.34518573856E+02 -0.27888373074E+03  0.33843785356E+03  0.12500000000E+03 0.  0.
</event>
<event>
 5    0  0.6000699E-005  0.2976787E+03  0.7546771E-02  0.1086407E+00
         21   -1    0    0  502  501  0.00000000000E+00  0.00000000000E+00  0.24286371708E+03  0.24286371708E+03  0.00000000000E+00 0. -1.
         21   -1    0    0  501  502 -0.00000000000E+00 -0.00000000000E+00 -0.36486554935E+03  0.36486554935E+03  0.00000000000E+00 0. -1.
         25    1    1    2    0    0  0.28263836891E+02  0.11704626750E+03 -0.13400068730E+03  0.21927119603E+03  0.12500000000E+03 0.  0.
         25    1    1    2    0    0 -0.14364528816E+02  0.61131797268E+02  0.78552976673E+02  0.16043380713E+03  0.12500000000E+03 0.  0.
         25    1    1    2    0    0 -0.13899308075E+02 -0.17817806477E+03 -0.66554121639E+02  0.22802426326E+03  0.12500000000E+03 0.  0.
</event>
<event>
 5    0  0.5816821E-005  0.2522011E+03  0.7546771E-02  0.1111922E+00
         21   -1    0    0  502  501  0.00000000000E+00  0.00000000000E+00  0.55012382690E+03  0.55012382690E+03  0.00000000000E+00 0. -1.
         21   -1    0    0  501  502 -0.00000000000E+00 -0.00000000000E+00 -0.11562018536E+03  0.11562018536E+03  0.00000000000E+00 0. -1.
         25    1    1    2    0    0  0.68851713576E+02 -0.13498943348E+01  0.56667149763E+02  0.15355307401E+03  0.12500000000E+03 0.  0.
         25    1    1    2    0    0 -0.12390862732E+03 -0.67522350383E+02  0.24822763687E+03  0.31169628716E+03  0.12500000000E+03 0.  0.
         25    1    1    2    0    0  0.55056913747E+02  0.68872244717E+02  0.12960885491E+03  0.20049465108E+03  0.12500000000E+03 0.  0.
</event>
<event>
 5    0  0.5619558E-005  0.2229897E+03  0.7546771E-02  0.1131674E+00
         21   -1    0    0  502  501  0.00000000000E+00  0.00000000000E+00  0.38057453262E+03  0.38057453262E+03  0.00000000000E+00 0.  1.
         21   -1    0    0  501  502 -0.00000000000E+00 -0.00000000000E+00 -0.13065611770E+03  0.13065611770E+03  0.00000000000E+00 0.  1.
         25    1    1    2    0    0  0.59968498593E+02  0.66426499583E+02  0.12236388625E+03  0.19648567716E+03  0.12500000000E+03 0.  0.
         25    1    1    2    0    0 -0.53518097498E+02 -0.57550075888E+01  0.17178289151E+02  0.13717653039E+03  0.12500000000E+03 0.  0.
         25    1    1    2    0    0 -0.64504010950E+01 -0.60671491994E+02  0.11037623951E+03  0.17756844276E+03  0.12500000000E+03 0.  0.
</event>
<event>
 5    0  0.5619558E-005  0.4065524E+03  0.7546771E-02  0.1041534E+00
         21   -1    0    0  502  501  0.00000000000E+00  0.00000000000E+00  0.56983026672E+03  0.56983026672E+03  0.00000000000E+00 0.  1.
         21   -1    0    0  501  502 -0.00000000000E+00 -0.00000000000E+00 -0.29005981197E+03  0.29005981197E+03  0.00000000000E+00 0.  1.
         25    1    1    2    0    0 -0.81462159578E+01 -0.36099163231E+02  0.49688995122E+03  0.51370627215E+03  0.12500000000E+03 0.  0.
         25    1    1    2    0    0 -0.31792506683E+02  0.26853686521E+02 -0.71328729872E+02  0.14981545870E+03  0.12500000000E+03 0.  0.
         25    1    1    2    0    0  0.39938722640E+02  0.92454767101E+01 -0.14579076660E+03  0.19636834784E+03  0.12500000000E+03 0.  0.
</event>
<event>
 5    0  0.5619558E-005  0.3275198E+03  0.7546771E-02  0.1072240E+00
         21   -1    0    0  502  501  0.00000000000E+00  0.00000000000E+00  0.20884656401E+03  0.20884656401E+03  0.00000000000E+00 0.  1.
         21   -1    0    0  501  502 -0.00000000000E+00 -0.00000000000E+00 -0.51362702119E+03  0.51362702119E+03  0.00000000000E+00 0.  1.
         25    1    1    2    0    0 -0.37934927219E+01  0.12776199253E+03 -0.51467173618E+02  0.18604135906E+03  0.12500000000E+03 0.  0.
         25    1    1    2    0    0 -0.25625450138E+02 -0.96314809606E+02  0.79336277108E+02  0.17847255002E+03  0.12500000000E+03 0.  0.
         25    1    1    2    0    0  0.29418942860E+02 -0.31447182923E+02 -0.33264956067E+03  0.35795967612E+03  0.12500000000E+03 0.  0.
</event>
<event>
 5    0  0.5619558E-005  0.2614387E+03  0.7546771E-02  0.1106282E+00
         21   -1    0    0  502  501  0.00000000000E+00  0.00000000000E+00  0.16039330018E+03  0.16039330018E+03  0.00000000000E+00 0.  1.
         21   -1    0    0  501  502 -0.00000000000E+00 -0.00000000000E+00 -0.42614105987E+03  0.42614105987E+03  0.00000000000E+00 0.  1.
         25    1    1    2    0    0  0.76186441427E+02 -0.23795571706E+02 -0.15761756504E+03  0.21642296528E+03  0.12500000000E+03 0.  0.
         25    1    1    2    0    0 -0.41638829790E+02  0.11388414329E+03  0.76312869572E+01  0.17431760319E+03  0.12500000000E+03 0.  0.
         25    1    1    2    0    0 -0.34547611638E+02 -0.90088571587E+02 -0.11576148160E+03  0.19579379158E+03  0.12500000000E+03 0.  0.
</event>
<event>
 5    0  0.5619558E-005  0.3790618E+03  0.7546771E-02  0.1051281E+00
         21   -1    0    0  502  501  0.00000000000E+00  0.00000000000E+00  0.13586646185E+04  0.13586646185E+04  0.00000000000E+00 0. -1.
         21   -1    0    0  501  502 -0.00000000000E+00 -0.00000000000E+00 -0.10575667026E+03  0.10575667026E+03  0.00000000000E+00 0. -1.
         25    1    1    2    0    0 -0.93764415221E+02  0.27584251368E+03  0.33869607951E+03  0.46391905780E+03  0.12500000000E+03 0.  0.
         25    1    1    2    0    0  0.41176067856E+02 -0.47583432871E+02  0.35002068785E+03  0.37696038727E+03  0.12500000000E+03 0.  0.
         25    1    1    2    0    0  0.52588347364E+02 -0.22825908081E+03  0.56419118083E+03  0.62354184364E+03  0.12500000000E+03 0.  0.
</event>
<event>
 5    0  0.5619558E-005  0.2293780E+03  0.7546771E-02  0.1127078E+00
         21   -1    0    0  502  501  0.00000000000E+00  0.00000000000E+00  0.11348262176E+04  0.11348262176E+04  0.00000000000E+00 0.  1.
         21   -1    0    0  501  502 -0.00000000000E+00 -0.00000000000E+00 -0.46363299341E+02  0.46363299341E+02  0.00000000000E+00 0.  1.
         25    1    1    2    0    0  0.73991251196E+02  0.27815184956E+02  0.48230518002E+03  0.50447168052E+03  0.12500000000E+03 0.  0.
         25    1    1    2    0    0 -0.75167933748E+02 -0.67198995367E+02  0.41458116496E+03  0.44459921905E+03  0.12500000000E+03 0.  0.
         25    1    1    2    0    0  0.11766825517E+01  0.39383810411E+02  0.19157657330E+03  0.23211861740E+03  0.12500000000E+03 0.  0.
</event>
<event>
 5    0  0.5619558E-005  0.3383234E+03  0.7546771E-02  0.1067512E+00
         21   -1    0    0  502  501  0.00000000000E+00  0.00000000000E+00  0.46885453536E+03  0.46885453536E+03  0.00000000000E+00 0.  1.
         21   -1    0    0  501  502 -0.00000000000E+00 -0.00000000000E+00 -0.24413272479E+03  0.24413272479E+03  0.00000000000E+00 0.  1.
         25    1    1    2    0    0  0.10743562519E+03  0.88747235358E+02  0.32169403341E+03  0.37219690552E+03  0.12500000000E+03 0.  0.
         25    1    1    2    0    0 -0.54476244005E+02 -0.15238658218E+01  0.24846709020E+02  0.13860859381E+03  0.12500000000E+03 0.  0.
         25    1    1    2    0    0 -0.52959381184E+02 -0.87223369536E+02 -0.12181893186E+03  0.20218176082E+03  0.12500000000E+03 0.  0.
</event>
<event>
 5    0  0.5619558E-005  0.4461854E+03  0.7546771E-02  0.1028866E+00
         21   -1    0    0  502  501  0.00000000000E+00  0.00000000000E+00  0.56862417555E+03  0.56862417555E+03  0.00000000000E+00 0. -1.
         21   -1    0    0  501  502 -0.00000000000E+00 -0.00000000000E+00 -0.35011077310E+03  0.35011077310E+03  0.00000000000E+00 0. -1.
         25    1    1    2    0    0  0.11812170759E+03 -0.12552296316E+02  0.22468302702E+02  0.17389687338E+03  0.12500000000E+03 0.  0.
         25    1    1    2    0    0 -0.41581673335E+02  0.29972375914E+03 -0.60340495508E+02  0.33291041250E+03  0.12500000000E+03 0.  0.
         25    1    1    2    0    0 -0.76540034250E+02 -0.28717146283E+03  0.25638559525E+03  0.41192766277E+03  0.12500000000E+03 0.  0.
</event>
<event>
 5    0  0.5905689E-005  0.2552535E+03  0.7546771E-02  0.1110029E+00
         21   -1    0    0  502  501  0.00000000000E+00  0.00000000000E+00  0.56279706719E+03  0.56279706719E+03  0.00000000000E+00 0. -1.
         21   -1    0    0  501  502 -0.00000000000E+00 -0.00000000000E+00 -0.11576878905E+03  0.11576878905E+03  0.00000000000E+00 0. -1.
         25    1    1    2    0    0  0.46824968511E+02  0.86051582378E+01  0.26501827157E+03  0.29686075977E+03  0.12500000000E+03 0.  0.
         25    1    1    2    0    0 -0.80552853330E+02 -0.52911079697E+02  0.49347564836E+01  0.15791673868E+03  0.12500000000E+03 0.  0.
         25    1    1    2    0    0  0.33727884819E+02  0.44305921459E+02  0.17707525008E+03  0.22378835779E+03  0.12500000000E+03 0.  0.
</event>
<event>
 5    0  0.5619558E-005  0.2685977E+03  0.7546771E-02  0.1102085E+00
         21   -1    0    0  502  501  0.00000000000E+00  0.00000000000E+00  0.11509719837E+03  0.11509719837E+03  0.00000000000E+00 0. -1.
         21   -1    0    0  501  502 -0.00000000000E+00 -0.00000000000E+00 -0.62681543802E+03  0.62681543802E+03  0.00000000000E+00 0. -1.
         25    1    1    2    0    0  0.11562971002E+03  0.64601530675E+02 -0.31732972594E+03  0.36587804330E+03  0.12500000000E+03 0.  0.
         25    1    1    2    0    0  0.20264423476E+02 -0.38284265306E+02 -0.55349292372E+02  0.14340458847E+03  0.12500000000E+03 0.  0.
         25    1    1    2    0    0 -0.13589413350E+03 -0.26317265369E+02 -0.13903922133E+03  0.23263000461E+03  0.12500000000E+03 0.  0.
</event>
<event>
 5    0  0.5739699E-005  0.3297073E+03  0.7546771E-02  0.1071266E+00
         21   -1    0    0  502  501  0.00000000000E+00  0.00000000000E+00  0.25679344548E+03  0.25679344548E+03  0.00000000000E+00 0.  1.
         21   -1    0    0  501  502 -0.00000000000E+00 -0.00000000000E+00 -0.42332418215E+03  0.42332418215E+03  0.00000000000E+00 0.  1.
         25    1    1    2    0    0  0.72204803629E+02 -0.20582489906E+03 -0.10358945175E+02  0.25161424937E+03  0.12500000000E+03 0.  0.
         25    1    1    2    0    0 -0.35798561761E+02  0.16744865810E+03  0.12056433356E+02  0.21234629196E+03  0.12500000000E+03 0.  0.
         25    1    1    2    0    0 -0.36406241868E+02  0.38376240958E+02 -0.16822822485E+03  0.21615708629E+03  0.12500000000E+03 0.  0.
</event>
<event>
 5    0  0.5619558E-005  0.3780383E+03  0.7546771E-02  0.1051661E+00
         21   -1    0    0  502  501  0.00000000000E+00  0.00000000000E+00  0.73214998946E+03  0.73214998946E+03  0.00000000000E+00 0. -1.
         21   -1    0    0  501  502 -0.00000000000E+00 -0.00000000000E+00 -0.19519631052E+03  0.19519631052E+03  0.00000000000E+00 0. -1.
         25    1    1    2    0    0  0.25760605541E+03  0.15555283926E+03  0.28574228903E+03  0.43339499458E+03  0.12500000000E+03 0.  0.
         25    1    1    2    0    0 -0.90199447220E+02 -0.20522036441E+02  0.24588340142E+02  0.15743786307E+03  0.12500000000E+03 0.  0.
         25    1    1    2    0    0 -0.16740660819E+03 -0.13503080282E+03  0.22662304978E+03  0.33651344233E+03  0.12500000000E+03 0.  0.
</event>
<event>
 5    0  0.7026038E-005  0.3308264E+03  0.7546771E-02  0.1070772E+00
         21   -1    0    0  502  501  0.00000000000E+00  0.00000000000E+00  0.89639335618E+02  0.89639335618E+02  0.00000000000E+00 0.  1.
         21   -1    0    0  501  502 -0.00000000000E+00 -0.00000000000E+00 -0.12209604302E+04  0.12209604302E+04  0.00000000000E+00 0.  1.
         25    1    1    2    0    0 -0.23452684250E+03 -0.21385122872E+01 -0.37825033909E+03  0.46228317308E+03  0.12500000000E+03 0.  0.
         25    1    1    2    0    0  0.11591489191E+03 -0.50527271049E+01 -0.17212057444E+03  0.24230617896E+03  0.12500000000E+03 0.  0.
         25    1    1    2    0    0  0.11861195059E+03  0.71912393920E+01 -0.58095018104E+03  0.60601041377E+03  0.12500000000E+03 0.  0.
</event>
<event>
 5    0  0.5619558E-005  0.2324307E+03  0.7546771E-02  0.1124941E+00
         21   -1    0    0  502  501  0.00000000000E+00  0.00000000000E+00  0.35726634616E+03  0.35726634616E+03  0.00000000000E+00 0.  1.
         21   -1    0    0  501  502 -0.00000000000E+00 -0.00000000000E+00 -0.15121493799E+03  0.15121493799E+03  0.00000000000E+00 0.  1.
         25    1    1    2    0    0  0.15155861733E+02 -0.72291596000E+02  0.10632463754E+03  0.17996028324E+03  0.12500000000E+03 0.  0.
         25    1    1    2    0    0  0.76228126563E+02  0.34476379847E+02  0.71909103446E+02  0.16671912669E+03  0.12500000000E+03 0.  0.
         25    1    1    2    0    0 -0.91383988296E+02  0.37815216153E+02  0.27817667184E+02  0.16180187421E+03  0.12500000000E+03 0.  0.
</event>
<event>
 5    0  0.5619558E-005  0.2535555E+03  0.7546771E-02  0.1111078E+00
         21   -1    0    0  502  501  0.00000000000E+00  0.00000000000E+00  0.16850515596E+04  0.16850515596E+04  0.00000000000E+00 0. -1.
         21   -1    0    0  501  502 -0.00000000000E+00 -0.00000000000E+00 -0.38153359175E+02  0.38153359175E+02  0.00000000000E+00 0. -1.
         25    1    1    2    0    0  0.23863283269E+02 -0.11564135925E+03  0.10069584113E+04  0.10215344450E+04  0.12500000000E+03 0.  0.
         25    1    1    2    0    0  0.20468846694E+02  0.37042490915E+02  0.25810719635E+03  0.28988867627E+03  0.12500000000E+03 0.  0.
         25    1    1    2    0    0 -0.44332129963E+02  0.78598868331E+02  0.38183259281E+03  0.41178179754E+03  0.12500000000E+03 0.  0.
</event>
<event>
 5    0  0.5619558E-005  0.4800689E+03  0.7546771E-02  0.1019116E+00
         21   -1    0    0  502  501  0.00000000000E+00  0.00000000000E+00  0.32386093322E+03  0.32386093322E+03  0.00000000000E+00 0. -1.
         21   -1    0    0  501  502 -0.00000000000E+00 -0.00000000000E+00 -0.71162080005E+03  0.71162080005E+03  0.00000000000E+00 0. -1.
         25    1    1    2    0    0 -0.23229192154E+03 -0.33366491949E+02 -0.10320370564E+03  0.28521722328E+03  0.12500000000E+03 0.  0.
         25    1    1    2    0    0 -0.17981649815E+03  0.12684057334E+03 -0.90775011678E+02  0.26886354680E+03  0.12500000000E+03 0.  0.
         25    1    1    2    0    0  0.41210841968E+03 -0.93474081389E+02 -0.19378114951E+03  0.48140096320E+03  0.12500000000E+03 0.  0.
</event>
<event>
 5    0  0.5619558E-005  0.3335661E+03  0.7546771E-02  0.1069570E+00
         21   -1    0    0  502  501  0.00000000000E+00  0.00000000000E+00  0.79109207118E+02  0.79109207118E+02  0.00000000000E+00 0. -1.
         21   -1    0    0  501  502 -0.00000000000E+00 -0.00000000000E+00 -0.14064907231E+04  0.14064907231E+04  0.00000000000E+00 0. -1.
         25    1    1    2    0    0  0.64066551198E+02  0.83855568715E+02 -0.67945529509E+02  0.17713800938E+03  0.12500000000E+03 0.  0.
         25    1    1    2    0    0  0.59717974217E+02 -0.10437606700E+03 -0.52233970945E+03  0.55038565740E+03  0.12500000000E+03 0.  0.
         25    1    1    2    0    0 -0.12378452542E+03  0.20520498286E+02 -0.73709627704E+03  0.75807626345E+03  0.12500000000E+03 0.  0.
</event>
<event>
 5    0  0.5619558E-005  0.2936633E+03  0.7546771E-02  0.1088452E+00
         21   -1    0    0  502  501  0.00000000000E+00  0.00000000000E+00  0.26754606438E+03  0.26754606438E+03  0.00000000000E+00 0.  1.
         21   -1    0    0  501  502 -0.00000000000E+00 -0.00000000000E+00 -0.32233013756E+03  0.32233013756E+03  0.00000000000E+00 0.  1.
         25    1    1    2    0    0 -0.71763407089E+02 -0.71522313523E+02  0.12751504724E+03  0.20530590639E+03  0.12500000000E+03 0.  0.
         25    1    1    2    0    0  0.13538986595E+03  0.71495249306E+02 -0.94375005266E+02  0.21902882937E+03  0.12500000000E+03 0.  0.
         25    1    1    2    0    0 -0.63626458859E+02  0.27064216855E-01 -0.87924115154E+02  0.16554146618E+03  0.12500000000E+03 0.  0.
</event>
<event>
 5    0  0.5619558E-005  0.2923340E+03  0.7546771E-02  0.1089137E+00
         21   -1    0    0  502  501  0.00000000000E+00  0.00000000000E+00  0.73762243021E+03  0.73762243021E+03  0.00000000000E+00 0. -1.
         21   -1    0    0  501  502 -0.00000000000E+00 -0.00000000000E+00 -0.11585763794E+03  0.11585763794E+03  0.00000000000E+00 0. -1.
         25    1    1    2    0    0  0.52860152634E+02 -0.14012061320E+03  0.25364213697E+03  0.31998018005E+03  0.12500000000E+03 0.  0.
         25    1    1    2    0    0 -0.84038583690E+02  0.18398192521E+03  0.29536611724E+03  0.37918066349E+03  0.12500000000E+03 0.  0.
         25    1    1    2    0    0  0.31178431056E+02 -0.43861312011E+02  0.72756538052E+02  0.15431922461E+03  0.12500000000E+03 0.  0.
</event>
<event>
 5    0  0.5619558E-005  0.3819847E+03  0.7546771E-02  0.1050203E+00
         21   -1    0    0  502  501  0.00000000000E+00  0.00000000000E+00  0.12135581987E+03  0.12135581987E+03  0.00000000000E+00 0.  1.
         21   -1    0    0  501  502 -0.00000000000E+00 -0.00000000000E+00 -0.12023514261E+04  0.12023514261E+04  0.00000000000E+00 0.  1.
         25    1    1    2    0    0  0.20555120346E+03 -0.12766425308E+03 -0.56729305499E+03  0.62928202660E+03  0.12500000000E+03 0.  0.
         25    1    1    2    0    0 -0.82673837894E+02 -0.87316945039E+02 -0.11274015760E+03  0.20686844974E+03  0.12500000000E+03 0.  0.
         25    1    1    2    0    0 -0.12287736556E+03  0.21498119812E+03 -0.40096239365E+03  0.48755676965E+03  0.12500000000E+03 0.  0.
</event>
<event>
 5    0  0.5619558E-005  0.3106523E+03  0.7546771E-02  0.1080034E+00
         21   -1    0    0  502  501  0.00000000000E+00  0.00000000000E+00  0.73309345156E+03  0.73309345156E+03  0.00000000000E+00 0.  1.
         21   -1    0    0  501  502 -0.00000000000E+00 -0.00000000000E+00 -0.13164056386E+03  0.13164056386E+03  0.00000000000E+00 0.  1.
         25    1    1    2    0    0 -0.15464372029E+03 -0.92789488674E+02  0.67163381312E+02  0.22947873371E+03  0.12500000000E+03 0.  0.
         25    1    1    2    0    0  0.74447401888E+01  0.69230202646E+02  0.16938842979E+03  0.22173336524E+03  0.12500000000E+03 0.  0.
         25    1    1    2    0    0  0.14719898010E+03  0.23559286028E+02  0.36490107660E+03  0.41352191647E+03  0.12500000000E+03 0.  0.
</event>
<event>
 5    0  0.5936153E-005  0.5332371E+03  0.7546771E-02  0.1005450E+00
         21   -1    0    0  502  501  0.00000000000E+00  0.00000000000E+00  0.46552936380E+03  0.46552936380E+03  0.00000000000E+00 0. -1.
         21   -1    0    0  501  502 -0.00000000000E+00 -0.00000000000E+00 -0.61079243370E+03  0.61079243370E+03  0.00000000000E+00 0. -1.
         25    1    1    2    0    0 -0.10349472501E+01  0.10546658944E+03  0.18717408135E+03  0.24856268693E+03  0.12500000000E+03 0.  0.
         25    1    1    2    0    0 -0.57324369368E+02 -0.32615143520E+03  0.57853466564E+02  0.35865424241E+03  0.12500000000E+03 0.  0.
         25    1    1    2    0    0  0.58359316618E+02  0.22068484576E+03 -0.39029061782E+03  0.46910486817E+03  0.12500000000E+03 0.  0.
</event>
<event>
 5    0  0.5619558E-005  0.2587444E+03  0.7546771E-02  0.1107900E+00
         21   -1    0    0  502  501  0.00000000000E+00  0.00000000000E+00  0.67406597831E+02  0.67406597831E+02  0.00000000000E+00 0.  1.
         21   -1    0    0  501  502 -0.00000000000E+00 -0.00000000000E+00 -0.99320607997E+03  0.99320607997E+03  0.00000000000E+00 0. -1.
         25    1    1    2    0    0  0.35738538699E+02  0.10107459791E+02 -0.16068149342E+03  0.20693705860E+03  0.12500000000E+03 0.  0.
         25    1    1    2    0    0  0.24945710765E+01 -0.12894947050E+03 -0.52983994486E+03  0.55945469522E+03  0.12500000000E+03 0.  0.
         25    1    1    2    0    0 -0.38233109775E+02  0.11884201071E+03 -0.23527804386E+03  0.29422092399E+03  0.12500000000E+03 0.  0.
</event>
<event>
 5    0  0.5619558E-005  0.2881279E+03  0.7546771E-02  0.1091331E+00
         21   -1    0    0  502  501  0.00000000000E+00  0.00000000000E+00  0.96388255646E+03  0.96388255646E+03  0.00000000000E+00 0. -1.
         21   -1    0    0  501  502 -0.00000000000E+00 -0.00000000000E+00 -0.86128429704E+02  0.86128429704E+02  0.00000000000E+00 0. -1.
         25    1    1    2    0    0 -0.89968203700E+02 -0.12048970744E+03  0.38165399720E+03  0.42883192611E+03  0.12500000000E+03 0.  0.
         25    1    1    2    0    0  0.14073333763E+03  0.27857231245E+02  0.36449155807E+03  0.41117027319E+03  0.12500000000E+03 0.  0.
         25    1    1    2    0    0 -0.50765133935E+02  0.92632476195E+02  0.13160857150E+03  0.21000878686E+03  0.12500000000E+03 0.  0.
</event>
<event>
 5    0  0.5619558E-005  0.3047925E+03  0.7546771E-02  0.1082869E+00
         21   -1    0    0  502  501  0.00000000000E+00  0.00000000000E+00  0.96273333320E+02  0.96273333320E+02  0.00000000000E+00 0. -1.
         21   -1    0    0  501  502 -0.00000000000E+00 -0.00000000000E+00 -0.96494478893E+03  0.96494478893E+03  0.00000000000E+00 0. -1.
         25    1    1    2    0    0 -0.82909405157E+01  0.16725720181E+02 -0.12565130864E+03  0.17821823917E+03  0.12500000000E+03 0.  0.
         25    1    1    2    0    0 -0.77089306747E+02  0.12568468496E+03 -0.60088391442E+03  0.63120985405E+03  0.12500000000E+03 0.  0.
         25    1    1    2    0    0  0.85380247263E+02 -0.14241040514E+03 -0.14213623255E+03  0.25179002903E+03  0.12500000000E+03 0.  0.
</event>
<event>
 5    0  0.5619558E-005  0.2981100E+03  0.7546771E-02  0.1086189E+00
         21   -1    0    0  502  501  0.00000000000E+00  0.00000000000E+00  0.90837306180E+02  0.90837306180E+02  0.00000000000E+00 0. -1.
         21   -1    0    0  501  502 -0.00000000000E+00 -0.00000000000E+00 -0.97833766542E+03  0.97833766542E+03  0.00000000000E+00 0. -1.
         25    1    1    2    0    0  0.78506097532E+02 -0.78884880614E+02 -0.15252416272E+03  0.22643906896E+03  0.12500000000E+03 0.  0.
         25    1    1    2    0    0  0.86889345151E+02 -0.50953524883E+02 -0.21723334575E+03  0.27011358074E+03  0.12500000000E+03 0.  0.
         25    1    1    2    0    0 -0.16539544268E+03  0.12983840550E+03 -0.51774285078E+03  0.57262232190E+03  0.12500000000E+03 0.  0.
</event>
<event>
 5    0  0.5619558E-005  0.3299271E+03  0.7546771E-02  0.1071169E+00
         21   -1    0    0  502  501  0.00000000000E+00  0.00000000000E+00  0.61880281603E+02  0.61880281603E+02  0.00000000000E+00 0. -1.
         21   -1    0    0  501  502 -0.00000000000E+00 -0.00000000000E+00 -0.17590726796E+04  0.17590726796E+04  0.00000000000E+00 0. -1.
         25    1    1    2    0    0 -0.81118046305E+01  0.29118607705E+02 -0.38419485879E+03  0.40514736111E+03  0.12500000000E+03 0.  0.
         25    1    1    2    0    0  0.12891594141E+03 -0.20011607424E+03 -0.86399089185E+03  0.90485967106E+03  0.12500000000E+03 0.  0.
         25    1    1    2    0    0 -0.12080413678E+03  0.17099746653E+03 -0.44900664733E+03  0.51094592900E+03  0.12500000000E+03 0.  0.
</event>
<event>
 5    0  0.5619558E-005  0.3224546E+03  0.7546771E-02  0.1074525E+00
         21   -1    0    0  502  501  0.00000000000E+00  0.00000000000E+00  0.29446570538E+03  0.29446570538E+03  0.00000000000E+00 0. -1.
         21   -1    0    0  501  502 -0.00000000000E+00 -0.00000000000E+00 -0.35310390858E+03  0.35310390858E+03  0.00000000000E+00 0. -1.
         25    1    1    2    0    0 -0.10154419129E+03  0.75596932392E+02  0.48909830501E+02  0.18450823963E+03  0.12500000000E+03 0.  0.
         25    1    1    2    0    0  0.47266276880E+02  0.10375088013E+03  0.62997465757E+02  0.18053261963E+03  0.12500000000E+03 0.  0.
         25    1    1    2    0    0  0.54277914407E+02 -0.17934781252E+03 -0.17054549945E+03  0.28252875470E+03  0.12500000000E+03 0.  0.
</event>
<event>
 5    0  0.5619558E-005  0.2546788E+03  0.7546771E-02  0.1110383E+00
         21   -1    0    0  502  501  0.00000000000E+00  0.00000000000E+00  0.44853397822E+02  0.44853397822E+02  0.00000000000E+00 0.  1.
         21   -1    0    0  501  502 -0.00000000000E+00 -0.00000000000E+00 -0.14460735120E+04  0.14460735120E+04  0.00000000000E+00 0.  1.
         25    1    1    2    0    0 -0.12544974041E+03 -0.16659216527E+02 -0.53107370955E+03  0.56007093465E+03  0.12500000000E+03 0.  0.
         25    1    1    2    0    0  0.15620543976E+03  0.14862187257E+02 -0.56964122499E+03  0.60393472265E+03  0.12500000000E+03 0.  0.
         25    1    1    2    0    0 -0.30755699344E+02  0.17970292699E+01 -0.30050517961E+03  0.32692125249E+03  0.12500000000E+03 0.  0.
</event>
<event>
 5    0  0.5619558E-005  0.3355884E+03  0.7546771E-02  0.1068691E+00
         21   -1    0    0  502  501  0.00000000000E+00  0.00000000000E+00  0.90983168055E+02  0.90983168055E+02  0.00000000000E+00 0.  1.
         21   -1    0    0  501  502 -0.00000000000E+00 -0.00000000000E+00 -0.12378068314E+04  0.12378068314E+04  0.00000000000E+00 0.  1.
         25    1    1    2    0    0 -0.17824119551E+03  0.93268368697E+02 -0.31266851290E+03  0.39224419860E+03  0.12500000000E+03 0.  0.
         25    1    1    2    0    0  0.10911723755E+03 -0.60913526516E+02 -0.13552941784E+03  0.22273359051E+03  0.12500000000E+03 0.  0.
         25    1    1    2    0    0  0.69123957968E+02 -0.32354842181E+02 -0.69862573264E+03  0.71381221038E+03  0.12500000000E+03 0.  0.
</event>
<event>
 5    0  0.5619558E-005  0.2133411E+03  0.7546771E-02  0.1138947E+00
         21   -1    0    0  502  501  0.00000000000E+00  0.00000000000E+00  0.15772622263E+03  0.15772622263E+03  0.00000000000E+00 0. -1.
         21   -1    0    0  501  502 -0.00000000000E+00 -0.00000000000E+00 -0.28856591927E+03  0.28856591927E+03  0.00000000000E+00 0. -1.
         25    1    1    2    0    0  0.58681261031E+02 -0.51175084619E+02 -0.93832588497E+02  0.17461939854E+03  0.12500000000E+03 0.  0.
         25    1    1    2    0    0 -0.55394514271E+02  0.18878927213E+02 -0.27040349307E+01  0.13804809998E+03  0.12500000000E+03 0.  0.
         25    1    1    2    0    0 -0.32867467597E+01  0.32296157406E+02 -0.34303073216E+02  0.13362464338E+03  0.12500000000E+03 0.  0.
</event>
<event>
 5    0  0.5619558E-005  0.7401422E+03  0.7546771E-02  0.9650944E-01
         21   -1    0    0  502  501  0.00000000000E+00  0.00000000000E+00  0.48187425325E+03  0.48187425325E+03  0.00000000000E+00 0. -1.
         21   -1    0    0  501  502 -0.00000000000E+00 -0.00000000000E+00 -0.11368327637E+04  0.11368327637E+04  0.00000000000E+00 0. -1.
         25    1    1    2    0    0 -0.31227354381E+03  0.24573539456E+03 -0.54730844825E+03  0.68780243372E+03  0.12500000000E+03 0.  0.
         25    1    1    2    0    0  0.95143084900E+02  0.20433581157E+03 -0.28674151483E+03  0.38555288460E+03  0.12500000000E+03 0.  0.
         25    1    1    2    0    0  0.21713045891E+03 -0.45007120613E+03  0.17909145265E+03  0.54535169862E+03  0.12500000000E+03 0.  0.
</event>
<event>
 5    0  0.5619558E-005  0.4083432E+03  0.7546771E-02  0.1040928E+00
         21   -1    0    0  502  501  0.00000000000E+00  0.00000000000E+00  0.55997830423E+03  0.55997830423E+03  0.00000000000E+00 0.  1.
         21   -1    0    0  501  502 -0.00000000000E+00 -0.00000000000E+00 -0.29776897519E+03  0.29776897519E+03  0.00000000000E+00 0.  1.
         25    1    1    2    0    0  0.69536170712E+02  0.21550949768E+03  0.15296773059E+03  0.30050582229E+03  0.12500000000E+03 0.  0.
         25    1    1    2    0    0 -0.78591969164E+02  0.11664983946E+03  0.66889457219E+02  0.19970749147E+03  0.12500000000E+03 0.  0.
         25    1    1    2    0    0  0.90557984511E+01 -0.33215933714E+03  0.42352141222E+02  0.35753396566E+03  0.12500000000E+03 0.  0.
</event>
<event>
 5    0  0.5619558E-005  0.3020409E+03  0.7546771E-02  0.1084225E+00
         21   -1    0    0  502  501  0.00000000000E+00  0.00000000000E+00  0.81115880671E+03  0.81115880671E+03  0.00000000000E+00 0. -1.
         21   -1    0    0  501  502 -0.00000000000E+00 -0.00000000000E+00 -0.11246714838E+03  0.11246714838E+03  0.00000000000E+00 0. -1.
         25    1    1    2    0    0 -0.28071714607E+02  0.49462422485E+01  0.18879316874E+03  0.22821118955E+03  0.12500000000E+03 0.  0.
         25    1    1    2    0    0  0.31552342079E+02 -0.14206191031E+02 -0.36559468278E+02  0.13475518868E+03  0.12500000000E+03 0.  0.
         25    1    1    2    0    0 -0.34806274724E+01  0.92599487827E+01  0.54645795787E+03  0.56065957687E+03  0.12500000000E+03 0.  0.
</event>
<event>
 5    0  0.5619558E-005  0.4181487E+03  0.7546771E-02  0.1037671E+00
         21   -1    0    0  502  501  0.00000000000E+00  0.00000000000E+00  0.16885984842E+03  0.16885984842E+03  0.00000000000E+00 0. -1.
         21   -1    0    0  501  502 -0.00000000000E+00 -0.00000000000E+00 -0.10354643109E+04  0.10354643109E+04  0.00000000000E+00 0. -1.
         25    1    1    2    0    0 -0.11254520150E+03 -0.28411523852E+02 -0.11304255451E+03  0.20463933199E+03  0.12500000000E+03 0.  0.
         25    1    1    2    0    0  0.16763130714E+03  0.22411274891E+03 -0.68644031237E+03  0.75176597543E+03  0.12500000000E+03 0.  0.
         25    1    1    2    0    0 -0.55086105647E+02 -0.19570122505E+03 -0.67121595573E+02  0.24791885188E+03  0.12500000000E+03 0.  0.
</event>
<event>
 5    0  0.5619558E-005  0.3088460E+03  0.7546771E-02  0.1080900E+00
         21   -1    0    0  502  501  0.00000000000E+00  0.00000000000E+00  0.23840509331E+03  0.23840509331E+03  0.00000000000E+00 0. -1.
         21   -1    0    0  501  502 -0.00000000000E+00 -0.00000000000E+00 -0.40009985268E+03  0.40009985268E+03  0.00000000000E+00 0. -1.
         25    1    1    2    0    0  0.17234981443E+03 -0.35303830857E+02 -0.19852291242E+02  0.21672547722E+03  0.12500000000E+03 0.  0.
         25    1    1    2    0    0 -0.26404882676E+02  0.84836564239E+02 -0.16107899421E+03  0.22240931374E+03  0.12500000000E+03 0.  0.
         25    1    1    2    0    0 -0.14594493176E+03 -0.49532733382E+02  0.19236526086E+02  0.19937015503E+03  0.12500000000E+03 0.  0.
</event>
<event>
 5    0  0.5619558E-005  0.2464132E+03  0.7546771E-02  0.1115593E+00
         21   -1    0    0  502  501  0.00000000000E+00  0.00000000000E+00  0.11076724313E+03  0.11076724313E+03  0.00000000000E+00 0. -1.
         21   -1    0    0  501  502 -0.00000000000E+00 -0.00000000000E+00 -0.54817181890E+03  0.54817181890E+03  0.00000000000E+00 0. -1.
         25    1    1    2    0    0 -0.10323601927E+03 -0.31083878614E+02 -0.21390995552E+03  0.27019687684E+03  0.12500000000E+03 0.  0.
         25    1    1    2    0    0  0.80125363887E+02  0.83326415183E+02 -0.17188732667E+03  0.24193722011E+03  0.12500000000E+03 0.  0.
         25    1    1    2    0    0  0.23110655383E+02 -0.52242536569E+02 -0.51607293580E+02  0.14680496507E+03  0.12500000000E+03 0.  0.
</event>
<event>
 5    0  0.5619558E-005  0.6116758E+03  0.7546771E-02  0.9881474E-01
         21   -1    0    0  502  501  0.00000000000E+00  0.00000000000E+00  0.19965849842E+03  0.19965849842E+03  0.00000000000E+00 0. -1.
         21   -1    0    0  501  502 -0.00000000000E+00 -0.00000000000E+00 -0.18739362691E+04  0.18739362691E+04  0.00000000000E+00 0. -1.
         25    1    1    2    0    0 -0.32601877850E+02  0.44414373292E+02 -0.65697102464E+03  0.67102268681E+03  0.12500000000E+03 0.  0.
         25    1    1    2    0    0  0.31476400865E+03  0.27251857929E+03 -0.79825095152E+03  0.90894022840E+03  0.12500000000E+03 0.  0.
         25    1    1    2    0    0 -0.28216213080E+03 -0.31693295258E+03 -0.21905579451E+03  0.49363185230E+03  0.12500000000E+03 0.  0.
</event>
<event>
 5    0  0.5619558E-005  0.4143250E+03  0.7546771E-02  0.1038929E+00
         21   -1    0    0  502  501  0.00000000000E+00  0.00000000000E+00  0.92861926397E+03  0.92861926397E+03  0.00000000000E+00 0. -1.
         21   -1    0    0  501  502 -0.00000000000E+00 -0.00000000000E+00 -0.18486069331E+03  0.18486069331E+03  0.00000000000E+00 0. -1.
         25    1    1    2    0    0  0.21368755738E+03 -0.54705201145E+02  0.18755164979E+03  0.31536590265E+03  0.12500000000E+03 0.  0.
         25    1    1    2    0    0 -0.13872715381E+03 -0.17231029124E+03  0.11040437459E+03  0.27703823851E+03  0.12500000000E+03 0.  0.
         25    1    1    2    0    0 -0.74960403577E+02  0.22701549238E+03  0.44580254627E+03  0.52107581613E+03  0.12500000000E+03 0.  0.
</event>
<event>
 5    0  0.5619558E-005  0.2961807E+03  0.7546771E-02  0.1087166E+00
         21   -1    0    0  502  501  0.00000000000E+00  0.00000000000E+00  0.35342266174E+03  0.35342266174E+03  0.00000000000E+00 0. -1.
         21   -1    0    0  501  502 -0.00000000000E+00 -0.00000000000E+00 -0.24820995635E+03  0.24820995635E+03  0.00000000000E+00 0. -1.
         25    1    1    2    0    0  0.17801888216E+02  0.13278631461E+03 -0.91251354491E+02  0.20469714768E+03  0.12500000000E+03 0.  0.
         25    1    1    2    0    0  0.11906112785E+02  0.22889261386E+02  0.20730497813E+02  0.12930749146E+03  0.12500000000E+03 0.  0.
         25    1    1    2    0    0 -0.29708001001E+02 -0.15567557599E+03  0.17573356206E+03  0.26762797895E+03  0.12500000000E+03 0.  0.
</event>
<event>
 5    0  0.5619558E-005  0.2450098E+03  0.7546771E-02  0.1116500E+00
         21   -1    0    0  502  501  0.00000000000E+00  0.00000000000E+00  0.52105207313E+03  0.52105207313E+03  0.00000000000E+00 0.  1.
         21   -1    0    0  501  502 -0.00000000000E+00 -0.00000000000E+00 -0.11520880814E+03  0.11520880814E+03  0.00000000000E+00 0.  1.
         25    1    1    2    0    0  0.91379406704E+02 -0.11476756002E+03  0.18528826124E+03  0.26735468680E+03  0.12500000000E+03 0.  0.
         25    1    1    2    0    0 -0.72008195634E+02  0.66262757454E+02  0.13737205768E+03  0.20993335966E+03  0.12500000000E+03 0.  0.
         25    1    1    2    0    0 -0.19371211070E+02  0.48504802564E+02  0.83182946069E+02  0.15897283481E+03  0.12500000000E+03 0.  0.
</event>
<event>
 5    0  0.5619558E-005  0.3713994E+03  0.7546771E-02  0.1054159E+00
         21   -1    0    0  502  501  0.00000000000E+00  0.00000000000E+00  0.98001422410E+02  0.98001422410E+02  0.00000000000E+00 0.  1.
         21   -1    0    0  501  502 -0.00000000000E+00 -0.00000000000E+00 -0.14075053091E+04  0.14075053091E+04  0.00000000000E+00 0.  1.
         25    1    1    2    0    0 -0.15516612240E+03 -0.24190364882E+02 -0.98348140830E+03  0.10037541431E+04  0.12500000000E+03 0.  0.
         25    1    1    2    0    0 -0.13827892628E+02 -0.68603726361E+02 -0.17775493166E+03  0.22829695051E+03  0.12500000000E+03 0.  0.
         25    1    1    2    0    0  0.16899401503E+03  0.92794091243E+02 -0.14826754671E+03  0.27345563789E+03  0.12500000000E+03 0.  0.
</event>
<event>
 5    0  0.5619558E-005  0.2661533E+03  0.7546771E-02  0.1103502E+00
         21   -1    0    0  502  501  0.00000000000E+00  0.00000000000E+00  0.45225770168E+03  0.45225770168E+03  0.00000000000E+00 0. -1.
         21   -1    0    0  501  502 -0.00000000000E+00 -0.00000000000E+00 -0.15663098783E+03  0.15663098783E+03  0.00000000000E+00 0. -1.
         25    1    1    2    0    0  0.39000200918E+02 -0.10529299914E+02 -0.12462502306E+02  0.13195527952E+03  0.12500000000E+03 0.  0.
         25    1    1    2    0    0  0.18972005871E+02  0.12783493456E+03  0.12145735085E+03  0.21697602535E+03  0.12500000000E+03 0.  0.
         25    1    1    2    0    0 -0.57972206789E+02 -0.11730563465E+03  0.18663186531E+03  0.25995738464E+03  0.12500000000E+03 0.  0.
</event>
<event>
 5    0  0.5619558E-005  0.2991722E+03  0.7546771E-02  0.1085655E+00
         21   -1    0    0  502  501  0.00000000000E+00  0.00000000000E+00  0.46984982048E+03  0.46984982048E+03  0.00000000000E+00 0. -1.
         21   -1    0    0  501  502 -0.00000000000E+00 -0.00000000000E+00 -0.19049489467E+03  0.19049489467E+03  0.00000000000E+00 0. -1.
         25    1    1    2    0    0 -0.80111262634E+02  0.39000826510E+02  0.19636595096E+03  0.24924579348E+03  0.12500000000E+03 0.  0.
         25    1    1    2    0    0  0.12175015169E+03 -0.11506923616E+03  0.13671002343E+03  0.24975720020E+03  0.12500000000E+03 0.  0.
         25    1    1    2    0    0 -0.41638889051E+02  0.76068409654E+02 -0.53721048569E+02  0.16134172147E+03  0.12500000000E+03 0.  0.
</event>
<event>
 5    0  0.5619558E-005  0.2424947E+03  0.7546771E-02  0.1118142E+00
         21   -1    0    0  502  501  0.00000000000E+00  0.00000000000E+00  0.45264553719E+03  0.45264553719E+03  0.00000000000E+00 0. -1.
         21   -1    0    0  501  502 -0.00000000000E+00 -0.00000000000E+00 -0.12991114264E+03  0.12991114264E+03  0.00000000000E+00 0. -1.
         25    1    1    2    0    0 -0.14321449601E+03  0.31254610141E+02  0.13090683570E+03  0.23291380842E+03  0.12500000000E+03 0.  0.
         25    1    1    2    0    0  0.64863628505E+02  0.27482515398E+01  0.88509307821E+02  0.16635426283E+03  0.12500000000E+03 0.  0.
         25    1    1    2    0    0  0.78350867504E+02 -0.34002861681E+02  0.10331825102E+03  0.18328860858E+03  0.12500000000E+03 0.  0.
</event>
<event>
 5    0  0.5619558E-005  0.3692561E+03  0.7546771E-02  0.1054978E+00
         21   -1    0    0  502  501  0.00000000000E+00  0.00000000000E+00  0.42244267777E+03  0.42244267777E+03  0.00000000000E+00 0.  1.
         21   -1    0    0  501  502 -0.00000000000E+00 -0.00000000000E+00 -0.32276579251E+03  0.32276579251E+03  0.00000000000E+00 0.  1.
         25    1    1    2    0    0  0.98595131695E+01 -0.14223452224E+03 -0.19555637073E+03  0.27238789153E+03  0.12500000000E+03 0.  0.
         25    1    1    2    0    0 -0.64195750970E+02  0.15851575305E+03  0.25134742711E+03  0.32870787566E+03  0.12500000000E+03 0.  0.
         25    1    1    2    0    0  0.54336237800E+02 -0.16281230806E+02  0.43885828886E+02  0.14411270309E+03  0.12500000000E+03 0.  0.
</event>
<event>
 5    0  0.5619558E-005  0.3343045E+03  0.7546771E-02  0.1069248E+00
         21   -1    0    0  502  501  0.00000000000E+00  0.00000000000E+00  0.18259200665E+04  0.18259200665E+04  0.00000000000E+00 0. -1.
         21   -1    0    0  501  502 -0.00000000000E+00 -0.00000000000E+00 -0.61207213485E+02  0.61207213485E+02  0.00000000000E+00 0. -1.
         25    1    1    2    0    0  0.23687418292E+03  0.99517371971E+00  0.43449028497E+03  0.51040883284E+03  0.12500000000E+03 0.  0.
         25    1    1    2    0    0 -0.12847177957E+03  0.15364874509E+02  0.53953164104E+03  0.56873585187E+03  0.12500000000E+03 0.  0.
         25    1    1    2    0    0 -0.10840240335E+03 -0.16360048229E+02  0.79069092700E+03  0.80798259528E+03  0.12500000000E+03 0.  0.
</event>
<event>
 5    0  0.5619558E-005  0.4222548E+03  0.7546771E-02  0.1036335E+00
         21   -1    0    0  502  501  0.00000000000E+00  0.00000000000E+00  0.10614081829E+04  0.10614081829E+04  0.00000000000E+00 0. -1.
         21   -1    0    0  501  502 -0.00000000000E+00 -0.00000000000E+00 -0.16798353757E+03  0.16798353757E+03  0.00000000000E+00 0. -1.
         25    1    1    2    0    0 -0.44277311900E+02  0.13962645717E+02  0.77597539889E+03  0.78734887789E+03  0.12500000000E+03 0.  0.
         25    1    1    2    0    0 -0.48917905639E+02 -0.15386245238E+03  0.49063852403E+01  0.20424418807E+03  0.12500000000E+03 0.  0.
         25    1    1    2    0    0  0.93195217539E+02  0.13989980666E+03  0.11254286120E+03  0.23779865450E+03  0.12500000000E+03 0.  0.
</event>
<event>
 5    0  0.5619558E-005  0.3141356E+03  0.7546771E-02  0.1078380E+00
         21   -1    0    0  502  501  0.00000000000E+00  0.00000000000E+00  0.56480401490E+02  0.56480401490E+02  0.00000000000E+00 0.  1.
         21   -1    0    0  501  502 -0.00000000000E+00 -0.00000000000E+00 -0.17471759359E+04  0.17471759359E+04  0.00000000000E+00 0.  1.
         25    1    1    2    0    0  0.57755594239E+02 -0.93517609008E+02 -0.14739740180E+03  0.22233363650E+03  0.12500000000E+03 0.  0.
         25    1    1    2    0    0 -0.99331915017E+02 -0.22135966234E+02 -0.56947267675E+03  0.59184538514E+03  0.12500000000E+03 0.  0.
         25    1    1    2    0    0  0.41576320778E+02  0.11565357524E+03 -0.97382545583E+03  0.98947731573E+03  0.12500000000E+03 0.  0.
</event>
<event>
 5    0  0.5619558E-005  0.2619655E+03  0.7546771E-02  0.1105968E+00
         21   -1    0    0  502  501  0.00000000000E+00  0.00000000000E+00  0.29434570259E+03  0.29434570259E+03  0.00000000000E+00 0. -1.
         21   -1    0    0  501  502 -0.00000000000E+00 -0.00000000000E+00 -0.23314744255E+03  0.23314744255E+03  0.00000000000E+00 0. -1.
         25    1    1    2    0    0 -0.63869878947E+02  0.16982234509E+02 -0.86539275613E+02  0.16577636728E+03  0.12500000000E+03 0.  0.
         25    1    1    2    0    0  0.40583445689E+02  0.19919445297E+02  0.18160775620E+03  0.22505594299E+03  0.12500000000E+03 0.  0.
         25    1    1    2    0    0  0.23286433258E+02 -0.36901679806E+02 -0.33870220545E+02  0.13666083487E+03  0.12500000000E+03 0.  0.
</event>
<event>
 5    0  0.5619558E-005  0.3295765E+03  0.7546771E-02  0.1071324E+00
         21   -1    0    0  502  501  0.00000000000E+00  0.00000000000E+00  0.42509117257E+02  0.42509117257E+02  0.00000000000E+00 0.  1.
         21   -1    0    0  501  502 -0.00000000000E+00 -0.00000000000E+00 -0.25552324487E+04  0.25552324487E+04  0.00000000000E+00 0.  1.
         25    1    1    2    0    0 -0.14859171824E+03  0.57377372975E+02 -0.18168610036E+04  0.18281084672E+04  0.12500000000E+03 0.  0.
         25    1    1    2    0    0  0.97258655895E+02  0.17248428795E+02 -0.46826242883E+03  0.49462253962E+03  0.12500000000E+03 0.  0.
         25    1    1    2    0    0  0.51333062347E+02 -0.74625801770E+02 -0.22759989905E+03  0.27501055912E+03  0.12500000000E+03 0.  0.
</event>
<event>
 5    0  0.5619558E-005  0.4992513E+03  0.7546771E-02  0.1013975E+00
         21   -1    0    0  502  501  0.00000000000E+00  0.00000000000E+00  0.97235115188E+02  0.97235115188E+02  0.00000000000E+00 0. -1.
         21   -1    0    0  501  502 -0.00000000000E+00 -0.00000000000E+00 -0.25633936596E+04  0.25633936596E+04  0.00000000000E+00 0. -1.
         25    1    1    2    0    0  0.32438534118E+03  0.81926075327E+02 -0.58531545429E+03  0.68567989063E+03  0.12500000000E+03 0.  0.
         25    1    1    2    0    0 -0.29945274483E+03 -0.99032392651E+02 -0.17785573956E+04  0.18106271760E+04  0.12500000000E+03 0.  0.
         25    1    1    2    0    0 -0.24932596351E+02  0.17106317324E+02 -0.10228569453E+03  0.16432170812E+03  0.12500000000E+03 0.  0.
</event>
<event>
 5    0  0.5619558E-005  0.2450414E+03  0.7546771E-02  0.1116479E+00
         21   -1    0    0  502  501  0.00000000000E+00  0.00000000000E+00  0.20559412158E+04  0.20559412158E+04  0.00000000000E+00 0.  1.
         21   -1    0    0  501  502 -0.00000000000E+00 -0.00000000000E+00 -0.29205740283E+02  0.29205740283E+02  0.00000000000E+00 0.  1.
         25    1    1    2    0    0 -0.34068745660E+02 -0.10249423386E+02  0.53264819251E+03  0.54827440857E+03  0.12500000000E+03 0.  0.
         25    1    1    2    0    0 -0.61136780723E+02 -0.76198087107E+02  0.97152476750E+03  0.98439282215E+03  0.12500000000E+03 0.  0.
         25    1    1    2    0    0  0.95205526383E+02  0.86447510493E+02  0.52256251555E+03  0.55247972540E+03  0.12500000000E+03 0.  0.
</event>
<event>
 5    0  0.5619558E-005  0.6579509E+03  0.7546771E-02  0.9791973E-01
         21   -1    0    0  502  501  0.00000000000E+00  0.00000000000E+00  0.10084647232E+04  0.10084647232E+04  0.00000000000E+00 0.  1.
         21   -1    0    0  501  502 -0.00000000000E+00 -0.00000000000E+00 -0.42926583252E+03  0.42926583252E+03  0.00000000000E+00 0.  1.
         25    1    1    2    0    0 -0.19508469178E+03 -0.13141227325E+03  0.86883692753E+03  0.90875179734E+03  0.12500000000E+03 0.  0.
         25    1    1    2    0    0  0.11658647069E+02  0.54451649453E+02 -0.25784208363E+03  0.29190485825E+03  0.12500000000E+03 0.  0.
         25    1    1    2    0    0  0.18342604471E+03  0.76960623798E+02 -0.31795953193E+02  0.23707390015E+03  0.12500000000E+03 0.  0.
</event>
<event>
 5    0  0.5619558E-005  0.5051303E+03  0.7546771E-02  0.1012448E+00
         21   -1    0    0  502  501  0.00000000000E+00  0.00000000000E+00  0.25391746480E+03  0.25391746480E+03  0.00000000000E+00 0.  1.
         21   -1    0    0  501  502 -0.00000000000E+00 -0.00000000000E+00 -0.10048801246E+04  0.10048801246E+04  0.00000000000E+00 0.  1.
         25    1    1    2    0    0 -0.19646039461E+02  0.44760687018E+02 -0.49035024863E+02  0.14289478518E+03  0.12500000000E+03 0.  0.
         25    1    1    2    0    0 -0.20972108350E+03 -0.31563562473E+03 -0.60933658525E+03  0.72837137134E+03  0.12500000000E+03 0.  0.
         25    1    1    2    0    0  0.22936712296E+03  0.27087493771E+03 -0.92591049658E+02  0.38753143286E+03  0.12500000000E+03 0.  0.
</event>
<event>
 5    0  0.5619558E-005  0.2578786E+03  0.7546771E-02  0.1108425E+00
         21   -1    0    0  502  501  0.00000000000E+00  0.00000000000E+00  0.24867082055E+04  0.24867082055E+04  0.00000000000E+00 0. -1.
         21   -1    0    0  501  502 -0.00000000000E+00 -0.00000000000E+00 -0.26742734846E+02  0.26742734846E+02  0.00000000000E+00 0. -1.
         25    1    1    2    0    0 -0.17711864036E+02  0.47785219991E+00  0.84761251169E+03  0.85696318966E+03  0.12500000000E+03 0.  0.
         25    1    1    2    0    0 -0.84197323068E+02 -0.10486495561E+03  0.66681980650E+03  0.69163538261E+03  0.12500000000E+03 0.  0.
         25    1    1    2    0    0  0.10190918710E+03  0.10438710341E+03  0.94553315241E+03  0.96485236803E+03  0.12500000000E+03 0.  0.
</event>
<event>
 5    0  0.5619558E-005  0.2796634E+03  0.7546771E-02  0.1095873E+00
         21   -1    0    0  502  501  0.00000000000E+00  0.00000000000E+00  0.14877481068E+03  0.14877481068E+03  0.00000000000E+00 0. -1.
         21   -1    0    0  501  502 -0.00000000000E+00 -0.00000000000E+00 -0.52570463327E+03  0.52570463327E+03  0.00000000000E+00 0. -1.
         25    1    1    2    0    0  0.29138291384E+02  0.18435492278E+02 -0.14502819229E+03  0.19454327014E+03  0.12500000000E+03 0.  0.
         25    1    1    2    0    0 -0.24415109426E+02 -0.14297250789E+02  0.75000821300E+02  0.14849455257E+03  0.12500000000E+03 0.  0.
         25    1    1    2    0    0 -0.47231819585E+01 -0.41382414885E+01 -0.30690245160E+03  0.33144162123E+03  0.12500000000E+03 0.  0.
</event>
<event>
 5    0  0.5619558E-005  0.2468156E+03  0.7546771E-02  0.1115334E+00
         21   -1    0    0  502  501  0.00000000000E+00  0.00000000000E+00  0.76755745231E+02  0.76755745231E+02  0.00000000000E+00 0. -1.
         21   -1    0    0  501  502 -0.00000000000E+00 -0.00000000000E+00 -0.79365964018E+03  0.79365964018E+03  0.00000000000E+00 0. -1.
         25    1    1    2    0    0 -0.30328694452E+02 -0.19588209114E+01 -0.27418404200E+03  0.30286227163E+03  0.12500000000E+03 0.  0.
         25    1    1    2    0    0  0.13406068889E+03  0.35876602062E+02 -0.26724016300E+03  0.32603942032E+03  0.12500000000E+03 0.  0.
         25    1    1    2    0    0 -0.10373199444E+03 -0.33917781151E+02 -0.17547968995E+03  0.24151369347E+03  0.12500000000E+03 0.  0.
</event>
<event>
 5    0  0.5619558E-005  0.3732296E+03  0.7546771E-02  0.1053465E+00
         21   -1    0    0  502  501  0.00000000000E+00  0.00000000000E+00  0.31184488192E+04  0.31184488192E+04  0.00000000000E+00 0.  1.
         21   -1    0    0  501  502 -0.00000000000E+00 -0.00000000000E+00 -0.44669740613E+02  0.44669740613E+02  0.00000000000E+00 0.  1.
         25    1    1    2    0    0  0.99864760165E+01 -0.35756079554E+02  0.49339514182E+03  0.51033517701E+03  0.12500000000E+03 0.  0.
         25    1    1    2    0    0  0.87266142139E+02 -0.24644378568E+03  0.13299488819E+04  0.13611535357E+04  0.12500000000E+03 0.  0.
         25    1    1    2    0    0 -0.97252618156E+02  0.28219986524E+03  0.12504350549E+04  0.12916298472E+04  0.12500000000E+03 0.  0.
</event>
<event>
 5    0  0.5619558E-005  0.3156683E+03  0.7546771E-02  0.1077660E+00
         21   -1    0    0  502  501  0.00000000000E+00  0.00000000000E+00  0.54272775385E+03  0.54272775385E+03  0.00000000000E+00 0. -1.
         21   -1    0    0  501  502 -0.00000000000E+00 -0.00000000000E+00 -0.18360301352E+03  0.18360301352E+03  0.00000000000E+00 0. -1.
         25    1    1    2    0    0 -0.26800656374E+02  0.27404519351E+02  0.16760770779E+03  0.21257146227E+03  0.12500000000E+03 0.  0.
         25    1    1    2    0    0  0.69823772995E+02 -0.20548713324E+03  0.66347934553E+02  0.25908950118E+03  0.12500000000E+03 0.  0.
         25    1    1    2    0    0 -0.43023116621E+02  0.17808261389E+03  0.12516909798E+03  0.25466980391E+03  0.12500000000E+03 0.  0.
</event>
<event>
 5    0  0.6175788E-005  0.2872643E+03  0.7546771E-02  0.1091786E+00
         21   -1    0    0  502  501  0.00000000000E+00  0.00000000000E+00  0.13244211750E+03  0.13244211750E+03  0.00000000000E+00 0. -1.
         21   -1    0    0  501  502 -0.00000000000E+00 -0.00000000000E+00 -0.62307056382E+03  0.62307056382E+03  0.00000000000E+00 0. -1.
         25    1    1    2    0    0  0.39650085106E+02  0.14308859093E+02  0.16641036985E+02  0.13296163661E+03  0.12500000000E+03 0.  0.
         25    1    1    2    0    0 -0.40661354182E+02  0.23700808374E+02 -0.43107455195E+02  0.14035072759E+03  0.12500000000E+03 0.  0.
         25    1    1    2    0    0  0.10112690764E+01 -0.38009667467E+02 -0.46416202812E+03  0.48220031712E+03  0.12500000000E+03 0.  0.
</event>
<event>
 5    0  0.5619558E-005  0.2494983E+03  0.7546771E-02  0.1113622E+00
         21   -1    0    0  502  501  0.00000000000E+00  0.00000000000E+00  0.31557642140E+04  0.31557642140E+04  0.00000000000E+00 0.  1.
         21   -1    0    0  501  502 -0.00000000000E+00 -0.00000000000E+00 -0.19725614877E+02  0.19725614877E+02  0.00000000000E+00 0.  1.
         25    1    1    2    0    0 -0.33717277580E+02 -0.51492895329E+02  0.43369857936E+03  0.45553027431E+03  0.12500000000E+03 0.  0.
         25    1    1    2    0    0 -0.62249118837E+02  0.35566403906E+02  0.15692664908E+04  0.15758687258E+04  0.12500000000E+03 0.  0.
         25    1    1    2    0    0  0.95966396417E+02  0.15926491423E+02  0.11330735289E+04  0.11440908287E+04  0.12500000000E+03 0.  0.
</event>
<event>
 5    0  0.6131792E-005  0.2951132E+03  0.7546771E-02  0.1087709E+00
         21   -1    0    0  502  501  0.00000000000E+00  0.00000000000E+00  0.55945001670E+03  0.55945001670E+03  0.00000000000E+00 0.  1.
         21   -1    0    0  501  502 -0.00000000000E+00 -0.00000000000E+00 -0.15567394454E+03  0.15567394454E+03  0.00000000000E+00 0.  1.
         25    1    1    2    0    0  0.53944755659E+02 -0.36444406832E+02  0.19299958018E+03  0.23898131601E+03  0.12500000000E+03 0.  0.
         25    1    1    2    0    0 -0.17536322271E+02 -0.13946802954E+03  0.16996448018E+03  0.25351879296E+03  0.12500000000E+03 0.  0.
         25    1    1    2    0    0 -0.36408433389E+02  0.17591243638E+03  0.40812011804E+02  0.22262385227E+03  0.12500000000E+03 0.  0.
</event>
<event>
 5    0  0.5619558E-005  0.2781467E+03  0.7546771E-02  0.1096705E+00
         21   -1    0    0  502  501  0.00000000000E+00  0.00000000000E+00  0.70165756350E+03  0.70165756350E+03  0.00000000000E+00 0.  1.
         21   -1    0    0  501  502 -0.00000000000E+00 -0.00000000000E+00 -0.11026121222E+03  0.11026121222E+03  0.00000000000E+00 0.  1.
         25    1    1    2    0    0  0.83082281157E+01  0.10551805074E+03  0.17570760960E+03  0.24021084438E+03  0.12500000000E+03 0.  0.
         25    1    1    2    0    0  0.68681693874E+02 -0.96801983327E+02  0.53002278354E+02  0.18033868293E+03  0.12500000000E+03 0.  0.
         25    1    1    2    0    0 -0.76989921990E+02 -0.87160674136E+01  0.36268646334E+03  0.39136924842E+03  0.12500000000E+03 0.  0.
</event>
<event>
 5    0  0.5619558E-005  0.2801032E+03  0.7546771E-02  0.1095633E+00
         21   -1    0    0  502  501  0.00000000000E+00  0.00000000000E+00  0.17006236837E+04  0.17006236837E+04  0.00000000000E+00 0.  1.
         21   -1    0    0  501  502 -0.00000000000E+00 -0.00000000000E+00 -0.46134738448E+02  0.46134738448E+02  0.00000000000E+00 0.  1.
         25    1    1    2    0    0  0.13237167803E+03  0.70082098794E+02  0.10845450691E+04  0.11019513459E+04  0.12500000000E+03 0.  0.
         25    1    1    2    0    0 -0.36229693267E+02 -0.58998369514E+02  0.25061250336E+03  0.28848747827E+03  0.12500000000E+03 0.  0.
         25    1    1    2    0    0 -0.96141984759E+02 -0.11083729279E+02  0.31933137282E+03  0.35631959805E+03  0.12500000000E+03 0.  0.
</event>
<event>
 5    0  0.5619558E-005  0.2049097E+03  0.7546771E-02  0.1145662E+00
         21   -1    0    0  502  501  0.00000000000E+00  0.00000000000E+00  0.91344699259E+03  0.91344699259E+03  0.00000000000E+00 0.  1.
         21   -1    0    0  501  502 -0.00000000000E+00 -0.00000000000E+00 -0.45966505056E+02  0.45966505056E+02  0.00000000000E+00 0.  1.
         25    1    1    2    0    0  0.25264075390E+01 -0.48586521616E+00  0.40560800674E+03  0.42444018888E+03  0.12500000000E+03 0.  0.
         25    1    1    2    0    0 -0.46212877699E+02 -0.23413296342E+02  0.22502197514E+03  0.26257132708E+03  0.12500000000E+03 0.  0.
         25    1    1    2    0    0  0.43686470160E+02  0.23899161558E+02  0.23685050565E+03  0.27240198168E+03  0.12500000000E+03 0.  0.
</event>
<event>
 5    0  0.5619558E-005  0.3970004E+03  0.7546771E-02  0.1044823E+00
         21   -1    0    0  502  501  0.00000000000E+00  0.00000000000E+00  0.49953978406E+03  0.49953978406E+03  0.00000000000E+00 0. -1.
         21   -1    0    0  501  502 -0.00000000000E+00 -0.00000000000E+00 -0.31550903536E+03  0.31550903536E+03  0.00000000000E+00 0. -1.
         25    1    1    2    0    0 -0.12296685108E+03 -0.15626716094E+03 -0.14414580750E+03  0.27557809396E+03  0.12500000000E+03 0.  0.
         25    1    1    2    0    0  0.22065740669E+02  0.15966085074E+03  0.31886683010E+03  0.37852283882E+03  0.12500000000E+03 0.  0.
         25    1    1    2    0    0  0.10090111041E+03 -0.33936897962E+01  0.93097260871E+01  0.16094788663E+03  0.12500000000E+03 0.  0.
</event>
<event>
 5    0  0.5619558E-005  0.2282706E+03  0.7546771E-02  0.1127863E+00
         21   -1    0    0  502  501  0.00000000000E+00  0.00000000000E+00  0.73609841986E+02  0.73609841986E+02  0.00000000000E+00 0.  1.
         21   -1    0    0  501  502 -0.00000000000E+00 -0.00000000000E+00 -0.70788706383E+03  0.70788706383E+03  0.00000000000E+00 0.  1.
         25    1    1    2    0    0 -0.27953169342E+01 -0.45643372744E+02 -0.28597751302E+03  0.31543504756E+03  0.12500000000E+03 0.  0.
         25    1    1    2    0    0 -0.53414172462E+02 -0.35173993271E+02 -0.22306599643E+03  0.26357868348E+03  0.12500000000E+03 0.  0.
         25    1    1    2    0    0  0.56209489397E+02  0.80817366015E+02 -0.12523371238E+03  0.20248317477E+03  0.12500000000E+03 0.  0.
</event>
<event>
 5    0  0.5619558E-005  0.2253372E+03  0.7546771E-02  0.1129965E+00
         21   -1    0    0  502  501  0.00000000000E+00  0.00000000000E+00  0.23534835933E+03  0.23534835933E+03  0.00000000000E+00 0. -1.
         21   -1    0    0  501  502 -0.00000000000E+00 -0.00000000000E+00 -0.21575193533E+03  0.21575193533E+03  0.00000000000E+00 0. -1.
         25    1    1    2    0    0  0.75987460604E+02 -0.74126939085E+01  0.15580506878E+02  0.14729831769E+03  0.12500000000E+03 0.  0.
         25    1    1    2    0    0  0.84903082979E+01  0.65528984682E+01 -0.61017986338E+02  0.13951064644E+03  0.12500000000E+03 0.  0.
         25    1    1    2    0    0 -0.84477768902E+02  0.85979544029E+00  0.65033903464E+02  0.16429133053E+03  0.12500000000E+03 0.  0.
</event>
<event>
 5    0  0.6293135E-005  0.3329275E+03  0.7546771E-02  0.1069849E+00
         21   -1    0    0  502  501  0.00000000000E+00  0.00000000000E+00  0.67044303730E+03  0.67044303730E+03  0.00000000000E+00 0.  1.
         21   -1    0    0  501  502 -0.00000000000E+00 -0.00000000000E+00 -0.16532463070E+03  0.16532463070E+03  0.00000000000E+00 0.  1.
         25    1    1    2    0    0  0.24362465070E+02 -0.23342427394E+03  0.11148963692E+03  0.28833203171E+03  0.12500000000E+03 0.  0.
         25    1    1    2    0    0  0.57375589195E+02  0.12573284189E+03  0.13567395369E+03  0.23050624173E+03  0.12500000000E+03 0.  0.
         25    1    1    2    0    0 -0.81738054265E+02  0.10769143205E+03  0.25795481599E+03  0.31692939457E+03  0.12500000000E+03 0.  0.
</event>
<event>
 5    0  0.5619558E-005  0.2796598E+03  0.7546771E-02  0.1095875E+00
         21   -1    0    0  502  501  0.00000000000E+00  0.00000000000E+00  0.22680554850E+03  0.22680554850E+03  0.00000000000E+00 0. -1.
         21   -1    0    0  501  502 -0.00000000000E+00 -0.00000000000E+00 -0.34483110139E+03  0.34483110139E+03  0.00000000000E+00 0. -1.
         25    1    1    2    0    0 -0.46070690019E+01  0.30244266652E+02 -0.32958601686E+02  0.13284280250E+03  0.12500000000E+03 0.  0.
         25    1    1    2    0    0 -0.94142054259E+02  0.10815086605E+03  0.38752496904E+02  0.19412906074E+03  0.12500000000E+03 0.  0.
         25    1    1    2    0    0  0.98749123261E+02 -0.13839513270E+03 -0.12381944811E+03  0.24466478666E+03  0.12500000000E+03 0.  0.
</event>
<event>
 5    0  0.5619558E-005  0.2181390E+03  0.7546771E-02  0.1135278E+00
         21   -1    0    0  502  501  0.00000000000E+00  0.00000000000E+00  0.15431387056E+04  0.15431387056E+04  0.00000000000E+00 0.  1.
         21   -1    0    0  501  502 -0.00000000000E+00 -0.00000000000E+00 -0.30836270713E+02  0.30836270713E+02  0.00000000000E+00 0.  1.
         25    1    1    2    0    0 -0.38102504439E+02  0.77345801159E+01  0.31139564541E+03  0.33779264728E+03  0.12500000000E+03 0.  0.
         25    1    1    2    0    0 -0.37426770137E+02  0.77624164737E+01  0.37035534872E+03  0.39274559521E+03  0.12500000000E+03 0.  0.
         25    1    1    2    0    0  0.75529274576E+02 -0.15496996590E+02  0.83055144075E+03  0.84343673381E+03  0.12500000000E+03 0.  0.
</event>
<event>
 5    0  0.5619558E-005  0.2129694E+03  0.7546771E-02  0.1139236E+00
         21   -1    0    0  502  501  0.00000000000E+00  0.00000000000E+00  0.20509571296E+03  0.20509571296E+03  0.00000000000E+00 0.  1.
         21   -1    0    0  501  502 -0.00000000000E+00 -0.00000000000E+00 -0.22114528554E+03  0.22114528554E+03  0.00000000000E+00 0.  1.
         25    1    1    2    0    0  0.59204125454E+01 -0.13148122752E+02  0.68107555377E+02  0.14307887166E+03  0.12500000000E+03 0.  0.
         25    1    1    2    0    0  0.19959229194E+02 -0.38821303186E+02 -0.36680518403E+02  0.13738968244E+03  0.12500000000E+03 0.  0.
         25    1    1    2    0    0 -0.25879641740E+02  0.51969425938E+02 -0.47476609560E+02  0.14577244439E+03  0.12500000000E+03 0.  0.
</event>
<event>
 5    0  0.5619558E-005  0.5905535E+03  0.7546771E-02  0.9925201E-01
         21   -1    0    0  502  501  0.00000000000E+00  0.00000000000E+00  0.11861717862E+04  0.11861717862E+04  0.00000000000E+00 0.  1.
         21   -1    0    0  501  502 -0.00000000000E+00 -0.00000000000E+00 -0.29401599210E+03  0.29401599210E+03  0.00000000000E+00 0.  1.
         25    1    1    2    0    0  0.46250081253E+03  0.20154440531E+02  0.45807187511E+03  0.66315009299E+03  0.12500000000E+03 0.  0.
         25    1    1    2    0    0 -0.98565061775E+02  0.19316276665E+03  0.12858870980E+03  0.28140181611E+03  0.12500000000E+03 0.  0.
         25    1    1    2    0    0 -0.36393575075E+03 -0.21331720718E+03  0.30549520920E+03  0.53563586923E+03  0.12500000000E+03 0.  0.
</event>
<event>
 5    0  0.5619558E-005  0.3089502E+03  0.7546771E-02  0.1080850E+00
         21   -1    0    0  502  501  0.00000000000E+00  0.00000000000E+00  0.27198817489E+03  0.27198817489E+03  0.00000000000E+00 0. -1.
         21   -1    0    0  501  502 -0.00000000000E+00 -0.00000000000E+00 -0.35093511115E+03  0.35093511115E+03  0.00000000000E+00 0. -1.
         25    1    1    2    0    0 -0.51005847925E+02  0.28682277624E+02  0.42498114772E+02  0.14441384744E+03  0.12500000000E+03 0.  0.
         25    1    1    2    0    0 -0.99735339744E+02  0.81245786333E+02  0.60696436034E+02  0.18935963968E+03  0.12500000000E+03 0.  0.
         25    1    1    2    0    0  0.15074118767E+03 -0.10992806396E+03 -0.18214148707E+03  0.28914979892E+03  0.12500000000E+03 0.  0.
</event>
<event>
 5    0  0.5619558E-005  0.7799764E+03  0.7546771E-02  0.9589461E-01
         21   -1    0    0  502  501  0.00000000000E+00  0.00000000000E+00  0.92459735686E+03  0.92459735686E+03  0.00000000000E+00 0. -1.
         21   -1    0    0  501  502 -0.00000000000E+00 -0.00000000000E+00 -0.65797635242E+03  0.65797635242E+03  0.00000000000E+00 0. -1.
         25    1    1    2    0    0 -0.29050737937E+03 -0.13867284946E+03 -0.56126551598E+03  0.65899064946E+03  0.12500000000E+03 0.  0.
         25    1    1    2    0    0  0.16274913253E+03  0.74732558859E+02  0.47760949169E+03  0.52517431587E+03  0.12500000000E+03 0.  0.
         25    1    1    2    0    0  0.12775824685E+03  0.63940290603E+02  0.35027702873E+03  0.39840874395E+03  0.12500000000E+03 0.  0.
</event>
<event>
 5    0  0.6323037E-005  0.4249740E+03  0.7546771E-02  0.1035460E+00
         21   -1    0    0  502  501  0.00000000000E+00  0.00000000000E+00  0.88162730886E+03  0.88162730886E+03  0.00000000000E+00 0. -1.
         21   -1    0    0  501  502 -0.00000000000E+00 -0.00000000000E+00 -0.20485175321E+03  0.20485175321E+03  0.00000000000E+00 0. -1.
         25    1    1    2    0    0 -0.19872650286E+03  0.48703482874E+02  0.18455614849E+02  0.24047840215E+03  0.12500000000E+03 0.  0.
         25    1    1    2    0    0  0.21475357933E+03  0.93235532114E+02  0.15331061452E+03  0.30649813835E+03  0.12500000000E+03 0.  0.
         25    1    1    2    0    0 -0.16027076472E+02 -0.14193901499E+03  0.50500932628E+03  0.53950252157E+03  0.12500000000E+03 0.  0.
</event>
<event>
 5    0  0.5619558E-005  0.5795527E+03  0.7546771E-02  0.9948760E-01
         21   -1    0    0  502  501  0.00000000000E+00  0.00000000000E+00  0.14703929813E+04  0.14703929813E+04  0.00000000000E+00 0. -1.
         21   -1    0    0  501  502 -0.00000000000E+00 -0.00000000000E+00 -0.22842963130E+03  0.22842963130E+03  0.00000000000E+00 0. -1.
         25    1    1    2    0    0 -0.10034040226E+03  0.36849395285E+03  0.70194819274E+03  0.80883388585E+03  0.12500000000E+03 0.  0.
         25    1    1    2    0    0  0.99134189639E+02 -0.26541694967E+03 -0.16749853648E+02  0.31012788060E+03  0.12500000000E+03 0.  0.
         25    1    1    2    0    0  0.12062126188E+01 -0.10307700318E+03  0.55676501090E+03  0.57986084614E+03  0.12500000000E+03 0.  0.
</event>
<event>
 5    0  0.5619558E-005  0.3433353E+03  0.7546771E-02  0.1065384E+00
         21   -1    0    0  502  501  0.00000000000E+00  0.00000000000E+00  0.43407919144E+03  0.43407919144E+03  0.00000000000E+00 0.  1.
         21   -1    0    0  501  502 -0.00000000000E+00 -0.00000000000E+00 -0.27156140085E+03  0.27156140085E+03  0.00000000000E+00 0.  1.
         25    1    1    2    0    0  0.17272357150E+03  0.61096798391E+02  0.72213768831E+02  0.23325110790E+03  0.12500000000E+03 0.  0.
         25    1    1    2    0    0 -0.24291877183E+03  0.19400576452E+02  0.13012419785E+03  0.30322140251E+03  0.12500000000E+03 0.  0.
         25    1    1    2    0    0  0.70195200326E+02 -0.80497374843E+02 -0.39820176094E+02  0.16916808189E+03  0.12500000000E+03 0.  0.
</event>
<event>
 5    0  0.7516760E-005  0.5845754E+03  0.7546771E-02  0.9937934E-01
         21   -1    0    0  502  501  0.00000000000E+00  0.00000000000E+00  0.53374933236E+03  0.53374933236E+03  0.00000000000E+00 0.  1.
         21   -1    0    0  501  502 -0.00000000000E+00 -0.00000000000E+00 -0.64024143959E+03  0.64024143959E+03  0.00000000000E+00 0.  1.
         25    1    1    2    0    0  0.93172221019E+02  0.39971566267E+01 -0.37589841904E+03  0.40696641319E+03  0.12500000000E+03 0.  0.
         25    1    1    2    0    0  0.23377039440E+03  0.18082009591E+03  0.14486749262E+03  0.35207399052E+03  0.12500000000E+03 0.  0.
         25    1    1    2    0    0 -0.32694261542E+03 -0.18481725254E+03  0.12453881919E+03  0.41495036824E+03  0.12500000000E+03 0.  0.
</event>
<event>
 5    0  0.5619558E-005  0.2966389E+03  0.7546771E-02  0.1086933E+00
         21   -1    0    0  502  501  0.00000000000E+00  0.00000000000E+00  0.11669156251E+03  0.11669156251E+03  0.00000000000E+00 0.  1.
         21   -1    0    0  501  502 -0.00000000000E+00 -0.00000000000E+00 -0.75407886865E+03  0.75407886865E+03  0.00000000000E+00 0.  1.
         25    1    1    2    0    0  0.95643971687E+02  0.18812016122E+02 -0.40611737653E+03  0.43595640240E+03  0.12500000000E+03 0.  0.
         25    1    1    2    0    0 -0.15481570865E+03  0.51840745327E+02 -0.88492539230E+02  0.22385552488E+03  0.12500000000E+03 0.  0.
         25    1    1    2    0    0  0.59171736964E+02 -0.70652761449E+02 -0.14277739039E+03  0.21095850389E+03  0.12500000000E+03 0.  0.
</event>
<event>
 5    0  0.5619558E-005  0.4287420E+03  0.7546771E-02  0.1034258E+00
         21   -1    0    0  502  501  0.00000000000E+00  0.00000000000E+00  0.14725826451E+03  0.14725826451E+03  0.00000000000E+00 0.  1.
         21   -1    0    0  501  502 -0.00000000000E+00 -0.00000000000E+00 -0.12482813348E+04  0.12482813348E+04  0.00000000000E+00 0.  1.
         25    1    1    2    0    0 -0.64725396037E+02 -0.50552235357E+00  0.76327902780E+02  0.16012676599E+03  0.12500000000E+03 0.  0.
         25    1    1    2    0    0 -0.10662745140E+02 -0.11811960545E+03 -0.73126785928E+03  0.75129462752E+03  0.12500000000E+03 0.  0.
         25    1    1    2    0    0  0.75388141177E+02  0.11862512780E+03 -0.44608311384E+03  0.48411820584E+03  0.12500000000E+03 0.  0.
</event>
<event>
 5    0  0.5619558E-005  0.4234502E+03  0.7546771E-02  0.1035949E+00
         21   -1    0    0  502  501  0.00000000000E+00  0.00000000000E+00  0.12393558664E+03  0.12393558664E+03  0.00000000000E+00 0.  1.
         21   -1    0    0  501  502 -0.00000000000E+00 -0.00000000000E+00 -0.14468003933E+04  0.14468003933E+04  0.00000000000E+00 0.  1.
         25    1    1    2    0    0  0.73909586098E+02 -0.94173121121E+02 -0.55939382241E+02  0.18189397501E+03  0.12500000000E+03 0.  0.
         25    1    1    2    0    0 -0.11952762850E+03  0.24263885371E+03 -0.39710360376E+03  0.49646423781E+03  0.12500000000E+03 0.  0.
         25    1    1    2    0    0  0.45618042399E+02 -0.14846573259E+03 -0.86982182068E+03  0.89237776714E+03  0.12500000000E+03 0.  0.
</event>
<event>
 5    0  0.5619558E-005  0.2235911E+03  0.7546771E-02  0.1131234E+00
         21   -1    0    0  502  501  0.00000000000E+00  0.00000000000E+00  0.23682544153E+02  0.23682544153E+02  0.00000000000E+00 0. -1.
         21   -1    0    0  501  502 -0.00000000000E+00 -0.00000000000E+00 -0.21109640624E+04  0.21109640624E+04  0.00000000000E+00 0. -1.
         25    1    1    2    0    0  0.20470234734E+02  0.50234283134E+02 -0.32574349916E+03  0.35309537091E+03  0.12500000000E+03 0.  0.
         25    1    1    2    0    0  0.24298111069E+02 -0.23314742468E+02 -0.77127285503E+03  0.78206188523E+03  0.12500000000E+03 0.  0.
         25    1    1    2    0    0 -0.44768345803E+02 -0.26919540666E+02 -0.99026516406E+03  0.99948935043E+03  0.12500000000E+03 0.  0.
</event>
<event>
 5    0  0.5619558E-005  0.2805596E+03  0.7546771E-02  0.1095384E+00
         21   -1    0    0  502  501  0.00000000000E+00  0.00000000000E+00  0.74501352614E+03  0.74501352614E+03  0.00000000000E+00 0. -1.
         21   -1    0    0  501  502 -0.00000000000E+00 -0.00000000000E+00 -0.10565405849E+03  0.10565405849E+03  0.00000000000E+00 0. -1.
         25    1    1    2    0    0  0.17183775263E+03  0.15199106736E+02  0.35624669301E+03  0.41508545188E+03  0.12500000000E+03 0.  0.
         25    1    1    2    0    0 -0.45115388549E+02 -0.18019637488E+02  0.19574228474E+03  0.23727652150E+03  0.12500000000E+03 0.  0.
         25    1    1    2    0    0 -0.12672236408E+03  0.28205307519E+01  0.87370489893E+02  0.19830561126E+03  0.12500000000E+03 0.  0.
</event>
<event>
 5    0  0.5619558E-005  0.3006215E+03  0.7546771E-02  0.1084930E+00
         21   -1    0    0  502  501  0.00000000000E+00  0.00000000000E+00  0.11770174497E+03  0.11770174497E+03  0.00000000000E+00 0. -1.
         21   -1    0    0  501  502 -0.00000000000E+00 -0.00000000000E+00 -0.76781589430E+03  0.76781589430E+03  0.00000000000E+00 0. -1.
         25    1    1    2    0    0 -0.35253630588E+02 -0.11144993855E+03 -0.20479995343E+03  0.26689310257E+03  0.12500000000E+03 0.  0.
         25    1    1    2    0    0 -0.53144155044E+02  0.10218921803E+03 -0.43251125082E+03  0.46471272802E+03  0.12500000000E+03 0.  0.
         25    1    1    2    0    0  0.88397785633E+02  0.92607205275E+01 -0.12802945082E+02  0.15391180868E+03  0.12500000000E+03 0.  0.
</event>
<event>
 5    0  0.5619558E-005  0.4153178E+03  0.7546771E-02  0.1038601E+00
         21   -1    0    0  502  501  0.00000000000E+00  0.00000000000E+00  0.62582321844E+03  0.62582321844E+03  0.00000000000E+00 0. -1.
         21   -1    0    0  501  502 -0.00000000000E+00 -0.00000000000E+00 -0.27561911563E+03  0.27561911563E+03  0.00000000000E+00 0. -1.
         25    1    1    2    0    0 -0.92252371429E+02 -0.45233588884E+02 -0.16335551262E+02  0.16262972617E+03  0.12500000000E+03 0.  0.
         25    1    1    2    0    0  0.32130145754E+03  0.11821150560E+03  0.15960629133E+03  0.39787907070E+03  0.12500000000E+03 0.  0.
         25    1    1    2    0    0 -0.22904908611E+03 -0.72977916713E+02  0.20693336275E+03  0.34093353721E+03  0.12500000000E+03 0.  0.
</event>
<event>
 5    0  0.5619558E-005  0.3679084E+03  0.7546771E-02  0.1055496E+00
         21   -1    0    0  502  501  0.00000000000E+00  0.00000000000E+00  0.49425319826E+02  0.49425319826E+02  0.00000000000E+00 0.  1.
         21   -1    0    0  501  502 -0.00000000000E+00 -0.00000000000E+00 -0.27386090237E+04  0.27386090237E+04  0.00000000000E+00 0.  1.
         25    1    1    2    0    0  0.13603100970E+03  0.90055036367E+02 -0.85804010391E+03  0.88231069646E+03  0.12500000000E+03 0.  0.
         25    1    1    2    0    0 -0.22993342190E+03 -0.19688298002E+03 -0.96287282432E+03  0.10170454081E+04  0.12500000000E+03 0.  0.
         25    1    1    2    0    0  0.93902412205E+02  0.10682794365E+03 -0.86827077562E+03  0.88867823893E+03  0.12500000000E+03 0.  0.
</event>
<event>
 5    0  0.5619558E-005  0.2327543E+03  0.7546771E-02  0.1124716E+00
         21   -1    0    0  502  501  0.00000000000E+00  0.00000000000E+00  0.68004945156E+02  0.68004945156E+02  0.00000000000E+00 0. -1.
         21   -1    0    0  501  502 -0.00000000000E+00 -0.00000000000E+00 -0.79662681328E+03  0.79662681328E+03  0.00000000000E+00 0. -1.
         25    1    1    2    0    0  0.56109630157E+02  0.51118515792E+02 -0.16246823019E+03  0.21859167201E+03  0.12500000000E+03 0.  0.
         25    1    1    2    0    0 -0.10339615984E+03 -0.25766668049E+02 -0.22344208167E+03  0.27731940234E+03  0.12500000000E+03 0.  0.
         25    1    1    2    0    0  0.47286529681E+02 -0.25351847743E+02 -0.34271155627E+03  0.36872068409E+03  0.12500000000E+03 0.  0.
</event>
<event>
 5    0  0.5619558E-005  0.2473077E+03  0.7546771E-02  0.1115018E+00
         21   -1    0    0  502  501  0.00000000000E+00  0.00000000000E+00  0.35579613746E+04  0.35579613746E+04  0.00000000000E+00 0. -1.
         21   -1    0    0  501  502 -0.00000000000E+00 -0.00000000000E+00 -0.17189921472E+02  0.17189921472E+02  0.00000000000E+00 0. -1.
         25    1    1    2    0    0 -0.73783787920E+01 -0.11132356764E+03  0.15727787626E+04  0.15816780372E+04  0.12500000000E+03 0.  0.
         25    1    1    2    0    0  0.64713116538E+02  0.87089048736E+02  0.13374293399E+04  0.13476329356E+04  0.12500000000E+03 0.  0.
         25    1    1    2    0    0 -0.57334737746E+02  0.24234518904E+02  0.63056335065E+03  0.64584032333E+03  0.12500000000E+03 0.  0.
</event>
<event>
 5    0  0.5619558E-005  0.2888141E+03  0.7546771E-02  0.1090970E+00
         21   -1    0    0  502  501  0.00000000000E+00  0.00000000000E+00  0.22550650012E+03  0.22550650012E+03  0.00000000000E+00 0.  1.
         21   -1    0    0  501  502 -0.00000000000E+00 -0.00000000000E+00 -0.36989432681E+03  0.36989432681E+03  0.00000000000E+00 0.  1.
         25    1    1    2    0    0  0.40522334476E+00 -0.31138217076E+02 -0.25889496450E+03  0.28917357315E+03  0.12500000000E+03 0.  0.
         25    1    1    2    0    0  0.59393925611E+02  0.22558477590E+02  0.29037214272E+02  0.14319456387E+03  0.12500000000E+03 0.  0.
         25    1    1    2    0    0 -0.59799148955E+02  0.85797394863E+01  0.85469923543E+02  0.16303268990E+03  0.12500000000E+03 0.  0.
</event>
<event>
 5    0  0.5632983E-005  0.4234783E+03  0.7546771E-02  0.1035940E+00
         21   -1    0    0  502  501  0.00000000000E+00  0.00000000000E+00  0.24694371077E+03  0.24694371077E+03  0.00000000000E+00 0. -1.
         21   -1    0    0  501  502 -0.00000000000E+00 -0.00000000000E+00 -0.72621347155E+03  0.72621347155E+03  0.00000000000E+00 0. -1.
         25    1    1    2    0    0 -0.74920194806E+02  0.97678018119E+02  0.31362411127E+02  0.17822073854E+03  0.12500000000E+03 0.  0.
         25    1    1    2    0    0 -0.17838241519E+03 -0.74789141512E+02 -0.44944456394E+03  0.50501397782E+03  0.12500000000E+03 0.  0.
         25    1    1    2    0    0  0.25330260999E+03 -0.22888876607E+02 -0.61187607960E+02  0.28992246596E+03  0.12500000000E+03 0.  0.
</event>
<event>
 5    0  0.5619558E-005  0.2781997E+03  0.7546771E-02  0.1096676E+00
         21   -1    0    0  502  501  0.00000000000E+00  0.00000000000E+00  0.90032164212E+03  0.90032164212E+03  0.00000000000E+00 0. -1.
         21   -1    0    0  501  502 -0.00000000000E+00 -0.00000000000E+00 -0.85963828580E+02  0.85963828580E+02  0.00000000000E+00 0. -1.
         25    1    1    2    0    0  0.44252906926E+02 -0.44086859106E+02  0.31986124052E+02  0.14335300154E+03  0.12500000000E+03 0.  0.
         25    1    1    2    0    0 -0.33669056421E+01  0.14038300203E+02  0.14747598819E+03  0.19386226301E+03  0.12500000000E+03 0.  0.
         25    1    1    2    0    0 -0.40886001284E+02  0.30048558902E+02  0.63489570130E+03  0.64907020616E+03  0.12500000000E+03 0.  0.
</event>
<event>
 5    0  0.5619558E-005  0.2473753E+03  0.7546771E-02  0.1114975E+00
         21   -1    0    0  502  501  0.00000000000E+00  0.00000000000E+00  0.75030077812E+03  0.75030077812E+03  0.00000000000E+00 0.  1.
         21   -1    0    0  501  502 -0.00000000000E+00 -0.00000000000E+00 -0.81560042928E+02  0.81560042928E+02  0.00000000000E+00 0.  1.
         25    1    1    2    0    0  0.10457192024E+03  0.52961955878E+02  0.16816085363E+03  0.24009024963E+03  0.12500000000E+03 0.  0.
         25    1    1    2    0    0 -0.91598697264E+02 -0.18257098894E+01  0.14928369006E+03  0.21518428073E+03  0.12500000000E+03 0.  0.
         25    1    1    2    0    0 -0.12973222979E+02 -0.51136245988E+02  0.35129619149E+03  0.37658629068E+03  0.12500000000E+03 0.  0.
</event>
<event>
 5    0  0.5619558E-005  0.5034423E+03  0.7546771E-02  0.1012884E+00
         21   -1    0    0  502  501  0.00000000000E+00  0.00000000000E+00  0.44732446778E+03  0.44732446778E+03  0.00000000000E+00 0.  1.
         21   -1    0    0  501  502 -0.00000000000E+00 -0.00000000000E+00 -0.56660022088E+03  0.56660022088E+03  0.00000000000E+00 0.  1.
         25    1    1    2    0    0  0.13009913763E+02  0.10031610413E+03 -0.11071116543E+02  0.16118358547E+03  0.12500000000E+03 0.  0.
         25    1    1    2    0    0  0.17634851412E+03 -0.40627846537E+03 -0.14300853791E+02  0.46042426551E+03  0.12500000000E+03 0.  0.
         25    1    1    2    0    0 -0.18935842788E+03  0.30596236124E+03 -0.93903782762E+02  0.39231683767E+03  0.12500000000E+03 0.  0.
</event>
<event>
 5    0  0.5619558E-005  0.2345663E+03  0.7546771E-02  0.1123466E+00
         21   -1    0    0  502  501  0.00000000000E+00  0.00000000000E+00  0.54939935267E+03  0.54939935267E+03  0.00000000000E+00 0.  1.
         21   -1    0    0  501  502 -0.00000000000E+00 -0.00000000000E+00 -0.10014822877E+03  0.10014822877E+03  0.00000000000E+00 0.  1.
         25    1    1    2    0    0 -0.99915378333E+01 -0.21438781981E+02  0.16022689775E+03  0.20459010475E+03  0.12500000000E+03 0.  0.
         25    1    1    2    0    0 -0.77755216251E+02 -0.48074199799E+02  0.72411340445E+02  0.17095439323E+03  0.12500000000E+03 0.  0.
         25    1    1    2    0    0  0.87746754084E+02  0.69512981780E+02  0.21661288571E+03  0.27400308346E+03  0.12500000000E+03 0.  0.
</event>
<event>
 5    0  0.5619558E-005  0.8530931E+03  0.7546771E-02  0.9486195E-01
         21   -1    0    0  502  501  0.00000000000E+00  0.00000000000E+00  0.76236404630E+03  0.76236404630E+03  0.00000000000E+00 0. -1.
         21   -1    0    0  501  502 -0.00000000000E+00 -0.00000000000E+00 -0.95461976117E+03  0.95461976117E+03  0.00000000000E+00 0. -1.
         25    1    1    2    0    0 -0.50875250208E+03  0.10417439056E+03  0.26595290867E+03  0.59668866392E+03  0.12500000000E+03 0.  0.
         25    1    1    2    0    0 -0.14892923802E+03 -0.18533344620E+03 -0.34381427760E+03  0.43630455154E+03  0.12500000000E+03 0.  0.
         25    1    1    2    0    0  0.65768174010E+03  0.81159055646E+02 -0.11439434594E+03  0.68399059201E+03  0.12500000000E+03 0.  0.
</event>
<event>
 5    0  0.5619558E-005  0.3154577E+03  0.7546771E-02  0.1077759E+00
         21   -1    0    0  502  501  0.00000000000E+00  0.00000000000E+00  0.28036967221E+04  0.28036967221E+04  0.00000000000E+00 0.  1.
         21   -1    0    0  501  502 -0.00000000000E+00 -0.00000000000E+00 -0.35493707036E+02  0.35493707036E+02  0.00000000000E+00 0.  1.
         25    1    1    2    0    0 -0.10502997704E+03  0.12020480471E+02  0.66148394430E+03  0.68144097073E+03  0.12500000000E+03 0.  0.
         25    1    1    2    0    0 -0.48372330037E+02 -0.11062664652E+03  0.15344042937E+04  0.15442149053E+04  0.12500000000E+03 0.  0.
         25    1    1    2    0    0  0.15340230708E+03  0.98606166047E+02  0.57231477704E+03  0.61353455308E+03  0.12500000000E+03 0.  0.
</event>
<event>
 5    0  0.5619558E-005  0.5122450E+03  0.7546771E-02  0.1010631E+00
         21   -1    0    0  502  501  0.00000000000E+00  0.00000000000E+00  0.20266820561E+03  0.20266820561E+03  0.00000000000E+00 0.  1.
         21   -1    0    0  501  502 -0.00000000000E+00 -0.00000000000E+00 -0.12947021086E+04  0.12947021086E+04  0.00000000000E+00 0.  1.
         25    1    1    2    0    0  0.83142123173E+02  0.10714411645E+03 -0.25662055808E+03  0.31602465911E+03  0.12500000000E+03 0.  0.
         25    1    1    2    0    0 -0.25223078666E+03 -0.19981389435E+03 -0.88176038301E+03  0.94692784053E+03  0.12500000000E+03 0.  0.
         25    1    1    2    0    0  0.16908866349E+03  0.92669777904E+02  0.46347038094E+02  0.23441781459E+03  0.12500000000E+03 0.  0.
</event>
<event>
 5    0  0.5619558E-005  0.4215860E+03  0.7546771E-02  0.1036551E+00
         21   -1    0    0  502  501  0.00000000000E+00  0.00000000000E+00  0.82869537759E+02  0.82869537759E+02  0.00000000000E+00 0. -1.
         21   -1    0    0  501  502 -0.00000000000E+00 -0.00000000000E+00 -0.21447534852E+04  0.21447534852E+04  0.00000000000E+00 0.  1.
         25    1    1    2    0    0  0.17434009168E+03 -0.27805577798E+03 -0.12833356526E+04  0.13305205299E+04  0.12500000000E+03 0.  0.
         25    1    1    2    0    0 -0.14601120246E+03  0.12004968757E+03 -0.29119314482E+03  0.36898461529E+03  0.12500000000E+03 0.  0.
         25    1    1    2    0    0 -0.28328889225E+02  0.15800609041E+03 -0.48735514999E+03  0.52811787775E+03  0.12500000000E+03 0.  0.
</event>
<event>
 5    0  0.5619558E-005  0.2640220E+03  0.7546771E-02  0.1104751E+00
         21   -1    0    0  502  501  0.00000000000E+00  0.00000000000E+00  0.38248110172E+03  0.38248110172E+03  0.00000000000E+00 0. -1.
         21   -1    0    0  501  502 -0.00000000000E+00 -0.00000000000E+00 -0.18225108943E+03  0.18225108943E+03  0.00000000000E+00 0. -1.
         25    1    1    2    0    0 -0.57738978119E+02 -0.10768264057E+03  0.62458563262E+02  0.18562169270E+03  0.12500000000E+03 0.  0.
         25    1    1    2    0    0  0.89734385068E+02  0.39037571892E+02 -0.24606296769E+02  0.16064451974E+03  0.12500000000E+03 0.  0.
         25    1    1    2    0    0 -0.31995406948E+02  0.68645068681E+02  0.16237774580E+03  0.21846597870E+03  0.12500000000E+03 0.  0.
</event>
<event>
 5    0  0.5619558E-005  0.3274766E+03  0.7546771E-02  0.1072259E+00
         21   -1    0    0  502  501  0.00000000000E+00  0.00000000000E+00  0.40414905427E+03  0.40414905427E+03  0.00000000000E+00 0. -1.
         21   -1    0    0  501  502 -0.00000000000E+00 -0.00000000000E+00 -0.26534986021E+03  0.26534986021E+03  0.00000000000E+00 0. -1.
         25    1    1    2    0    0 -0.70549798313E+02  0.90784860348E+02  0.26376266492E+03  0.31371150492E+03  0.12500000000E+03 0.  0.
         25    1    1    2    0    0  0.49868446645E+01 -0.12146031192E+03 -0.11922592009E+03  0.21122806635E+03  0.12500000000E+03 0.  0.
         25    1    1    2    0    0  0.65562953648E+02  0.30675451576E+02 -0.57375507639E+01  0.14455934321E+03  0.12500000000E+03 0.  0.
</event>
<event>
 5    0  0.5619558E-005  0.3477155E+03  0.7546771E-02  0.1063557E+00
         21   -1    0    0  502  501  0.00000000000E+00  0.00000000000E+00  0.21848448312E+04  0.21848448312E+04  0.00000000000E+00 0.  1.
         21   -1    0    0  501  502 -0.00000000000E+00 -0.00000000000E+00 -0.55338511607E+02  0.55338511607E+02  0.00000000000E+00 0.  1.
         25    1    1    2    0    0 -0.16529996350E+03  0.11838524434E+03  0.15892723717E+04  0.16070939038E+04  0.12500000000E+03 0.  0.
         25    1    1    2    0    0  0.58562797199E+02 -0.36488701609E+02  0.28364279966E+03  0.31755198686E+03  0.12500000000E+03 0.  0.
         25    1    1    2    0    0  0.10673716630E+03 -0.81896542730E+02  0.25659114815E+03  0.31553745212E+03  0.12500000000E+03 0.  0.
</event>
<event>
 5    0  0.5619558E-005  0.2995272E+03  0.7546771E-02  0.1085477E+00
         21   -1    0    0  502  501  0.00000000000E+00  0.00000000000E+00  0.15476484857E+03  0.15476484857E+03  0.00000000000E+00 0. -1.
         21   -1    0    0  501  502 -0.00000000000E+00 -0.00000000000E+00 -0.57969598456E+03  0.57969598456E+03  0.00000000000E+00 0. -1.
         25    1    1    2    0    0 -0.19559578175E+02  0.50308798607E+01 -0.37141502482E+03  0.39240541219E+03  0.12500000000E+03 0.  0.
         25    1    1    2    0    0 -0.73201528865E+02  0.64934771533E+02 -0.63799731190E+02  0.17108592602E+03  0.12500000000E+03 0.  0.
         25    1    1    2    0    0  0.92761107040E+02 -0.69965651394E+02  0.10283620019E+02  0.17096949492E+03  0.12500000000E+03 0.  0.
</event>
<event>
 5    0  0.5619558E-005  0.2589712E+03  0.7546771E-02  0.1107763E+00
         21   -1    0    0  502  501  0.00000000000E+00  0.00000000000E+00  0.67560341607E+03  0.67560341607E+03  0.00000000000E+00 0. -1.
         21   -1    0    0  501  502 -0.00000000000E+00 -0.00000000000E+00 -0.99268397253E+02  0.99268397253E+02  0.00000000000E+00 0. -1.
         25    1    1    2    0    0 -0.14022995018E+03  0.66798572703E+02  0.27088666714E+03  0.33634963160E+03  0.12500000000E+03 0.  0.
         25    1    1    2    0    0  0.10221134872E+03 -0.49775778312E+02  0.10593721190E+03  0.19943039081E+03  0.12500000000E+03 0.  0.
         25    1    1    2    0    0  0.38018601459E+02 -0.17022794391E+02  0.19951113979E+03  0.23909179092E+03  0.12500000000E+03 0.  0.
</event>
<event>
 5    0  0.5619558E-005  0.4001194E+03  0.7546771E-02  0.1043738E+00
         21   -1    0    0  502  501  0.00000000000E+00  0.00000000000E+00  0.43465707058E+03  0.43465707058E+03  0.00000000000E+00 0. -1.
         21   -1    0    0  501  502 -0.00000000000E+00 -0.00000000000E+00 -0.36832606378E+03  0.36832606378E+03  0.00000000000E+00 0. -1.
         25    1    1    2    0    0  0.15280404111E+02  0.10208880107E+03 -0.24412216724E+03  0.29304649220E+03  0.12500000000E+03 0.  0.
         25    1    1    2    0    0 -0.12743677708E+03 -0.14627890784E+03  0.17159371612E+03  0.28758834198E+03  0.12500000000E+03 0.  0.
         25    1    1    2    0    0  0.11215637297E+03  0.44190106778E+02  0.13885945793E+03  0.22234830018E+03  0.12500000000E+03 0.  0.
</event>
<event>
 5    0  0.5619558E-005  0.2371729E+03  0.7546771E-02  0.1121691E+00
         21   -1    0    0  502  501  0.00000000000E+00  0.00000000000E+00  0.22543053865E+03  0.22543053865E+03  0.00000000000E+00 0.  1.
         21   -1    0    0  501  502 -0.00000000000E+00 -0.00000000000E+00 -0.24952698097E+03  0.24952698097E+03  0.00000000000E+00 0.  1.
         25    1    1    2    0    0 -0.34566303623E+02  0.25371376323E+02  0.84582756154E+02  0.15690053767E+03  0.12500000000E+03 0.  0.
         25    1    1    2    0    0 -0.31395150754E+02  0.48320695753E+02 -0.68153884578E+02  0.15359198258E+03  0.12500000000E+03 0.  0.
         25    1    1    2    0    0  0.65961454377E+02 -0.73692072075E+02 -0.40525313900E+02  0.16446499937E+03  0.12500000000E+03 0.  0.
</event>
<event>
 5    0  0.5619558E-005  0.2981171E+03  0.7546771E-02  0.1086186E+00
         21   -1    0    0  502  501  0.00000000000E+00  0.00000000000E+00  0.16741541797E+03  0.16741541797E+03  0.00000000000E+00 0.  1.
         21   -1    0    0  501  502 -0.00000000000E+00 -0.00000000000E+00 -0.53085798438E+03  0.53085798438E+03  0.00000000000E+00 0.  1.
         25    1    1    2    0    0  0.12630535916E+02  0.17734023023E+03 -0.29752659711E+02  0.21936113707E+03  0.12500000000E+03 0.  0.
         25    1    1    2    0    0  0.11339240773E+02 -0.15759234504E+03 -0.13639021707E+03  0.24329245140E+03  0.12500000000E+03 0.  0.
         25    1    1    2    0    0 -0.23969776688E+02 -0.19747885189E+02 -0.19729968963E+03  0.23561981388E+03  0.12500000000E+03 0.  0.
</event>
<event>
 5    0  0.5619558E-005  0.4866320E+03  0.7546771E-02  0.1017328E+00
         21   -1    0    0  502  501  0.00000000000E+00  0.00000000000E+00  0.91859615512E+03  0.91859615512E+03  0.00000000000E+00 0. -1.
         21   -1    0    0  501  502 -0.00000000000E+00 -0.00000000000E+00 -0.25779626938E+03  0.25779626938E+03  0.00000000000E+00 0. -1.
         25    1    1    2    0    0 -0.78938615130E+02  0.85841859669E+02  0.12106051532E+03  0.20947739305E+03  0.12500000000E+03 0.  0.
         25    1    1    2    0    0 -0.22051563850E+03  0.23301864195E+03  0.27416996943E+03  0.44013521383E+03  0.12500000000E+03 0.  0.
         25    1    1    2    0    0  0.29945425363E+03 -0.31886050162E+03  0.26556940099E+03  0.52677981762E+03  0.12500000000E+03 0.  0.
</event>
<event>
 5    0  0.8871995E-005  0.6637225E+03  0.7546771E-02  0.9781365E-01
         21   -1    0    0  502  501  0.00000000000E+00  0.00000000000E+00  0.33254673330E+03  0.33254673330E+03  0.00000000000E+00 0. -1.
         21   -1    0    0  501  502 -0.00000000000E+00 -0.00000000000E+00 -0.13247086372E+04  0.13247086372E+04  0.00000000000E+00 0. -1.
         25    1    1    2    0    0  0.39369809634E+03  0.23822757700E+03 -0.35972376310E+03  0.59730792330E+03  0.12500000000E+03 0.  0.
         25    1    1    2    0    0 -0.77482098449E+02 -0.42568390144E+03 -0.25070363391E+03  0.51544890298E+03  0.12500000000E+03 0.  0.
         25    1    1    2    0    0 -0.31621599789E+03  0.18745632444E+03 -0.38173450688E+03  0.54449854420E+03  0.12500000000E+03 0.  0.
</event>
<event>
 5    0  0.5619558E-005  0.3590683E+03  0.7546771E-02  0.1058953E+00
         21   -1    0    0  502  501  0.00000000000E+00  0.00000000000E+00  0.13376109266E+04  0.13376109266E+04  0.00000000000E+00 0.  1.
         21   -1    0    0  501  502 -0.00000000000E+00 -0.00000000000E+00 -0.96388311692E+02  0.96388311692E+02  0.00000000000E+00 0.  1.
         25    1    1    2    0    0 -0.80221029698E+02 -0.60766594656E+02  0.10830451232E+04  0.10948697327E+04  0.12500000000E+03 0.  0.
         25    1    1    2    0    0  0.37191843926E+02 -0.15858115548E+02  0.19563912172E+02  0.13282492139E+03  0.12500000000E+03 0.  0.
         25    1    1    2    0    0  0.43029185773E+02  0.76624710205E+02  0.13861357953E+03  0.20630458423E+03  0.12500000000E+03 0.  0.
</event>
<event>
 5    0  0.5619558E-005  0.3131642E+03  0.7546771E-02  0.1078839E+00
         21   -1    0    0  502  501  0.00000000000E+00  0.00000000000E+00  0.89455663539E+02  0.89455663539E+02  0.00000000000E+00 0.  1.
         21   -1    0    0  501  502 -0.00000000000E+00 -0.00000000000E+00 -0.10963174962E+04  0.10963174962E+04  0.00000000000E+00 0.  1.
         25    1    1    2    0    0 -0.12580953920E+03 -0.13792772815E+03 -0.29040261970E+03  0.36716587515E+03  0.12500000000E+03 0.  0.
         25    1    1    2    0    0  0.17121887126E+03  0.15590968716E+02 -0.33914244954E+03  0.40025189727E+03  0.12500000000E+03 0.  0.
         25    1    1    2    0    0 -0.45409332057E+02  0.12233675944E+03 -0.37731676347E+03  0.41835538737E+03  0.12500000000E+03 0.  0.
</event>
<event>
 5    0  0.5619558E-005  0.4475671E+03  0.7546771E-02  0.1028450E+00
         21   -1    0    0  502  501  0.00000000000E+00  0.00000000000E+00  0.29447439402E+03  0.29447439402E+03  0.00000000000E+00 0.  1.
         21   -1    0    0  501  502 -0.00000000000E+00 -0.00000000000E+00 -0.68025044719E+03  0.68025044719E+03  0.00000000000E+00 0.  1.
         25    1    1    2    0    0 -0.11567611185E+03 -0.25349123661E+03 -0.13349975193E+03  0.33329559502E+03  0.12500000000E+03 0.  0.
         25    1    1    2    0    0 -0.12125420618E+01 -0.11405993703E+03 -0.10890233663E+02  0.16957221672E+03  0.12500000000E+03 0.  0.
         25    1    1    2    0    0  0.11688865391E+03  0.36755117364E+03 -0.24138606757E+03  0.47185702948E+03  0.12500000000E+03 0.  0.
</event>
<event>
 5    0  0.5619558E-005  0.3541947E+03  0.7546771E-02  0.1060906E+00
         21   -1    0    0  502  501  0.00000000000E+00  0.00000000000E+00  0.45662727917E+03  0.45662727917E+03  0.00000000000E+00 0.  1.
         21   -1    0    0  501  502 -0.00000000000E+00 -0.00000000000E+00 -0.27474028528E+03  0.27474028528E+03  0.00000000000E+00 0.  1.
         25    1    1    2    0    0 -0.99599548236E+02 -0.21345728491E+02 -0.13126905980E+02  0.16178079551E+03  0.12500000000E+03 0.  0.
         25    1    1    2    0    0 -0.14115390719E+03  0.45818453189E+02  0.22321483149E+03  0.29575939066E+03  0.12500000000E+03 0.  0.
         25    1    1    2    0    0  0.24075345543E+03 -0.24472724698E+02 -0.28200931622E+02  0.27382737829E+03  0.12500000000E+03 0.  0.
</event>
<event>
 5    0  0.5619558E-005  0.6847437E+03  0.7546771E-02  0.9743684E-01
         21   -1    0    0  502  501  0.00000000000E+00  0.00000000000E+00  0.10087954758E+04  0.10087954758E+04  0.00000000000E+00 0. -1.
         21   -1    0    0  501  502 -0.00000000000E+00 -0.00000000000E+00 -0.46478596301E+03  0.46478596301E+03  0.00000000000E+00 0. -1.
         25    1    1    2    0    0 -0.28684909686E+03  0.17904911908E+03  0.22448474374E+03  0.42468740455E+03  0.12500000000E+03 0.  0.
         25    1    1    2    0    0 -0.60689329251E+02  0.11623157670E+03  0.50839575503E+03  0.53970752990E+03  0.12500000000E+03 0.  0.
         25    1    1    2    0    0  0.34753842611E+03 -0.29528069578E+03 -0.18887098595E+03  0.50918650439E+03  0.12500000000E+03 0.  0.
</event>
<event>
 5    0  0.5619558E-005  0.2427875E+03  0.7546771E-02  0.1117950E+00
         21   -1    0    0  502  501  0.00000000000E+00  0.00000000000E+00  0.14816090842E+03  0.14816090842E+03  0.00000000000E+00 0.  1.
         21   -1    0    0  501  502 -0.00000000000E+00 -0.00000000000E+00 -0.39784960836E+03  0.39784960836E+03  0.00000000000E+00 0.  1.
         25    1    1    2    0    0  0.19270099031E+02  0.10849815008E+02 -0.50441270849E+02  0.13659566980E+03  0.12500000000E+03 0.  0.
         25    1    1    2    0    0 -0.33601405687E+02 -0.43960298936E+02 -0.23730367894E+03  0.27386054551E+03  0.12500000000E+03 0.  0.
         25    1    1    2    0    0  0.14331306656E+02  0.33110483928E+02  0.38056249844E+02  0.13555430148E+03  0.12500000000E+03 0.  0.
</event>
<event>
 5    0  0.5619558E-005  0.3626529E+03  0.7546771E-02  0.1057538E+00
         21   -1    0    0  502  501  0.00000000000E+00  0.00000000000E+00  0.62582504912E+02  0.62582504912E+02  0.00000000000E+00 0.  1.
         21   -1    0    0  501  502 -0.00000000000E+00 -0.00000000000E+00 -0.21014999532E+04  0.21014999532E+04  0.00000000000E+00 0.  1.
         25    1    1    2    0    0  0.32791860647E+02 -0.83059103184E+02 -0.99794984377E+03  0.10097044179E+04  0.12500000000E+03 0.  0.
         25    1    1    2    0    0 -0.11298391160E+03 -0.13935148568E+03 -0.34121746321E+03  0.40526356615E+03  0.12500000000E+03 0.  0.
         25    1    1    2    0    0  0.80192050956E+02  0.22241058887E+03 -0.69975014131E+03  0.74911447413E+03  0.12500000000E+03 0.  0.
</event>
<event>
 5    0  0.5823840E-005  0.3128444E+03  0.7546771E-02  0.1078990E+00
         21   -1    0    0  502  501  0.00000000000E+00  0.00000000000E+00  0.50542886052E+03  0.50542886052E+03  0.00000000000E+00 0.  1.
         21   -1    0    0  501  502 -0.00000000000E+00 -0.00000000000E+00 -0.19364068053E+03  0.19364068053E+03  0.00000000000E+00 0.  1.
         25    1    1    2    0    0 -0.81695535308E+02  0.11487222597E+03  0.18795835625E+03  0.26612615894E+03  0.12500000000E+03 0.  0.
         25    1    1    2    0    0  0.10344172509E+03 -0.18474924140E+03  0.55583648665E+01  0.24594383121E+03  0.12500000000E+03 0.  0.
         25    1    1    2    0    0 -0.21746189787E+02  0.69877015429E+02  0.11827145887E+03  0.18699955091E+03  0.12500000000E+03 0.  0.
</event>
<event>
 5    0  0.5619558E-005  0.3054687E+03  0.7546771E-02  0.1082538E+00
         21   -1    0    0  502  501  0.00000000000E+00  0.00000000000E+00  0.14980121914E+04  0.14980121914E+04  0.00000000000E+00 0.  1.
         21   -1    0    0  501  502 -0.00000000000E+00 -0.00000000000E+00 -0.62289945738E+02  0.62289945738E+02  0.00000000000E+00 0.  1.
         25    1    1    2    0    0 -0.63659688566E+01  0.23540519750E+02  0.98403854204E+02  0.16094409014E+03  0.12500000000E+03 0.  0.
         25    1    1    2    0    0  0.13921061194E+03  0.65547237182E+02  0.50200402006E+03  0.53973055401E+03  0.12500000000E+03 0.  0.
         25    1    1    2    0    0 -0.13284464308E+03 -0.89087756931E+02  0.83531437143E+03  0.85962749301E+03  0.12500000000E+03 0.  0.
</event>
<event>
 5    0  0.5619558E-005  0.3305115E+03  0.7546771E-02  0.1070911E+00
         21   -1    0    0  502  501  0.00000000000E+00  0.00000000000E+00  0.50014512329E+02  0.50014512329E+02  0.00000000000E+00 0.  1.
         21   -1    0    0  501  502 -0.00000000000E+00 -0.00000000000E+00 -0.21841232783E+04  0.21841232783E+04  0.00000000000E+00 0.  1.
         25    1    1    2    0    0 -0.17125492323E+03  0.55044613659E+02 -0.13922066359E+04  0.14093340538E+04  0.12500000000E+03 0.  0.
         25    1    1    2    0    0  0.16200798654E+02  0.45778832642E+02 -0.33194631069E+03  0.35801050344E+03  0.12500000000E+03 0.  0.
         25    1    1    2    0    0  0.15505412457E+03 -0.10082344630E+03 -0.40995581941E+03  0.46679323339E+03  0.12500000000E+03 0.  0.
</event>
<event>
 5    0  0.5619558E-005  0.2672972E+03  0.7546771E-02  0.1102837E+00
         21   -1    0    0  502  501  0.00000000000E+00  0.00000000000E+00  0.75559461853E+02  0.75559461853E+02  0.00000000000E+00 0. -1.
         21   -1    0    0  501  502 -0.00000000000E+00 -0.00000000000E+00 -0.94558333426E+03  0.94558333426E+03  0.00000000000E+00 0. -1.
         25    1    1    2    0    0 -0.77165985181E+02  0.37272886780E+02 -0.91159155009E+02  0.17685827348E+03  0.12500000000E+03 0.  0.
         25    1    1    2    0    0  0.80787113224E+02  0.46862982832E+02 -0.25301905334E+03  0.29726476108E+03  0.12500000000E+03 0.  0.
         25    1    1    2    0    0 -0.36211280424E+01 -0.84135869612E+02 -0.52584566406E+03  0.54701976156E+03  0.12500000000E+03 0.  0.
</event>
<event>
 5    0  0.5619558E-005  0.2488664E+03  0.7546771E-02  0.1114023E+00
         21   -1    0    0  502  501  0.00000000000E+00  0.00000000000E+00  0.23893706826E+03  0.23893706826E+03  0.00000000000E+00 0. -1.
         21   -1    0    0  501  502 -0.00000000000E+00 -0.00000000000E+00 -0.25920828198E+03  0.25920828198E+03  0.00000000000E+00 0. -1.
         25    1    1    2    0    0  0.29059579757E+02  0.80476144193E+01 -0.21023546339E+02  0.13029279632E+03  0.12500000000E+03 0.  0.
         25    1    1    2    0    0 -0.63826746401E+02  0.78773930022E+02 -0.92867350829E+02  0.18581854175E+03  0.12500000000E+03 0.  0.
         25    1    1    2    0    0  0.34767166644E+02 -0.86821544441E+02  0.93619683453E+02  0.18203401217E+03  0.12500000000E+03 0.  0.
</event>
<event>
 5    0  0.5619558E-005  0.3649451E+03  0.7546771E-02  0.1056643E+00
         21   -1    0    0  502  501  0.00000000000E+00  0.00000000000E+00  0.40048629604E+03  0.40048629604E+03  0.00000000000E+00 0.  1.
         21   -1    0    0  501  502 -0.00000000000E+00 -0.00000000000E+00 -0.33255801084E+03  0.33255801084E+03  0.00000000000E+00 0.  1.
         25    1    1    2    0    0 -0.98752427002E+02 -0.13929921758E+02 -0.98939548149E+02  0.18804286412E+03  0.12500000000E+03 0.  0.
         25    1    1    2    0    0  0.22269503327E+03  0.12847612896E+03  0.15830008488E+02  0.28631238661E+03  0.12500000000E+03 0.  0.
         25    1    1    2    0    0 -0.12394260627E+03 -0.11454620721E+03  0.15103782486E+03  0.25868905615E+03  0.12500000000E+03 0.  0.
</event>
<event>
 5    0  0.5619558E-005  0.2315737E+03  0.7546771E-02  0.1125537E+00
         21   -1    0    0  502  501  0.00000000000E+00  0.00000000000E+00  0.15905758441E+03  0.15905758441E+03  0.00000000000E+00 0. -1.
         21   -1    0    0  501  502 -0.00000000000E+00 -0.00000000000E+00 -0.33715078279E+03  0.33715078279E+03  0.00000000000E+00 0. -1.
         25    1    1    2    0    0  0.41302027458E+02 -0.37128632796E+02 -0.22947046818E+02  0.13869376267E+03  0.12500000000E+03 0.  0.
         25    1    1    2    0    0 -0.98410543919E+01 -0.35291964632E+02  0.16127287350E+02  0.13125341335E+03  0.12500000000E+03 0.  0.
         25    1    1    2    0    0 -0.31460973066E+02  0.72420597428E+02 -0.17127343891E+03  0.22626119118E+03  0.12500000000E+03 0.  0.
</event>
<event>
 5    0  0.5619558E-005  0.2999615E+03  0.7546771E-02  0.1085260E+00
         21   -1    0    0  502  501  0.00000000000E+00  0.00000000000E+00  0.97982659471E+02  0.97982659471E+02  0.00000000000E+00 0. -1.
         21   -1    0    0  501  502 -0.00000000000E+00 -0.00000000000E+00 -0.91829409476E+03  0.91829409476E+03  0.00000000000E+00 0. -1.
         25    1    1    2    0    0  0.10956013696E+03  0.60163498014E+02 -0.66449286700E+03  0.68760369429E+03  0.12500000000E+03 0.  0.
         25    1    1    2    0    0 -0.55988457249E+02 -0.64238058578E+02 -0.62475711621E+02  0.16367483025E+03  0.12500000000E+03 0.  0.
         25    1    1    2    0    0 -0.53571679708E+02  0.40745605644E+01 -0.93342856664E+02  0.16499822969E+03  0.12500000000E+03 0.  0.
</event>
<event>
 5    0  0.5619558E-005  0.4664135E+03  0.7546771E-02  0.1022937E+00
         21   -1    0    0  502  501  0.00000000000E+00  0.00000000000E+00  0.10382185967E+03  0.10382185967E+03  0.00000000000E+00 0. -1.
         21   -1    0    0  501  502 -0.00000000000E+00 -0.00000000000E+00 -0.20953345697E+04  0.20953345697E+04  0.00000000000E+00 0. -1.
         25    1    1    2    0    0 -0.83170328380E+02  0.11365253928E+03 -0.25162669318E+03  0.31428521430E+03  0.12500000000E+03 0.  0.
         25    1    1    2    0    0 -0.10022723300E+03 -0.18909463617E+03 -0.17713790772E+03  0.30463932447E+03  0.12500000000E+03 0.  0.
         25    1    1    2    0    0  0.18339756138E+03  0.75442096882E+02 -0.15627481091E+04  0.15802318906E+04  0.12500000000E+03 0.  0.
</event>
<event>
 5    0  0.5619558E-005  0.2293121E+03  0.7546771E-02  0.1127125E+00
         21   -1    0    0  502  501  0.00000000000E+00  0.00000000000E+00  0.44645328963E+03  0.44645328963E+03  0.00000000000E+00 0.  1.
         21   -1    0    0  501  502 -0.00000000000E+00 -0.00000000000E+00 -0.11778168961E+03  0.11778168961E+03  0.00000000000E+00 0.  1.
         25    1    1    2    0    0 -0.33952520825E+02 -0.36475352022E+02  0.50083774371E+02  0.14358485098E+03  0.12500000000E+03 0.  0.
         25    1    1    2    0    0 -0.51129927946E+02  0.39902095181E+02  0.21402437112E+03  0.25619890352E+03  0.12500000000E+03 0.  0.
         25    1    1    2    0    0  0.85082448771E+02 -0.34267431588E+01  0.64563454529E+02  0.16445122474E+03  0.12500000000E+03 0.  0.
</event>
<event>
 5    0  0.5619558E-005  0.3469267E+03  0.7546771E-02  0.1063884E+00
         21   -1    0    0  502  501  0.00000000000E+00  0.00000000000E+00  0.10393595902E+03  0.10393595902E+03  0.00000000000E+00 0.  1.
         21   -1    0    0  501  502 -0.00000000000E+00 -0.00000000000E+00 -0.11580031400E+04  0.11580031400E+04  0.00000000000E+00 0.  1.
         25    1    1    2    0    0 -0.40693284309E+02  0.77201913914E+02 -0.16970673911E+02  0.15339192506E+03  0.12500000000E+03 0.  0.
         25    1    1    2    0    0  0.30120565082E+01 -0.17546989719E+03 -0.72391687889E+03  0.75530087041E+03  0.12500000000E+03 0.  0.
         25    1    1    2    0    0  0.37681227800E+02  0.98267983277E+02 -0.31317962820E+03  0.35324630357E+03  0.12500000000E+03 0.  0.
</event>
<event>
 5    0  0.5619558E-005  0.6115327E+03  0.7546771E-02  0.9881764E-01
         21   -1    0    0  502  501  0.00000000000E+00  0.00000000000E+00  0.64601409745E+03  0.64601409745E+03  0.00000000000E+00 0. -1.
         21   -1    0    0  501  502 -0.00000000000E+00 -0.00000000000E+00 -0.57889174702E+03  0.57889174702E+03  0.00000000000E+00 0. -1.
         25    1    1    2    0    0 -0.18644757779E+03  0.45853627806E+03  0.23539876096E+03  0.56218839744E+03  0.12500000000E+03 0.  0.
         25    1    1    2    0    0  0.20430969813E+02 -0.19831450061E+03  0.78686481412E+02  0.24811817353E+03  0.12500000000E+03 0.  0.
         25    1    1    2    0    0  0.16601660797E+03 -0.26022177745E+03 -0.24696289194E+03  0.41459927349E+03  0.12500000000E+03 0.  0.
</event>
<event>
 5    0  0.5619558E-005  0.3139651E+03  0.7546771E-02  0.1078461E+00
         21   -1    0    0  502  501  0.00000000000E+00  0.00000000000E+00  0.27008179349E+03  0.27008179349E+03  0.00000000000E+00 0.  1.
         21   -1    0    0  501  502 -0.00000000000E+00 -0.00000000000E+00 -0.36497852077E+03  0.36497852077E+03  0.00000000000E+00 0.  1.
         25    1    1    2    0    0 -0.20078962414E+02 -0.16519965056E+02 -0.12120607952E+03  0.17604541371E+03  0.12500000000E+03 0.  0.
         25    1    1    2    0    0  0.10797962356E+03 -0.88517217267E+02  0.14664607541E+03  0.23796001405E+03  0.12500000000E+03 0.  0.
         25    1    1    2    0    0 -0.87900661143E+02  0.10503718232E+03 -0.12033672316E+03  0.22105488649E+03  0.12500000000E+03 0.  0.
</event>
<event>
 5    0  0.5619558E-005  0.3336375E+03  0.7546771E-02  0.1069539E+00
         21   -1    0    0  502  501  0.00000000000E+00  0.00000000000E+00  0.60833793819E+03  0.60833793819E+03  0.00000000000E+00 0. -1.
         21   -1    0    0  501  502 -0.00000000000E+00 -0.00000000000E+00 -0.18298052649E+03  0.18298052649E+03  0.00000000000E+00 0. -1.
         25    1    1    2    0    0  0.39670849718E+02  0.11236090099E+03  0.85776456920E+02  0.19282465856E+03  0.12500000000E+03 0.  0.
         25    1    1    2    0    0  0.10812873697E+03 -0.51079971864E+02 -0.31179144320E+02  0.17577862875E+03  0.12500000000E+03 0.  0.
         25    1    1    2    0    0 -0.14779958669E+03 -0.61280929122E+02  0.37076009910E+03  0.42271517737E+03  0.12500000000E+03 0.  0.
</event>
<event>
 5    0  0.5619558E-005  0.4909745E+03  0.7546771E-02  0.1016162E+00
         21   -1    0    0  502  501  0.00000000000E+00  0.00000000000E+00  0.10869984433E+04  0.10869984433E+04  0.00000000000E+00 0.  1.
         21   -1    0    0  501  502 -0.00000000000E+00 -0.00000000000E+00 -0.22176296643E+03  0.22176296643E+03  0.00000000000E+00 0.  1.
         25    1    1    2    0    0 -0.32971647903E+03 -0.27875184212E+02  0.73707971904E+03  0.81755825154E+03  0.12500000000E+03 0.  0.
         25    1    1    2    0    0  0.20747653179E+03  0.11441822700E+03  0.21198732020E+02  0.26872370225E+03  0.12500000000E+03 0.  0.
         25    1    1    2    0    0  0.12223994724E+03 -0.86543042788E+02  0.10695702584E+03  0.22247945598E+03  0.12500000000E+03 0.  0.
</event>
<event>
 5    0  0.5619558E-005  0.2556598E+03  0.7546771E-02  0.1109779E+00
         21   -1    0    0  502  501  0.00000000000E+00  0.00000000000E+00  0.49954230901E+02  0.49954230901E+02  0.00000000000E+00 0. -1.
         21   -1    0    0  501  502 -0.00000000000E+00 -0.00000000000E+00 -0.13084363353E+04  0.13084363353E+04  0.00000000000E+00 0. -1.
         25    1    1    2    0    0 -0.11958043283E+03 -0.75178092777E+02 -0.32462283243E+03  0.37544135212E+03  0.12500000000E+03 0.  0.
         25    1    1    2    0    0  0.10476837879E+03  0.35452482958E+02 -0.62845957313E+03  0.65024589718E+03  0.12500000000E+03 0.  0.
         25    1    1    2    0    0  0.14812054040E+02  0.39725609819E+02 -0.30539969879E+03  0.33270331685E+03  0.12500000000E+03 0.  0.
</event>
<event>
 5    0  0.5619558E-005  0.3636865E+03  0.7546771E-02  0.1057134E+00
         21   -1    0    0  502  501  0.00000000000E+00  0.00000000000E+00  0.15560150370E+04  0.15560150370E+04  0.00000000000E+00 0. -1.
         21   -1    0    0  501  502 -0.00000000000E+00 -0.00000000000E+00 -0.85004237214E+02  0.85004237214E+02  0.00000000000E+00 0. -1.
         25    1    1    2    0    0 -0.21239659814E+03  0.83126870526E+01  0.78642692511E+03  0.82418063809E+03  0.12500000000E+03 0.  0.
         25    1    1    2    0    0  0.15711999330E+03 -0.14329964818E+03  0.31280551803E+03  0.39836387082E+03  0.12500000000E+03 0.  0.
         25    1    1    2    0    0  0.55276604844E+02  0.13498696113E+03  0.37177835660E+03  0.41847476526E+03  0.12500000000E+03 0.  0.
</event>
<event>
 5    0  0.5619558E-005  0.2529842E+03  0.7546771E-02  0.1111433E+00
         21   -1    0    0  502  501  0.00000000000E+00  0.00000000000E+00  0.15937085724E+04  0.15937085724E+04  0.00000000000E+00 0. -1.
         21   -1    0    0  501  502 -0.00000000000E+00 -0.00000000000E+00 -0.40158552108E+02  0.40158552108E+02  0.00000000000E+00 0. -1.
         25    1    1    2    0    0  0.60926409337E+02  0.10090690590E+03  0.47166476204E+03  0.50198294669E+03  0.12500000000E+03 0.  0.
         25    1    1    2    0    0 -0.17186060820E+02  0.41627908969E+02  0.34364576827E+03  0.36843677550E+03  0.12500000000E+03 0.  0.
         25    1    1    2    0    0 -0.43740348517E+02 -0.14253481487E+03  0.73823948995E+03  0.76344740229E+03  0.12500000000E+03 0.  0.
</event>
<event>
 5    0  0.5619558E-005  0.2219130E+03  0.7546771E-02  0.1132465E+00
         21   -1    0    0  502  501  0.00000000000E+00  0.00000000000E+00  0.33331282033E+03  0.33331282033E+03  0.00000000000E+00 0.  1.
         21   -1    0    0  501  502 -0.00000000000E+00 -0.00000000000E+00 -0.14774516434E+03  0.14774516434E+03  0.00000000000E+00 0.  1.
         25    1    1    2    0    0  0.17400800813E+02 -0.95880782271E+02  0.43553614346E+02  0.16437101204E+03  0.12500000000E+03 0.  0.
         25    1    1    2    0    0 -0.30900258186E+01  0.36267329637E+02  0.20308866248E+02  0.13176614704E+03  0.12500000000E+03 0.  0.
         25    1    1    2    0    0 -0.14310774994E+02  0.59613452634E+02  0.12170517539E+03  0.18492082558E+03  0.12500000000E+03 0.  0.
</event>
<event>
 5    0  0.5619558E-005  0.3829627E+03  0.7546771E-02  0.1049844E+00
         21   -1    0    0  502  501  0.00000000000E+00  0.00000000000E+00  0.34975866429E+03  0.34975866429E+03  0.00000000000E+00 0.  1.
         21   -1    0    0  501  502 -0.00000000000E+00 -0.00000000000E+00 -0.41931896858E+03  0.41931896858E+03  0.00000000000E+00 0.  1.
         25    1    1    2    0    0  0.48816325656E+02  0.86476952049E+02 -0.84039909401E+02  0.18041342317E+03  0.12500000000E+03 0.  0.
         25    1    1    2    0    0 -0.19356290489E+03  0.19857825160E+02  0.19693165294E+03  0.30375649342E+03  0.12500000000E+03 0.  0.
         25    1    1    2    0    0  0.14474657923E+03 -0.10633477721E+03 -0.18245204782E+03  0.28490771628E+03  0.12500000000E+03 0.  0.
</event>
<event>
 5    0  0.5619558E-005  0.3516280E+03  0.7546771E-02  0.1061949E+00
         21   -1    0    0  502  501  0.00000000000E+00  0.00000000000E+00  0.18888579235E+03  0.18888579235E+03  0.00000000000E+00 0.  1.
         21   -1    0    0  501  502 -0.00000000000E+00 -0.00000000000E+00 -0.65458732203E+03  0.65458732203E+03  0.00000000000E+00 0.  1.
         25    1    1    2    0    0 -0.14600144867E+03  0.23651099091E+02 -0.37967893629E+03  0.42621226187E+03  0.12500000000E+03 0.  0.
         25    1    1    2    0    0 -0.63114249249E+01  0.63456277491E+02 -0.13674556890E+03  0.19593591772E+03  0.12500000000E+03 0.  0.
         25    1    1    2    0    0  0.15231287360E+03 -0.87107376583E+02  0.50722975517E+02  0.22132493480E+03  0.12500000000E+03 0.  0.
</event>
<event>
 5    0  0.5619558E-005  0.2599592E+03  0.7546771E-02  0.1107168E+00
         21   -1    0    0  502  501  0.00000000000E+00  0.00000000000E+00  0.75876977074E+02  0.75876977074E+02  0.00000000000E+00 0. -1.
         21   -1    0    0  501  502 -0.00000000000E+00 -0.00000000000E+00 -0.89063654281E+03  0.89063654281E+03  0.00000000000E+00 0. -1.
         25    1    1    2    0    0  0.75148796252E+01 -0.65727529867E+02 -0.35092950873E+03  0.37835578719E+03  0.12500000000E+03 0.  0.
         25    1    1    2    0    0  0.55612799765E+02 -0.58666992328E+02 -0.31681684775E+03  0.35004644621E+03  0.12500000000E+03 0.  0.
         25    1    1    2    0    0 -0.63127679391E+02  0.12439452220E+03 -0.14701320925E+03  0.23811128649E+03  0.12500000000E+03 0.  0.
</event>
<event>
 5    0  0.5619558E-005  0.2507344E+03  0.7546771E-02  0.1112842E+00
         21   -1    0    0  502  501  0.00000000000E+00  0.00000000000E+00  0.25880727129E+03  0.25880727129E+03  0.00000000000E+00 0. -1.
         21   -1    0    0  501  502 -0.00000000000E+00 -0.00000000000E+00 -0.24291328151E+03  0.24291328151E+03  0.00000000000E+00 0. -1.
         25    1    1    2    0    0 -0.48382569672E+02  0.68765103343E+01 -0.27821621264E+02  0.13706641475E+03  0.12500000000E+03 0.  0.
         25    1    1    2    0    0  0.52526919494E+02  0.11032785272E+03 -0.31248743015E+02  0.17757476256E+03  0.12500000000E+03 0.  0.
         25    1    1    2    0    0 -0.41443498221E+01 -0.11720436306E+03  0.74964354053E+02  0.18707937549E+03  0.12500000000E+03 0.  0.
</event>
<event>
 5    0  0.5619558E-005  0.3313627E+03  0.7546771E-02  0.1070536E+00
         21   -1    0    0  502  501  0.00000000000E+00  0.00000000000E+00  0.31829096277E+03  0.31829096277E+03  0.00000000000E+00 0. -1.
         21   -1    0    0  501  502 -0.00000000000E+00 -0.00000000000E+00 -0.34497127672E+03  0.34497127672E+03  0.00000000000E+00 0. -1.
         25    1    1    2    0    0 -0.11561419705E+03  0.18742186349E+02 -0.16381876913E+03  0.23702215346E+03  0.12500000000E+03 0.  0.
         25    1    1    2    0    0 -0.37450048489E+02  0.10506583035E+03  0.32560326076E+02  0.17066490463E+03  0.12500000000E+03 0.  0.
         25    1    1    2    0    0  0.15306424554E+03 -0.12380801670E+03  0.10457812911E+03  0.25557518140E+03  0.12500000000E+03 0.  0.
</event>
<event>
 5    0  0.5619558E-005  0.3151094E+03  0.7546771E-02  0.1077922E+00
         21   -1    0    0  502  501  0.00000000000E+00  0.00000000000E+00  0.54006788805E+02  0.54006788805E+02  0.00000000000E+00 0.  1.
         21   -1    0    0  501  502 -0.00000000000E+00 -0.00000000000E+00 -0.18385457248E+04  0.18385457248E+04  0.00000000000E+00 0.  1.
         25    1    1    2    0    0 -0.37824106025E+01 -0.17126113220E+03 -0.40254141035E+03  0.45498271294E+03  0.12500000000E+03 0.  0.
         25    1    1    2    0    0 -0.80707403134E+02  0.16866128326E+03 -0.10354349514E+04  0.10595805075E+04  0.12500000000E+03 0.  0.
         25    1    1    2    0    0  0.84489813737E+02  0.25998489348E+01 -0.34656257423E+03  0.37798929310E+03  0.12500000000E+03 0.  0.
</event>
<event>
 5    0  0.5619558E-005  0.2535647E+03  0.7546771E-02  0.1111073E+00
         21   -1    0    0  502  501  0.00000000000E+00  0.00000000000E+00  0.26905462554E+04  0.26905462554E+04  0.00000000000E+00 0. -1.
         21   -1    0    0  501  502 -0.00000000000E+00 -0.00000000000E+00 -0.23896653472E+02  0.23896653472E+02  0.00000000000E+00 0. -1.
         25    1    1    2    0    0  0.11614000206E+03  0.11380424731E+02  0.72144237400E+03  0.74143247376E+03  0.12500000000E+03 0.  0.
         25    1    1    2    0    0 -0.15235322706E+03 -0.13694753037E+02  0.10546310542E+04  0.10729728387E+04  0.12500000000E+03 0.  0.
         25    1    1    2    0    0  0.36213224996E+02  0.23143283058E+01  0.89057617370E+03  0.90003759640E+03  0.12500000000E+03 0.  0.
</event>
<event>
 5    0  0.5619558E-005  0.3417810E+03  0.7546771E-02  0.1066040E+00
         21   -1    0    0  502  501  0.00000000000E+00  0.00000000000E+00  0.80296138436E+02  0.80296138436E+02  0.00000000000E+00 0. -1.
         21   -1    0    0  501  502 -0.00000000000E+00 -0.00000000000E+00 -0.14547929880E+04  0.14547929880E+04  0.00000000000E+00 0. -1.
         25    1    1    2    0    0  0.19171479127E+01 -0.92196518849E+02 -0.14151673702E+03  0.21013295887E+03  0.12500000000E+03 0.  0.
         25    1    1    2    0    0 -0.19098701788E+03  0.40072969233E+02 -0.42389897655E+03  0.48311202240E+03  0.12500000000E+03 0.  0.
         25    1    1    2    0    0  0.18906986997E+03  0.52123549616E+02 -0.80908113603E+03  0.84184414522E+03  0.12500000000E+03 0.  0.
</event>
<event>
 5    0  0.5619558E-005  0.4020597E+03  0.7546771E-02  0.1043069E+00
         21   -1    0    0  502  501  0.00000000000E+00  0.00000000000E+00  0.37621247006E+03  0.37621247006E+03  0.00000000000E+00 0.  1.
         21   -1    0    0  501  502 -0.00000000000E+00 -0.00000000000E+00 -0.42968274722E+03  0.42968274722E+03  0.00000000000E+00 0.  1.
         25    1    1    2    0    0  0.12784353473E+03 -0.16214940473E+02 -0.12004546928E+01  0.17953644410E+03  0.12500000000E+03 0.  0.
         25    1    1    2    0    0 -0.29796161883E+03  0.14257482983E+03 -0.11682687680E+03  0.37199761765E+03  0.12500000000E+03 0.  0.
         25    1    1    2    0    0  0.17011808410E+03 -0.12635988936E+03  0.64557054334E+02  0.25436115552E+03  0.12500000000E+03 0.  0.
</event>
<event>
 5    0  0.5619558E-005  0.2691760E+03  0.7546771E-02  0.1101752E+00
         21   -1    0    0  502  501  0.00000000000E+00  0.00000000000E+00  0.22538693748E+03  0.22538693748E+03  0.00000000000E+00 0.  1.
         21   -1    0    0  501  502 -0.00000000000E+00 -0.00000000000E+00 -0.32147249394E+03  0.32147249394E+03  0.00000000000E+00 0.  1.
         25    1    1    2    0    0 -0.75419998596E+02  0.52287792408E+02  0.44250341130E+02  0.16126153327E+03  0.12500000000E+03 0.  0.
         25    1    1    2    0    0  0.88780001343E+02  0.26368277119E+01  0.40512629241E+02  0.15860364002E+03  0.12500000000E+03 0.  0.
         25    1    1    2    0    0 -0.13360002747E+02 -0.54924620120E+02 -0.18084852683E+03  0.22699425813E+03  0.12500000000E+03 0.  0.
</event>
<event>
 5    0  0.5619558E-005  0.2608451E+03  0.7546771E-02  0.1106637E+00
         21   -1    0    0  502  501  0.00000000000E+00  0.00000000000E+00  0.46367266095E+03  0.46367266095E+03  0.00000000000E+00 0.  1.
         21   -1    0    0  501  502 -0.00000000000E+00 -0.00000000000E+00 -0.14674185847E+03  0.14674185847E+03  0.00000000000E+00 0.  1.
         25    1    1    2    0    0 -0.34991737134E+01  0.50053436907E+02  0.13876219091E+03  0.19338442644E+03  0.12500000000E+03 0.  0.
         25    1    1    2    0    0 -0.10883136467E+02  0.44467244857E+02 -0.47990078336E+02  0.14150556930E+03  0.12500000000E+03 0.  0.
         25    1    1    2    0    0  0.14382310180E+02 -0.94520681763E+02  0.22615868991E+03  0.27552452368E+03  0.12500000000E+03 0.  0.
</event>
<event>
 5    0  0.5619558E-005  0.2295628E+03  0.7546771E-02  0.1126948E+00
         21   -1    0    0  502  501  0.00000000000E+00  0.00000000000E+00  0.11247623644E+04  0.11247623644E+04  0.00000000000E+00 0.  1.
         21   -1    0    0  501  502 -0.00000000000E+00 -0.00000000000E+00 -0.46853506905E+02  0.46853506905E+02  0.00000000000E+00 0.  1.
         25    1    1    2    0    0  0.25486463094E+02  0.34516948197E+02  0.44605141533E+03  0.46521806138E+03  0.12500000000E+03 0.  0.
         25    1    1    2    0    0  0.44595103730E+02 -0.41629891726E+02  0.15423922455E+03  0.20769330647E+03  0.12500000000E+03 0.  0.
         25    1    1    2    0    0 -0.70081566823E+02  0.71129435290E+01  0.47761821763E+03  0.49870450347E+03  0.12500000000E+03 0.  0.
</event>
<event>
 5    0  0.5619558E-005  0.3920009E+03  0.7546771E-02  0.1046585E+00
         21   -1    0    0  502  501  0.00000000000E+00  0.00000000000E+00  0.69611509420E+03  0.69611509420E+03  0.00000000000E+00 0. -1.
         21   -1    0    0  501  502 -0.00000000000E+00 -0.00000000000E+00 -0.22074617068E+03  0.22074617068E+03  0.00000000000E+00 0. -1.
         25    1    1    2    0    0  0.36398928359E+02  0.24377247823E+03 -0.39485972696E+01  0.27638830393E+03  0.12500000000E+03 0.  0.
         25    1    1    2    0    0 -0.15157472223E+01 -0.22649222426E+03  0.42747484141E+03  0.49966065002E+03  0.12500000000E+03 0.  0.
         25    1    1    2    0    0 -0.34883181137E+02 -0.17280253970E+02  0.51842679380E+02  0.14081231093E+03  0.12500000000E+03 0.  0.
</event>
<event>
 5    0  0.6076934E-005  0.2875616E+03  0.7546771E-02  0.1091629E+00
         21   -1    0    0  502  501  0.00000000000E+00  0.00000000000E+00  0.36005569596E+03  0.36005569596E+03  0.00000000000E+00 0. -1.
         21   -1    0    0  501  502 -0.00000000000E+00 -0.00000000000E+00 -0.22966353319E+03  0.22966353319E+03  0.00000000000E+00 0. -1.
         25    1    1    2    0    0  0.13458127124E+03 -0.21873910919E+02 -0.85290439292E+02  0.20369105425E+03  0.12500000000E+03 0.  0.
         25    1    1    2    0    0 -0.49979022288E+02  0.65258134568E+02  0.49996860907E+02  0.15773779793E+03  0.12500000000E+03 0.  0.
         25    1    1    2    0    0 -0.84602248956E+02 -0.43384223649E+02  0.16568574116E+03  0.22829037696E+03  0.12500000000E+03 0.  0.
</event>
<event>
 5    0  0.5619558E-005  0.3004273E+03  0.7546771E-02  0.1085027E+00
         21   -1    0    0  502  501  0.00000000000E+00  0.00000000000E+00  0.13375491966E+04  0.13375491966E+04  0.00000000000E+00 0. -1.
         21   -1    0    0  501  502 -0.00000000000E+00 -0.00000000000E+00 -0.67479050951E+02  0.67479050951E+02  0.00000000000E+00 0. -1.
         25    1    1    2    0    0 -0.70479170598E+02 -0.13916683565E+03  0.40620577409E+03  0.45272823254E+03  0.12500000000E+03 0.  0.
         25    1    1    2    0    0  0.13304478231E+03  0.13490155941E+03  0.70504610411E+03  0.74068505706E+03  0.12500000000E+03 0.  0.
         25    1    1    2    0    0 -0.62565611710E+02  0.42652762418E+01  0.15881826741E+03  0.21161495792E+03  0.12500000000E+03 0.  0.
</event>
<event>
 5    0  0.5619558E-005  0.3199481E+03  0.7546771E-02  0.1075673E+00
         21   -1    0    0  502  501  0.00000000000E+00  0.00000000000E+00  0.14539310294E+04  0.14539310294E+04  0.00000000000E+00 0.  1.
         21   -1    0    0  501  502 -0.00000000000E+00 -0.00000000000E+00 -0.70406922139E+02  0.70406922139E+02  0.00000000000E+00 0.  1.
         25    1    1    2    0    0 -0.13065684057E+03 -0.10575832363E+03  0.60605627284E+03  0.64123727189E+03  0.12500000000E+03 0.  0.
         25    1    1    2    0    0  0.37695877087E+02  0.12787161953E+03  0.66511481452E+03  0.68976434144E+03  0.12500000000E+03 0.  0.
         25    1    1    2    0    0  0.92960963481E+02 -0.22113295898E+02  0.11235301986E+03  0.19333633817E+03  0.12500000000E+03 0.  0.
</event>
<event>
 5    0  0.5619558E-005  0.3750666E+03  0.7546771E-02  0.1052772E+00
         21   -1    0    0  502  501  0.00000000000E+00  0.00000000000E+00  0.15754043349E+04  0.15754043349E+04  0.00000000000E+00 0. -1.
         21   -1    0    0  501  502 -0.00000000000E+00 -0.00000000000E+00 -0.89294502105E+02  0.89294502105E+02  0.00000000000E+00 0. -1.
         25    1    1    2    0    0 -0.66066551785E+02 -0.13618939422E+03  0.17735774479E+03  0.26456210991E+03  0.12500000000E+03 0.  0.
         25    1    1    2    0    0  0.19824676471E+03  0.19638895246E+03  0.78781142784E+03  0.84506937361E+03  0.12500000000E+03 0.  0.
         25    1    1    2    0    0 -0.13218021292E+03 -0.60199558244E+02  0.52094066013E+03  0.55506735347E+03  0.12500000000E+03 0.  0.
</event>
<event>
 5    0  0.5619558E-005  0.3567056E+03  0.7546771E-02  0.1059896E+00
         21   -1    0    0  502  501  0.00000000000E+00  0.00000000000E+00  0.97478448745E+02  0.97478448745E+02  0.00000000000E+00 0. -1.
         21   -1    0    0  501  502 -0.00000000000E+00 -0.00000000000E+00 -0.13053025708E+04  0.13053025708E+04  0.00000000000E+00 0. -1.
         25    1    1    2    0    0  0.51532609294E+02  0.23204192643E+03 -0.39734596143E+03  0.47959136617E+03  0.12500000000E+03 0.  0.
         25    1    1    2    0    0  0.11196305025E+02 -0.25268775840E+03 -0.40349186599E+03  0.49234860253E+03  0.12500000000E+03 0.  0.
         25    1    1    2    0    0 -0.62728914319E+02  0.20645831974E+02 -0.40698629466E+03  0.43084105087E+03  0.12500000000E+03 0.  0.
</event>
<event>
 5    0  0.5619558E-005  0.2037575E+03  0.7546771E-02  0.1146607E+00
         21   -1    0    0  502  501  0.00000000000E+00  0.00000000000E+00  0.59262778709E+03  0.59262778709E+03  0.00000000000E+00 0.  1.
         21   -1    0    0  501  502 -0.00000000000E+00 -0.00000000000E+00 -0.70055971564E+02  0.70055971564E+02  0.00000000000E+00 0.  1.
         25    1    1    2    0    0 -0.17995450934E+02 -0.13101544611E+02  0.14763548709E+03  0.19472217073E+03  0.12500000000E+03 0.  0.
         25    1    1    2    0    0 -0.39141485012E+02  0.45010360611E+02  0.17290096526E+03  0.22153494577E+03  0.12500000000E+03 0.  0.
         25    1    1    2    0    0  0.57136935946E+02 -0.31908816000E+02  0.20203536318E+03  0.24642664216E+03  0.12500000000E+03 0.  0.
</event>
<event>
 5    0  0.5619558E-005  0.4187155E+03  0.7546771E-02  0.1037485E+00
         21   -1    0    0  502  501  0.00000000000E+00  0.00000000000E+00  0.11431231480E+04  0.11431231480E+04  0.00000000000E+00 0. -1.
         21   -1    0    0  501  502 -0.00000000000E+00 -0.00000000000E+00 -0.15337160791E+03  0.15337160791E+03  0.00000000000E+00 0. -1.
         25    1    1    2    0    0  0.13235691392E+03 -0.28152316147E+03  0.27118621090E+03  0.43120830707E+03  0.12500000000E+03 0.  0.
         25    1    1    2    0    0  0.19988675980E+02  0.21687297067E+03  0.52329735555E+03  0.58042962959E+03  0.12500000000E+03 0.  0.
         25    1    1    2    0    0 -0.15234558990E+03  0.64650190796E+02  0.19526797360E+03  0.28485681920E+03  0.12500000000E+03 0.  0.
</event>
<event>
 5    0  0.5619558E-005  0.3168829E+03  0.7546771E-02  0.1077093E+00
         21   -1    0    0  502  501  0.00000000000E+00  0.00000000000E+00  0.28765949541E+03  0.28765949541E+03  0.00000000000E+00 0. -1.
         21   -1    0    0  501  502 -0.00000000000E+00 -0.00000000000E+00 -0.34907514917E+03  0.34907514917E+03  0.00000000000E+00 0. -1.
         25    1    1    2    0    0 -0.10651723745E+03  0.32247769955E+02  0.12223743193E+03  0.20725064609E+03  0.12500000000E+03 0.  0.
         25    1    1    2    0    0  0.16937239937E+03 -0.42137495942E+02 -0.22525164400E+02  0.21585866039E+03  0.12500000000E+03 0.  0.
         25    1    1    2    0    0 -0.62855161923E+02  0.98897259871E+01 -0.16112792129E+03  0.21362533810E+03  0.12500000000E+03 0.  0.
</event>
<event>
 5    0  0.5619558E-005  0.3085464E+03  0.7546771E-02  0.1081045E+00
         21   -1    0    0  502  501  0.00000000000E+00  0.00000000000E+00  0.32505230148E+03  0.32505230148E+03  0.00000000000E+00 0. -1.
         21   -1    0    0  501  502 -0.00000000000E+00 -0.00000000000E+00 -0.29287867651E+03  0.29287867651E+03  0.00000000000E+00 0. -1.
         25    1    1    2    0    0 -0.47307119676E+02  0.14540672626E+01 -0.38741594155E+02  0.13916173684E+03  0.12500000000E+03 0.  0.
         25    1    1    2    0    0 -0.21719019254E+02 -0.11740369690E+03 -0.12249242922E+03  0.21186018753E+03  0.12500000000E+03 0.  0.
         25    1    1    2    0    0  0.69026138930E+02  0.11594962963E+03  0.19340764834E+03  0.26690905362E+03  0.12500000000E+03 0.  0.
</event>
<event>
 5    0  0.5619558E-005  0.2475453E+03  0.7546771E-02  0.1114866E+00
         21   -1    0    0  502  501  0.00000000000E+00  0.00000000000E+00  0.29399015393E+03  0.29399015393E+03  0.00000000000E+00 0. -1.
         21   -1    0    0  501  502 -0.00000000000E+00 -0.00000000000E+00 -0.20843792700E+03  0.20843792700E+03  0.00000000000E+00 0. -1.
         25    1    1    2    0    0  0.72509845082E+01 -0.21450147635E+02  0.73509338714E+02  0.14676957617E+03  0.12500000000E+03 0.  0.
         25    1    1    2    0    0 -0.18766193771E+02  0.10742292542E+03  0.85596298780E+02  0.18666435465E+03  0.12500000000E+03 0.  0.
         25    1    1    2    0    0  0.11515209263E+02 -0.85972777780E+02 -0.73553410565E+02  0.16899415010E+03  0.12500000000E+03 0.  0.
</event>
<event>
 5    0  0.5619558E-005  0.2901740E+03  0.7546771E-02  0.1090258E+00
         21   -1    0    0  502  501  0.00000000000E+00  0.00000000000E+00  0.70018628248E+02  0.70018628248E+02  0.00000000000E+00 0. -1.
         21   -1    0    0  501  502 -0.00000000000E+00 -0.00000000000E+00 -0.12025511113E+04  0.12025511113E+04  0.00000000000E+00 0. -1.
         25    1    1    2    0    0  0.64202973197E+02  0.22300712917E+02 -0.54190822124E+03  0.56027570339E+03  0.12500000000E+03 0.  0.
         25    1    1    2    0    0 -0.46024981097E+02  0.13037751906E+01 -0.29228487467E+02  0.13637926233E+03  0.12500000000E+03 0.  0.
         25    1    1    2    0    0 -0.18177992100E+02 -0.23604488107E+02 -0.56139577431E+03  0.57591477379E+03  0.12500000000E+03 0.  0.
</event>
<event>
 5    0  0.5619558E-005  0.3462672E+03  0.7546771E-02  0.1064158E+00
         21   -1    0    0  502  501  0.00000000000E+00  0.00000000000E+00  0.85489592801E+02  0.85489592801E+02  0.00000000000E+00 0. -1.
         21   -1    0    0  501  502 -0.00000000000E+00 -0.00000000000E+00 -0.14025213523E+04  0.14025213523E+04  0.00000000000E+00 0. -1.
         25    1    1    2    0    0  0.59772615263E+02  0.19978126442E+03 -0.85919335227E+03  0.89292974849E+03  0.12500000000E+03 0.  0.
         25    1    1    2    0    0 -0.39218470603E+02 -0.15569567201E+03 -0.13155394812E+03  0.24230285179E+03  0.12500000000E+03 0.  0.
         25    1    1    2    0    0 -0.20554144661E+02 -0.44085592403E+02 -0.32628445908E+03  0.35277834480E+03  0.12500000000E+03 0.  0.
</event>
<event>
 5    0  0.5619558E-005  0.4151031E+03  0.7546771E-02  0.1038672E+00
         21   -1    0    0  502  501  0.00000000000E+00  0.00000000000E+00  0.13458407120E+04  0.13458407120E+04  0.00000000000E+00 0.  1.
         21   -1    0    0  501  502 -0.00000000000E+00 -0.00000000000E+00 -0.12803193039E+03  0.12803193039E+03  0.00000000000E+00 0.  1.
         25    1    1    2    0    0  0.69449372892E+02  0.15620468501E+03  0.13985595131E+03  0.25378693057E+03  0.12500000000E+03 0.  0.
         25    1    1    2    0    0 -0.20833501496E+03 -0.27091070225E+02  0.20801126805E+03  0.32098456688E+03  0.12500000000E+03 0.  0.
         25    1    1    2    0    0  0.13888564206E+03 -0.12911361478E+03  0.86994156224E+03  0.89910114493E+03  0.12500000000E+03 0.  0.
</event>
<event>
 5    0  0.5619558E-005  0.2805601E+03  0.7546771E-02  0.1095383E+00
         21   -1    0    0  502  501  0.00000000000E+00  0.00000000000E+00  0.22948590935E+04  0.22948590935E+04  0.00000000000E+00 0.  1.
         21   -1    0    0  501  502 -0.00000000000E+00 -0.00000000000E+00 -0.34300141323E+02  0.34300141323E+02  0.00000000000E+00 0.  1.
         25    1    1    2    0    0  0.12118375559E+03  0.11445978460E+03  0.11494336887E+04  0.11681649496E+04  0.12500000000E+03 0.  0.
         25    1    1    2    0    0 -0.13812125621E+03 -0.60252768570E+02  0.56852718974E+03  0.60129530433E+03  0.12500000000E+03 0.  0.
         25    1    1    2    0    0  0.16937500627E+02 -0.54207016026E+02  0.54259807375E+03  0.55969898084E+03  0.12500000000E+03 0.  0.
</event>
<event>
 5    0  0.5619558E-005  0.3465284E+03  0.7546771E-02  0.1064049E+00
         21   -1    0    0  502  501  0.00000000000E+00  0.00000000000E+00  0.65432671641E+03  0.65432671641E+03  0.00000000000E+00 0.  1.
         21   -1    0    0  501  502 -0.00000000000E+00 -0.00000000000E+00 -0.18351982557E+03  0.18351982557E+03  0.00000000000E+00 0.  1.
         25    1    1    2    0    0  0.37284879392E+02  0.24765431284E+03  0.23353049590E+03  0.36453300731E+03  0.12500000000E+03 0.  0.
         25    1    1    2    0    0  0.49545350981E+02 -0.19036789382E+03  0.19847870307E+03  0.30612656267E+03  0.12500000000E+03 0.  0.
         25    1    1    2    0    0 -0.86830230373E+02 -0.57286419023E+02  0.38797691870E+02  0.16718697200E+03  0.12500000000E+03 0.  0.
</event>
<event>
 5    0  0.5619558E-005  0.5782194E+03  0.7546771E-02  0.9951653E-01
         21   -1    0    0  502  501  0.00000000000E+00  0.00000000000E+00  0.22297830572E+03  0.22297830572E+03  0.00000000000E+00 0.  1.
         21   -1    0    0  501  502 -0.00000000000E+00 -0.00000000000E+00 -0.14994181055E+04  0.14994181055E+04  0.00000000000E+00 0.  1.
         25    1    1    2    0    0  0.28908555074E+03  0.28576721685E+03 -0.88540319221E+02  0.43439353817E+03  0.12500000000E+03 0.  0.
         25    1    1    2    0    0 -0.81617540638E+02 -0.87529042776E+02 -0.29723141144E+03  0.34393933799E+03  0.12500000000E+03 0.  0.
         25    1    1    2    0    0 -0.20746801010E+03 -0.19823817408E+03 -0.89066806910E+03  0.94406353504E+03  0.12500000000E+03 0.  0.
</event>
<event>
 5    0  0.5619558E-005  0.2565314E+03  0.7546771E-02  0.1109245E+00
         21   -1    0    0  502  501  0.00000000000E+00  0.00000000000E+00  0.22496524189E+03  0.22496524189E+03  0.00000000000E+00 0.  1.
         21   -1    0    0  501  502 -0.00000000000E+00 -0.00000000000E+00 -0.29252688094E+03  0.29252688094E+03  0.00000000000E+00 0.  1.
         25    1    1    2    0    0  0.31792423155E+02 -0.18428836182E+01  0.39339619015E+02  0.13485829605E+03  0.12500000000E+03 0.  0.
         25    1    1    2    0    0 -0.53873901156E+02  0.12815658275E+03 -0.38093555957E+02  0.19079472197E+03  0.12500000000E+03 0.  0.
         25    1    1    2    0    0  0.22081478001E+02 -0.12631369913E+03 -0.68807702111E+02  0.19183910480E+03  0.12500000000E+03 0.  0.
</event>
<event>
 5    0  0.5619558E-005  0.3112898E+03  0.7546771E-02  0.1079729E+00
         21   -1    0    0  502  501  0.00000000000E+00  0.00000000000E+00  0.32401109924E+03  0.32401109924E+03  0.00000000000E+00 0.  1.
         21   -1    0    0  501  502 -0.00000000000E+00 -0.00000000000E+00 -0.29906788520E+03  0.29906788520E+03  0.00000000000E+00 0.  1.
         25    1    1    2    0    0 -0.30792020744E+02 -0.13720241490E+03 -0.64005261100E+02  0.19873179072E+03  0.12500000000E+03 0.  0.
         25    1    1    2    0    0  0.55300280017E+02  0.15103075478E+03  0.17619982184E+03  0.26933211297E+03  0.12500000000E+03 0.  0.
         25    1    1    2    0    0 -0.24508259273E+02 -0.13828339884E+02 -0.87251346710E+02  0.15501508075E+03  0.12500000000E+03 0.  0.
</event>
<event>
 5    0  0.5619558E-005  0.3267803E+03  0.7546771E-02  0.1072570E+00
         21   -1    0    0  502  501  0.00000000000E+00  0.00000000000E+00  0.64553389673E+03  0.64553389673E+03  0.00000000000E+00 0. -1.
         21   -1    0    0  501  502 -0.00000000000E+00 -0.00000000000E+00 -0.16542178463E+03  0.16542178463E+03  0.00000000000E+00 0. -1.
         25    1    1    2    0    0  0.13358821749E+03  0.50177805539E+02  0.34555472034E+02  0.19282817395E+03  0.12500000000E+03 0.  0.
         25    1    1    2    0    0 -0.76011441803E+02  0.13357693829E+03  0.18812061640E+03  0.27319389459E+03  0.12500000000E+03 0.  0.
         25    1    1    2    0    0 -0.57576775682E+02 -0.18375474383E+03  0.25743602367E+03  0.34493361283E+03  0.12500000000E+03 0.  0.
</event>
<event>
 5    0  0.5619558E-005  0.3759761E+03  0.7546771E-02  0.1052431E+00
         21   -1    0    0  502  501  0.00000000000E+00  0.00000000000E+00  0.11678916383E+03  0.11678916383E+03  0.00000000000E+00 0.  1.
         21   -1    0    0  501  502 -0.00000000000E+00 -0.00000000000E+00 -0.12103695389E+04  0.12103695389E+04  0.00000000000E+00 0.  1.
         25    1    1    2    0    0  0.66527157163E+02  0.18792746440E+03 -0.81476151168E+03  0.84805891036E+03  0.12500000000E+03 0.  0.
         25    1    1    2    0    0 -0.12601465794E+03 -0.41867087679E+02 -0.17460621960E+03  0.25247748210E+03  0.12500000000E+03 0.  0.
         25    1    1    2    0    0  0.59487500780E+02 -0.14606037672E+03 -0.10421264382E+03  0.22662231031E+03  0.12500000000E+03 0.  0.
</event>
<event>
 5    0  0.5707926E-005  0.2913109E+03  0.7546771E-02  0.1089667E+00
         21   -1    0    0  502  501  0.00000000000E+00  0.00000000000E+00  0.12406691876E+03  0.12406691876E+03  0.00000000000E+00 0. -1.
         21   -1    0    0  501  502 -0.00000000000E+00 -0.00000000000E+00 -0.68400213311E+03  0.68400213311E+03  0.00000000000E+00 0. -1.
         25    1    1    2    0    0  0.13766003467E+03 -0.12223675120E+02 -0.13695953535E+03  0.23126309196E+03  0.12500000000E+03 0.  0.
         25    1    1    2    0    0 -0.41186944071E+02 -0.11280188859E+03 -0.11222061554E+03  0.20649236544E+03  0.12500000000E+03 0.  0.
         25    1    1    2    0    0 -0.96473090600E+02  0.12502556371E+03 -0.31075506345E+03  0.37031359448E+03  0.12500000000E+03 0.  0.
</event>
<event>
 5    0  0.5619558E-005  0.3794547E+03  0.7546771E-02  0.1051135E+00
         21   -1    0    0  502  501  0.00000000000E+00  0.00000000000E+00  0.79600771649E+03  0.79600771649E+03  0.00000000000E+00 0. -1.
         21   -1    0    0  501  502 -0.00000000000E+00 -0.00000000000E+00 -0.18088498290E+03  0.18088498290E+03  0.00000000000E+00 0. -1.
         25    1    1    2    0    0 -0.26897815739E+02 -0.12831993139E+03  0.13947968341E+03  0.22862431928E+03  0.12500000000E+03 0.  0.
         25    1    1    2    0    0  0.61588493863E+02 -0.18316171745E+03  0.26281051571E+03  0.34933611964E+03  0.12500000000E+03 0.  0.
         25    1    1    2    0    0 -0.34690678124E+02  0.31148164884E+03  0.21283253447E+03  0.39893226047E+03  0.12500000000E+03 0.  0.
</event>
<event>
 5    0  0.5619558E-005  0.3200371E+03  0.7546771E-02  0.1075632E+00
         21   -1    0    0  502  501  0.00000000000E+00  0.00000000000E+00  0.50821512389E+02  0.50821512389E+02  0.00000000000E+00 0.  1.
         21   -1    0    0  501  502 -0.00000000000E+00 -0.00000000000E+00 -0.20153625498E+04  0.20153625498E+04  0.00000000000E+00 0.  1.
         25    1    1    2    0    0  0.17011468501E+03  0.41968796189E+02 -0.11681030013E+04  0.11877668153E+04  0.12500000000E+03 0.  0.
         25    1    1    2    0    0 -0.17871877926E+03 -0.41830007218E+02 -0.34812137192E+03  0.41292086548E+03  0.12500000000E+03 0.  0.
         25    1    1    2    0    0  0.86040942409E+01 -0.13878897151E+00 -0.44831666417E+03  0.46549638138E+03  0.12500000000E+03 0.  0.
</event>
<event>
 5    0  0.5619558E-005  0.2438640E+03  0.7546771E-02  0.1117245E+00
         21   -1    0    0  502  501  0.00000000000E+00  0.00000000000E+00  0.74139046622E+03  0.74139046622E+03  0.00000000000E+00 0.  1.
         21   -1    0    0  501  502 -0.00000000000E+00 -0.00000000000E+00 -0.80213657486E+02  0.80213657486E+02  0.00000000000E+00 0.  1.
         25    1    1    2    0    0 -0.10918873724E+03 -0.86248001374E+01  0.34611818434E+03  0.38395229527E+03  0.12500000000E+03 0.  0.
         25    1    1    2    0    0 -0.42556014549E+01  0.40327629302E+02  0.15031731478E+03  0.19966152096E+03  0.12500000000E+03 0.  0.
         25    1    1    2    0    0  0.11344433869E+03 -0.31702829164E+02  0.16474130962E+03  0.23799030748E+03  0.12500000000E+03 0.  0.
</event>
<event>
 5    0  0.5619558E-005  0.2824321E+03  0.7546771E-02  0.1094368E+00
         21   -1    0    0  502  501  0.00000000000E+00  0.00000000000E+00  0.30696025679E+03  0.30696025679E+03  0.00000000000E+00 0.  1.
         21   -1    0    0  501  502 -0.00000000000E+00 -0.00000000000E+00 -0.25986387921E+03  0.25986387921E+03  0.00000000000E+00 0.  1.
         25    1    1    2    0    0  0.11175946288E+03 -0.79055946918E+02  0.64952422925E+02  0.19642769034E+03  0.12500000000E+03 0.  0.
         25    1    1    2    0    0  0.34912718600E+02  0.18082283678E+01 -0.81476617608E+02  0.15325014462E+03  0.12500000000E+03 0.  0.
         25    1    1    2    0    0 -0.14667218148E+03  0.77247718550E+02  0.63620572255E+02  0.21714630104E+03  0.12500000000E+03 0.  0.
</event>
<event>
 5    0  0.5619558E-005  0.2163183E+03  0.7546771E-02  0.1136658E+00
         21   -1    0    0  502  501  0.00000000000E+00  0.00000000000E+00  0.56468571037E+03  0.56468571037E+03  0.00000000000E+00 0.  1.
         21   -1    0    0  501  502 -0.00000000000E+00 -0.00000000000E+00 -0.82866632280E+02  0.82866632280E+02  0.00000000000E+00 0.  1.
         25    1    1    2    0    0  0.33883226768E+02  0.12296627900E+01  0.17666939716E+03  0.21905857897E+03  0.12500000000E+03 0.  0.
         25    1    1    2    0    0  0.23051748948E+02 -0.26565221250E+02  0.53019540267E+02  0.14026106288E+03  0.12500000000E+03 0.  0.
         25    1    1    2    0    0 -0.56934975716E+02  0.25335558460E+02  0.25213014066E+03  0.28823270080E+03  0.12500000000E+03 0.  0.
</event>
<event>
 5    0  0.5619558E-005  0.3933076E+03  0.7546771E-02  0.1046122E+00
         21   -1    0    0  502  501  0.00000000000E+00  0.00000000000E+00  0.16623427172E+04  0.16623427172E+04  0.00000000000E+00 0. -1.
         21   -1    0    0  501  502 -0.00000000000E+00 -0.00000000000E+00 -0.93055938516E+02  0.93055938516E+02  0.00000000000E+00 0. -1.
         25    1    1    2    0    0  0.27476491016E+03 -0.94685953881E+02  0.71218526596E+03  0.77929072801E+03  0.12500000000E+03 0.  0.
         25    1    1    2    0    0 -0.16606663426E+01  0.10294842296E+03  0.23698137051E+03  0.28703014750E+03  0.12500000000E+03 0.  0.
         25    1    1    2    0    0 -0.27310424382E+03 -0.82624690821E+01  0.62012014217E+03  0.68907778017E+03  0.12500000000E+03 0.  0.
</event>
<event>
 5    0  0.5619558E-005  0.2438142E+03  0.7546771E-02  0.1117278E+00
         21   -1    0    0  502  501  0.00000000000E+00  0.00000000000E+00  0.77566144767E+03  0.77566144767E+03  0.00000000000E+00 0.  1.
         21   -1    0    0  501  502 -0.00000000000E+00 -0.00000000000E+00 -0.76638278735E+02  0.76638278735E+02  0.00000000000E+00 0.  1.
         25    1    1    2    0    0  0.36076083104E+02  0.66017656709E+02  0.32550023735E+03  0.35670046157E+03  0.12500000000E+03 0.  0.
         25    1    1    2    0    0 -0.65850923543E+02  0.39464895925E+02  0.24461962791E+03  0.28523250954E+03  0.12500000000E+03 0.  0.
         25    1    1    2    0    0  0.29774840439E+02 -0.10548255263E+03  0.12890330368E+03  0.21036675529E+03  0.12500000000E+03 0.  0.
</event>
<event>
 5    0  0.5786993E-005  0.3341044E+03  0.7546771E-02  0.1069335E+00
         21   -1    0    0  502  501  0.00000000000E+00  0.00000000000E+00  0.45815971052E+03  0.45815971052E+03  0.00000000000E+00 0. -1.
         21   -1    0    0  501  502 -0.00000000000E+00 -0.00000000000E+00 -0.24363942867E+03  0.24363942867E+03  0.00000000000E+00 0. -1.
         25    1    1    2    0    0 -0.10010719300E+03  0.14486294752E+03  0.13106836244E+03  0.25260767860E+03  0.12500000000E+03 0.  0.
         25    1    1    2    0    0  0.14754002036E+03 -0.10924432568E+03  0.17545004297E+03  0.28303727295E+03  0.12500000000E+03 0.  0.
         25    1    1    2    0    0 -0.47432827363E+02 -0.35618621842E+02 -0.91998123554E+02  0.16615418764E+03  0.12500000000E+03 0.  0.
</event>
<event>
 5    0  0.5619558E-005  0.4940123E+03  0.7546771E-02  0.1015354E+00
         21   -1    0    0  502  501  0.00000000000E+00  0.00000000000E+00  0.49267471939E+03  0.49267471939E+03  0.00000000000E+00 0.  1.
         21   -1    0    0  501  502 -0.00000000000E+00 -0.00000000000E+00 -0.49535357396E+03  0.49535357396E+03  0.00000000000E+00 0.  1.
         25    1    1    2    0    0 -0.29760114003E+03  0.10010473008E+03  0.89129540273E+02  0.34950889900E+03  0.12500000000E+03 0.  0.
         25    1    1    2    0    0  0.10798891814E+03 -0.24718656930E+03  0.92240216153E+02  0.31128132607E+03  0.12500000000E+03 0.  0.
         25    1    1    2    0    0  0.18961222189E+03  0.14708183922E+03 -0.18404861100E+03  0.32723806828E+03  0.12500000000E+03 0.  0.
</event>
<event>
 5    0  0.5619558E-005  0.3329047E+03  0.7546771E-02  0.1069859E+00
         21   -1    0    0  502  501  0.00000000000E+00  0.00000000000E+00  0.92586513087E+03  0.92586513087E+03  0.00000000000E+00 0.  1.
         21   -1    0    0  501  502 -0.00000000000E+00 -0.00000000000E+00 -0.11969941948E+03  0.11969941948E+03  0.00000000000E+00 0.  1.
         25    1    1    2    0    0  0.21191619830E+02  0.17177923921E+03  0.56194348800E+03  0.60113449034E+03  0.12500000000E+03 0.  0.
         25    1    1    2    0    0  0.19887166180E+02 -0.88522279781E+02 -0.40074302645E+00  0.15445664114E+03  0.12500000000E+03 0.  0.
         25    1    1    2    0    0 -0.41078786011E+02 -0.83256959426E+02  0.24462296642E+03  0.28997341887E+03  0.12500000000E+03 0.  0.
</event>
<event>
 5    0  0.5619558E-005  0.3709907E+03  0.7546771E-02  0.1054315E+00
         21   -1    0    0  502  501  0.00000000000E+00  0.00000000000E+00  0.43441240005E+03  0.43441240005E+03  0.00000000000E+00 0.  1.
         21   -1    0    0  501  502 -0.00000000000E+00 -0.00000000000E+00 -0.31682816611E+03  0.31682816611E+03  0.00000000000E+00 0.  1.
         25    1    1    2    0    0  0.21496873149E+03  0.97578450826E+02 -0.64623340368E+02  0.27483501542E+03  0.12500000000E+03 0.  0.
         25    1    1    2    0    0 -0.12232828784E+03 -0.18327870983E+03  0.58674352374E+02  0.26004417915E+03  0.12500000000E+03 0.  0.
         25    1    1    2    0    0 -0.92640443645E+02  0.85700259006E+02  0.12353322194E+03  0.21636137159E+03  0.12500000000E+03 0.  0.
</event>
<event>
 5    0  0.5619558E-005  0.2466827E+03  0.7546771E-02  0.1115419E+00
         21   -1    0    0  502  501  0.00000000000E+00  0.00000000000E+00  0.30842727426E+02  0.30842727426E+02  0.00000000000E+00 0.  1.
         21   -1    0    0  501  502 -0.00000000000E+00 -0.00000000000E+00 -0.19729888399E+04  0.19729888399E+04  0.00000000000E+00 0.  1.
         25    1    1    2    0    0 -0.85453587529E+02 -0.23034071541E+02 -0.49760763265E+03  0.52064502316E+03  0.12500000000E+03 0.  0.
         25    1    1    2    0    0 -0.37645831181E+02  0.48877455978E+02 -0.89374590867E+03  0.90455124983E+03  0.12500000000E+03 0.  0.
         25    1    1    2    0    0  0.12309941871E+03 -0.25843384437E+02 -0.55079257114E+03  0.57863529432E+03  0.12500000000E+03 0.  0.
</event>
<event>
 5    0  0.5619558E-005  0.2710709E+03  0.7546771E-02  0.1100668E+00
         21   -1    0    0  502  501  0.00000000000E+00  0.00000000000E+00  0.79700972441E+02  0.79700972441E+02  0.00000000000E+00 0. -1.
         21   -1    0    0  501  502 -0.00000000000E+00 -0.00000000000E+00 -0.92193924246E+03  0.92193924246E+03  0.00000000000E+00 0. -1.
         25    1    1    2    0    0  0.10254639074E+02  0.55153747930E+02 -0.11568893666E+03  0.17932100713E+03  0.12500000000E+03 0.  0.
         25    1    1    2    0    0  0.52629265936E+02 -0.14732803373E+03 -0.27120103606E+03  0.33712073670E+03  0.12500000000E+03 0.  0.
         25    1    1    2    0    0 -0.62883905010E+02  0.92174285796E+02 -0.45534829730E+03  0.48519847107E+03  0.12500000000E+03 0.  0.
</event>
<event>
 5    0  0.5619558E-005  0.4220806E+03  0.7546771E-02  0.1036391E+00
         21   -1    0    0  502  501  0.00000000000E+00  0.00000000000E+00  0.38188641706E+03  0.38188641706E+03  0.00000000000E+00 0.  1.
         21   -1    0    0  501  502 -0.00000000000E+00 -0.00000000000E+00 -0.46650529319E+03  0.46650529319E+03  0.00000000000E+00 0.  1.
         25    1    1    2    0    0  0.12076691544E+03  0.55544587795E+02 -0.21061014790E+03  0.27866015771E+03  0.12500000000E+03 0.  0.
         25    1    1    2    0    0 -0.25169108836E+03 -0.18168577484E+03  0.65922321766E+02  0.34107019402E+03  0.12500000000E+03 0.  0.
         25    1    1    2    0    0  0.13092417292E+03  0.12614118705E+03  0.60068949991E+02  0.22866135852E+03  0.12500000000E+03 0.  0.
</event>
<event>
 5    0  0.5619558E-005  0.4522853E+03  0.7546771E-02  0.1027043E+00
         21   -1    0    0  502  501  0.00000000000E+00  0.00000000000E+00  0.44735844249E+03  0.44735844249E+03  0.00000000000E+00 0.  1.
         21   -1    0    0  501  502 -0.00000000000E+00 -0.00000000000E+00 -0.45726650376E+03  0.45726650376E+03  0.00000000000E+00 0.  1.
         25    1    1    2    0    0 -0.32766692890E+03 -0.10083921538E+03  0.16990452961E+03  0.40252541887E+03  0.12500000000E+03 0.  0.
         25    1    1    2    0    0  0.11181053091E+03 -0.36228056445E+02 -0.12695540936E+02  0.17204721345E+03  0.12500000000E+03 0.  0.
         25    1    1    2    0    0  0.21585639798E+03  0.13706727182E+03 -0.16711704994E+03  0.33005231394E+03  0.12500000000E+03 0.  0.
</event>
<event>
 5    0  0.5619558E-005  0.2864608E+03  0.7546771E-02  0.1092212E+00
         21   -1    0    0  502  501  0.00000000000E+00  0.00000000000E+00  0.53830078589E+03  0.53830078589E+03  0.00000000000E+00 0.  1.
         21   -1    0    0  501  502 -0.00000000000E+00 -0.00000000000E+00 -0.15244224524E+03  0.15244224524E+03  0.00000000000E+00 0.  1.
         25    1    1    2    0    0 -0.63624918784E+00  0.67568174905E+02  0.12885989255E+03  0.19182214413E+03  0.12500000000E+03 0.  0.
         25    1    1    2    0    0  0.92646870759E+02  0.36787071249E+02 -0.23691190717E+02  0.16162612348E+03  0.12500000000E+03 0.  0.
         25    1    1    2    0    0 -0.92010621571E+02 -0.10435524615E+03  0.28068983882E+03  0.33729476352E+03  0.12500000000E+03 0.  0.
</event>
<event>
 5    0  0.5619558E-005  0.2557845E+03  0.7546771E-02  0.1109703E+00
         21   -1    0    0  502  501  0.00000000000E+00  0.00000000000E+00  0.32093649060E+03  0.32093649060E+03  0.00000000000E+00 0.  1.
         21   -1    0    0  501  502 -0.00000000000E+00 -0.00000000000E+00 -0.20385878489E+03  0.20385878489E+03  0.00000000000E+00 0.  1.
         25    1    1    2    0    0 -0.12468514300E+03  0.75558517979E+02  0.11844982168E+03  0.22563429434E+03  0.12500000000E+03 0.  0.
         25    1    1    2    0    0  0.58560595935E+02  0.10527191532E+01  0.58743530600E+01  0.13816642008E+03  0.12500000000E+03 0.  0.
         25    1    1    2    0    0  0.66124547069E+02 -0.76611237132E+02 -0.72464690259E+01  0.16099456107E+03  0.12500000000E+03 0.  0.
</event>
<event>
 5    0  0.5619558E-005  0.2588500E+03  0.7546771E-02  0.1107836E+00
         21   -1    0    0  502  501  0.00000000000E+00  0.00000000000E+00  0.53374148595E+02  0.53374148595E+02  0.00000000000E+00 0.  1.
         21   -1    0    0  501  502 -0.00000000000E+00 -0.00000000000E+00 -0.12553513488E+04  0.12553513488E+04  0.00000000000E+00 0.  1.
         25    1    1    2    0    0  0.11000997875E+02  0.30281497206E+02 -0.66166857330E+03  0.67414263470E+03  0.12500000000E+03 0.  0.
         25    1    1    2    0    0 -0.25681790411E+02 -0.61089895259E+02 -0.94037114302E+02  0.16988086569E+03  0.12500000000E+03 0.  0.
         25    1    1    2    0    0  0.14680792536E+02  0.30808398052E+02 -0.44627151261E+03  0.46470199702E+03  0.12500000000E+03 0.  0.
</event>
<event>
 5    0  0.5619558E-005  0.2383348E+03  0.7546771E-02  0.1120907E+00
         21   -1    0    0  502  501  0.00000000000E+00  0.00000000000E+00  0.85728485057E+03  0.85728485057E+03  0.00000000000E+00 0.  1.
         21   -1    0    0  501  502 -0.00000000000E+00 -0.00000000000E+00 -0.66259735999E+02  0.66259735999E+02  0.00000000000E+00 0.  1.
         25    1    1    2    0    0  0.70849915497E+01  0.26728854858E+01  0.44824470613E+03  0.46540912968E+03  0.12500000000E+03 0.  0.
         25    1    1    2    0    0  0.40124373075E+02 -0.75647480325E+02  0.17913702793E+03  0.23462220988E+03  0.12500000000E+03 0.  0.
         25    1    1    2    0    0 -0.47209364625E+02  0.72974594839E+02  0.16364338051E+03  0.22351324700E+03  0.12500000000E+03 0.  0.
</event>
<event>
 5    0  0.5619558E-005  0.4427048E+03  0.7546771E-02  0.1029920E+00
         21   -1    0    0  502  501  0.00000000000E+00  0.00000000000E+00  0.67029567561E+03  0.67029567561E+03  0.00000000000E+00 0. -1.
         21   -1    0    0  501  502 -0.00000000000E+00 -0.00000000000E+00 -0.29238962577E+03  0.29238962577E+03  0.00000000000E+00 0. -1.
         25    1    1    2    0    0 -0.20038522044E+03 -0.12190571753E+03  0.40269315566E+02  0.26881565861E+03  0.12500000000E+03 0.  0.
         25    1    1    2    0    0  0.34151586816E+02 -0.14421271780E+03 -0.28247577077E+02  0.19592489496E+03  0.12500000000E+03 0.  0.
         25    1    1    2    0    0  0.16623363363E+03  0.26611843533E+03  0.36588431135E+03  0.49794474780E+03  0.12500000000E+03 0.  0.
</event>
<event>
 5    0  0.5619558E-005  0.3585920E+03  0.7546771E-02  0.1059143E+00
         21   -1    0    0  502  501  0.00000000000E+00  0.00000000000E+00  0.27364574790E+03  0.27364574790E+03  0.00000000000E+00 0. -1.
         21   -1    0    0  501  502 -0.00000000000E+00 -0.00000000000E+00 -0.46990754914E+03  0.46990754914E+03  0.00000000000E+00 0. -1.
         25    1    1    2    0    0  0.19180436145E+03  0.19426613932E+03 -0.17042493457E+03  0.34525049497E+03  0.12500000000E+03 0.  0.
         25    1    1    2    0    0 -0.86279213057E+02 -0.17596268045E+03 -0.62232110497E+01  0.23253106432E+03  0.12500000000E+03 0.  0.
         25    1    1    2    0    0 -0.10552514839E+03 -0.18303458867E+02 -0.19613655620E+02  0.16577173775E+03  0.12500000000E+03 0.  0.
</event>
<event>
 5    0  0.5619558E-005  0.2885917E+03  0.7546771E-02  0.1091087E+00
         21   -1    0    0  502  501  0.00000000000E+00  0.00000000000E+00  0.10076386848E+04  0.10076386848E+04  0.00000000000E+00 0.  1.
         21   -1    0    0  501  502 -0.00000000000E+00 -0.00000000000E+00 -0.82653791989E+02  0.82653791989E+02  0.00000000000E+00 0.  1.
         25    1    1    2    0    0 -0.15918060002E+03  0.75833979762E+02  0.51437803065E+03  0.55794176607E+03  0.12500000000E+03 0.  0.
         25    1    1    2    0    0  0.63919753788E+01  0.18801965696E+01  0.17693393704E+03  0.21673719239E+03  0.12500000000E+03 0.  0.
         25    1    1    2    0    0  0.15278862464E+03 -0.77714176331E+02  0.23367292513E+03  0.31561351834E+03  0.12500000000E+03 0.  0.
</event>
<event>
 5    0  0.5619558E-005  0.2171516E+03  0.7546771E-02  0.1136025E+00
         21   -1    0    0  502  501  0.00000000000E+00  0.00000000000E+00  0.33608505122E+02  0.33608505122E+02  0.00000000000E+00 0.  1.
         21   -1    0    0  501  502 -0.00000000000E+00 -0.00000000000E+00 -0.14030619692E+04  0.14030619692E+04  0.00000000000E+00 0.  1.
         25    1    1    2    0    0  0.35434124977E+02 -0.12083063024E+02 -0.46844490897E+03  0.48627894296E+03  0.12500000000E+03 0.  0.
         25    1    1    2    0    0 -0.70135622970E+02 -0.55823056480E+02 -0.51767344189E+03  0.54004260173E+03  0.12500000000E+03 0.  0.
         25    1    1    2    0    0  0.34701497993E+02  0.67906119504E+02 -0.38333511326E+03  0.41034892967E+03  0.12500000000E+03 0.  0.
</event>
<event>
 5    0  0.6762644E-005  0.3258702E+03  0.7546771E-02  0.1072979E+00
         21   -1    0    0  502  501  0.00000000000E+00  0.00000000000E+00  0.46414881739E+03  0.46414881739E+03  0.00000000000E+00 0. -1.
         21   -1    0    0  501  502 -0.00000000000E+00 -0.00000000000E+00 -0.22878743008E+03  0.22878743008E+03  0.00000000000E+00 0. -1.
         25    1    1    2    0    0 -0.14906247269E+03  0.18713064532E+03  0.15409984296E+03  0.31082030304E+03  0.12500000000E+03 0.  0.
         25    1    1    2    0    0  0.12077079593E+03 -0.15056456608E+03  0.93586104745E+02  0.24827128853E+03  0.12500000000E+03 0.  0.
         25    1    1    2    0    0  0.28291676753E+02 -0.36566079236E+02 -0.12324560393E+02  0.13384465590E+03  0.12500000000E+03 0.  0.
</event>
<event>
 5    0  0.5619558E-005  0.2619410E+03  0.7546771E-02  0.1105983E+00
         21   -1    0    0  502  501  0.00000000000E+00  0.00000000000E+00  0.12844512834E+03  0.12844512834E+03  0.00000000000E+00 0. -1.
         21   -1    0    0  501  502 -0.00000000000E+00 -0.00000000000E+00 -0.53418218157E+03  0.53418218157E+03  0.00000000000E+00 0. -1.
         25    1    1    2    0    0  0.62110462980E+01  0.10161674004E+03 -0.13460377769E+03  0.21001837044E+03  0.12500000000E+03 0.  0.
         25    1    1    2    0    0 -0.12263004849E+03 -0.32761963572E+02 -0.13839418853E+03  0.22558684906E+03  0.12500000000E+03 0.  0.
         25    1    1    2    0    0  0.11641900219E+03 -0.68854776471E+02 -0.13273908700E+03  0.22702209040E+03  0.12500000000E+03 0.  0.
</event>
<event>
 5    0  0.5619558E-005  0.2588932E+03  0.7546771E-02  0.1107810E+00
         21   -1    0    0  502  501  0.00000000000E+00  0.00000000000E+00  0.17459328976E+03  0.17459328976E+03  0.00000000000E+00 0. -1.
         21   -1    0    0  501  502 -0.00000000000E+00 -0.00000000000E+00 -0.38389621235E+03  0.38389621235E+03  0.00000000000E+00 0. -1.
         25    1    1    2    0    0  0.48965704700E+02 -0.40861741663E+02 -0.18858819682E+03  0.23506984100E+03  0.12500000000E+03 0.  0.
         25    1    1    2    0    0 -0.52284454229E+02  0.11106571933E+03 -0.37100264057E+02  0.17908290749E+03  0.12500000000E+03 0.  0.
         25    1    1    2    0    0  0.33187495285E+01 -0.70203977664E+02  0.16385538294E+02  0.14433675361E+03  0.12500000000E+03 0.  0.
</event>
<event>
 5    0  0.5619558E-005  0.2214999E+03  0.7546771E-02  0.1132770E+00
         21   -1    0    0  502  501  0.00000000000E+00  0.00000000000E+00  0.12320474091E+03  0.12320474091E+03  0.00000000000E+00 0. -1.
         21   -1    0    0  501  502 -0.00000000000E+00 -0.00000000000E+00 -0.39821698241E+03  0.39821698241E+03  0.00000000000E+00 0. -1.
         25    1    1    2    0    0 -0.57640595043E+02  0.60758519093E+02 -0.67892001748E+02  0.16507077192E+03  0.12500000000E+03 0.  0.
         25    1    1    2    0    0  0.33283081119E+02 -0.61957373236E+02 -0.45271901198E+02  0.15040287439E+03  0.12500000000E+03 0.  0.
         25    1    1    2    0    0  0.24357513924E+02  0.11988541428E+01 -0.16184833855E+03  0.20594807702E+03  0.12500000000E+03 0.  0.
</event>
<event>
 5    0  0.5619558E-005  0.5963968E+03  0.7546771E-02  0.9912910E-01
         21   -1    0    0  502  501  0.00000000000E+00  0.00000000000E+00  0.13117010646E+04  0.13117010646E+04  0.00000000000E+00 0. -1.
         21   -1    0    0  501  502 -0.00000000000E+00 -0.00000000000E+00 -0.27116633744E+03  0.27116633744E+03  0.00000000000E+00 0. -1.
         25    1    1    2    0    0  0.39118243239E+02 -0.22634938668E+03 -0.28931733626E+01  0.26152944817E+03  0.12500000000E+03 0.  0.
         25    1    1    2    0    0  0.13787626582E+03 -0.16240385054E+03  0.79262855601E+02  0.25940793285E+03  0.12500000000E+03 0.  0.
         25    1    1    2    0    0 -0.17699450906E+03  0.38875323722E+03  0.96416504495E+03  0.10619300210E+04  0.12500000000E+03 0.  0.
</event>
<event>
 5    0  0.5619558E-005  0.3905006E+03  0.7546771E-02  0.1047120E+00
         21   -1    0    0  502  501  0.00000000000E+00  0.00000000000E+00  0.11548272251E+04  0.11548272251E+04  0.00000000000E+00 0.  1.
         21   -1    0    0  501  502 -0.00000000000E+00 -0.00000000000E+00 -0.13204631608E+03  0.13204631608E+03  0.00000000000E+00 0.  1.
         25    1    1    2    0    0  0.31806733381E+01 -0.69890420738E+02  0.99027196510E+03  0.10005790086E+04  0.12500000000E+03 0.  0.
         25    1    1    2    0    0  0.55109273575E+02  0.46658853562E+02  0.22134453428E+02  0.14604456401E+03  0.12500000000E+03 0.  0.
         25    1    1    2    0    0 -0.58289946913E+02  0.23231567176E+02  0.10374490467E+02  0.14024996855E+03  0.12500000000E+03 0.  0.
</event>
<event>
 5    0  0.5619558E-005  0.3650091E+03  0.7546771E-02  0.1056618E+00
         21   -1    0    0  502  501  0.00000000000E+00  0.00000000000E+00  0.51020970670E+03  0.51020970670E+03  0.00000000000E+00 0. -1.
         21   -1    0    0  501  502 -0.00000000000E+00 -0.00000000000E+00 -0.26113118867E+03  0.26113118867E+03  0.00000000000E+00 0. -1.
         25    1    1    2    0    0  0.93346132169E+02  0.89160689918E+02  0.28218134858E+03  0.33453616023E+03  0.12500000000E+03 0.  0.
         25    1    1    2    0    0  0.51624809513E+02 -0.50777367837E+02 -0.15081053580E+03  0.20883553278E+03  0.12500000000E+03 0.  0.
         25    1    1    2    0    0 -0.14497094168E+03 -0.38383322081E+02  0.11770770526E+03  0.22796920236E+03  0.12500000000E+03 0.  0.
</event>
<event>
 5    0  0.5619558E-005  0.2968880E+03  0.7546771E-02  0.1086807E+00
         21   -1    0    0  502  501  0.00000000000E+00  0.00000000000E+00  0.68695355318E+03  0.68695355318E+03  0.00000000000E+00 0. -1.
         21   -1    0    0  501  502 -0.00000000000E+00 -0.00000000000E+00 -0.12830924222E+03  0.12830924222E+03  0.00000000000E+00 0. -1.
         25    1    1    2    0    0 -0.99067880388E+02  0.13195421084E+03  0.73315852877E+02  0.21960549393E+03  0.12500000000E+03 0.  0.
         25    1    1    2    0    0  0.20661962490E+02 -0.67324517339E+01  0.90168008304E+02  0.15565189469E+03  0.12500000000E+03 0.  0.
         25    1    1    2    0    0  0.78405917898E+02 -0.12522175910E+03  0.39516044978E+03  0.44000540677E+03  0.12500000000E+03 0.  0.
</event>
<event>
 5    0  0.5801817E-005  0.2893672E+03  0.7546771E-02  0.1090680E+00
         21   -1    0    0  502  501  0.00000000000E+00  0.00000000000E+00  0.57182812955E+03  0.57182812955E+03  0.00000000000E+00 0. -1.
         21   -1    0    0  501  502 -0.00000000000E+00 -0.00000000000E+00 -0.14643097753E+03  0.14643097753E+03  0.00000000000E+00 0. -1.
         25    1    1    2    0    0  0.18111803353E+03 -0.13786467453E+02  0.13632404415E+03  0.25923551795E+03  0.12500000000E+03 0.  0.
         25    1    1    2    0    0 -0.82896524693E+02 -0.81771688048E+02  0.12998511079E+03  0.21466152846E+03  0.12500000000E+03 0.  0.
         25    1    1    2    0    0 -0.98221508838E+02  0.95558155501E+02  0.15908799707E+03  0.24436206067E+03  0.12500000000E+03 0.  0.
</event>
<event>
 5    0  0.5619558E-005  0.2828234E+03  0.7546771E-02  0.1094157E+00
         21   -1    0    0  502  501  0.00000000000E+00  0.00000000000E+00  0.72628968467E+03  0.72628968467E+03  0.00000000000E+00 0.  1.
         21   -1    0    0  501  502 -0.00000000000E+00 -0.00000000000E+00 -0.11013381991E+03  0.11013381991E+03  0.00000000000E+00 0.  1.
         25    1    1    2    0    0  0.91343229007E+02 -0.41844902868E+02  0.32820635958E+02  0.16369720684E+03  0.12500000000E+03 0.  0.
         25    1    1    2    0    0 -0.88266963990E+02  0.19914714321E+02  0.12944148355E+03  0.20141437497E+03  0.12500000000E+03 0.  0.
         25    1    1    2    0    0 -0.30762650174E+01  0.21930188547E+02  0.45389374525E+03  0.47131192278E+03  0.12500000000E+03 0.  0.
</event>
<event>
 5    0  0.5619558E-005  0.3989141E+03  0.7546771E-02  0.1044156E+00
         21   -1    0    0  502  501  0.00000000000E+00  0.00000000000E+00  0.21093593656E+03  0.21093593656E+03  0.00000000000E+00 0.  1.
         21   -1    0    0  501  502 -0.00000000000E+00 -0.00000000000E+00 -0.75441137638E+03  0.75441137638E+03  0.00000000000E+00 0.  1.
         25    1    1    2    0    0 -0.34823958702E+02 -0.12292008054E+03 -0.16706037107E+02  0.17951642258E+03  0.12500000000E+03 0.  0.
         25    1    1    2    0    0  0.44090770752E+02 -0.15675914916E+03 -0.37781050741E+02  0.20873388490E+03  0.12500000000E+03 0.  0.
         25    1    1    2    0    0 -0.92668120502E+01  0.27967922971E+03 -0.48898835198E+03  0.57709700545E+03  0.12500000000E+03 0.  0.
</event>
<event>
 5    0  0.5619558E-005  0.4086641E+03  0.7546771E-02  0.1040820E+00
         21   -1    0    0  502  501  0.00000000000E+00  0.00000000000E+00  0.63692189228E+03  0.63692189228E+03  0.00000000000E+00 0.  1.
         21   -1    0    0  501  502 -0.00000000000E+00 -0.00000000000E+00 -0.26220846562E+03  0.26220846562E+03  0.00000000000E+00 0.  1.
         25    1    1    2    0    0  0.17358609889E+03 -0.29282302168E+02  0.82131591343E+02  0.23099823645E+03  0.12500000000E+03 0.  0.
         25    1    1    2    0    0 -0.22242415426E+03 -0.20626038930E+03  0.13676513332E+03  0.35545119818E+03  0.12500000000E+03 0.  0.
         25    1    1    2    0    0  0.48838055374E+02  0.23554269147E+03  0.15581670200E+03  0.31268092327E+03  0.12500000000E+03 0.  0.
</event>
<event>
 5    0  0.5619558E-005  0.4355116E+03  0.7546771E-02  0.1032133E+00
         21   -1    0    0  502  501  0.00000000000E+00  0.00000000000E+00  0.47083427856E+03  0.47083427856E+03  0.00000000000E+00 0. -1.
         21   -1    0    0  501  502 -0.00000000000E+00 -0.00000000000E+00 -0.40283892924E+03  0.40283892924E+03  0.00000000000E+00 0. -1.
         25    1    1    2    0    0 -0.82910512166E+01 -0.50643524878E+02  0.53149619648E+02  0.14520120596E+03  0.12500000000E+03 0.  0.
         25    1    1    2    0    0 -0.27606104690E+02  0.23321212835E+03  0.27665531983E+03  0.38381396512E+03  0.12500000000E+03 0.  0.
         25    1    1    2    0    0  0.35897155907E+02 -0.18256860347E+03 -0.26180959016E+03  0.34465803672E+03  0.12500000000E+03 0.  0.
</event>
<event>
 5    0  0.5619558E-005  0.5121138E+03  0.7546771E-02  0.1010665E+00
         21   -1    0    0  502  501  0.00000000000E+00  0.00000000000E+00  0.27203049394E+03  0.27203049394E+03  0.00000000000E+00 0. -1.
         21   -1    0    0  501  502 -0.00000000000E+00 -0.00000000000E+00 -0.96408505446E+03  0.96408505446E+03  0.00000000000E+00 0. -1.
         25    1    1    2    0    0  0.20225088968E+03  0.10663909534E+03 -0.28237165622E+03  0.38423439626E+03  0.12500000000E+03 0.  0.
         25    1    1    2    0    0 -0.25597441185E+03 -0.24629709691E+03 -0.50892663466E+03  0.63310068626E+03  0.12500000000E+03 0.  0.
         25    1    1    2    0    0  0.53723522174E+02  0.13965800156E+03  0.99243730364E+02  0.21878046588E+03  0.12500000000E+03 0.  0.
</event>
<event>
 5    0  0.5619558E-005  0.2816550E+03  0.7546771E-02  0.1094788E+00
         21   -1    0    0  502  501  0.00000000000E+00  0.00000000000E+00  0.18120668758E+04  0.18120668758E+04  0.00000000000E+00 0. -1.
         21   -1    0    0  501  502 -0.00000000000E+00 -0.00000000000E+00 -0.43778491007E+02  0.43778491007E+02  0.00000000000E+00 0. -1.
         25    1    1    2    0    0 -0.16374779074E+03 -0.16831163980E+02  0.77688773878E+03  0.80391304612E+03  0.12500000000E+03 0.  0.
         25    1    1    2    0    0  0.12740291726E+03  0.36996642170E+02  0.79372464061E+03  0.81438569485E+03  0.12500000000E+03 0.  0.
         25    1    1    2    0    0  0.36344873476E+02 -0.20165478190E+02  0.19767600542E+03  0.23754662586E+03  0.12500000000E+03 0.  0.
</event>
<event>
 5    0  0.5619558E-005  0.2706744E+03  0.7546771E-02  0.1100894E+00
         21   -1    0    0  502  501  0.00000000000E+00  0.00000000000E+00  0.21269112588E+03  0.21269112588E+03  0.00000000000E+00 0. -1.
         21   -1    0    0  501  502 -0.00000000000E+00 -0.00000000000E+00 -0.34446496730E+03  0.34446496730E+03  0.00000000000E+00 0. -1.
         25    1    1    2    0    0 -0.29062288039E+01  0.17843714950E+03 -0.74652476391E+02  0.23031772558E+03  0.12500000000E+03 0.  0.
         25    1    1    2    0    0 -0.67400802990E+01 -0.10911230413E+03  0.14460830889E+02  0.16668844959E+03  0.12500000000E+03 0.  0.
         25    1    1    2    0    0  0.96463091029E+01 -0.69324845366E+02 -0.71582195921E+02  0.16014991801E+03  0.12500000000E+03 0.  0.
</event>
<event>
 5    0  0.5619558E-005  0.3741102E+03  0.7546771E-02  0.1053132E+00
         21   -1    0    0  502  501  0.00000000000E+00  0.00000000000E+00  0.89428009436E+03  0.89428009436E+03  0.00000000000E+00 0. -1.
         21   -1    0    0  501  502 -0.00000000000E+00 -0.00000000000E+00 -0.15650403160E+03  0.15650403160E+03  0.00000000000E+00 0. -1.
         25    1    1    2    0    0  0.19228845700E+03 -0.11957202947E+03  0.47323536258E+03  0.53930420851E+03  0.12500000000E+03 0.  0.
         25    1    1    2    0    0  0.36894280798E+00  0.15717898909E+02 -0.24113050551E+02  0.12827169474E+03  0.12500000000E+03 0.  0.
         25    1    1    2    0    0 -0.19265739981E+03  0.10385413056E+03  0.28865375073E+03  0.38320822270E+03  0.12500000000E+03 0.  0.
</event>
<event>
 5    0  0.5619558E-005  0.4606514E+03  0.7546771E-02  0.1024592E+00
         21   -1    0    0  502  501  0.00000000000E+00  0.00000000000E+00  0.87697669908E+03  0.87697669908E+03  0.00000000000E+00 0. -1.
         21   -1    0    0  501  502 -0.00000000000E+00 -0.00000000000E+00 -0.24196736120E+03  0.24196736120E+03  0.00000000000E+00 0. -1.
         25    1    1    2    0    0 -0.13184995233E+02  0.53623094381E+01  0.54568928419E+03  0.56000392262E+03  0.12500000000E+03 0.  0.
         25    1    1    2    0    0  0.15801182866E+03  0.85150146908E+02 -0.12976308431E+03  0.25432605758E+03  0.12500000000E+03 0.  0.
         25    1    1    2    0    0 -0.14482683343E+03 -0.90512456347E+02  0.21908313800E+03  0.30461408009E+03  0.12500000000E+03 0.  0.
</event>
<event>
 5    0  0.5640946E-005  0.3445848E+03  0.7546771E-02  0.1064860E+00
         21   -1    0    0  502  501  0.00000000000E+00  0.00000000000E+00  0.17418837374E+03  0.17418837374E+03  0.00000000000E+00 0.  1.
         21   -1    0    0  501  502 -0.00000000000E+00 -0.00000000000E+00 -0.68166823022E+03  0.68166823022E+03  0.00000000000E+00 0.  1.
         25    1    1    2    0    0  0.78832848811E+02  0.81439405895E+02 -0.26347689028E+03  0.31287707905E+03  0.12500000000E+03 0.  0.
         25    1    1    2    0    0  0.41758528566E+01 -0.12637629157E+03 -0.32212917033E+03  0.36794103766E+03  0.12500000000E+03 0.  0.
         25    1    1    2    0    0 -0.83008701667E+02  0.44936885676E+02  0.78126204134E+02  0.17503848725E+03  0.12500000000E+03 0.  0.
</event>
<event>
 5    0  0.5619558E-005  0.3021034E+03  0.7546771E-02  0.1084194E+00
         21   -1    0    0  502  501  0.00000000000E+00  0.00000000000E+00  0.15418280613E+03  0.15418280613E+03  0.00000000000E+00 0. -1.
         21   -1    0    0  501  502 -0.00000000000E+00 -0.00000000000E+00 -0.59193679589E+03  0.59193679589E+03  0.00000000000E+00 0. -1.
         25    1    1    2    0    0 -0.13958264892E+03 -0.33319158383E+02 -0.20873909035E+03  0.28247210488E+03  0.12500000000E+03 0.  0.
         25    1    1    2    0    0  0.20992281720E+03 -0.12795146982E+02 -0.18487678926E+03  0.30665246155E+03  0.12500000000E+03 0.  0.
         25    1    1    2    0    0 -0.70340168284E+02  0.46114305365E+02 -0.44138110152E+02  0.15699503559E+03  0.12500000000E+03 0.  0.
</event>
<event>
 5    0  0.5619558E-005  0.2831326E+03  0.7546771E-02  0.1093990E+00
         21   -1    0    0  502  501  0.00000000000E+00  0.00000000000E+00  0.70993953974E+03  0.70993953974E+03  0.00000000000E+00 0. -1.
         21   -1    0    0  501  502 -0.00000000000E+00 -0.00000000000E+00 -0.11291677434E+03  0.11291677434E+03  0.00000000000E+00 0. -1.
         25    1    1    2    0    0 -0.11237843163E+03 -0.24972996477E+02  0.57819032230E+02  0.17950098311E+03  0.12500000000E+03 0.  0.
         25    1    1    2    0    0  0.73602660449E+00  0.10398623160E+03  0.21002404433E+03  0.26561019802E+03  0.12500000000E+03 0.  0.
         25    1    1    2    0    0  0.11164240502E+03 -0.79013235119E+02  0.32917968884E+03  0.37774513295E+03  0.12500000000E+03 0.  0.
</event>
<event>
 5    0  0.5619558E-005  0.2576687E+03  0.7546771E-02  0.1108552E+00
         21   -1    0    0  502  501  0.00000000000E+00  0.00000000000E+00  0.23567715624E+03  0.23567715624E+03  0.00000000000E+00 0. -1.
         21   -1    0    0  501  502 -0.00000000000E+00 -0.00000000000E+00 -0.28171223524E+03  0.28171223524E+03  0.00000000000E+00 0. -1.
         25    1    1    2    0    0 -0.90921969332E+01 -0.11980148984E+03 -0.51763573035E+02  0.18094068781E+03  0.12500000000E+03 0.  0.
         25    1    1    2    0    0 -0.66346570914E+02  0.12710481580E+03  0.34859166200E+01  0.19024892453E+03  0.12500000000E+03 0.  0.
         25    1    1    2    0    0  0.75438767847E+02 -0.73033259613E+01  0.22425774171E+01  0.14619977913E+03  0.12500000000E+03 0.  0.
</event>
<event>
 5    0  0.5619558E-005  0.3284792E+03  0.7546771E-02  0.1071812E+00
         21   -1    0    0  502  501  0.00000000000E+00  0.00000000000E+00  0.11122723036E+03  0.11122723036E+03  0.00000000000E+00 0.  1.
         21   -1    0    0  501  502 -0.00000000000E+00 -0.00000000000E+00 -0.97007328706E+03  0.97007328706E+03  0.00000000000E+00 0.  1.
         25    1    1    2    0    0 -0.98224440215E+02 -0.92973611593E+02 -0.59238953657E+03  0.62035674910E+03  0.12500000000E+03 0.  0.
         25    1    1    2    0    0 -0.43394301972E+02 -0.32248347981E+02 -0.16129794222E+03  0.21110435229E+03  0.12500000000E+03 0.  0.
         25    1    1    2    0    0  0.14161874219E+03  0.12522195957E+03 -0.10515857789E+03  0.24983941603E+03  0.12500000000E+03 0.  0.
</event>
<event>
 5    0  0.5619558E-005  0.6957673E+03  0.7546771E-02  0.9724498E-01
         21   -1    0    0  502  501  0.00000000000E+00  0.00000000000E+00  0.11682300440E+04  0.11682300440E+04  0.00000000000E+00 0.  1.
         21   -1    0    0  501  502 -0.00000000000E+00 -0.00000000000E+00 -0.41438085916E+03  0.41438085916E+03  0.00000000000E+00 0.  1.
         25    1    1    2    0    0 -0.85093662812E+02  0.51660331335E+02  0.30085742788E+03  0.34066099453E+03  0.12500000000E+03 0.  0.
         25    1    1    2    0    0  0.51825453291E+03 -0.29043345580E+03  0.85225926676E+02  0.61304796852E+03  0.12500000000E+03 0.  0.
         25    1    1    2    0    0 -0.43316087009E+03  0.23877312447E+03  0.36776583029E+03  0.62890194011E+03  0.12500000000E+03 0.  0.
</event>
<event>
 5    0  0.5619558E-005  0.2620651E+03  0.7546771E-02  0.1105909E+00
         21   -1    0    0  502  501  0.00000000000E+00  0.00000000000E+00  0.20757970997E+04  0.20757970997E+04  0.00000000000E+00 0.  1.
         21   -1    0    0  501  502 -0.00000000000E+00 -0.00000000000E+00 -0.33085179636E+02  0.33085179636E+02  0.00000000000E+00 0.  1.
         25    1    1    2    0    0 -0.75676566020E+02  0.10363870096E+03  0.81721649570E+03  0.83662161329E+03  0.12500000000E+03 0.  0.
         25    1    1    2    0    0  0.65234792050E+01 -0.97900540584E+02  0.93592212492E+03  0.94931675195E+03  0.12500000000E+03 0.  0.
         25    1    1    2    0    0  0.69153086815E+02 -0.57381603768E+01  0.28957329950E+03  0.32294391414E+03  0.12500000000E+03 0.  0.
</event>
<event>
 5    0  0.5619558E-005  0.3328704E+03  0.7546771E-02  0.1069874E+00
         21   -1    0    0  502  501  0.00000000000E+00  0.00000000000E+00  0.54680846034E+03  0.54680846034E+03  0.00000000000E+00 0.  1.
         21   -1    0    0  501  502 -0.00000000000E+00 -0.00000000000E+00 -0.20263534791E+03  0.20263534791E+03  0.00000000000E+00 0.  1.
         25    1    1    2    0    0 -0.16503186166E+02  0.21071863833E+01  0.40648244944E+03  0.42559344108E+03  0.12500000000E+03 0.  0.
         25    1    1    2    0    0 -0.15621760817E+02 -0.40182631770E+00  0.65689343382E+02  0.14207142819E+03  0.12500000000E+03 0.  0.
         25    1    1    2    0    0  0.32124946983E+02 -0.17053600656E+01 -0.12799868039E+03  0.18177893897E+03  0.12500000000E+03 0.  0.
</event>
<event>
 5    0  0.5924267E-005  0.5487196E+03  0.7546771E-02  0.1001791E+00
         21   -1    0    0  502  501  0.00000000000E+00  0.00000000000E+00  0.15785006506E+04  0.15785006506E+04  0.00000000000E+00 0. -1.
         21   -1    0    0  501  502 -0.00000000000E+00 -0.00000000000E+00 -0.19074634806E+03  0.19074634806E+03  0.00000000000E+00 0. -1.
         25    1    1    2    0    0  0.20604916049E+03  0.20893452730E+02  0.87709127321E+03  0.90983893874E+03  0.12500000000E+03 0.  0.
         25    1    1    2    0    0 -0.14532683274E+03 -0.30929349090E+03  0.33314513540E+03  0.49334879454E+03  0.12500000000E+03 0.  0.
         25    1    1    2    0    0 -0.60722327743E+02  0.28840003817E+03  0.17751789394E+03  0.36605926538E+03  0.12500000000E+03 0.  0.
</event>
<event>
 5    0  0.5619558E-005  0.2754177E+03  0.7546771E-02  0.1098218E+00
         21   -1    0    0  502  501  0.00000000000E+00  0.00000000000E+00  0.46795344393E+02  0.46795344393E+02  0.00000000000E+00 0. -1.
         21   -1    0    0  501  502 -0.00000000000E+00 -0.00000000000E+00 -0.16209931994E+04  0.16209931994E+04  0.00000000000E+00 0. -1.
         25    1    1    2    0    0  0.78268131969E+02 -0.37188493262E+02 -0.10463173692E+04  0.10573144857E+04  0.12500000000E+03 0.  0.
         25    1    1    2    0    0  0.23619382469E+02  0.17735433961E+02 -0.33216650701E+03  0.35613481889E+03  0.12500000000E+03 0.  0.
         25    1    1    2    0    0 -0.10188751444E+03  0.19453059301E+02 -0.19571397876E+03  0.25433923920E+03  0.12500000000E+03 0.  0.
</event>
<event>
 5    0  0.5619558E-005  0.5239963E+03  0.7546771E-02  0.1007699E+00
         21   -1    0    0  502  501  0.00000000000E+00  0.00000000000E+00  0.26999077647E+03  0.26999077647E+03  0.00000000000E+00 0. -1.
         21   -1    0    0  501  502 -0.00000000000E+00 -0.00000000000E+00 -0.10169686043E+04  0.10169686043E+04  0.00000000000E+00 0. -1.
         25    1    1    2    0    0  0.27852642820E+03 -0.11621496709E+03 -0.61337052540E+03  0.69493258034E+03  0.12500000000E+03 0.  0.
         25    1    1    2    0    0 -0.68489743615E+02  0.25474258683E+03 -0.33698753782E+02  0.29384559982E+03  0.12500000000E+03 0.  0.
         25    1    1    2    0    0 -0.21003668459E+03 -0.13852761974E+03 -0.99908548648E+02  0.29818120061E+03  0.12500000000E+03 0.  0.
</event>
<event>
 5    0  0.5619558E-005  0.4778422E+03  0.7546771E-02  0.1019730E+00
         21   -1    0    0  502  501  0.00000000000E+00  0.00000000000E+00  0.27444741777E+03  0.27444741777E+03  0.00000000000E+00 0. -1.
         21   -1    0    0  501  502 -0.00000000000E+00 -0.00000000000E+00 -0.83197432838E+03  0.83197432838E+03  0.00000000000E+00 0. -1.
         25    1    1    2    0    0  0.94738158708E+02  0.58237398082E+01 -0.19084767819E+02  0.15810902259E+03  0.12500000000E+03 0.  0.
         25    1    1    2    0    0  0.19654767248E+01 -0.31365341461E+03 -0.37846900279E+02  0.33976420568E+03  0.12500000000E+03 0.  0.
         25    1    1    2    0    0 -0.96703635432E+02  0.30782967481E+03 -0.50059524251E+03  0.60854851788E+03  0.12500000000E+03 0.  0.
</event>
<event>
 5    0  0.5619558E-005  0.4349884E+03  0.7546771E-02  0.1032296E+00
         21   -1    0    0  502  501  0.00000000000E+00  0.00000000000E+00  0.72776834172E+03  0.72776834172E+03  0.00000000000E+00 0.  1.
         21   -1    0    0  501  502 -0.00000000000E+00 -0.00000000000E+00 -0.25999333443E+03  0.25999333443E+03  0.00000000000E+00 0.  1.
         25    1    1    2    0    0  0.87460882140E+02  0.19690730154E+03  0.14871388761E+03  0.29010810343E+03  0.12500000000E+03 0.  0.
         25    1    1    2    0    0 -0.26189283948E+03 -0.26314102533E+03  0.24078217701E+03  0.45981748048E+03  0.12500000000E+03 0.  0.
         25    1    1    2    0    0  0.17443195734E+03  0.66233723792E+02  0.78278942672E+02  0.23783609225E+03  0.12500000000E+03 0.  0.
</event>
<event>
 5    0  0.5619558E-005  0.2596508E+03  0.7546771E-02  0.1107353E+00
         21   -1    0    0  502  501  0.00000000000E+00  0.00000000000E+00  0.22667743868E+03  0.22667743868E+03  0.00000000000E+00 0. -1.
         21   -1    0    0  501  502 -0.00000000000E+00 -0.00000000000E+00 -0.29742066400E+03  0.29742066400E+03  0.00000000000E+00 0. -1.
         25    1    1    2    0    0  0.50669168904E+02  0.25855587021E+01  0.19910758625E+02  0.13636527454E+03  0.12500000000E+03 0.  0.
         25    1    1    2    0    0  0.28926671457E+02  0.20699645406E+02 -0.17318021137E+03  0.21652162306E+03  0.12500000000E+03 0.  0.
         25    1    1    2    0    0 -0.79595840362E+02 -0.23285204108E+02  0.82526227428E+02  0.17121120509E+03  0.12500000000E+03 0.  0.
</event>
<event>
 5    0  0.5619558E-005  0.3411926E+03  0.7546771E-02  0.1066289E+00
         21   -1    0    0  502  501  0.00000000000E+00  0.00000000000E+00  0.18171690340E+03  0.18171690340E+03  0.00000000000E+00 0. -1.
         21   -1    0    0  501  502 -0.00000000000E+00 -0.00000000000E+00 -0.64062514969E+03  0.64062514969E+03  0.00000000000E+00 0. -1.
         25    1    1    2    0    0 -0.45500576847E+02 -0.71839677492E+02 -0.22444880744E+03  0.27061690434E+03  0.12500000000E+03 0.  0.
         25    1    1    2    0    0 -0.31081687784E+01 -0.14519405633E+02 -0.33858771767E+03  0.36123000486E+03  0.12500000000E+03 0.  0.
         25    1    1    2    0    0  0.48608745625E+02  0.86359083125E+02  0.10412827883E+03  0.19049514388E+03  0.12500000000E+03 0.  0.
</event>
<event>
 5    0  0.5619558E-005  0.2357211E+03  0.7546771E-02  0.1122677E+00
         21   -1    0    0  502  501  0.00000000000E+00  0.00000000000E+00  0.41475489119E+03  0.41475489119E+03  0.00000000000E+00 0. -1.
         21   -1    0    0  501  502 -0.00000000000E+00 -0.00000000000E+00 -0.13396928805E+03  0.13396928805E+03  0.00000000000E+00 0. -1.
         25    1    1    2    0    0 -0.50427181691E+02 -0.77033592645E+02  0.11299508144E+03  0.19201552926E+03  0.12500000000E+03 0.  0.
         25    1    1    2    0    0  0.82748969903E+02  0.80045561754E+01  0.14467672411E+03  0.20848937488E+03  0.12500000000E+03 0.  0.
         25    1    1    2    0    0 -0.32321788211E+02  0.69029036470E+02  0.23113797589E+02  0.14821927509E+03  0.12500000000E+03 0.  0.
</event>
<event>
 5    0  0.6136406E-005  0.3565176E+03  0.7546771E-02  0.1059971E+00
         21   -1    0    0  502  501  0.00000000000E+00  0.00000000000E+00  0.26942186459E+03  0.26942186459E+03  0.00000000000E+00 0. -1.
         21   -1    0    0  501  502 -0.00000000000E+00 -0.00000000000E+00 -0.47176867528E+03  0.47176867528E+03  0.00000000000E+00 0. -1.
         25    1    1    2    0    0 -0.37116532484E+02 -0.79827318387E+02 -0.20685344441E+03  0.25722244305E+03  0.12500000000E+03 0.  0.
         25    1    1    2    0    0 -0.18096110020E+03  0.52268920408E+02 -0.32570442212E+02  0.22839613291E+03  0.12500000000E+03 0.  0.
         25    1    1    2    0    0  0.21807763268E+03  0.27558397979E+02  0.37077075935E+02  0.25557196391E+03  0.12500000000E+03 0.  0.
</event>
<event>
 5    0  0.6962739E-005  0.2855816E+03  0.7546771E-02  0.1092679E+00
         21   -1    0    0  502  501  0.00000000000E+00  0.00000000000E+00  0.81023487939E+03  0.81023487939E+03  0.00000000000E+00 0. -1.
         21   -1    0    0  501  502 -0.00000000000E+00 -0.00000000000E+00 -0.10065828855E+03  0.10065828855E+03  0.00000000000E+00 0. -1.
         25    1    1    2    0    0 -0.96274463149E+02  0.45360750416E+02  0.23422127965E+03  0.28602618372E+03  0.12500000000E+03 0.  0.
         25    1    1    2    0    0  0.47428146138E+02 -0.97235162529E+02  0.45341501404E+02  0.17142041193E+03  0.12500000000E+03 0.  0.
         25    1    1    2    0    0  0.48846317011E+02  0.51874412113E+02  0.43001380978E+03  0.45344657229E+03  0.12500000000E+03 0.  0.
</event>
<event>
 5    0  0.5619558E-005  0.2344442E+03  0.7546771E-02  0.1123550E+00
         21   -1    0    0  502  501  0.00000000000E+00  0.00000000000E+00  0.51256653315E+03  0.51256653315E+03  0.00000000000E+00 0. -1.
         21   -1    0    0  501  502 -0.00000000000E+00 -0.00000000000E+00 -0.10723310911E+03  0.10723310911E+03  0.00000000000E+00 0. -1.
         25    1    1    2    0    0 -0.52824243247E+02 -0.36210633634E+02  0.72627886526E+02  0.15811837516E+03  0.12500000000E+03 0.  0.
         25    1    1    2    0    0 -0.26605558513E+01 -0.70437794275E+02  0.18314561084E+03  0.23267117610E+03  0.12500000000E+03 0.  0.
         25    1    1    2    0    0  0.55484799099E+02  0.10664842791E+03  0.14955992668E+03  0.22901009099E+03  0.12500000000E+03 0.  0.
</event>
<event>
 5    0  0.5619558E-005  0.3273366E+03  0.7546771E-02  0.1072321E+00
         21   -1    0    0  502  501  0.00000000000E+00  0.00000000000E+00  0.17719979255E+03  0.17719979255E+03  0.00000000000E+00 0. -1.
         21   -1    0    0  501  502 -0.00000000000E+00 -0.00000000000E+00 -0.60468042122E+03  0.60468042122E+03  0.00000000000E+00 0. -1.
         25    1    1    2    0    0 -0.20784177977E+03  0.19250008207E+02 -0.35754735532E+03  0.43247413741E+03  0.12500000000E+03 0.  0.
         25    1    1    2    0    0  0.66046295604E+02 -0.33159644911E+02 -0.66806152155E+02  0.15984285151E+03  0.12500000000E+03 0.  0.
         25    1    1    2    0    0  0.14179548417E+03  0.13909636704E+02 -0.31271211984E+01  0.18956322484E+03  0.12500000000E+03 0.  0.
</event>
<event>
 5    0  0.5619558E-005  0.3421129E+03  0.7546771E-02  0.1065900E+00
         21   -1    0    0  502  501  0.00000000000E+00  0.00000000000E+00  0.98179081002E+02  0.98179081002E+02  0.00000000000E+00 0. -1.
         21   -1    0    0  501  502 -0.00000000000E+00 -0.00000000000E+00 -0.11921201272E+04  0.11921201272E+04  0.00000000000E+00 0. -1.
         25    1    1    2    0    0 -0.11928166499E+03  0.12251255324E+03 -0.11884252126E+03  0.24287030729E+03  0.12500000000E+03 0.  0.
         25    1    1    2    0    0 -0.15385843447E+02 -0.52530460128E+02 -0.16652930723E+03  0.21529789499E+03  0.12500000000E+03 0.  0.
         25    1    1    2    0    0  0.13466750844E+03 -0.69982093113E+02 -0.80856921767E+03  0.83213100589E+03  0.12500000000E+03 0.  0.
</event>
<event>
 5    0  0.5619558E-005  0.2152707E+03  0.7546771E-02  0.1137459E+00
         21   -1    0    0  502  501  0.00000000000E+00  0.00000000000E+00  0.17766792702E+02  0.17766792702E+02  0.00000000000E+00 0.  1.
         21   -1    0    0  501  502 -0.00000000000E+00 -0.00000000000E+00 -0.26083208262E+04  0.26083208262E+04  0.00000000000E+00 0.  1.
         25    1    1    2    0    0  0.77614768505E+02  0.28132949184E+02 -0.69806876117E+03  0.71396114071E+03  0.12500000000E+03 0.  0.
         25    1    1    2    0    0 -0.27647256519E+02 -0.47949252549E+02 -0.88571819463E+03  0.89620601532E+03  0.12500000000E+03 0.  0.
         25    1    1    2    0    0 -0.49967511986E+02  0.19816303365E+02 -0.10067670777E+04  0.10159204629E+04  0.12500000000E+03 0.  0.
</event>
<event>
 5    0  0.5619558E-005  0.3101760E+03  0.7546771E-02  0.1080262E+00
         21   -1    0    0  502  501  0.00000000000E+00  0.00000000000E+00  0.51322268149E+03  0.51322268149E+03  0.00000000000E+00 0.  1.
         21   -1    0    0  501  502 -0.00000000000E+00 -0.00000000000E+00 -0.18746083766E+03  0.18746083766E+03  0.00000000000E+00 0.  1.
         25    1    1    2    0    0 -0.18446132185E+02  0.11918855328E+03  0.12858575526E+03  0.21611447772E+03  0.12500000000E+03 0.  0.
         25    1    1    2    0    0 -0.14934806601E+03 -0.12827414270E+03  0.10342712963E+03  0.25511031271E+03  0.12500000000E+03 0.  0.
         25    1    1    2    0    0  0.16779419819E+03  0.90855894237E+01  0.93748958938E+02  0.22945872872E+03  0.12500000000E+03 0.  0.
</event>
<event>
 5    0  0.5619558E-005  0.2388032E+03  0.7546771E-02  0.1120593E+00
         21   -1    0    0  502  501  0.00000000000E+00  0.00000000000E+00  0.72086355409E+02  0.72086355409E+02  0.00000000000E+00 0.  1.
         21   -1    0    0  501  502 -0.00000000000E+00 -0.00000000000E+00 -0.79109247614E+03  0.79109247614E+03  0.00000000000E+00 0.  1.
         25    1    1    2    0    0 -0.16019332991E+02 -0.51899397615E+02 -0.11533192226E+03  0.17854024419E+03  0.12500000000E+03 0.  0.
         25    1    1    2    0    0 -0.63457460192E+02  0.52819180780E+02 -0.17114582017E+03  0.22744803115E+03  0.12500000000E+03 0.  0.
         25    1    1    2    0    0  0.79476793183E+02 -0.91978316489E+00 -0.43252837830E+03  0.45719055621E+03  0.12500000000E+03 0.  0.
</event>
<event>
 5    0  0.5619558E-005  0.2338385E+03  0.7546771E-02  0.1123967E+00
         21   -1    0    0  502  501  0.00000000000E+00  0.00000000000E+00  0.33414981407E+02  0.33414981407E+02  0.00000000000E+00 0.  1.
         21   -1    0    0  501  502 -0.00000000000E+00 -0.00000000000E+00 -0.16364053780E+04  0.16364053780E+04  0.00000000000E+00 0.  1.
         25    1    1    2    0    0  0.67594517509E+02 -0.54658950510E+02 -0.90080956410E+03  0.91358606077E+03  0.12500000000E+03 0.  0.
         25    1    1    2    0    0 -0.67106321966E+02 -0.54496035351E+01 -0.34560142104E+03  0.37362855733E+03  0.12500000000E+03 0.  0.
         25    1    1    2    0    0 -0.48819554327E+00  0.60108554046E+02 -0.35657941142E+03  0.38260574127E+03  0.12500000000E+03 0.  0.
</event>
<event>
 5    0  0.5619558E-005  0.2540706E+03  0.7546771E-02  0.1110759E+00
         21   -1    0    0  502  501  0.00000000000E+00  0.00000000000E+00  0.16510404106E+03  0.16510404106E+03  0.00000000000E+00 0.  1.
         21   -1    0    0  501  502 -0.00000000000E+00 -0.00000000000E+00 -0.39097684945E+03  0.39097684945E+03  0.00000000000E+00 0.  1.
         25    1    1    2    0    0  0.51484119558E+01 -0.32815281034E+02 -0.34735239388E+02  0.13392119201E+03  0.12500000000E+03 0.  0.
         25    1    1    2    0    0 -0.93254373194E+02  0.84564220360E+01 -0.21472265596E+03  0.26551592829E+03  0.12500000000E+03 0.  0.
         25    1    1    2    0    0  0.88105961238E+02  0.24358858998E+02  0.23585086955E+02  0.15664377021E+03  0.12500000000E+03 0.  0.
</event>
<event>
 5    0  0.5989050E-005  0.3097687E+03  0.7546771E-02  0.1080457E+00
         21   -1    0    0  502  501  0.00000000000E+00  0.00000000000E+00  0.97434561217E+03  0.97434561217E+03  0.00000000000E+00 0.  1.
         21   -1    0    0  501  502 -0.00000000000E+00 -0.00000000000E+00 -0.98483175582E+02  0.98483175582E+02  0.00000000000E+00 0.  1.
         25    1    1    2    0    0 -0.13896183627E+03 -0.92559901426E+01  0.29737819772E+03  0.35136143467E+03  0.12500000000E+03 0.  0.
         25    1    1    2    0    0  0.12122447612E+03  0.83285480717E+02  0.92721626364E+02  0.21413580949E+03  0.12500000000E+03 0.  0.
         25    1    1    2    0    0  0.17737360147E+02 -0.74029490574E+02  0.48576261250E+03  0.50733154359E+03  0.12500000000E+03 0.  0.
</event>
<event>
 5    0  0.5619558E-005  0.5116211E+03  0.7546771E-02  0.1010789E+00
         21   -1    0    0  502  501  0.00000000000E+00  0.00000000000E+00  0.13849405847E+03  0.13849405847E+03  0.00000000000E+00 0.  1.
         21   -1    0    0  501  502 -0.00000000000E+00 -0.00000000000E+00 -0.18900172399E+04  0.18900172399E+04  0.00000000000E+00 0. -1.
         25    1    1    2    0    0 -0.29909147487E+03  0.26083282484E+03 -0.63669381105E+03  0.76058758988E+03  0.12500000000E+03 0.  0.
         25    1    1    2    0    0  0.30480687791E+03 -0.21587513442E+02 -0.54161900586E+03  0.63431017734E+03  0.12500000000E+03 0.  0.
         25    1    1    2    0    0 -0.57154030414E+01 -0.23924531140E+03 -0.57321036451E+03  0.63361353114E+03  0.12500000000E+03 0.  0.
</event>
<event>
 5    0  0.5619558E-005  0.3940860E+03  0.7546771E-02  0.1045847E+00
         21   -1    0    0  502  501  0.00000000000E+00  0.00000000000E+00  0.20367029764E+03  0.20367029764E+03  0.00000000000E+00 0. -1.
         21   -1    0    0  501  502 -0.00000000000E+00 -0.00000000000E+00 -0.76252536914E+03  0.76252536914E+03  0.00000000000E+00 0. -1.
         25    1    1    2    0    0  0.84175339151E+02  0.20510847704E+03 -0.17971961066E+03  0.31157521328E+03  0.12500000000E+03 0.  0.
         25    1    1    2    0    0 -0.19602112886E+03 -0.24479287020E+03 -0.15395955215E+03  0.37104767343E+03  0.12500000000E+03 0.  0.
         25    1    1    2    0    0  0.11184578971E+03  0.39684393164E+02 -0.22517590870E+03  0.28357278007E+03  0.12500000000E+03 0.  0.
</event>
<event>
 5    0  0.5619558E-005  0.2769659E+03  0.7546771E-02  0.1097358E+00
         21   -1    0    0  502  501  0.00000000000E+00  0.00000000000E+00  0.29723521245E+04  0.29723521245E+04  0.00000000000E+00 0. -1.
         21   -1    0    0  501  502 -0.00000000000E+00 -0.00000000000E+00 -0.25807878554E+02  0.25807878554E+02  0.00000000000E+00 0. -1.
         25    1    1    2    0    0 -0.64496886876E+02  0.15863414735E+03  0.75598627699E+03  0.78515278267E+03  0.12500000000E+03 0.  0.
         25    1    1    2    0    0  0.10908491731E+02 -0.41490196301E+02  0.10764453780E+04  0.10845275853E+04  0.12500000000E+03 0.  0.
         25    1    1    2    0    0  0.53588395145E+02 -0.11714395105E+03  0.11141125909E+04  0.11284796350E+04  0.12500000000E+03 0.  0.
</event>
<event>
 5    0  0.5619558E-005  0.2880157E+03  0.7546771E-02  0.1091390E+00
         21   -1    0    0  502  501  0.00000000000E+00  0.00000000000E+00  0.13880077890E+04  0.13880077890E+04  0.00000000000E+00 0. -1.
         21   -1    0    0  501  502 -0.00000000000E+00 -0.00000000000E+00 -0.59764084680E+02  0.59764084680E+02  0.00000000000E+00 0. -1.
         25    1    1    2    0    0 -0.12387671748E+03  0.60369993986E+02  0.25525274482E+03  0.31586221845E+03  0.12500000000E+03 0.  0.
         25    1    1    2    0    0  0.11921852245E+02  0.16138789519E+02  0.17993365066E+03  0.22000843104E+03  0.12500000000E+03 0.  0.
         25    1    1    2    0    0  0.11195486524E+03 -0.76508783505E+02  0.89305730886E+03  0.91190122421E+03  0.12500000000E+03 0.  0.
</event>
<event>
 5    0  0.5619558E-005  0.2475846E+03  0.7546771E-02  0.1114841E+00
         21   -1    0    0  502  501  0.00000000000E+00  0.00000000000E+00  0.10502359597E+03  0.10502359597E+03  0.00000000000E+00 0. -1.
         21   -1    0    0  501  502 -0.00000000000E+00 -0.00000000000E+00 -0.58366063155E+03  0.58366063155E+03  0.00000000000E+00 0. -1.
         25    1    1    2    0    0 -0.98835766635E+02  0.20129109478E+02 -0.13222979735E+03  0.20804665131E+03  0.12500000000E+03 0.  0.
         25    1    1    2    0    0 -0.40755046649E+02  0.10077067447E+02 -0.82411881082E+02  0.15549675000E+03  0.12500000000E+03 0.  0.
         25    1    1    2    0    0  0.13959081328E+03 -0.30206176925E+02 -0.26399535715E+03  0.32514082622E+03  0.12500000000E+03 0.  0.
</event>
<event>
 5    0  0.5619558E-005  0.3229415E+03  0.7546771E-02  0.1074303E+00
         21   -1    0    0  502  501  0.00000000000E+00  0.00000000000E+00  0.12000407879E+03  0.12000407879E+03  0.00000000000E+00 0.  1.
         21   -1    0    0  501  502 -0.00000000000E+00 -0.00000000000E+00 -0.86906363880E+03  0.86906363880E+03  0.00000000000E+00 0.  1.
         25    1    1    2    0    0  0.99845754927E+02  0.17483976382E+03 -0.31924480680E+03  0.39759321481E+03  0.12500000000E+03 0.  0.
         25    1    1    2    0    0 -0.13004066412E+03 -0.20140871382E+03 -0.32950606840E+03  0.42623384831E+03  0.12500000000E+03 0.  0.
         25    1    1    2    0    0  0.30194909197E+02  0.26568950000E+02 -0.10030868480E+03  0.16524065448E+03  0.12500000000E+03 0.  0.
</event>
<event>
 5    0  0.5619558E-005  0.3346873E+03  0.7546771E-02  0.1069082E+00
         21   -1    0    0  502  501  0.00000000000E+00  0.00000000000E+00  0.48990761549E+02  0.48990761549E+02  0.00000000000E+00 0. -1.
         21   -1    0    0  501  502 -0.00000000000E+00 -0.00000000000E+00 -0.22864633067E+04  0.22864633067E+04  0.00000000000E+00 0. -1.
         25    1    1    2    0    0  0.75492874354E+02  0.59855543940E+02 -0.97051095380E+03  0.98325905623E+03  0.12500000000E+03 0.  0.
         25    1    1    2    0    0 -0.25964770960E+02 -0.22118760250E+03 -0.57733990686E+03  0.63130380395E+03  0.12500000000E+03 0.  0.
         25    1    1    2    0    0 -0.49528103394E+02  0.16133205856E+03 -0.68962168453E+03  0.72089120810E+03  0.12500000000E+03 0.  0.
</event>
<event>
 5    0  0.5619558E-005  0.2924822E+03  0.7546771E-02  0.1089060E+00
         21   -1    0    0  502  501  0.00000000000E+00  0.00000000000E+00  0.12024733973E+03  0.12024733973E+03  0.00000000000E+00 0.  1.
         21   -1    0    0  501  502 -0.00000000000E+00 -0.00000000000E+00 -0.71141585972E+03  0.71141585972E+03  0.00000000000E+00 0.  1.
         25    1    1    2    0    0 -0.51419828615E+02 -0.57382564671E+01 -0.16458160985E+03  0.21304701984E+03  0.12500000000E+03 0.  0.
         25    1    1    2    0    0  0.15306084539E+03 -0.12330801733E+03 -0.16527441107E+03  0.28561008470E+03  0.12500000000E+03 0.  0.
         25    1    1    2    0    0 -0.10164101677E+03  0.12904627380E+03 -0.26131249907E+03  0.33300609490E+03  0.12500000000E+03 0.  0.
</event>
<event>
 5    0  0.5619558E-005  0.2399232E+03  0.7546771E-02  0.1119844E+00
         21   -1    0    0  502  501  0.00000000000E+00  0.00000000000E+00  0.54287577472E+03  0.54287577472E+03  0.00000000000E+00 0. -1.
         21   -1    0    0  501  502 -0.00000000000E+00 -0.00000000000E+00 -0.10603373332E+03  0.10603373332E+03  0.00000000000E+00 0. -1.
         25    1    1    2    0    0 -0.10351561701E+02 -0.98133121273E+02  0.23474060700E+03  0.28366426792E+03  0.12500000000E+03 0.  0.
         25    1    1    2    0    0 -0.30056657347E+02  0.90369880509E+02  0.51777766710E+02  0.16545710949E+03  0.12500000000E+03 0.  0.
         25    1    1    2    0    0  0.40408219048E+02  0.77632407637E+01  0.15032366769E+03  0.19978813063E+03  0.12500000000E+03 0.  0.
</event>
<event>
 5    0  0.5619558E-005  0.3781795E+03  0.7546771E-02  0.1051609E+00
         21   -1    0    0  502  501  0.00000000000E+00  0.00000000000E+00  0.10732410251E+04  0.10732410251E+04  0.00000000000E+00 0.  1.
         21   -1    0    0  501  502 -0.00000000000E+00 -0.00000000000E+00 -0.13325963300E+03  0.13325963300E+03  0.00000000000E+00 0.  1.
         25    1    1    2    0    0 -0.83234198581E+02 -0.10717834207E+03  0.18272634348E+03  0.25967103308E+03  0.12500000000E+03 0.  0.
         25    1    1    2    0    0  0.17039865424E+03  0.26112887370E+03  0.34742269812E+03  0.48327168468E+03  0.12500000000E+03 0.  0.
         25    1    1    2    0    0 -0.87164455661E+02 -0.15395053163E+03  0.40983235049E+03  0.46355794031E+03  0.12500000000E+03 0.  0.
</event>
<event>
 5    0  0.5619558E-005  0.3347923E+03  0.7546771E-02  0.1069036E+00
         21   -1    0    0  502  501  0.00000000000E+00  0.00000000000E+00  0.19198067756E+03  0.19198067756E+03  0.00000000000E+00 0.  1.
         21   -1    0    0  501  502 -0.00000000000E+00 -0.00000000000E+00 -0.58383930985E+03  0.58383930985E+03  0.00000000000E+00 0.  1.
         25    1    1    2    0    0  0.12793062959E+03  0.45273884410E+02 -0.26239786346E+02  0.18635851734E+03  0.12500000000E+03 0.  0.
         25    1    1    2    0    0 -0.19793681170E+03 -0.36902430038E+02 -0.37721047914E+03  0.44548121884E+03  0.12500000000E+03 0.  0.
         25    1    1    2    0    0  0.70006182110E+02 -0.83714543715E+01  0.11591633199E+02  0.14398025122E+03  0.12500000000E+03 0.  0.
</event>
<event>
 5    0  0.5619558E-005  0.2920912E+03  0.7546771E-02  0.1089262E+00
         21   -1    0    0  502  501  0.00000000000E+00  0.00000000000E+00  0.20115499459E+03  0.20115499459E+03  0.00000000000E+00 0.  1.
         21   -1    0    0  501  502 -0.00000000000E+00 -0.00000000000E+00 -0.42413703813E+03  0.42413703813E+03  0.00000000000E+00 0.  1.
         25    1    1    2    0    0  0.51643882755E+02 -0.15440079953E+03 -0.20703815176E+02  0.20630158866E+03  0.12500000000E+03 0.  0.
         25    1    1    2    0    0  0.67465162484E+02  0.19648909933E+02 -0.11259674719E+03  0.18232019989E+03  0.12500000000E+03 0.  0.
         25    1    1    2    0    0 -0.11910904524E+03  0.13475188960E+03 -0.89681481169E+02  0.23667024416E+03  0.12500000000E+03 0.  0.
</event>
<event>
 5    0  0.5619558E-005  0.2612479E+03  0.7546771E-02  0.1106396E+00
         21   -1    0    0  502  501  0.00000000000E+00  0.00000000000E+00  0.92981141792E+02  0.92981141792E+02  0.00000000000E+00 0. -1.
         21   -1    0    0  501  502 -0.00000000000E+00 -0.00000000000E+00 -0.73402495751E+03  0.73402495751E+03  0.00000000000E+00 0. -1.
         25    1    1    2    0    0  0.94632997012E+02  0.62857436799E+02 -0.19432315331E+03  0.25747417229E+03  0.12500000000E+03 0.  0.
         25    1    1    2    0    0 -0.11225170956E+03 -0.18437282585E+02 -0.38834783472E+03  0.42353207721E+03  0.12500000000E+03 0.  0.
         25    1    1    2    0    0  0.17618712544E+02 -0.44420154214E+02 -0.58372827687E+02  0.14599984981E+03  0.12500000000E+03 0.  0.
</event>
<event>
 5    0  0.5619558E-005  0.4940500E+03  0.7546771E-02  0.1015344E+00
         21   -1    0    0  502  501  0.00000000000E+00  0.00000000000E+00  0.96394858347E+03  0.96394858347E+03  0.00000000000E+00 0. -1.
         21   -1    0    0  501  502 -0.00000000000E+00 -0.00000000000E+00 -0.25321410077E+03  0.25321410077E+03  0.00000000000E+00 0. -1.
         25    1    1    2    0    0 -0.20733998483E+03  0.50212739317E+02 -0.92602166583E+02  0.26402906991E+03  0.12500000000E+03 0.  0.
         25    1    1    2    0    0 -0.88716458905E+02  0.41009796034E+01  0.11544431430E+03  0.19193701524E+03  0.12500000000E+03 0.  0.
         25    1    1    2    0    0  0.29605644374E+03 -0.54313718921E+02  0.68789233499E+03  0.76119659910E+03  0.12500000000E+03 0.  0.
</event>
<event>
 5    0  0.5619558E-005  0.3455825E+03  0.7546771E-02  0.1064443E+00
         21   -1    0    0  502  501  0.00000000000E+00  0.00000000000E+00  0.46938458153E+02  0.46938458153E+02  0.00000000000E+00 0.  1.
         21   -1    0    0  501  502 -0.00000000000E+00 -0.00000000000E+00 -0.25443366308E+04  0.25443366308E+04  0.00000000000E+00 0.  1.
         25    1    1    2    0    0 -0.90439069995E+02  0.92265259332E+02 -0.22011532962E+03  0.28419687154E+03  0.12500000000E+03 0.  0.
         25    1    1    2    0    0  0.55881923095E+02 -0.82187492516E+02 -0.49649208245E+03  0.52154286611E+03  0.12500000000E+03 0.  0.
         25    1    1    2    0    0  0.34557146900E+02 -0.10077766816E+02 -0.17807907606E+04  0.17855353513E+04  0.12500000000E+03 0.  0.
</event>
<event>
 5    0  0.5619558E-005  0.2824713E+03  0.7546771E-02  0.1094347E+00
         21   -1    0    0  502  501  0.00000000000E+00  0.00000000000E+00  0.20930366449E+03  0.20930366449E+03  0.00000000000E+00 0.  1.
         21   -1    0    0  501  502 -0.00000000000E+00 -0.00000000000E+00 -0.38121668582E+03  0.38121668582E+03  0.00000000000E+00 0.  1.
         25    1    1    2    0    0 -0.15654846657E+03 -0.58454020295E+02  0.11147855673E+02  0.20898222307E+03  0.12500000000E+03 0.  0.
         25    1    1    2    0    0  0.49839220136E+02 -0.28303162356E+02 -0.29933455359E+02  0.14073389291E+03  0.12500000000E+03 0.  0.
         25    1    1    2    0    0  0.10670924643E+03  0.86757182650E+02 -0.15312742165E+03  0.24080423434E+03  0.12500000000E+03 0.  0.
</event>
<event>
 5    0  0.5619558E-005  0.3221792E+03  0.7546771E-02  0.1074651E+00
         21   -1    0    0  502  501  0.00000000000E+00  0.00000000000E+00  0.31937948804E+03  0.31937948804E+03  0.00000000000E+00 0.  1.
         21   -1    0    0  501  502 -0.00000000000E+00 -0.00000000000E+00 -0.32500345741E+03  0.32500345741E+03  0.00000000000E+00 0.  1.
         25    1    1    2    0    0  0.11404718778E+03 -0.12428212283E+03  0.47399312356E+02  0.21523127539E+03  0.12500000000E+03 0.  0.
         25    1    1    2    0    0  0.78485377524E+02  0.12861748183E+03 -0.14074019050E+02  0.19627911028E+03  0.12500000000E+03 0.  0.
         25    1    1    2    0    0 -0.19253256530E+03 -0.43353590069E+01 -0.38949262681E+02  0.23287255979E+03  0.12500000000E+03 0.  0.
</event>
<event>
 5    0  0.5619558E-005  0.2681568E+03  0.7546771E-02  0.1102339E+00
         21   -1    0    0  502  501  0.00000000000E+00  0.00000000000E+00  0.12738644405E+03  0.12738644405E+03  0.00000000000E+00 0.  1.
         21   -1    0    0  501  502 -0.00000000000E+00 -0.00000000000E+00 -0.56448740473E+03  0.56448740473E+03  0.00000000000E+00 0.  1.
         25    1    1    2    0    0 -0.10337852515E+03  0.58577955659E+02 -0.93882959781E+02  0.19636065413E+03  0.12500000000E+03 0.  0.
         25    1    1    2    0    0  0.69517039726E+02 -0.80976447213E+02 -0.32316952880E+03  0.36256495716E+03  0.12500000000E+03 0.  0.
         25    1    1    2    0    0  0.33861485426E+02  0.22398491554E+02 -0.20048472094E+02  0.13294823749E+03  0.12500000000E+03 0.  0.
</event>
<event>
 5    0  0.5619558E-005  0.2881356E+03  0.7546771E-02  0.1091327E+00
         21   -1    0    0  502  501  0.00000000000E+00  0.00000000000E+00  0.27567113909E+03  0.27567113909E+03  0.00000000000E+00 0. -1.
         21   -1    0    0  501  502 -0.00000000000E+00 -0.00000000000E+00 -0.30116371150E+03  0.30116371150E+03  0.00000000000E+00 0. -1.
         25    1    1    2    0    0 -0.71986043858E+02 -0.66380396816E+02 -0.13207105494E+03  0.20653355937E+03  0.12500000000E+03 0.  0.
         25    1    1    2    0    0  0.41423307415E+02  0.34201818882E+02  0.17450571623E+03  0.22127561955E+03  0.12500000000E+03 0.  0.
         25    1    1    2    0    0  0.30562736442E+02  0.32178577934E+02 -0.67927233699E+02  0.14902567166E+03  0.12500000000E+03 0.  0.
</event>
<event>
 5    0  0.5619558E-005  0.2228866E+03  0.7546771E-02  0.1131749E+00
         21   -1    0    0  502  501  0.00000000000E+00  0.00000000000E+00  0.64763605070E+02  0.64763605070E+02  0.00000000000E+00 0. -1.
         21   -1    0    0  501  502 -0.00000000000E+00 -0.00000000000E+00 -0.76707361354E+03  0.76707361354E+03  0.00000000000E+00 0. -1.
         25    1    1    2    0    0 -0.85046880178E+02  0.32773413178E+02 -0.29738230412E+03  0.33521381720E+03  0.12500000000E+03 0.  0.
         25    1    1    2    0    0 -0.10814206285E+02 -0.33944275199E+02 -0.18545455145E+03  0.22646755072E+03  0.12500000000E+03 0.  0.
         25    1    1    2    0    0  0.95861086463E+02  0.11708620216E+01 -0.21947315289E+03  0.27015585068E+03  0.12500000000E+03 0.  0.
</event>
<event>
 5    0  0.5619558E-005  0.2731096E+03  0.7546771E-02  0.1099513E+00
         21   -1    0    0  502  501  0.00000000000E+00  0.00000000000E+00  0.16419741769E+03  0.16419741769E+03  0.00000000000E+00 0.  1.
         21   -1    0    0  501  502 -0.00000000000E+00 -0.00000000000E+00 -0.45426334347E+03  0.45426334347E+03  0.00000000000E+00 0.  1.
         25    1    1    2    0    0  0.20496363685E+01  0.37470334782E+02  0.53318079555E+02  0.14098242658E+03  0.12500000000E+03 0.  0.
         25    1    1    2    0    0 -0.63499179283E+02 -0.41008662018E+02 -0.29639213815E+03  0.33043479794E+03  0.12500000000E+03 0.  0.
         25    1    1    2    0    0  0.61449542915E+02  0.35383272362E+01 -0.46991867179E+02  0.14704353663E+03  0.12500000000E+03 0.  0.
</event>
<event>
 5    0  0.6111314E-005  0.2901386E+03  0.7546771E-02  0.1090277E+00
         21   -1    0    0  502  501  0.00000000000E+00  0.00000000000E+00  0.11801403123E+03  0.11801403123E+03  0.00000000000E+00 0.  1.
         21   -1    0    0  501  502 -0.00000000000E+00 -0.00000000000E+00 -0.71330827360E+03  0.71330827360E+03  0.00000000000E+00 0.  1.
         25    1    1    2    0    0 -0.10744095655E+03  0.43561063621E+02 -0.93178076245E+02  0.19428916413E+03  0.12500000000E+03 0.  0.
         25    1    1    2    0    0 -0.43581395535E+02 -0.74432605519E+02 -0.82450943995E+02  0.17280830121E+03  0.12500000000E+03 0.  0.
         25    1    1    2    0    0  0.15102235208E+03  0.30871541898E+02 -0.41966522213E+03  0.46422483948E+03  0.12500000000E+03 0.  0.
</event>
<event>
 5    0  0.5619558E-005  0.2678553E+03  0.7546771E-02  0.1102513E+00
         21   -1    0    0  502  501  0.00000000000E+00  0.00000000000E+00  0.37766274635E+03  0.37766274635E+03  0.00000000000E+00 0.  1.
         21   -1    0    0  501  502 -0.00000000000E+00 -0.00000000000E+00 -0.18997492212E+03  0.18997492212E+03  0.00000000000E+00 0.  1.
         25    1    1    2    0    0  0.15914230787E+02 -0.58607954459E+02  0.98751388684E+01  0.13932219290E+03  0.12500000000E+03 0.  0.
         25    1    1    2    0    0 -0.12189121341E+03  0.49246937014E+02  0.19127743354E+03  0.26361863609E+03  0.12500000000E+03 0.  0.
         25    1    1    2    0    0  0.10597698262E+03  0.93610174452E+01 -0.13464748181E+02  0.16469683948E+03  0.12500000000E+03 0.  0.
</event>
<event>
 5    0  0.5619558E-005  0.2195853E+03  0.7546771E-02  0.1134193E+00
         21   -1    0    0  502  501  0.00000000000E+00  0.00000000000E+00  0.13204944120E+04  0.13204944120E+04  0.00000000000E+00 0.  1.
         21   -1    0    0  501  502 -0.00000000000E+00 -0.00000000000E+00 -0.36514878984E+02  0.36514878984E+02  0.00000000000E+00 0.  1.
         25    1    1    2    0    0 -0.23241601987E+02  0.45775967041E+02  0.57485522711E+03  0.59052446466E+03  0.12500000000E+03 0.  0.
         25    1    1    2    0    0 -0.53899602549E+01 -0.84223519479E+02  0.45354005627E+03  0.47796049580E+03  0.12500000000E+03 0.  0.
         25    1    1    2    0    0  0.28631562242E+02  0.38447552437E+02  0.25558424965E+03  0.28852433054E+03  0.12500000000E+03 0.  0.
</event>
<event>
 5    0  0.6146408E-005  0.2934232E+03  0.7546771E-02  0.1088575E+00
         21   -1    0    0  502  501  0.00000000000E+00  0.00000000000E+00  0.82068245241E+03  0.82068245241E+03  0.00000000000E+00 0.  1.
         21   -1    0    0  501  502 -0.00000000000E+00 -0.00000000000E+00 -0.10490925073E+03  0.10490925073E+03  0.00000000000E+00 0.  1.
         25    1    1    2    0    0  0.10465969417E+03 -0.10718510726E+02  0.33146358732E+03  0.36954248440E+03  0.12500000000E+03 0.  0.
         25    1    1    2    0    0 -0.50162010754E+02 -0.12274360304E+03  0.29173317801E+03  0.34397015359E+03  0.12500000000E+03 0.  0.
         25    1    1    2    0    0 -0.54497683420E+02  0.13346211376E+03  0.92576436345E+02  0.21207906515E+03  0.12500000000E+03 0.  0.
</event>
<event>
 5    0  0.5619558E-005  0.2634819E+03  0.7546771E-02  0.1105069E+00
         21   -1    0    0  502  501  0.00000000000E+00  0.00000000000E+00  0.78198536011E+03  0.78198536011E+03  0.00000000000E+00 0. -1.
         21   -1    0    0  501  502 -0.00000000000E+00 -0.00000000000E+00 -0.88777540177E+02  0.88777540177E+02  0.00000000000E+00 0. -1.
         25    1    1    2    0    0 -0.92724850231E+02 -0.11924131876E+02  0.14183005003E+03  0.21090482655E+03  0.12500000000E+03 0.  0.
         25    1    1    2    0    0 -0.41903204316E+02 -0.47031224841E+02  0.10957141249E+03  0.17776025731E+03  0.12500000000E+03 0.  0.
         25    1    1    2    0    0  0.13462805455E+03  0.58955356717E+02  0.44180635741E+03  0.48209781643E+03  0.12500000000E+03 0.  0.
</event>
<event>
 5    0  0.5619558E-005  0.5070727E+03  0.7546771E-02  0.1011949E+00
         21   -1    0    0  502  501  0.00000000000E+00  0.00000000000E+00  0.14891514317E+04  0.14891514317E+04  0.00000000000E+00 0.  1.
         21   -1    0    0  501  502 -0.00000000000E+00 -0.00000000000E+00 -0.17266394611E+03  0.17266394611E+03  0.00000000000E+00 0.  1.
         25    1    1    2    0    0 -0.20645565353E+03 -0.19456763621E+03  0.74845134293E+03  0.81011413681E+03  0.12500000000E+03 0.  0.
         25    1    1    2    0    0  0.33349939625E+03  0.20799346874E+03  0.52541171968E+03  0.66795629013E+03  0.12500000000E+03 0.  0.
         25    1    1    2    0    0 -0.12704374273E+03 -0.13425832534E+02  0.42624423013E+02  0.18374495091E+03  0.12500000000E+03 0.  0.
</event>
<event>
 5    0  0.5619558E-005  0.2381245E+03  0.7546771E-02  0.1121049E+00
         21   -1    0    0  502  501  0.00000000000E+00  0.00000000000E+00  0.60388156142E+03  0.60388156142E+03  0.00000000000E+00 0. -1.
         21   -1    0    0  501  502 -0.00000000000E+00 -0.00000000000E+00 -0.93898029799E+02  0.93898029799E+02  0.00000000000E+00 0. -1.
         25    1    1    2    0    0 -0.65771547130E+02 -0.10868380991E+03  0.23609592690E+03  0.29581134807E+03  0.12500000000E+03 0.  0.
         25    1    1    2    0    0  0.78211988038E+02  0.65888512139E+02  0.15171563564E+03  0.22158755652E+03  0.12500000000E+03 0.  0.
         25    1    1    2    0    0 -0.12440440909E+02  0.42795297772E+02  0.12217196908E+03  0.18038068663E+03  0.12500000000E+03 0.  0.
</event>
<event>
 5    0  0.5619558E-005  0.2851256E+03  0.7546771E-02  0.1092922E+00
         21   -1    0    0  502  501  0.00000000000E+00  0.00000000000E+00  0.12263949899E+04  0.12263949899E+04  0.00000000000E+00 0.  1.
         21   -1    0    0  501  502 -0.00000000000E+00 -0.00000000000E+00 -0.66289082838E+02  0.66289082838E+02  0.00000000000E+00 0.  1.
         25    1    1    2    0    0 -0.22719193556E+01 -0.49836579766E+02  0.46069871658E+03  0.47995536642E+03  0.12500000000E+03 0.  0.
         25    1    1    2    0    0  0.14790885207E+03 -0.46309369837E+02  0.34849887509E+03  0.40137021837E+03  0.12500000000E+03 0.  0.
         25    1    1    2    0    0 -0.14563693271E+03  0.96145949603E+02  0.35090831539E+03  0.41135848795E+03  0.12500000000E+03 0.  0.
</event>
<event>
 5    0  0.5619558E-005  0.3509073E+03  0.7546771E-02  0.1062243E+00
         21   -1    0    0  502  501  0.00000000000E+00  0.00000000000E+00  0.76031503741E+03  0.76031503741E+03  0.00000000000E+00 0. -1.
         21   -1    0    0  501  502 -0.00000000000E+00 -0.00000000000E+00 -0.16195384995E+03  0.16195384995E+03  0.00000000000E+00 0. -1.
         25    1    1    2    0    0 -0.33114471344E+02  0.96767029373E+02 -0.57431069414E+02  0.17141690092E+03  0.12500000000E+03 0.  0.
         25    1    1    2    0    0  0.71327143996E+02 -0.13252648007E+03  0.53377809186E+03  0.56850231375E+03  0.12500000000E+03 0.  0.
         25    1    1    2    0    0 -0.38212672653E+02  0.35759450699E+02  0.12201416501E+03  0.18234967269E+03  0.12500000000E+03 0.  0.
</event>
<event>
 5    0  0.5619558E-005  0.2707987E+03  0.7546771E-02  0.1100823E+00
         21   -1    0    0  502  501  0.00000000000E+00  0.00000000000E+00  0.11486619823E+03  0.11486619823E+03  0.00000000000E+00 0. -1.
         21   -1    0    0  501  502 -0.00000000000E+00 -0.00000000000E+00 -0.63841172146E+03  0.63841172146E+03  0.00000000000E+00 0. -1.
         25    1    1    2    0    0 -0.65795375056E+02  0.38890317167E+02 -0.45746832658E+03  0.48035794775E+03  0.12500000000E+03 0.  0.
         25    1    1    2    0    0  0.48446285738E+02 -0.11432590785E+02 -0.46148246731E+02  0.14224066722E+03  0.12500000000E+03 0.  0.
         25    1    1    2    0    0  0.17349089317E+02 -0.27457726381E+02 -0.19928949917E+02  0.13067930472E+03  0.12500000000E+03 0.  0.
</event>
<event>
 5    0  0.5619558E-005  0.3013972E+03  0.7546771E-02  0.1084544E+00
         21   -1    0    0  502  501  0.00000000000E+00  0.00000000000E+00  0.22535289121E+04  0.22535289121E+04  0.00000000000E+00 0. -1.
         21   -1    0    0  501  502 -0.00000000000E+00 -0.00000000000E+00 -0.40310241359E+02  0.40310241359E+02  0.00000000000E+00 0. -1.
         25    1    1    2    0    0 -0.25468457177E+02  0.47508117990E+02  0.44722874123E+03  0.46748712342E+03  0.12500000000E+03 0.  0.
         25    1    1    2    0    0  0.11983244569E+03  0.48772368120E+01  0.15213871541E+04  0.15312176446E+04  0.12500000000E+03 0.  0.
         25    1    1    2    0    0 -0.94363988512E+02 -0.52385354802E+02  0.24460277541E+03  0.29513438543E+03  0.12500000000E+03 0.  0.
</event>
<event>
 5    0  0.5619558E-005  0.4225091E+03  0.7546771E-02  0.1036253E+00
         21   -1    0    0  502  501  0.00000000000E+00  0.00000000000E+00  0.55003746071E+03  0.55003746071E+03  0.00000000000E+00 0. -1.
         21   -1    0    0  501  502 -0.00000000000E+00 -0.00000000000E+00 -0.32454864013E+03  0.32454864013E+03  0.00000000000E+00 0. -1.
         25    1    1    2    0    0  0.14397363085E+03  0.22101203132E+03  0.69387135794E+02  0.30002383069E+03  0.12500000000E+03 0.  0.
         25    1    1    2    0    0 -0.25369346398E+03 -0.15023870086E+03 -0.21747192415E+02  0.32098283642E+03  0.12500000000E+03 0.  0.
         25    1    1    2    0    0  0.10971983313E+03 -0.70773330464E+02  0.17784887720E+03  0.25357943372E+03  0.12500000000E+03 0.  0.
</event>
<event>
 5    0  0.5619558E-005  0.2946329E+03  0.7546771E-02  0.1087955E+00
         21   -1    0    0  502  501  0.00000000000E+00  0.00000000000E+00  0.32905306149E+03  0.32905306149E+03  0.00000000000E+00 0.  1.
         21   -1    0    0  501  502 -0.00000000000E+00 -0.00000000000E+00 -0.26381321546E+03  0.26381321546E+03  0.00000000000E+00 0.  1.
         25    1    1    2    0    0 -0.52618134248E+02 -0.57377377000E+02  0.15557525540E+02  0.14808061333E+03  0.12500000000E+03 0.  0.
         25    1    1    2    0    0 -0.66663766397E+02 -0.12451485430E+03 -0.21146563703E+01  0.18861993124E+03  0.12500000000E+03 0.  0.
         25    1    1    2    0    0  0.11928190064E+03  0.18189223130E+03  0.51796976858E+02  0.25616573237E+03  0.12500000000E+03 0.  0.
</event>
<event>
 5    0  0.5619558E-005  0.3126082E+03  0.7546771E-02  0.1079102E+00
         21   -1    0    0  502  501  0.00000000000E+00  0.00000000000E+00  0.33726294593E+03  0.33726294593E+03  0.00000000000E+00 0. -1.
         21   -1    0    0  501  502 -0.00000000000E+00 -0.00000000000E+00 -0.28975585070E+03  0.28975585070E+03  0.00000000000E+00 0. -1.
         25    1    1    2    0    0 -0.67000610981E+02 -0.11419265081E+03 -0.30411184033E+02  0.18460466810E+03  0.12500000000E+03 0.  0.
         25    1    1    2    0    0  0.56749910349E+01 -0.11281072005E+03  0.17803361676E+02  0.16941199417E+03  0.12500000000E+03 0.  0.
         25    1    1    2    0    0  0.61325619946E+02  0.22700337086E+03  0.60114917584E+02  0.27300213435E+03  0.12500000000E+03 0.  0.
</event>
<event>
 5    0  0.5619558E-005  0.3881242E+03  0.7546771E-02  0.1047971E+00
         21   -1    0    0  502  501  0.00000000000E+00  0.00000000000E+00  0.41366423308E+03  0.41366423308E+03  0.00000000000E+00 0.  1.
         21   -1    0    0  501  502 -0.00000000000E+00 -0.00000000000E+00 -0.36416107834E+03  0.36416107834E+03  0.00000000000E+00 0.  1.
         25    1    1    2    0    0 -0.12720035559E+03  0.10437524139E+03 -0.95440011300E+02  0.22761352603E+03  0.12500000000E+03 0.  0.
         25    1    1    2    0    0 -0.28273644173E+02 -0.22771971596E+03  0.17390709611E+03  0.31388588064E+03  0.12500000000E+03 0.  0.
         25    1    1    2    0    0  0.15547399976E+03  0.12334447456E+03 -0.28963930065E+02  0.23632590474E+03  0.12500000000E+03 0.  0.
</event>
<event>
 5    0  0.5619558E-005  0.2528267E+03  0.7546771E-02  0.1111531E+00
         21   -1    0    0  502  501  0.00000000000E+00  0.00000000000E+00  0.16102159213E+04  0.16102159213E+04  0.00000000000E+00 0. -1.
         21   -1    0    0  501  502 -0.00000000000E+00 -0.00000000000E+00 -0.39697357771E+02  0.39697357771E+02  0.00000000000E+00 0. -1.
         25    1    1    2    0    0 -0.11206671961E+03 -0.25602043006E+02  0.44369815782E+03  0.47508680208E+03  0.12500000000E+03 0.  0.
         25    1    1    2    0    0  0.91635797896E+02 -0.48536296940E+02  0.80358635830E+03  0.81983469482E+03  0.12500000000E+03 0.  0.
         25    1    1    2    0    0  0.20430921719E+02  0.74138339946E+02  0.32323404741E+03  0.35499178218E+03  0.12500000000E+03 0.  0.
</event>
<event>
 5    0  0.5619558E-005  0.2795626E+03  0.7546771E-02  0.1095928E+00
         21   -1    0    0  502  501  0.00000000000E+00  0.00000000000E+00  0.63373143365E+02  0.63373143365E+02  0.00000000000E+00 0. -1.
         21   -1    0    0  501  502 -0.00000000000E+00 -0.00000000000E+00 -0.12332548252E+04  0.12332548252E+04  0.00000000000E+00 0. -1.
         25    1    1    2    0    0  0.14956389119E+02 -0.97289846166E+02 -0.16978098730E+03  0.23267915977E+03  0.12500000000E+03 0.  0.
         25    1    1    2    0    0  0.54617385567E+02  0.12552700814E+03 -0.33324094049E+03  0.38133268021E+03  0.12500000000E+03 0.  0.
         25    1    1    2    0    0 -0.69573774686E+02 -0.28237161974E+02 -0.66685975402E+03  0.68261612856E+03  0.12500000000E+03 0.  0.
</event>
<event>
 5    0  0.5619558E-005  0.2396570E+03  0.7546771E-02  0.1120022E+00
         21   -1    0    0  502  501  0.00000000000E+00  0.00000000000E+00  0.83189688383E+02  0.83189688383E+02  0.00000000000E+00 0. -1.
         21   -1    0    0  501  502 -0.00000000000E+00 -0.00000000000E+00 -0.69041579871E+03  0.69041579871E+03  0.00000000000E+00 0. -1.
         25    1    1    2    0    0 -0.40775135609E+02  0.16109022004E+02 -0.40824025171E+03  0.42919368051E+03  0.12500000000E+03 0.  0.
         25    1    1    2    0    0 -0.14575798469E+02 -0.30767612234E+02 -0.43050663052E+02  0.13651908091E+03  0.12500000000E+03 0.  0.
         25    1    1    2    0    0  0.55350934079E+02  0.14658590230E+02 -0.15593519556E+03  0.20789272567E+03  0.12500000000E+03 0.  0.
</event>
<event>
 5    0  0.5619558E-005  0.5092683E+03  0.7546771E-02  0.1011388E+00
         21   -1    0    0  502  501  0.00000000000E+00  0.00000000000E+00  0.96702069007E+03  0.96702069007E+03  0.00000000000E+00 0. -1.
         21   -1    0    0  501  502 -0.00000000000E+00 -0.00000000000E+00 -0.26819919301E+03  0.26819919301E+03  0.00000000000E+00 0.  1.
         25    1    1    2    0    0 -0.20876561323E+03 -0.82751005511E+02 -0.13235133276E+03  0.28908940739E+03  0.12500000000E+03 0.  0.
         25    1    1    2    0    0 -0.10234906980E+02  0.13154179905E+03  0.23576245268E+03  0.29768596257E+03  0.12500000000E+03 0.  0.
         25    1    1    2    0    0  0.21900052021E+03 -0.48790793535E+02  0.59541037713E+03  0.64844451311E+03  0.12500000000E+03 0.  0.
</event>
<event>
 5    0  0.5619558E-005  0.2263408E+03  0.7546771E-02  0.1129242E+00
         21   -1    0    0  502  501  0.00000000000E+00  0.00000000000E+00  0.74595477030E+03  0.74595477030E+03  0.00000000000E+00 0.  1.
         21   -1    0    0  501  502 -0.00000000000E+00 -0.00000000000E+00 -0.68677312823E+02  0.68677312823E+02  0.00000000000E+00 0.  1.
         25    1    1    2    0    0 -0.20259956765E+01 -0.38403834585E+02  0.84314143488E+02  0.15560473631E+03  0.12500000000E+03 0.  0.
         25    1    1    2    0    0  0.52710886579E+02 -0.25993610958E+02  0.28474501296E+03  0.31647879515E+03  0.12500000000E+03 0.  0.
         25    1    1    2    0    0 -0.50684890902E+02  0.64397445543E+02  0.30821830103E+03  0.34254855167E+03  0.12500000000E+03 0.  0.
</event>
<event>
 5    0  0.5619558E-005  0.2883976E+03  0.7546771E-02  0.1091189E+00
         21   -1    0    0  502  501  0.00000000000E+00  0.00000000000E+00  0.11440175850E+03  0.11440175850E+03  0.00000000000E+00 0. -1.
         21   -1    0    0  501  502 -0.00000000000E+00 -0.00000000000E+00 -0.72702725025E+03  0.72702725025E+03  0.00000000000E+00 0. -1.
         25    1    1    2    0    0  0.11180397187E+03 -0.50686860739E+02 -0.41801662912E+03  0.45324627765E+03  0.12500000000E+03 0.  0.
         25    1    1    2    0    0 -0.57887664818E+02  0.36346665514E+02 -0.20639522952E+03  0.25079085430E+03  0.12500000000E+03 0.  0.
         25    1    1    2    0    0 -0.53916307053E+02  0.14340195226E+02  0.11786366891E+02  0.13739187680E+03  0.12500000000E+03 0.  0.
</event>
<event>
 5    0  0.5619558E-005  0.2399283E+03  0.7546771E-02  0.1119841E+00
         21   -1    0    0  502  501  0.00000000000E+00  0.00000000000E+00  0.18806826060E+03  0.18806826060E+03  0.00000000000E+00 0. -1.
         21   -1    0    0  501  502 -0.00000000000E+00 -0.00000000000E+00 -0.30608891437E+03  0.30608891437E+03  0.00000000000E+00 0. -1.
         25    1    1    2    0    0  0.79247609913E+02 -0.60588120957E+02  0.12557920772E+02  0.16041759708E+03  0.12500000000E+03 0.  0.
         25    1    1    2    0    0 -0.75299082174E+02 -0.28631704097E+02 -0.34882852486E+02  0.15274665186E+03  0.12500000000E+03 0.  0.
         25    1    1    2    0    0 -0.39485277391E+01  0.89219825053E+02 -0.95695722061E+02  0.18099292603E+03  0.12500000000E+03 0.  0.
</event>
<event>
 5    0  0.5619558E-005  0.3407993E+03  0.7546771E-02  0.1066456E+00
         21   -1    0    0  502  501  0.00000000000E+00  0.00000000000E+00  0.10191465783E+04  0.10191465783E+04  0.00000000000E+00 0.  1.
         21   -1    0    0  501  502 -0.00000000000E+00 -0.00000000000E+00 -0.11396216368E+03  0.11396216368E+03  0.00000000000E+00 0.  1.
         25    1    1    2    0    0  0.41153145080E+02 -0.25384950059E+03  0.45179035575E+03  0.53467062370E+03  0.12500000000E+03 0.  0.
         25    1    1    2    0    0 -0.23574452275E+01  0.11253042051E+03  0.99260880685E+02  0.19531097133E+03  0.12500000000E+03 0.  0.
         25    1    1    2    0    0 -0.38795699853E+02  0.14131908008E+03  0.35413317819E+03  0.40312714696E+03  0.12500000000E+03 0.  0.
</event>
<event>
 5    0  0.5619558E-005  0.5176472E+03  0.7546771E-02  0.1009273E+00
         21   -1    0    0  502  501  0.00000000000E+00  0.00000000000E+00  0.31029971665E+03  0.31029971665E+03  0.00000000000E+00 0. -1.
         21   -1    0    0  501  502 -0.00000000000E+00 -0.00000000000E+00 -0.86354775897E+03  0.86354775897E+03  0.00000000000E+00 0. -1.
         25    1    1    2    0    0  0.10324979175E+03  0.39542426523E+02  0.51637997707E+02  0.17468716552E+03  0.12500000000E+03 0.  0.
         25    1    1    2    0    0  0.31952283518E+03 -0.79911847179E+02 -0.28079870791E+03  0.45050378454E+03  0.12500000000E+03 0.  0.
         25    1    1    2    0    0 -0.42277262692E+03  0.40369420656E+02 -0.32408733212E+03  0.54865652556E+03  0.12500000000E+03 0.  0.
</event>
<event>
 5    0  0.5619558E-005  0.4020626E+03  0.7546771E-02  0.1043068E+00
         21   -1    0    0  502  501  0.00000000000E+00  0.00000000000E+00  0.90565070090E+03  0.90565070090E+03  0.00000000000E+00 0.  1.
         21   -1    0    0  501  502 -0.00000000000E+00 -0.00000000000E+00 -0.17849519584E+03  0.17849519584E+03  0.00000000000E+00 0.  1.
         25    1    1    2    0    0  0.10391640712E+03 -0.68276368801E+02  0.40979868491E+03  0.44611685057E+03  0.12500000000E+03 0.  0.
         25    1    1    2    0    0 -0.53404911984E+02  0.14915642077E+03  0.40898093338E+03  0.45605934520E+03  0.12500000000E+03 0.  0.
         25    1    1    2    0    0 -0.50511495136E+02 -0.80880051964E+02 -0.91624113232E+02  0.18196970097E+03  0.12500000000E+03 0.  0.
</event>
<event>
 5    0  0.5619558E-005  0.2896342E+03  0.7546771E-02  0.1090540E+00
         21   -1    0    0  502  501  0.00000000000E+00  0.00000000000E+00  0.20355018789E+04  0.20355018789E+04  0.00000000000E+00 0.  1.
         21   -1    0    0  501  502 -0.00000000000E+00 -0.00000000000E+00 -0.41212420509E+02  0.41212420509E+02  0.00000000000E+00 0.  1.
         25    1    1    2    0    0  0.14853395810E+03  0.83444296353E+01  0.60719902540E+03  0.63753244832E+03  0.12500000000E+03 0.  0.
         25    1    1    2    0    0 -0.12322660809E+03 -0.98172894076E+02  0.50807941385E+03  0.54643609402E+03  0.12500000000E+03 0.  0.
         25    1    1    2    0    0 -0.25307350016E+02  0.89828464441E+02  0.87901101914E+03  0.89274575707E+03  0.12500000000E+03 0.  0.
</event>
<event>
 5    0  0.5619558E-005  0.2026524E+03  0.7546771E-02  0.1147520E+00
         21   -1    0    0  502  501  0.00000000000E+00  0.00000000000E+00  0.22725891340E+03  0.22725891340E+03  0.00000000000E+00 0.  1.
         21   -1    0    0  501  502 -0.00000000000E+00 -0.00000000000E+00 -0.18071009687E+03  0.18071009687E+03  0.00000000000E+00 0.  1.
         25    1    1    2    0    0 -0.62171139397E+02  0.86773855361E+01 -0.12079830106E+02  0.14039754232E+03  0.12500000000E+03 0.  0.
         25    1    1    2    0    0  0.42978969869E+02 -0.28170203194E+00  0.47024674217E+02  0.14029822234E+03  0.12500000000E+03 0.  0.
         25    1    1    2    0    0  0.19192169528E+02 -0.83956835042E+01  0.11603972417E+02  0.12727324561E+03  0.12500000000E+03 0.  0.
</event>
<event>
 5    0  0.5619558E-005  0.2859612E+03  0.7546771E-02  0.1092477E+00
         21   -1    0    0  502  501  0.00000000000E+00  0.00000000000E+00  0.14886556090E+03  0.14886556090E+03  0.00000000000E+00 0.  1.
         21   -1    0    0  501  502 -0.00000000000E+00 -0.00000000000E+00 -0.54931310675E+03  0.54931310675E+03  0.00000000000E+00 0.  1.
         25    1    1    2    0    0 -0.25395641927E+02  0.24380273672E+01 -0.69734234187E+02  0.14539169861E+03  0.12500000000E+03 0.  0.
         25    1    1    2    0    0 -0.52833838288E+02  0.10783957652E+03  0.10601906619E+01  0.17334045326E+03  0.12500000000E+03 0.  0.
         25    1    1    2    0    0  0.78229480215E+02 -0.11027760388E+03 -0.33177350233E+03  0.37944651578E+03  0.12500000000E+03 0.  0.
</event>
<event>
 5    0  0.5619558E-005  0.2862959E+03  0.7546771E-02  0.1092299E+00
         21   -1    0    0  502  501  0.00000000000E+00  0.00000000000E+00  0.21149961356E+03  0.21149961356E+03  0.00000000000E+00 0.  1.
         21   -1    0    0  501  502 -0.00000000000E+00 -0.00000000000E+00 -0.38754382178E+03  0.38754382178E+03  0.00000000000E+00 0.  1.
         25    1    1    2    0    0  0.45073642025E+02  0.16808389216E+03 -0.96836138317E+02  0.23512989111E+03  0.12500000000E+03 0.  0.
         25    1    1    2    0    0 -0.35821093484E+02 -0.18735223691E+03 -0.58280566345E+02  0.23538401778E+03  0.12500000000E+03 0.  0.
         25    1    1    2    0    0 -0.92525485413E+01  0.19268344757E+02 -0.20927503556E+02  0.12852952645E+03  0.12500000000E+03 0.  0.
</event>
<event>
 5    0  0.5619558E-005  0.4182771E+03  0.7546771E-02  0.1037628E+00
         21   -1    0    0  502  501  0.00000000000E+00  0.00000000000E+00  0.15345690227E+03  0.15345690227E+03  0.00000000000E+00 0. -1.
         21   -1    0    0  501  502 -0.00000000000E+00 -0.00000000000E+00 -0.11400970873E+04  0.11400970873E+04  0.00000000000E+00 0. -1.
         25    1    1    2    0    0 -0.17638496349E+03 -0.25122716543E+03 -0.29873891591E+03  0.44620251442E+03  0.12500000000E+03 0.  0.
         25    1    1    2    0    0  0.54210186462E+02  0.16432764081E+03 -0.11577025580E+03  0.24283753824E+03  0.12500000000E+03 0.  0.
         25    1    1    2    0    0  0.12217477703E+03  0.86899524614E+02 -0.57213101336E+03  0.60451393695E+03  0.12500000000E+03 0.  0.
</event>
<event>
 5    0  0.5619558E-005  0.6307365E+03  0.7546771E-02  0.9843613E-01
         21   -1    0    0  502  501  0.00000000000E+00  0.00000000000E+00  0.38744607337E+03  0.38744607337E+03  0.00000000000E+00 0.  1.
         21   -1    0    0  501  502 -0.00000000000E+00 -0.00000000000E+00 -0.10267971332E+04  0.10267971332E+04  0.00000000000E+00 0.  1.
         25    1    1    2    0    0 -0.30329785750E+03 -0.21239190006E+02 -0.14961990127E+03  0.36118112965E+03  0.12500000000E+03 0.  0.
         25    1    1    2    0    0 -0.28314441024E+03  0.45066552991E+02 -0.27261122662E+03  0.41490195483E+03  0.12500000000E+03 0.  0.
         25    1    1    2    0    0  0.58644226774E+03 -0.23827362986E+02 -0.21711993199E+03  0.63816012214E+03  0.12500000000E+03 0.  0.
</event>
<event>
 5    0  0.5710938E-005  0.3525332E+03  0.7546771E-02  0.1061580E+00
         21   -1    0    0  502  501  0.00000000000E+00  0.00000000000E+00  0.25971415640E+03  0.25971415640E+03  0.00000000000E+00 0. -1.
         21   -1    0    0  501  502 -0.00000000000E+00 -0.00000000000E+00 -0.47852473376E+03  0.47852473376E+03  0.00000000000E+00 0. -1.
         25    1    1    2    0    0 -0.23546897284E+03  0.95228775318E+02 -0.11887518041E+03  0.30703495784E+03  0.12500000000E+03 0.  0.
         25    1    1    2    0    0  0.39155458700E+02 -0.11843841385E+03 -0.87252844953E+02  0.19697427947E+03  0.12500000000E+03 0.  0.
         25    1    1    2    0    0  0.19631351414E+03  0.23209638529E+02 -0.12682551998E+02  0.23422965286E+03  0.12500000000E+03 0.  0.
</event>
<event>
 5    0  0.5619558E-005  0.3528375E+03  0.7546771E-02  0.1061456E+00
         21   -1    0    0  502  501  0.00000000000E+00  0.00000000000E+00  0.86358790312E+03  0.86358790312E+03  0.00000000000E+00 0. -1.
         21   -1    0    0  501  502 -0.00000000000E+00 -0.00000000000E+00 -0.14415934858E+03  0.14415934858E+03  0.00000000000E+00 0. -1.
         25    1    1    2    0    0 -0.17620449095E+03  0.15954249502E+03  0.31175762153E+03  0.41148468371E+03  0.12500000000E+03 0.  0.
         25    1    1    2    0    0  0.15489468044E+03  0.27131077423E+02  0.13365386704E+03  0.24128160636E+03  0.12500000000E+03 0.  0.
         25    1    1    2    0    0  0.21309810507E+02 -0.18667357245E+03  0.27401706597E+03  0.35498096163E+03  0.12500000000E+03 0.  0.
</event>
<event>
 5    0  0.5619558E-005  0.3134719E+03  0.7546771E-02  0.1078694E+00
         21   -1    0    0  502  501  0.00000000000E+00  0.00000000000E+00  0.25489337183E+03  0.25489337183E+03  0.00000000000E+00 0.  1.
         21   -1    0    0  501  502 -0.00000000000E+00 -0.00000000000E+00 -0.38551279325E+03  0.38551279325E+03  0.00000000000E+00 0.  1.
         25    1    1    2    0    0  0.29087480627E+02  0.26613085049E+02  0.13877461366E+03  0.19088669734E+03  0.12500000000E+03 0.  0.
         25    1    1    2    0    0 -0.28331295510E+02 -0.11264233840E+03 -0.41300690664E+02  0.17556111686E+03  0.12500000000E+03 0.  0.
         25    1    1    2    0    0 -0.75618511658E+00  0.86029253347E+02 -0.22809334441E+03  0.27395835087E+03  0.12500000000E+03 0.  0.
</event>
<event>
 5    0  0.5619558E-005  0.2912310E+03  0.7546771E-02  0.1089708E+00
         21   -1    0    0  502  501  0.00000000000E+00  0.00000000000E+00  0.86271086725E+02  0.86271086725E+02  0.00000000000E+00 0. -1.
         21   -1    0    0  501  502 -0.00000000000E+00 -0.00000000000E+00 -0.98312744029E+03  0.98312744029E+03  0.00000000000E+00 0. -1.
         25    1    1    2    0    0 -0.43576600546E+02  0.14112948953E+03 -0.31151804706E+03  0.36672189269E+03  0.12500000000E+03 0.  0.
         25    1    1    2    0    0  0.12191965481E+02  0.13690429522E+02 -0.59645123638E+02  0.13970902854E+03  0.12500000000E+03 0.  0.
         25    1    1    2    0    0  0.31384635066E+02 -0.15481991905E+03 -0.52569318287E+03  0.56296760579E+03  0.12500000000E+03 0.  0.
</event>
<event>
 5    0  0.5619558E-005  0.3255985E+03  0.7546771E-02  0.1073101E+00
         21   -1    0    0  502  501  0.00000000000E+00  0.00000000000E+00  0.17071741475E+03  0.17071741475E+03  0.00000000000E+00 0.  1.
         21   -1    0    0  501  502 -0.00000000000E+00 -0.00000000000E+00 -0.62099354994E+03  0.62099354994E+03  0.00000000000E+00 0.  1.
         25    1    1    2    0    0 -0.73245488675E+02 -0.46192315882E+02 -0.16323101936E+03  0.22308742084E+03  0.12500000000E+03 0.  0.
         25    1    1    2    0    0 -0.11529460693E+03  0.96559157297E+02  0.52209006627E+01  0.19562406562E+03  0.12500000000E+03 0.  0.
         25    1    1    2    0    0  0.18854009560E+03 -0.50366841415E+02 -0.29226601649E+03  0.37299947823E+03  0.12500000000E+03 0.  0.
</event>
<event>
 5    0  0.5684430E-005  0.5349085E+03  0.7546771E-02  0.1005049E+00
         21   -1    0    0  502  501  0.00000000000E+00  0.00000000000E+00  0.60446704048E+03  0.60446704048E+03  0.00000000000E+00 0.  1.
         21   -1    0    0  501  502 -0.00000000000E+00 -0.00000000000E+00 -0.47335430344E+03  0.47335430344E+03  0.00000000000E+00 0.  1.
         25    1    1    2    0    0  0.32296410883E+03 -0.22947856367E+02  0.41378671785E+01  0.34709442757E+03  0.12500000000E+03 0.  0.
         25    1    1    2    0    0 -0.10209850447E+03  0.27456070230E+03 -0.65006488381E+02  0.32505157652E+03  0.12500000000E+03 0.  0.
         25    1    1    2    0    0 -0.22086560436E+03 -0.25161284594E+03  0.19198135824E+03  0.40567533983E+03  0.12500000000E+03 0.  0.
</event>
<event>
 5    0  0.5619558E-005  0.2878420E+03  0.7546771E-02  0.1091481E+00
         21   -1    0    0  502  501  0.00000000000E+00  0.00000000000E+00  0.42430057835E+02  0.42430057835E+02  0.00000000000E+00 0.  1.
         21   -1    0    0  501  502 -0.00000000000E+00 -0.00000000000E+00 -0.19526968080E+04  0.19526968080E+04  0.00000000000E+00 0.  1.
         25    1    1    2    0    0 -0.11601261067E+03  0.13919559543E+03 -0.11790573130E+04  0.11994313182E+04  0.12500000000E+03 0.  0.
         25    1    1    2    0    0  0.75869009280E+02 -0.97278174341E+02 -0.39101723505E+03  0.42864744007E+03  0.12500000000E+03 0.  0.
         25    1    1    2    0    0  0.40143601387E+02 -0.41917421085E+02 -0.34019220208E+03  0.36704810758E+03  0.12500000000E+03 0.  0.
</event>
<event>
 5    0  0.5619558E-005  0.3603553E+03  0.7546771E-02  0.1058443E+00
         21   -1    0    0  502  501  0.00000000000E+00  0.00000000000E+00  0.17121440827E+04  0.17121440827E+04  0.00000000000E+00 0.  1.
         21   -1    0    0  501  502 -0.00000000000E+00 -0.00000000000E+00 -0.75844034647E+02  0.75844034647E+02  0.00000000000E+00 0.  1.
         25    1    1    2    0    0  0.16911955887E+03  0.61905473221E+02  0.94709565414E+03  0.97213625120E+03  0.12500000000E+03 0.  0.
         25    1    1    2    0    0 -0.23660844876E+03  0.37528799463E+01  0.33619494880E+03  0.42970883832E+03  0.12500000000E+03 0.  0.
         25    1    1    2    0    0  0.67488889885E+02 -0.65658353168E+02  0.35300944510E+03  0.38614302782E+03  0.12500000000E+03 0.  0.
</event>
<event>
 5    0  0.5619558E-005  0.2588153E+03  0.7546771E-02  0.1107857E+00
         21   -1    0    0  502  501  0.00000000000E+00  0.00000000000E+00  0.29295751426E+03  0.29295751426E+03  0.00000000000E+00 0. -1.
         21   -1    0    0  501  502 -0.00000000000E+00 -0.00000000000E+00 -0.22865205613E+03  0.22865205613E+03  0.00000000000E+00 0. -1.
         25    1    1    2    0    0  0.65688557925E+01  0.77657098861E+02  0.12403035421E+03  0.19256765989E+03  0.12500000000E+03 0.  0.
         25    1    1    2    0    0 -0.34842286524E+02 -0.84276515004E+02  0.47453062070E+02  0.16184347071E+03  0.12500000000E+03 0.  0.
         25    1    1    2    0    0  0.28273430731E+02  0.66194161436E+01 -0.10717795815E+03  0.16719843979E+03  0.12500000000E+03 0.  0.
</event>
<event>
 5    0  0.5619558E-005  0.2478205E+03  0.7546771E-02  0.1114690E+00
         21   -1    0    0  502  501  0.00000000000E+00  0.00000000000E+00  0.59200875869E+03  0.59200875869E+03  0.00000000000E+00 0.  1.
         21   -1    0    0  501  502 -0.00000000000E+00 -0.00000000000E+00 -0.10374000612E+03  0.10374000612E+03  0.00000000000E+00 0.  1.
         25    1    1    2    0    0 -0.73096760063E+01 -0.75742430996E+01  0.12962008243E+03  0.18038061507E+03  0.12500000000E+03 0.  0.
         25    1    1    2    0    0 -0.36292883797E+02  0.36299201917E+02  0.34050900344E+01  0.13517174302E+03  0.12500000000E+03 0.  0.
         25    1    1    2    0    0  0.43602559804E+02 -0.28724958817E+02  0.35524358010E+03  0.38019640672E+03  0.12500000000E+03 0.  0.
</event>
<event>
 5    0  0.5619558E-005  0.2783452E+03  0.7546771E-02  0.1096596E+00
         21   -1    0    0  502  501  0.00000000000E+00  0.00000000000E+00  0.47432838977E+03  0.47432838977E+03  0.00000000000E+00 0. -1.
         21   -1    0    0  501  502 -0.00000000000E+00 -0.00000000000E+00 -0.16333841320E+03  0.16333841320E+03  0.00000000000E+00 0. -1.
         25    1    1    2    0    0 -0.10822892966E+03  0.44672760308E+02  0.29668102680E+03  0.34256939208E+03  0.12500000000E+03 0.  0.
         25    1    1    2    0    0  0.33071151979E+02  0.85768277499E+01  0.44315799922E+02  0.13695310581E+03  0.12500000000E+03 0.  0.
         25    1    1    2    0    0  0.75157777682E+02 -0.53249588058E+02 -0.30006850150E+02  0.15814430508E+03  0.12500000000E+03 0.  0.
</event>
<event>
 5    0  0.5619558E-005  0.3772696E+03  0.7546771E-02  0.1051948E+00
         21   -1    0    0  502  501  0.00000000000E+00  0.00000000000E+00  0.82647666243E+02  0.82647666243E+02  0.00000000000E+00 0.  1.
         21   -1    0    0  501  502 -0.00000000000E+00 -0.00000000000E+00 -0.17221582418E+04  0.17221582418E+04  0.00000000000E+00 0.  1.
         25    1    1    2    0    0  0.15600191061E+03 -0.25207431240E+03 -0.66241024011E+03  0.73640368093E+03  0.12500000000E+03 0.  0.
         25    1    1    2    0    0 -0.95082029320E+02  0.23103351958E+03 -0.52180275514E+03  0.59187853039E+03  0.12500000000E+03 0.  0.
         25    1    1    2    0    0 -0.60919881291E+02  0.21040792817E+02 -0.45529758026E+03  0.47652369667E+03  0.12500000000E+03 0.  0.
</event>
<event>
 5    0  0.5619558E-005  0.2591187E+03  0.7546771E-02  0.1107674E+00
         21   -1    0    0  502  501  0.00000000000E+00  0.00000000000E+00  0.53501578612E+02  0.53501578612E+02  0.00000000000E+00 0.  1.
         21   -1    0    0  501  502 -0.00000000000E+00 -0.00000000000E+00 -0.12549630992E+04  0.12549630992E+04  0.00000000000E+00 0.  1.
         25    1    1    2    0    0 -0.27878150965E+02  0.72166076912E+02 -0.72932127765E+03  0.74398901873E+03  0.12500000000E+03 0.  0.
         25    1    1    2    0    0  0.36400797141E+02  0.36792224012E+01 -0.35108004728E+03  0.37446061784E+03  0.12500000000E+03 0.  0.
         25    1    1    2    0    0 -0.85226461763E+01 -0.75845299313E+02 -0.12106019564E+03  0.19001504123E+03  0.12500000000E+03 0.  0.
</event>
<event>
 5    0  0.5619558E-005  0.2895693E+03  0.7546771E-02  0.1090574E+00
         21   -1    0    0  502  501  0.00000000000E+00  0.00000000000E+00  0.31264847931E+02  0.31264847931E+02  0.00000000000E+00 0.  1.
         21   -1    0    0  501  502 -0.00000000000E+00 -0.00000000000E+00 -0.26819383453E+04  0.26819383453E+04  0.00000000000E+00 0.  1.
         25    1    1    2    0    0  0.98015951159E+02 -0.92329953841E+02 -0.59956672379E+03  0.62708628061E+03  0.12500000000E+03 0.  0.
         25    1    1    2    0    0 -0.11691664112E+03  0.34231723706E+02 -0.51608597079E+03  0.54480367209E+03  0.12500000000E+03 0.  0.
         25    1    1    2    0    0  0.18900689958E+02  0.58098230136E+02 -0.15350208028E+04  0.15413132405E+04  0.12500000000E+03 0.  0.
</event>
<event>
 5    0  0.5619558E-005  0.2344684E+03  0.7546771E-02  0.1123534E+00
         21   -1    0    0  502  501  0.00000000000E+00  0.00000000000E+00  0.10138325733E+03  0.10138325733E+03  0.00000000000E+00 0.  1.
         21   -1    0    0  501  502 -0.00000000000E+00 -0.00000000000E+00 -0.54225351859E+03  0.54225351859E+03  0.00000000000E+00 0.  1.
         25    1    1    2    0    0  0.10074867537E+03  0.71181741268E+02 -0.24769251129E+03  0.30363418126E+03  0.12500000000E+03 0.  0.
         25    1    1    2    0    0 -0.41872745627E+02 -0.28272486680E+02 -0.85490041921E+02  0.15964400270E+03  0.12500000000E+03 0.  0.
         25    1    1    2    0    0 -0.58875929741E+02 -0.42909254588E+02 -0.10768770804E+03  0.18035859196E+03  0.12500000000E+03 0.  0.
</event>
<event>
 5    0  0.5619558E-005  0.3884684E+03  0.7546771E-02  0.1047847E+00
         21   -1    0    0  502  501  0.00000000000E+00  0.00000000000E+00  0.29858666486E+03  0.29858666486E+03  0.00000000000E+00 0.  1.
         21   -1    0    0  501  502 -0.00000000000E+00 -0.00000000000E+00 -0.50540657610E+03  0.50540657610E+03  0.00000000000E+00 0.  1.
         25    1    1    2    0    0 -0.13196065211E+01 -0.56472493455E+02  0.86317996402E+02  0.16206998606E+03  0.12500000000E+03 0.  0.
         25    1    1    2    0    0  0.64228688044E+02  0.26988392234E+03 -0.22303620297E+03  0.37727019991E+03  0.12500000000E+03 0.  0.
         25    1    1    2    0    0 -0.62909081523E+02 -0.21341142888E+03 -0.70101704677E+02  0.26465305499E+03  0.12500000000E+03 0.  0.
</event>
<event>
 5    0  0.5619558E-005  0.3705674E+03  0.7546771E-02  0.1054476E+00
         21   -1    0    0  502  501  0.00000000000E+00  0.00000000000E+00  0.12665060244E+04  0.12665060244E+04  0.00000000000E+00 0.  1.
         21   -1    0    0  501  502 -0.00000000000E+00 -0.00000000000E+00 -0.10842440408E+03  0.10842440408E+03  0.00000000000E+00 0.  1.
         25    1    1    2    0    0  0.30049273207E+02  0.17399532438E+03  0.86107390960E+02  0.23284504398E+03  0.12500000000E+03 0.  0.
         25    1    1    2    0    0 -0.11541050025E+03 -0.15221549968E+03  0.49356581654E+03  0.54380268220E+03  0.12500000000E+03 0.  0.
         25    1    1    2    0    0  0.85361227047E+02 -0.21779824700E+02  0.57840841285E+03  0.59828270233E+03  0.12500000000E+03 0.  0.
</event>
<event>
 5    0  0.5619558E-005  0.4507622E+03  0.7546771E-02  0.1027495E+00
         21   -1    0    0  502  501  0.00000000000E+00  0.00000000000E+00  0.77801443492E+03  0.77801443492E+03  0.00000000000E+00 0. -1.
         21   -1    0    0  501  502 -0.00000000000E+00 -0.00000000000E+00 -0.26116038738E+03  0.26116038738E+03  0.00000000000E+00 0. -1.
         25    1    1    2    0    0  0.13349364036E+03 -0.79540196728E+02  0.36816022975E+03  0.41870532560E+03  0.12500000000E+03 0.  0.
         25    1    1    2    0    0 -0.17373339731E+03  0.20244497993E+03 -0.10214551765E+03  0.31181079201E+03  0.12500000000E+03 0.  0.
         25    1    1    2    0    0  0.40239756947E+02 -0.12290478320E+03  0.25083933545E+03  0.30865870469E+03  0.12500000000E+03 0.  0.
</event>
<event>
 5    0  0.5619558E-005  0.3646510E+03  0.7546771E-02  0.1056757E+00
         21   -1    0    0  502  501  0.00000000000E+00  0.00000000000E+00  0.11206303284E+04  0.11206303284E+04  0.00000000000E+00 0.  1.
         21   -1    0    0  501  502 -0.00000000000E+00 -0.00000000000E+00 -0.11865671678E+03  0.11865671678E+03  0.00000000000E+00 0.  1.
         25    1    1    2    0    0 -0.44959722089E+02  0.78058559062E+02  0.19568488929E+03  0.24906242420E+03  0.12500000000E+03 0.  0.
         25    1    1    2    0    0  0.18133937778E+03  0.13147013720E+03  0.20936242122E+03  0.33109815814E+03  0.12500000000E+03 0.  0.
         25    1    1    2    0    0 -0.13637965569E+03 -0.20952869626E+03  0.59692630115E+03  0.65912646286E+03  0.12500000000E+03 0.  0.
</event>
<event>
 5    0  0.5619558E-005  0.2085798E+03  0.7546771E-02  0.1142696E+00
         21   -1    0    0  502  501  0.00000000000E+00  0.00000000000E+00  0.70483207710E+02  0.70483207710E+02  0.00000000000E+00 0. -1.
         21   -1    0    0  501  502 -0.00000000000E+00 -0.00000000000E+00 -0.61724678515E+03  0.61724678515E+03  0.00000000000E+00 0. -1.
         25    1    1    2    0    0 -0.26701080053E+02  0.24432151396E+01 -0.20976821967E+03  0.24565549650E+03  0.12500000000E+03 0.  0.
         25    1    1    2    0    0 -0.15532040788E+02 -0.35902621610E+02 -0.24490935199E+03  0.27773338514E+03  0.12500000000E+03 0.  0.
         25    1    1    2    0    0  0.42233120842E+02  0.33459406470E+02 -0.92086005784E+02  0.16434111122E+03  0.12500000000E+03 0.  0.
</event>
<event>
 5    0  0.6065965E-005  0.4245598E+03  0.7546771E-02  0.1035592E+00
         21   -1    0    0  502  501  0.00000000000E+00  0.00000000000E+00  0.34073667070E+03  0.34073667070E+03  0.00000000000E+00 0. -1.
         21   -1    0    0  501  502 -0.00000000000E+00 -0.00000000000E+00 -0.52900378274E+03  0.52900378274E+03  0.00000000000E+00 0. -1.
         25    1    1    2    0    0 -0.36146272921E+02 -0.23543808966E+03 -0.28709448759E+02  0.27053073681E+03  0.12500000000E+03 0.  0.
         25    1    1    2    0    0  0.15958541787E+03 -0.40512489617E+01  0.79659682963E+02  0.21784072922E+03  0.12500000000E+03 0.  0.
         25    1    1    2    0    0 -0.12343914495E+03  0.23948933862E+03 -0.23921734624E+03  0.38136898741E+03  0.12500000000E+03 0.  0.
</event>
<event>
 5    0  0.5619558E-005  0.3456410E+03  0.7546771E-02  0.1064419E+00
         21   -1    0    0  502  501  0.00000000000E+00  0.00000000000E+00  0.84231061393E+02  0.84231061393E+02  0.00000000000E+00 0. -1.
         21   -1    0    0  501  502 -0.00000000000E+00 -0.00000000000E+00 -0.14183327264E+04  0.14183327264E+04  0.00000000000E+00 0.  1.
         25    1    1    2    0    0 -0.17964123726E+02  0.21311301685E+02 -0.17540015665E+03  0.21717987079E+03  0.12500000000E+03 0.  0.
         25    1    1    2    0    0 -0.77390348685E+02  0.22075107558E+03 -0.49340970397E+03  0.56017715002E+03  0.12500000000E+03 0.  0.
         25    1    1    2    0    0  0.95354472411E+02 -0.24206237727E+03 -0.66529180440E+03  0.72520676699E+03  0.12500000000E+03 0.  0.
</event>
<event>
 5    0  0.5619558E-005  0.2515951E+03  0.7546771E-02  0.1112301E+00
         21   -1    0    0  502  501  0.00000000000E+00  0.00000000000E+00  0.52369735453E+02  0.52369735453E+02  0.00000000000E+00 0.  1.
         21   -1    0    0  501  502 -0.00000000000E+00 -0.00000000000E+00 -0.12087148547E+04  0.12087148547E+04  0.00000000000E+00 0.  1.
         25    1    1    2    0    0  0.10028539253E+03 -0.18322245783E+02 -0.69231255901E+03  0.71085479812E+03  0.12500000000E+03 0.  0.
         25    1    1    2    0    0 -0.63500516940E+02 -0.16435371785E+02 -0.13801855945E+03  0.19742482075E+03  0.12500000000E+03 0.  0.
         25    1    1    2    0    0 -0.36784875587E+02  0.34757617568E+02 -0.32601400080E+03  0.35280497129E+03  0.12500000000E+03 0.  0.
</event>
<event>
 5    0  0.5619558E-005  0.3828080E+03  0.7546771E-02  0.1049901E+00
         21   -1    0    0  502  501  0.00000000000E+00  0.00000000000E+00  0.16333186071E+04  0.16333186071E+04  0.00000000000E+00 0.  1.
         21   -1    0    0  501  502 -0.00000000000E+00 -0.00000000000E+00 -0.89720396640E+02  0.89720396640E+02  0.00000000000E+00 0.  1.
         25    1    1    2    0    0  0.33967724935E+02 -0.14437865415E+03  0.17917582167E+03  0.26406055590E+03  0.12500000000E+03 0.  0.
         25    1    1    2    0    0  0.17073969638E+03  0.56538955283E+02  0.92620107301E+03  0.95174688076E+03  0.12500000000E+03 0.  0.
         25    1    1    2    0    0 -0.20470742132E+03  0.87839698870E+02  0.43822131578E+03  0.50723156708E+03  0.12500000000E+03 0.  0.
</event>
<event>
 5    0  0.5619558E-005  0.4663795E+03  0.7546771E-02  0.1022947E+00
         21   -1    0    0  502  501  0.00000000000E+00  0.00000000000E+00  0.15000906290E+04  0.15000906290E+04  0.00000000000E+00 0. -1.
         21   -1    0    0  501  502 -0.00000000000E+00 -0.00000000000E+00 -0.14499781447E+03  0.14499781447E+03  0.00000000000E+00 0. -1.
         25    1    1    2    0    0  0.48314384612E+02 -0.88820528614E+02  0.24774943244E+03  0.29534411681E+03  0.12500000000E+03 0.  0.
         25    1    1    2    0    0  0.16124813775E+03  0.21309657485E+03  0.10207726279E+04  0.10625501729E+04  0.12500000000E+03 0.  0.
         25    1    1    2    0    0 -0.20956252236E+03 -0.12427604624E+03  0.86570754197E+02  0.28719415371E+03  0.12500000000E+03 0.  0.
</event>
<event>
 5    0  0.5619558E-005  0.2822103E+03  0.7546771E-02  0.1094488E+00
         21   -1    0    0  502  501  0.00000000000E+00  0.00000000000E+00  0.88253524559E+03  0.88253524559E+03  0.00000000000E+00 0. -1.
         21   -1    0    0  501  502 -0.00000000000E+00 -0.00000000000E+00 -0.90243048850E+02  0.90243048850E+02  0.00000000000E+00 0. -1.
         25    1    1    2    0    0  0.11546934193E+03 -0.76323536763E+02  0.33052556929E+03  0.37951364026E+03  0.12500000000E+03 0.  0.
         25    1    1    2    0    0 -0.11554395849E+03  0.63740133901E+02  0.42519747005E+03  0.46241874913E+03  0.12500000000E+03 0.  0.
         25    1    1    2    0    0  0.74616562302E-01  0.12583402862E+02  0.36569157403E+02  0.13084590505E+03  0.12500000000E+03 0.  0.
</event>
<event>
 5    0  0.5619558E-005  0.3973238E+03  0.7546771E-02  0.1044710E+00
         21   -1    0    0  502  501  0.00000000000E+00  0.00000000000E+00  0.68091911371E+03  0.68091911371E+03  0.00000000000E+00 0. -1.
         21   -1    0    0  501  502 -0.00000000000E+00 -0.00000000000E+00 -0.23184283662E+03  0.23184283662E+03  0.00000000000E+00 0. -1.
         25    1    1    2    0    0  0.67247102421E+02  0.60392646870E+02  0.12619914412E+03  0.19930044796E+03  0.12500000000E+03 0.  0.
         25    1    1    2    0    0  0.10763838610E+03  0.50550021689E+02 -0.11907858050E+03  0.20963309660E+03  0.12500000000E+03 0.  0.
         25    1    1    2    0    0 -0.17488548852E+03 -0.11094266856E+03  0.44195571346E+03  0.50382840577E+03  0.12500000000E+03 0.  0.
</event>
<event>
 5    0  0.5619558E-005  0.3932823E+03  0.7546771E-02  0.1046131E+00
         21   -1    0    0  502  501  0.00000000000E+00  0.00000000000E+00  0.16765406502E+04  0.16765406502E+04  0.00000000000E+00 0. -1.
         21   -1    0    0  501  502 -0.00000000000E+00 -0.00000000000E+00 -0.92256005151E+02  0.92256005151E+02  0.00000000000E+00 0. -1.
         25    1    1    2    0    0  0.23820663535E+02  0.17983559546E+03  0.21944724622E+03  0.31095073449E+03  0.12500000000E+03 0.  0.
         25    1    1    2    0    0 -0.13587087373E+03 -0.21880649098E+03  0.50138736159E+03  0.57736596816E+03  0.12500000000E+03 0.  0.
         25    1    1    2    0    0  0.11205021020E+03  0.38970895518E+02  0.86345003721E+03  0.88047995268E+03  0.12500000000E+03 0.  0.
</event>
<event>
 5    0  0.5619558E-005  0.6301056E+03  0.7546771E-02  0.9844843E-01
         21   -1    0    0  502  501  0.00000000000E+00  0.00000000000E+00  0.55207379624E+03  0.55207379624E+03  0.00000000000E+00 0.  1.
         21   -1    0    0  501  502 -0.00000000000E+00 -0.00000000000E+00 -0.71916657852E+03  0.71916657852E+03  0.00000000000E+00 0.  1.
         25    1    1    2    0    0  0.13742321972E+03  0.99084276645E+02 -0.57132912488E+02  0.21815591875E+03  0.12500000000E+03 0.  0.
         25    1    1    2    0    0  0.26547309234E+03  0.31663349633E+03 -0.15605738212E+03  0.45903337598E+03  0.12500000000E+03 0.  0.
         25    1    1    2    0    0 -0.40289631206E+03 -0.41571777297E+03  0.46097512322E+02  0.59405108002E+03  0.12500000000E+03 0.  0.
</event>
<event>
 5    0  0.5619558E-005  0.2448294E+03  0.7546771E-02  0.1116617E+00
         21   -1    0    0  502  501  0.00000000000E+00  0.00000000000E+00  0.14337055438E+04  0.14337055438E+04  0.00000000000E+00 0. -1.
         21   -1    0    0  501  502 -0.00000000000E+00 -0.00000000000E+00 -0.41808764703E+02  0.41808764703E+02  0.00000000000E+00 0. -1.
         25    1    1    2    0    0 -0.51747845609E+02 -0.73085255893E+02  0.32467480626E+03  0.35924646689E+03  0.12500000000E+03 0.  0.
         25    1    1    2    0    0  0.60474460778E+02  0.35419150518E+01  0.24488914563E+03  0.28154111461E+03  0.12500000000E+03 0.  0.
         25    1    1    2    0    0 -0.87266151695E+01  0.69543340841E+02  0.82233282721E+03  0.83472672701E+03  0.12500000000E+03 0.  0.
</event>
<event>
 5    0  0.5619558E-005  0.2202957E+03  0.7546771E-02  0.1133663E+00
         21   -1    0    0  502  501  0.00000000000E+00  0.00000000000E+00  0.17625854045E+04  0.17625854045E+04  0.00000000000E+00 0. -1.
         21   -1    0    0  501  502 -0.00000000000E+00 -0.00000000000E+00 -0.27533519693E+02  0.27533519693E+02  0.00000000000E+00 0. -1.
         25    1    1    2    0    0  0.25834083665E+02  0.32605093445E+02  0.94305930053E+03  0.95221653856E+03  0.12500000000E+03 0.  0.
         25    1    1    2    0    0  0.96798579622E+01  0.71621990831E+01  0.25871776972E+03  0.28758456341E+03  0.12500000000E+03 0.  0.
         25    1    1    2    0    0 -0.35513941627E+02 -0.39767292528E+02  0.53327481457E+03  0.55031782222E+03  0.12500000000E+03 0.  0.
</event>
<event>
 5    0  0.5619558E-005  0.2469378E+03  0.7546771E-02  0.1115256E+00
         21   -1    0    0  502  501  0.00000000000E+00  0.00000000000E+00  0.10718868235E+03  0.10718868235E+03  0.00000000000E+00 0. -1.
         21   -1    0    0  501  502 -0.00000000000E+00 -0.00000000000E+00 -0.56888706993E+03  0.56888706993E+03  0.00000000000E+00 0. -1.
         25    1    1    2    0    0  0.52782889641E+02 -0.11153601523E+02 -0.26390173478E+03  0.29695043675E+03  0.12500000000E+03 0.  0.
         25    1    1    2    0    0 -0.37295445496E+02 -0.13755311932E+01 -0.21490183104E+03  0.25139737334E+03  0.12500000000E+03 0.  0.
         25    1    1    2    0    0 -0.15487444145E+02  0.12529132716E+02  0.17105178234E+02  0.12772794219E+03  0.12500000000E+03 0.  0.
</event>
<event>
 5    0  0.5619558E-005  0.2800921E+03  0.7546771E-02  0.1095639E+00
         21   -1    0    0  502  501  0.00000000000E+00  0.00000000000E+00  0.26711181563E+03  0.26711181563E+03  0.00000000000E+00 0. -1.
         21   -1    0    0  501  502 -0.00000000000E+00 -0.00000000000E+00 -0.29370324774E+03  0.29370324774E+03  0.00000000000E+00 0. -1.
         25    1    1    2    0    0  0.14518159027E+03  0.36488867546E+02  0.21432654096E+02  0.19619757967E+03  0.12500000000E+03 0.  0.
         25    1    1    2    0    0 -0.16847094710E+03 -0.22714765383E+01 -0.87268682392E+02  0.22721893088E+03  0.12500000000E+03 0.  0.
         25    1    1    2    0    0  0.23289356832E+02 -0.34217391008E+02  0.39244596185E+02  0.13739855283E+03  0.12500000000E+03 0.  0.
</event>
<event>
 5    0  0.5619558E-005  0.5174694E+03  0.7546771E-02  0.1009317E+00
         21   -1    0    0  502  501  0.00000000000E+00  0.00000000000E+00  0.10538113733E+04  0.10538113733E+04  0.00000000000E+00 0. -1.
         21   -1    0    0  501  502 -0.00000000000E+00 -0.00000000000E+00 -0.25410107493E+03  0.25410107493E+03  0.00000000000E+00 0. -1.
         25    1    1    2    0    0  0.98460203028E+02  0.23515461744E+02  0.21412522105E+03  0.26780963166E+03  0.12500000000E+03 0.  0.
         25    1    1    2    0    0 -0.29706973271E+03 -0.12770439265E+03 -0.54044393044E+02  0.35086270024E+03  0.12500000000E+03 0.  0.
         25    1    1    2    0    0  0.19860952969E+03  0.10418893091E+03  0.63962947035E+03  0.68924011632E+03  0.12500000000E+03 0.  0.
</event>
<event>
 5    0  0.5619558E-005  0.2793548E+03  0.7546771E-02  0.1096042E+00
         21   -1    0    0  502  501  0.00000000000E+00  0.00000000000E+00  0.41102086800E+02  0.41102086800E+02  0.00000000000E+00 0.  1.
         21   -1    0    0  501  502 -0.00000000000E+00 -0.00000000000E+00 -0.18986648698E+04  0.18986648698E+04  0.00000000000E+00 0.  1.
         25    1    1    2    0    0 -0.28463127312E+02  0.13506722826E+03 -0.38127282608E+03  0.42431977761E+03  0.12500000000E+03 0.  0.
         25    1    1    2    0    0 -0.18816907770E+02 -0.97835527688E+02 -0.11475993358E+04  0.11586781701E+04  0.12500000000E+03 0.  0.
         25    1    1    2    0    0  0.47280035082E+02 -0.37231700567E+02 -0.32869062115E+03  0.35676900885E+03  0.12500000000E+03 0.  0.
</event>
<event>
 5    0  0.5619558E-005  0.2627674E+03  0.7546771E-02  0.1105492E+00
         21   -1    0    0  502  501  0.00000000000E+00  0.00000000000E+00  0.32287467026E+03  0.32287467026E+03  0.00000000000E+00 0.  1.
         21   -1    0    0  501  502 -0.00000000000E+00 -0.00000000000E+00 -0.21384987202E+03  0.21384987202E+03  0.00000000000E+00 0.  1.
         25    1    1    2    0    0 -0.22373751010E+02 -0.96439238833E+02  0.14602442623E+02  0.16012289921E+03  0.12500000000E+03 0.  0.
         25    1    1    2    0    0 -0.52874447730E+02  0.43063188938E+02  0.15443011978E+03  0.21005667654E+03  0.12500000000E+03 0.  0.
         25    1    1    2    0    0  0.75248198740E+02  0.53376049895E+02 -0.60007764168E+02  0.16654496653E+03  0.12500000000E+03 0.  0.
</event>
<event>
 5    0  0.5619558E-005  0.3265641E+03  0.7546771E-02  0.1072667E+00
         21   -1    0    0  502  501  0.00000000000E+00  0.00000000000E+00  0.16829124963E+03  0.16829124963E+03  0.00000000000E+00 0. -1.
         21   -1    0    0  501  502 -0.00000000000E+00 -0.00000000000E+00 -0.63368764371E+03  0.63368764371E+03  0.00000000000E+00 0. -1.
         25    1    1    2    0    0  0.13881345620E+03  0.75868259214E+02 -0.17079428940E+03  0.26423636704E+03  0.12500000000E+03 0.  0.
         25    1    1    2    0    0  0.21286893573E+02  0.26091126976E+02  0.37989423157E+02  0.13491506594E+03  0.12500000000E+03 0.  0.
         25    1    1    2    0    0 -0.16010034977E+03 -0.10195938619E+03 -0.33259152784E+03  0.40282746036E+03  0.12500000000E+03 0.  0.
</event>
<event>
 5    0  0.5619558E-005  0.4719937E+03  0.7546771E-02  0.1021359E+00
         21   -1    0    0  502  501  0.00000000000E+00  0.00000000000E+00  0.59377967226E+03  0.59377967226E+03  0.00000000000E+00 0.  1.
         21   -1    0    0  501  502 -0.00000000000E+00 -0.00000000000E+00 -0.37518641058E+03  0.37518641058E+03  0.00000000000E+00 0.  1.
         25    1    1    2    0    0 -0.16637761945E+02  0.29925255428E+03  0.22459879473E+03  0.39483987255E+03  0.12500000000E+03 0.  0.
         25    1    1    2    0    0  0.14944221415E+03  0.14996908000E+02 -0.65205369675E+02  0.20599665738E+03  0.12500000000E+03 0.  0.
         25    1    1    2    0    0 -0.13280445220E+03 -0.31424946227E+03  0.59199836633E+02  0.36812955291E+03  0.12500000000E+03 0.  0.
</event>
<event>
 5    0  0.5619558E-005  0.2483639E+03  0.7546771E-02  0.1114343E+00
         21   -1    0    0  502  501  0.00000000000E+00  0.00000000000E+00  0.24846828008E+03  0.24846828008E+03  0.00000000000E+00 0.  1.
         21   -1    0    0  501  502 -0.00000000000E+00 -0.00000000000E+00 -0.24825946969E+03  0.24825946969E+03  0.00000000000E+00 0.  1.
         25    1    1    2    0    0 -0.23252172999E+02  0.56704499489E+02  0.48158885097E+02  0.14731035953E+03  0.12500000000E+03 0.  0.
         25    1    1    2    0    0 -0.36702430374E+02  0.44819932470E+02  0.55855231125E+02  0.14866304714E+03  0.12500000000E+03 0.  0.
         25    1    1    2    0    0  0.59954603373E+02 -0.10152443196E+03 -0.10380530584E+03  0.20075434309E+03  0.12500000000E+03 0.  0.
</event>
<event>
 5    0  0.5619558E-005  0.3758218E+03  0.7546771E-02  0.1052489E+00
         21   -1    0    0  502  501  0.00000000000E+00  0.00000000000E+00  0.30786086835E+03  0.30786086835E+03  0.00000000000E+00 0. -1.
         21   -1    0    0  501  502 -0.00000000000E+00 -0.00000000000E+00 -0.45878528751E+03  0.45878528751E+03  0.00000000000E+00 0. -1.
         25    1    1    2    0    0 -0.24108894310E+02 -0.75553459813E+02 -0.13446511207E+03  0.19998857577E+03  0.12500000000E+03 0.  0.
         25    1    1    2    0    0  0.21488901322E+03 -0.55513063696E+01  0.13316510681E+03  0.28207454809E+03  0.12500000000E+03 0.  0.
         25    1    1    2    0    0 -0.19078011891E+03  0.81104766182E+02 -0.14962441390E+03  0.28458303200E+03  0.12500000000E+03 0.  0.
</event>
<event>
 5    0  0.5619558E-005  0.2994989E+03  0.7546771E-02  0.1085491E+00
         21   -1    0    0  502  501  0.00000000000E+00  0.00000000000E+00  0.10772664939E+03  0.10772664939E+03  0.00000000000E+00 0.  1.
         21   -1    0    0  501  502 -0.00000000000E+00 -0.00000000000E+00 -0.83265933648E+03  0.83265933648E+03  0.00000000000E+00 0.  1.
         25    1    1    2    0    0 -0.62363445662E+02  0.11326711575E+02 -0.48905497397E+03  0.50874085870E+03  0.12500000000E+03 0.  0.
         25    1    1    2    0    0 -0.71378285389E+02 -0.72690587112E+02 -0.15035654486E+03  0.22047873290E+03  0.12500000000E+03 0.  0.
         25    1    1    2    0    0  0.13374173105E+03  0.61363875536E+02 -0.85521168263E+02  0.21116639426E+03  0.12500000000E+03 0.  0.
</event>
<event>
 5    0  0.5619558E-005  0.3639366E+03  0.7546771E-02  0.1057036E+00
         21   -1    0    0  502  501  0.00000000000E+00  0.00000000000E+00  0.59680969336E+02  0.59680969336E+02  0.00000000000E+00 0. -1.
         21   -1    0    0  501  502 -0.00000000000E+00 -0.00000000000E+00 -0.22192979897E+04  0.22192979897E+04  0.00000000000E+00 0. -1.
         25    1    1    2    0    0  0.73712480724E+02  0.71183936670E+01 -0.15287392164E+04  0.15356278172E+04  0.12500000000E+03 0.  0.
         25    1    1    2    0    0 -0.11209451623E+02 -0.13766949060E+02 -0.34644314135E+02  0.13092138555E+03  0.12500000000E+03 0.  0.
         25    1    1    2    0    0 -0.62503029101E+02  0.66485553935E+01 -0.59623348988E+03  0.61242975629E+03  0.12500000000E+03 0.  0.
</event>
<event>
 5    0  0.5619558E-005  0.3398365E+03  0.7546771E-02  0.1066866E+00
         21   -1    0    0  502  501  0.00000000000E+00  0.00000000000E+00  0.15139650628E+03  0.15139650628E+03  0.00000000000E+00 0. -1.
         21   -1    0    0  501  502 -0.00000000000E+00 -0.00000000000E+00 -0.76282379599E+03  0.76282379599E+03  0.00000000000E+00 0. -1.
         25    1    1    2    0    0  0.96034245596E+02  0.73752755567E+02 -0.11413013932E+03  0.20811711603E+03  0.12500000000E+03 0.  0.
         25    1    1    2    0    0 -0.15601759409E+03  0.63589504952E+02 -0.46501961270E+02  0.21487798214E+03  0.12500000000E+03 0.  0.
         25    1    1    2    0    0  0.59983348498E+02 -0.13734226052E+03 -0.45079518912E+03  0.49122520411E+03  0.12500000000E+03 0.  0.
</event>
<event>
 5    0  0.5619558E-005  0.2738389E+03  0.7546771E-02  0.1099102E+00
         21   -1    0    0  502  501  0.00000000000E+00  0.00000000000E+00  0.48415202627E+02  0.48415202627E+02  0.00000000000E+00 0. -1.
         21   -1    0    0  501  502 -0.00000000000E+00 -0.00000000000E+00 -0.15488474910E+04  0.15488474910E+04  0.00000000000E+00 0. -1.
         25    1    1    2    0    0  0.26369319327E+01 -0.54379883524E+02 -0.57658104169E+03  0.59248191768E+03  0.12500000000E+03 0.  0.
         25    1    1    2    0    0 -0.86266366329E+02  0.14187695521E+03 -0.62866951184E+03  0.66213390753E+03  0.12500000000E+03 0.  0.
         25    1    1    2    0    0  0.83629434396E+02 -0.87497071684E+02 -0.29518173481E+03  0.34264686839E+03  0.12500000000E+03 0.  0.
</event>
<event>
 5    0  0.5619558E-005  0.3856564E+03  0.7546771E-02  0.1048863E+00
         21   -1    0    0  502  501  0.00000000000E+00  0.00000000000E+00  0.42743574190E+03  0.42743574190E+03  0.00000000000E+00 0. -1.
         21   -1    0    0  501  502 -0.00000000000E+00 -0.00000000000E+00 -0.34796079426E+03  0.34796079426E+03  0.00000000000E+00 0. -1.
         25    1    1    2    0    0 -0.22872341635E+03  0.21201200451E+03  0.69735771034E+02  0.34314948492E+03  0.12500000000E+03 0.  0.
         25    1    1    2    0    0  0.15943755800E+03 -0.40633137590E+02  0.27203099804E+02  0.20841400003E+03  0.12500000000E+03 0.  0.
         25    1    1    2    0    0  0.69285858350E+02 -0.17137886692E+03 -0.17463923197E+02  0.22383305119E+03  0.12500000000E+03 0.  0.
</event>
<event>
 5    0  0.5619558E-005  0.3483929E+03  0.7546771E-02  0.1063277E+00
         21   -1    0    0  502  501  0.00000000000E+00  0.00000000000E+00  0.11926293611E+04  0.11926293611E+04  0.00000000000E+00 0.  1.
         21   -1    0    0  501  502 -0.00000000000E+00 -0.00000000000E+00 -0.10177313748E+03  0.10177313748E+03  0.00000000000E+00 0.  1.
         25    1    1    2    0    0  0.77193353509E+02  0.15549762554E+02  0.76402371578E+03  0.77817597445E+03  0.12500000000E+03 0.  0.
         25    1    1    2    0    0  0.76272028014E+02 -0.71305209952E+02  0.48052832133E+02  0.16981145397E+03  0.12500000000E+03 0.  0.
         25    1    1    2    0    0 -0.15346538152E+03  0.55755447398E+02  0.27877967571E+03  0.34641507015E+03  0.12500000000E+03 0.  0.
</event>
<event>
 5    0  0.5619558E-005  0.3140065E+03  0.7546771E-02  0.1078441E+00
         21   -1    0    0  502  501  0.00000000000E+00  0.00000000000E+00  0.15663985578E+03  0.15663985578E+03  0.00000000000E+00 0.  1.
         21   -1    0    0  501  502 -0.00000000000E+00 -0.00000000000E+00 -0.62947011366E+03  0.62947011366E+03  0.00000000000E+00 0.  1.
         25    1    1    2    0    0 -0.19088583462E+03 -0.44151351601E+02 -0.34542850232E+03  0.41633231189E+03  0.12500000000E+03 0.  0.
         25    1    1    2    0    0  0.15985186487E+03 -0.93465216470E+01 -0.10451760407E+03  0.22844891274E+03  0.12500000000E+03 0.  0.
         25    1    1    2    0    0  0.31033969751E+02  0.53497873248E+02 -0.22884151479E+02  0.14132874481E+03  0.12500000000E+03 0.  0.
</event>
<event>
 5    0  0.5619558E-005  0.2911661E+03  0.7546771E-02  0.1089742E+00
         21   -1    0    0  502  501  0.00000000000E+00  0.00000000000E+00  0.17804694984E+04  0.17804694984E+04  0.00000000000E+00 0. -1.
         21   -1    0    0  501  502 -0.00000000000E+00 -0.00000000000E+00 -0.47615359711E+02  0.47615359711E+02  0.00000000000E+00 0. -1.
         25    1    1    2    0    0 -0.91410661319E+02  0.81565435473E+02  0.67850757430E+03  0.70071845819E+03  0.12500000000E+03 0.  0.
         25    1    1    2    0    0  0.16991558551E+03  0.13240416485E+02  0.71170656827E+03  0.74242700257E+03  0.12500000000E+03 0.  0.
         25    1    1    2    0    0 -0.78504924194E+02 -0.94805851958E+02  0.34263999609E+03  0.38493939732E+03  0.12500000000E+03 0.  0.
</event>
<event>
 5    0  0.5619558E-005  0.2689201E+03  0.7546771E-02  0.1101899E+00
         21   -1    0    0  502  501  0.00000000000E+00  0.00000000000E+00  0.27667963737E+03  0.27667963737E+03  0.00000000000E+00 0.  1.
         21   -1    0    0  501  502 -0.00000000000E+00 -0.00000000000E+00 -0.26137818980E+03  0.26137818980E+03  0.00000000000E+00 0.  1.
         25    1    1    2    0    0  0.66540277736E+02  0.71099087257E+02 -0.43536559127E+02  0.16432626312E+03  0.12500000000E+03 0.  0.
         25    1    1    2    0    0  0.69553545411E+02 -0.33357177270E+01 -0.46554088540E+02  0.15046961770E+03  0.12500000000E+03 0.  0.
         25    1    1    2    0    0 -0.13609382315E+03 -0.67763369530E+02  0.10539209524E+03  0.22326194635E+03  0.12500000000E+03 0.  0.
</event>
<event>
 5    0  0.5619558E-005  0.3452447E+03  0.7546771E-02  0.1064584E+00
         21   -1    0    0  502  501  0.00000000000E+00  0.00000000000E+00  0.48875767879E+03  0.48875767879E+03  0.00000000000E+00 0.  1.
         21   -1    0    0  501  502 -0.00000000000E+00 -0.00000000000E+00 -0.24387112149E+03  0.24387112149E+03  0.00000000000E+00 0.  1.
         25    1    1    2    0    0 -0.24034575725E+03 -0.12780811723E+03  0.74486249040E+02  0.30866518941E+03  0.12500000000E+03 0.  0.
         25    1    1    2    0    0  0.17213040318E+03  0.31444599682E+02  0.77880273123E+02  0.22870936905E+03  0.12500000000E+03 0.  0.
         25    1    1    2    0    0  0.68215354069E+02  0.96363517552E+02  0.92520035132E+02  0.19525424181E+03  0.12500000000E+03 0.  0.
</event>
<event>
 5    0  0.5619558E-005  0.2842666E+03  0.7546771E-02  0.1093381E+00
         21   -1    0    0  502  501  0.00000000000E+00  0.00000000000E+00  0.18858172622E+03  0.18858172622E+03  0.00000000000E+00 0.  1.
         21   -1    0    0  501  502 -0.00000000000E+00 -0.00000000000E+00 -0.42850120053E+03  0.42850120053E+03  0.00000000000E+00 0.  1.
         25    1    1    2    0    0  0.88973132147E+02  0.16091507356E+03 -0.30914864373E+02  0.22447852455E+03  0.12500000000E+03 0.  0.
         25    1    1    2    0    0 -0.23985868790E+02 -0.13699968160E+03 -0.14183850383E+03  0.23470704256E+03  0.12500000000E+03 0.  0.
         25    1    1    2    0    0 -0.64987263357E+02 -0.23915391959E+02 -0.67166106107E+02  0.15789735964E+03  0.12500000000E+03 0.  0.
</event>
<event>
 5    0  0.5619558E-005  0.2953656E+03  0.7546771E-02  0.1087581E+00
         21   -1    0    0  502  501  0.00000000000E+00  0.00000000000E+00  0.54732528142E+02  0.54732528142E+02  0.00000000000E+00 0. -1.
         21   -1    0    0  501  502 -0.00000000000E+00 -0.00000000000E+00 -0.15939483904E+04  0.15939483904E+04  0.00000000000E+00 0. -1.
         25    1    1    2    0    0  0.27811975642E+02  0.71088546934E+02 -0.24107126432E+03  0.28207701426E+03  0.12500000000E+03 0.  0.
         25    1    1    2    0    0 -0.12238798798E+03  0.20918487509E+01 -0.25520533416E+03  0.30941551030E+03  0.12500000000E+03 0.  0.
         25    1    1    2    0    0  0.94576012339E+02 -0.73180395685E+02 -0.10429392638E+04  0.10571883940E+04  0.12500000000E+03 0.  0.
</event>
<event>
 5    0  0.5619558E-005  0.3257394E+03  0.7546771E-02  0.1073038E+00
         21   -1    0    0  502  501  0.00000000000E+00  0.00000000000E+00  0.33717579468E+03  0.33717579468E+03  0.00000000000E+00 0. -1.
         21   -1    0    0  501  502 -0.00000000000E+00 -0.00000000000E+00 -0.31469091514E+03  0.31469091514E+03  0.00000000000E+00 0. -1.
         25    1    1    2    0    0 -0.27511745056E+02 -0.72231764607E+02  0.21618588181E+03  0.26141090151E+03  0.12500000000E+03 0.  0.
         25    1    1    2    0    0  0.73244637971E+02  0.44056614046E+02 -0.20394683398E+03  0.25401786025E+03  0.12500000000E+03 0.  0.
         25    1    1    2    0    0 -0.45732892915E+02  0.28175150561E+02  0.10245831718E+02  0.13643794806E+03  0.12500000000E+03 0.  0.
</event>
<event>
 5    0  0.5619558E-005  0.2565043E+03  0.7546771E-02  0.1109262E+00
         21   -1    0    0  502  501  0.00000000000E+00  0.00000000000E+00  0.31197911988E+03  0.31197911988E+03  0.00000000000E+00 0.  1.
         21   -1    0    0  501  502 -0.00000000000E+00 -0.00000000000E+00 -0.21089379228E+03  0.21089379228E+03  0.00000000000E+00 0.  1.
         25    1    1    2    0    0  0.11790776175E+03 -0.22204120383E+02 -0.37830156327E+01  0.17330485986E+03  0.12500000000E+03 0.  0.
         25    1    1    2    0    0  0.28590693672E+02  0.18805267493E+02  0.87082846566E+02  0.15613932245E+03  0.12500000000E+03 0.  0.
         25    1    1    2    0    0 -0.14649845542E+03  0.33988528906E+01  0.17785496668E+02  0.19342872985E+03  0.12500000000E+03 0.  0.
</event>
<event>
 5    0  0.5619558E-005  0.4320247E+03  0.7546771E-02  0.1033222E+00
         21   -1    0    0  502  501  0.00000000000E+00  0.00000000000E+00  0.92399119241E+02  0.92399119241E+02  0.00000000000E+00 0. -1.
         21   -1    0    0  501  502 -0.00000000000E+00 -0.00000000000E+00 -0.20199908304E+04  0.20199908304E+04  0.00000000000E+00 0. -1.
         25    1    1    2    0    0  0.57447738935E+02  0.14098964588E+03 -0.16473067942E+03  0.25678691496E+03  0.12500000000E+03 0.  0.
         25    1    1    2    0    0  0.12274006940E+03  0.93716559388E+02 -0.11140928402E+04  0.11316694635E+04  0.12500000000E+03 0.  0.
         25    1    1    2    0    0 -0.18018780833E+03 -0.23470620526E+03 -0.64876819156E+03  0.72393357116E+03  0.12500000000E+03 0.  0.
</event>
<event>
 5    0  0.5619558E-005  0.3682551E+03  0.7546771E-02  0.1055362E+00
         21   -1    0    0  502  501  0.00000000000E+00  0.00000000000E+00  0.55885367446E+03  0.55885367446E+03  0.00000000000E+00 0.  1.
         21   -1    0    0  501  502 -0.00000000000E+00 -0.00000000000E+00 -0.24266068927E+03  0.24266068927E+03  0.00000000000E+00 0.  1.
         25    1    1    2    0    0 -0.47784484997E+02 -0.12314220871E+03 -0.10004134087E+02  0.18213303729E+03  0.12500000000E+03 0.  0.
         25    1    1    2    0    0  0.20139277350E+03  0.71653655048E+02  0.16481265618E+02  0.24817318070E+03  0.12500000000E+03 0.  0.
         25    1    1    2    0    0 -0.15360828851E+03  0.51488553666E+02  0.30971585366E+03  0.37120814574E+03  0.12500000000E+03 0.  0.
</event>
<event>
 5    0  0.5893045E-005  0.3539762E+03  0.7546771E-02  0.1060995E+00
         21   -1    0    0  502  501  0.00000000000E+00  0.00000000000E+00  0.19725579089E+03  0.19725579089E+03  0.00000000000E+00 0.  1.
         21   -1    0    0  501  502 -0.00000000000E+00 -0.00000000000E+00 -0.63521146056E+03  0.63521146056E+03  0.00000000000E+00 0.  1.
         25    1    1    2    0    0 -0.48214942893E+01  0.11573809808E+03 -0.41677654393E+03  0.45027351879E+03  0.12500000000E+03 0.  0.
         25    1    1    2    0    0 -0.12333218495E+03 -0.99083788450E+02 -0.17150137597E+02  0.20235501525E+03  0.12500000000E+03 0.  0.
         25    1    1    2    0    0  0.12815367924E+03 -0.16654309633E+02 -0.40289881390E+01  0.17983871741E+03  0.12500000000E+03 0.  0.
</event>
<event>
 5    0  0.5619558E-005  0.2331307E+03  0.7546771E-02  0.1124455E+00
         21   -1    0    0  502  501  0.00000000000E+00  0.00000000000E+00  0.31782318082E+02  0.31782318082E+02  0.00000000000E+00 0.  1.
         21   -1    0    0  501  502 -0.00000000000E+00 -0.00000000000E+00 -0.17100672975E+04  0.17100672975E+04  0.00000000000E+00 0.  1.
         25    1    1    2    0    0  0.35315920351E+02 -0.55652397240E+02 -0.67687835952E+03  0.69147213765E+03  0.12500000000E+03 0.  0.
         25    1    1    2    0    0 -0.10860223585E+03  0.23499675553E+02 -0.57794024225E+03  0.60165322570E+03  0.12500000000E+03 0.  0.
         25    1    1    2    0    0  0.73286315501E+02  0.32152721687E+02 -0.42346637767E+03  0.44872425227E+03  0.12500000000E+03 0.  0.
</event>
<event>
 5    0  0.5619558E-005  0.4057248E+03  0.7546771E-02  0.1041815E+00
         21   -1    0    0  502  501  0.00000000000E+00  0.00000000000E+00  0.37971126458E+03  0.37971126458E+03  0.00000000000E+00 0. -1.
         21   -1    0    0  501  502 -0.00000000000E+00 -0.00000000000E+00 -0.43352048098E+03  0.43352048098E+03  0.00000000000E+00 0. -1.
         25    1    1    2    0    0  0.19322683293E+03  0.46161137078E+01  0.77437641826E+02  0.24285696581E+03  0.12500000000E+03 0.  0.
         25    1    1    2    0    0  0.62211382938E+02 -0.16076969413E+03 -0.12284576150E+03  0.24583171446E+03  0.12500000000E+03 0.  0.
         25    1    1    2    0    0 -0.25543821587E+03  0.15615358042E+03 -0.84010967304E+01  0.32454306529E+03  0.12500000000E+03 0.  0.
</event>
<event>
 5    0  0.5619558E-005  0.4961761E+03  0.7546771E-02  0.1014782E+00
         21   -1    0    0  502  501  0.00000000000E+00  0.00000000000E+00  0.23335743033E+03  0.23335743033E+03  0.00000000000E+00 0. -1.
         21   -1    0    0  501  502 -0.00000000000E+00 -0.00000000000E+00 -0.10549940059E+04  0.10549940059E+04  0.00000000000E+00 0. -1.
         25    1    1    2    0    0 -0.37418704478E+02  0.30476295288E+03 -0.24691089061E+03  0.41336497771E+03  0.12500000000E+03 0.  0.
         25    1    1    2    0    0  0.19948756642E+03 -0.34396681270E+03 -0.24080561868E+03  0.48137387069E+03  0.12500000000E+03 0.  0.
         25    1    1    2    0    0 -0.16206886194E+03  0.39203859825E+02 -0.33392006625E+03  0.39361258781E+03  0.12500000000E+03 0.  0.
</event>
<event>
 5    0  0.5619558E-005  0.6138259E+03  0.7546771E-02  0.9877130E-01
         21   -1    0    0  502  501  0.00000000000E+00  0.00000000000E+00  0.63739180729E+03  0.63739180729E+03  0.00000000000E+00 0.  1.
         21   -1    0    0  501  502 -0.00000000000E+00 -0.00000000000E+00 -0.59113119980E+03  0.59113119980E+03  0.00000000000E+00 0.  1.
         25    1    1    2    0    0 -0.15354354328E+03 -0.16469005290E+03 -0.41624937541E+02  0.26087558075E+03  0.12500000000E+03 0.  0.
         25    1    1    2    0    0  0.16124356826E+03  0.43576333745E+03  0.32980738198E+03  0.58334130985E+03  0.12500000000E+03 0.  0.
         25    1    1    2    0    0 -0.77000249873E+01 -0.27107328454E+03 -0.24192183695E+03  0.38430611649E+03  0.12500000000E+03 0.  0.
</event>
<event>
 5    0  0.5619558E-005  0.3591821E+03  0.7546771E-02  0.1058908E+00
         21   -1    0    0  502  501  0.00000000000E+00  0.00000000000E+00  0.69290142996E+03  0.69290142996E+03  0.00000000000E+00 0.  1.
         21   -1    0    0  501  502 -0.00000000000E+00 -0.00000000000E+00 -0.18619063418E+03  0.18619063418E+03  0.00000000000E+00 0.  1.
         25    1    1    2    0    0 -0.19583060599E+03 -0.16007012687E+03  0.19423881437E+03  0.34252852256E+03  0.12500000000E+03 0.  0.
         25    1    1    2    0    0  0.35923405287E+02  0.21334688237E+02 -0.87128105101E+01  0.13208547625E+03  0.12500000000E+03 0.  0.
         25    1    1    2    0    0  0.15990720070E+03  0.13873543863E+03  0.32118479193E+03  0.40447806533E+03  0.12500000000E+03 0.  0.
</event>
<event>
 5    0  0.5619558E-005  0.2941388E+03  0.7546771E-02  0.1088208E+00
         21   -1    0    0  502  501  0.00000000000E+00  0.00000000000E+00  0.53596507095E+02  0.53596507095E+02  0.00000000000E+00 0. -1.
         21   -1    0    0  501  502 -0.00000000000E+00 -0.00000000000E+00 -0.16142400680E+04  0.16142400680E+04  0.00000000000E+00 0. -1.
         25    1    1    2    0    0  0.53607126895E+02  0.38304578191E+02 -0.55035038353E+03  0.56820023707E+03  0.12500000000E+03 0.  0.
         25    1    1    2    0    0  0.11832198353E+03 -0.96277093715E+02 -0.32879482172E+03  0.38340631887E+03  0.12500000000E+03 0.  0.
         25    1    1    2    0    0 -0.17192911042E+03  0.57972515524E+02 -0.68149835569E+03  0.71623001918E+03  0.12500000000E+03 0.  0.
</event>
<event>
 5    0  0.5619558E-005  0.2598851E+03  0.7546771E-02  0.1107212E+00
         21   -1    0    0  502  501  0.00000000000E+00  0.00000000000E+00  0.40370254121E+03  0.40370254121E+03  0.00000000000E+00 0. -1.
         21   -1    0    0  501  502 -0.00000000000E+00 -0.00000000000E+00 -0.16730208910E+03  0.16730208910E+03  0.00000000000E+00 0. -1.
         25    1    1    2    0    0  0.70065998566E+02  0.38307109071E+02  0.50324236897E+02  0.15663399241E+03  0.12500000000E+03 0.  0.
         25    1    1    2    0    0 -0.42559787890E+02 -0.11194397311E+03 -0.46375834750E+01  0.17317417776E+03  0.12500000000E+03 0.  0.
         25    1    1    2    0    0 -0.27506210676E+02  0.73636864040E+02  0.19071379869E+03  0.24119646013E+03  0.12500000000E+03 0.  0.
</event>
<event>
 5    0  0.5619558E-005  0.2900977E+03  0.7546771E-02  0.1090298E+00
         21   -1    0    0  502  501  0.00000000000E+00  0.00000000000E+00  0.12976217473E+04  0.12976217473E+04  0.00000000000E+00 0. -1.
         21   -1    0    0  501  502 -0.00000000000E+00 -0.00000000000E+00 -0.64854553023E+02  0.64854553023E+02  0.00000000000E+00 0. -1.
         25    1    1    2    0    0  0.91392791419E+02  0.79383595239E+02  0.71955472351E+03  0.74029615536E+03  0.12500000000E+03 0.  0.
         25    1    1    2    0    0 -0.14216360272E+03  0.70197602191E+01  0.31157608639E+03  0.36464287267E+03  0.12500000000E+03 0.  0.
         25    1    1    2    0    0  0.50770811305E+02 -0.86403355458E+02  0.20163638433E+03  0.25753727226E+03  0.12500000000E+03 0.  0.
</event>
<event>
 5    0  0.5619558E-005  0.2641997E+03  0.7546771E-02  0.1104646E+00
         21   -1    0    0  502  501  0.00000000000E+00  0.00000000000E+00  0.49987932938E+03  0.49987932938E+03  0.00000000000E+00 0.  1.
         21   -1    0    0  501  502 -0.00000000000E+00 -0.00000000000E+00 -0.13963662936E+03  0.13963662936E+03  0.00000000000E+00 0.  1.
         25    1    1    2    0    0 -0.78599553415E+02  0.47595141258E+02 -0.16604955695E+02  0.15602535634E+03  0.12500000000E+03 0.  0.
         25    1    1    2    0    0  0.37207754398E+02 -0.96666712203E+02  0.20594649415E+03  0.26223620781E+03  0.12500000000E+03 0.  0.
         25    1    1    2    0    0  0.41391799017E+02  0.49071570946E+02  0.17090116156E+03  0.22125439459E+03  0.12500000000E+03 0.  0.
</event>
<event>
 5    0  0.5619558E-005  0.3724540E+03  0.7546771E-02  0.1053759E+00
         21   -1    0    0  502  501  0.00000000000E+00  0.00000000000E+00  0.12114180414E+03  0.12114180414E+03  0.00000000000E+00 0.  1.
         21   -1    0    0  501  502 -0.00000000000E+00 -0.00000000000E+00 -0.11451203507E+04  0.11451203507E+04  0.00000000000E+00 0.  1.
         25    1    1    2    0    0 -0.38775802249E+02 -0.27563142707E+03 -0.45228812401E+03  0.54558756726E+03  0.12500000000E+03 0.  0.
         25    1    1    2    0    0  0.10407453688E+03  0.47332792445E+02 -0.19728320438E+03  0.26003377703E+03  0.12500000000E+03 0.  0.
         25    1    1    2    0    0 -0.65298734635E+02  0.22829863463E+03 -0.37440721818E+03  0.46064081055E+03  0.12500000000E+03 0.  0.
</event>
<event>
 5    0  0.6423256E-005  0.2902083E+03  0.7546771E-02  0.1090240E+00
         21   -1    0    0  502  501  0.00000000000E+00  0.00000000000E+00  0.12558002709E+03  0.12558002709E+03  0.00000000000E+00 0. -1.
         21   -1    0    0  501  502 -0.00000000000E+00 -0.00000000000E+00 -0.67065506279E+03  0.67065506279E+03  0.00000000000E+00 0. -1.
         25    1    1    2    0    0 -0.65837080111E+02  0.17775102018E+03 -0.10531596348E+03  0.25029262565E+03  0.12500000000E+03 0.  0.
         25    1    1    2    0    0  0.69890136831E+02 -0.96506272284E+02 -0.26358246964E+03  0.31511713714E+03  0.12500000000E+03 0.  0.
         25    1    1    2    0    0 -0.40530567194E+01 -0.81244747896E+02 -0.17617660258E+03  0.23082532709E+03  0.12500000000E+03 0.  0.
</event>
<event>
 5    0  0.5619558E-005  0.6300094E+03  0.7546771E-02  0.9845031E-01
         21   -1    0    0  502  501  0.00000000000E+00  0.00000000000E+00  0.14750098388E+04  0.14750098388E+04  0.00000000000E+00 0.  1.
         21   -1    0    0  501  502 -0.00000000000E+00 -0.00000000000E+00 -0.26909095801E+03  0.26909095801E+03  0.00000000000E+00 0.  1.
         25    1    1    2    0    0  0.16628890616E+02  0.38259140056E+03  0.45678025703E+03  0.60903686506E+03  0.12500000000E+03 0.  0.
         25    1    1    2    0    0 -0.15148588100E+03 -0.24207510862E+01 -0.74019133690E+02  0.20989917659E+03  0.12500000000E+03 0.  0.
         25    1    1    2    0    0  0.13485699039E+03 -0.38017064947E+03  0.82315775749E+03  0.92516475521E+03  0.12500000000E+03 0.  0.
</event>
<event>
 5    0  0.5619558E-005  0.3216027E+03  0.7546771E-02  0.1074914E+00
         21   -1    0    0  502  501  0.00000000000E+00  0.00000000000E+00  0.28979381172E+04  0.28979381172E+04  0.00000000000E+00 0. -1.
         21   -1    0    0  501  502 -0.00000000000E+00 -0.00000000000E+00 -0.35690305290E+02  0.35690305290E+02  0.00000000000E+00 0. -1.
         25    1    1    2    0    0  0.27423800264E+02 -0.11144017093E+03  0.86012846742E+03  0.87670802265E+03  0.12500000000E+03 0.  0.
         25    1    1    2    0    0 -0.21061292705E+02  0.14736977123E+03  0.35562264365E+03  0.40528248444E+03  0.12500000000E+03 0.  0.
         25    1    1    2    0    0 -0.63625075587E+01 -0.35929600294E+02  0.16464967009E+04  0.16516379154E+04  0.12500000000E+03 0.  0.
</event>
<event>
 5    0  0.5619558E-005  0.2917014E+03  0.7546771E-02  0.1089464E+00
         21   -1    0    0  502  501  0.00000000000E+00  0.00000000000E+00  0.62752620956E+03  0.62752620956E+03  0.00000000000E+00 0. -1.
         21   -1    0    0  501  502 -0.00000000000E+00 -0.00000000000E+00 -0.13559541946E+03  0.13559541946E+03  0.00000000000E+00 0. -1.
         25    1    1    2    0    0 -0.10765243746E+03  0.10687560744E+03  0.17707593478E+03  0.26456063470E+03  0.12500000000E+03 0.  0.
         25    1    1    2    0    0  0.10694369598E+03  0.59480215755E+02  0.17761567297E+03  0.24929335623E+03  0.12500000000E+03 0.  0.
         25    1    1    2    0    0  0.70874148146E+00 -0.16635582319E+03  0.13723918235E+03  0.24926763809E+03  0.12500000000E+03 0.  0.
</event>
<event>
 5    0  0.5619558E-005  0.2896732E+03  0.7546771E-02  0.1090520E+00
         21   -1    0    0  502  501  0.00000000000E+00  0.00000000000E+00  0.73849332208E+03  0.73849332208E+03  0.00000000000E+00 0. -1.
         21   -1    0    0  501  502 -0.00000000000E+00 -0.00000000000E+00 -0.11362397280E+03  0.11362397280E+03  0.00000000000E+00 0. -1.
         25    1    1    2    0    0  0.78770518976E+02  0.73946774356E+02  0.10389702056E+03  0.19517302831E+03  0.12500000000E+03 0.  0.
         25    1    1    2    0    0  0.10031877209E+03  0.21499313408E+02  0.21937477369E+03  0.27253691097E+03  0.12500000000E+03 0.  0.
         25    1    1    2    0    0 -0.17908929107E+03 -0.95446087764E+02  0.30159755503E+03  0.38440735560E+03  0.12500000000E+03 0.  0.
</event>
<event>
 5    0  0.5619558E-005  0.2388084E+03  0.7546771E-02  0.1120589E+00
         21   -1    0    0  502  501  0.00000000000E+00  0.00000000000E+00  0.63680666300E+03  0.63680666300E+03  0.00000000000E+00 0.  1.
         21   -1    0    0  501  502 -0.00000000000E+00 -0.00000000000E+00 -0.89555341799E+02  0.89555341799E+02  0.00000000000E+00 0.  1.
         25    1    1    2    0    0  0.44166394864E+02 -0.11182262708E+02  0.42375118073E+02  0.13962938110E+03  0.12500000000E+03 0.  0.
         25    1    1    2    0    0 -0.83894801099E+02  0.55022783252E+02  0.25692656594E+03  0.30282355359E+03  0.12500000000E+03 0.  0.
         25    1    1    2    0    0  0.39728406234E+02 -0.43840520544E+02  0.24794963719E+03  0.28390907010E+03  0.12500000000E+03 0.  0.
</event>
<event>
 5    0  0.5619558E-005  0.4801357E+03  0.7546771E-02  0.1019098E+00
         21   -1    0    0  502  501  0.00000000000E+00  0.00000000000E+00  0.20605658967E+03  0.20605658967E+03  0.00000000000E+00 0.  1.
         21   -1    0    0  501  502 -0.00000000000E+00 -0.00000000000E+00 -0.11187719091E+04  0.11187719091E+04  0.00000000000E+00 0.  1.
         25    1    1    2    0    0 -0.15426956443E+03 -0.16717184975E+03 -0.90152344927E+03  0.93814447471E+03  0.12500000000E+03 0.  0.
         25    1    1    2    0    0  0.44640911257E+02  0.17210506889E+03 -0.29529933069E+02  0.21933987928E+03  0.12500000000E+03 0.  0.
         25    1    1    2    0    0  0.10962865318E+03 -0.49332191420E+01  0.18338062875E+02  0.16734414480E+03  0.12500000000E+03 0.  0.
</event>
<event>
 5    0  0.5619558E-005  0.4196253E+03  0.7546771E-02  0.1037188E+00
         21   -1    0    0  502  501  0.00000000000E+00  0.00000000000E+00  0.15569638557E+04  0.15569638557E+04  0.00000000000E+00 0. -1.
         21   -1    0    0  501  502 -0.00000000000E+00 -0.00000000000E+00 -0.11309535153E+03  0.11309535153E+03  0.00000000000E+00 0. -1.
         25    1    1    2    0    0 -0.91762100173E+02  0.35996165773E+02  0.49889361654E+03  0.52367532652E+03  0.12500000000E+03 0.  0.
         25    1    1    2    0    0  0.12734105743E+03 -0.19519561164E+03  0.89723459657E+03  0.93539937620E+03  0.12500000000E+03 0.  0.
         25    1    1    2    0    0 -0.35578957258E+02  0.15919944586E+03  0.47740291092E+02  0.21098450454E+03  0.12500000000E+03 0.  0.
</event>
<event>
 5    0  0.5619558E-005  0.4176716E+03  0.7546771E-02  0.1037827E+00
         21   -1    0    0  502  501  0.00000000000E+00  0.00000000000E+00  0.41906617502E+03  0.41906617502E+03  0.00000000000E+00 0. -1.
         21   -1    0    0  501  502 -0.00000000000E+00 -0.00000000000E+00 -0.41628158861E+03  0.41628158861E+03  0.00000000000E+00 0. -1.
         25    1    1    2    0    0  0.18891869589E+03 -0.13339350909E+03 -0.32265557630E+02  0.26485877017E+03  0.12500000000E+03 0.  0.
         25    1    1    2    0    0 -0.61657435374E+02  0.15438787207E+02  0.23762704585E+03  0.27591956873E+03  0.12500000000E+03 0.  0.
         25    1    1    2    0    0 -0.12726126052E+03  0.11795472188E+03 -0.20257690180E+03  0.29456942474E+03  0.12500000000E+03 0.  0.
</event>
<event>
 5    0  0.5619558E-005  0.2455452E+03  0.7546771E-02  0.1116153E+00
         21   -1    0    0  502  501  0.00000000000E+00  0.00000000000E+00  0.32901513774E+03  0.32901513774E+03  0.00000000000E+00 0. -1.
         21   -1    0    0  501  502 -0.00000000000E+00 -0.00000000000E+00 -0.18325124710E+03  0.18325124710E+03  0.00000000000E+00 0. -1.
         25    1    1    2    0    0  0.10538048136E+03 -0.30066197973E+02  0.15219602343E+03  0.22538334380E+03  0.12500000000E+03 0.  0.
         25    1    1    2    0    0 -0.16969145792E+02 -0.14465464121E+02 -0.10250235036E+02  0.12738629785E+03  0.12500000000E+03 0.  0.
         25    1    1    2    0    0 -0.88411335569E+02  0.44531662094E+02  0.38181022489E+01  0.15949674320E+03  0.12500000000E+03 0.  0.
</event>
<event>
 5    0  0.5619558E-005  0.2990321E+03  0.7546771E-02  0.1085725E+00
         21   -1    0    0  502  501  0.00000000000E+00  0.00000000000E+00  0.80388026147E+02  0.80388026147E+02  0.00000000000E+00 0.  1.
         21   -1    0    0  501  502 -0.00000000000E+00 -0.00000000000E+00 -0.11123574652E+04  0.11123574652E+04  0.00000000000E+00 0.  1.
         25    1    1    2    0    0 -0.53461726360E+02  0.12936795133E+03 -0.31725225240E+03  0.36860305841E+03  0.12500000000E+03 0.  0.
         25    1    1    2    0    0 -0.50010134587E+02  0.62342075432E+02 -0.17918371896E+03  0.23263566594E+03  0.12500000000E+03 0.  0.
         25    1    1    2    0    0  0.10347186095E+03 -0.19171002676E+03 -0.53553346767E+03  0.59150676696E+03  0.12500000000E+03 0.  0.
</event>
<event>
 5    0  0.5619558E-005  0.3284485E+03  0.7546771E-02  0.1071825E+00
         21   -1    0    0  502  501  0.00000000000E+00  0.00000000000E+00  0.17834094288E+03  0.17834094288E+03  0.00000000000E+00 0.  1.
         21   -1    0    0  501  502 -0.00000000000E+00 -0.00000000000E+00 -0.60489985357E+03  0.60489985357E+03  0.00000000000E+00 0.  1.
         25    1    1    2    0    0  0.22351826272E+03  0.65836533568E+02 -0.25614948150E+03  0.36814728003E+03  0.12500000000E+03 0.  0.
         25    1    1    2    0    0 -0.11212552987E+02 -0.10428235321E+02 -0.59628305518E+02  0.13933773450E+03  0.12500000000E+03 0.  0.
         25    1    1    2    0    0 -0.21230570973E+03 -0.55408298247E+02 -0.11078112367E+03  0.27575578192E+03  0.12500000000E+03 0.  0.
</event>
<event>
 5    0  0.5619558E-005  0.3207146E+03  0.7546771E-02  0.1075321E+00
         21   -1    0    0  502  501  0.00000000000E+00  0.00000000000E+00  0.10066903420E+03  0.10066903420E+03  0.00000000000E+00 0. -1.
         21   -1    0    0  501  502 -0.00000000000E+00 -0.00000000000E+00 -0.10217425335E+04  0.10217425335E+04  0.00000000000E+00 0. -1.
         25    1    1    2    0    0  0.10969711153E+03 -0.10314889749E+03 -0.35496601266E+03  0.40533815694E+03  0.12500000000E+03 0.  0.
         25    1    1    2    0    0 -0.21345697967E+03  0.65749444781E+02 -0.24021979806E+03  0.35102339386E+03  0.12500000000E+03 0.  0.
         25    1    1    2    0    0  0.10375986814E+03  0.37399452705E+02 -0.32588768855E+03  0.36605001687E+03  0.12500000000E+03 0.  0.
</event>
<event>
 5    0  0.5619558E-005  0.5426430E+03  0.7546771E-02  0.1003211E+00
         21   -1    0    0  502  501  0.00000000000E+00  0.00000000000E+00  0.18414109985E+03  0.18414109985E+03  0.00000000000E+00 0. -1.
         21   -1    0    0  501  502 -0.00000000000E+00 -0.00000000000E+00 -0.15991073603E+04  0.15991073603E+04  0.00000000000E+00 0. -1.
         25    1    1    2    0    0 -0.12643364044E+03 -0.11387528992E+03 -0.28089926703E+03  0.35140069053E+03  0.12500000000E+03 0.  0.
         25    1    1    2    0    0  0.16765157903E+03  0.84314925992E+02 -0.12399955174E+04  0.12603292990E+04  0.12500000000E+03 0.  0.
         25    1    1    2    0    0 -0.41217938594E+02  0.29560363924E+02  0.10592852399E+03  0.17151847064E+03  0.12500000000E+03 0.  0.
</event>
<event>
 5    0  0.5619558E-005  0.2646229E+03  0.7546771E-02  0.1104397E+00
         21   -1    0    0  502  501  0.00000000000E+00  0.00000000000E+00  0.15070053049E+03  0.15070053049E+03  0.00000000000E+00 0.  1.
         21   -1    0    0  501  502 -0.00000000000E+00 -0.00000000000E+00 -0.46466517824E+03  0.46466517824E+03  0.00000000000E+00 0.  1.
         25    1    1    2    0    0  0.13052135918E+03  0.83269517053E+02 -0.18973810723E+03  0.27494578922E+03  0.12500000000E+03 0.  0.
         25    1    1    2    0    0 -0.10937606133E+03 -0.41739740496E+01 -0.49598298580E+02  0.17339416390E+03  0.12500000000E+03 0.  0.
         25    1    1    2    0    0 -0.21145297853E+02 -0.79095543003E+02 -0.74628241930E+02  0.16702575561E+03  0.12500000000E+03 0.  0.
</event>
<event>
 5    0  0.6325914E-005  0.5833394E+03  0.7546771E-02  0.9940587E-01
         21   -1    0    0  502  501  0.00000000000E+00  0.00000000000E+00  0.99583973871E+03  0.99583973871E+03  0.00000000000E+00 0. -1.
         21   -1    0    0  501  502 -0.00000000000E+00 -0.00000000000E+00 -0.34170643821E+03  0.34170643821E+03  0.00000000000E+00 0. -1.
         25    1    1    2    0    0 -0.25999516134E+03 -0.75580036921E+02  0.66074011911E+03  0.72492229301E+03  0.12500000000E+03 0.  0.
         25    1    1    2    0    0  0.32861081820E+03  0.12345338068E+03  0.14426707966E+03  0.39957952564E+03  0.12500000000E+03 0.  0.
         25    1    1    2    0    0 -0.68615656865E+02 -0.47873343756E+02 -0.15087389827E+03  0.21304435827E+03  0.12500000000E+03 0.  0.
</event>
<event>
 5    0  0.5619558E-005  0.2252639E+03  0.7546771E-02  0.1130018E+00
         21   -1    0    0  502  501  0.00000000000E+00  0.00000000000E+00  0.12070478750E+03  0.12070478750E+03  0.00000000000E+00 0.  1.
         21   -1    0    0  501  502 -0.00000000000E+00 -0.00000000000E+00 -0.42039608367E+03  0.42039608367E+03  0.00000000000E+00 0.  1.
         25    1    1    2    0    0  0.52805562289E+02  0.68071909918E+02 -0.67642811652E+02  0.16620096960E+03  0.12500000000E+03 0.  0.
         25    1    1    2    0    0 -0.16325035454E+02 -0.64010079881E+02 -0.19232588122E+03  0.23870073669E+03  0.12500000000E+03 0.  0.
         25    1    1    2    0    0 -0.36480526835E+02 -0.40618300369E+01 -0.39722603288E+02  0.13619916488E+03  0.12500000000E+03 0.  0.
</event>
<event>
 5    0  0.5619558E-005  0.4225191E+03  0.7546771E-02  0.1036250E+00
         21   -1    0    0  502  501  0.00000000000E+00  0.00000000000E+00  0.46163986892E+03  0.46163986892E+03  0.00000000000E+00 0. -1.
         21   -1    0    0  501  502 -0.00000000000E+00 -0.00000000000E+00 -0.38671353232E+03  0.38671353232E+03  0.00000000000E+00 0. -1.
         25    1    1    2    0    0 -0.77609713158E+02 -0.16916730253E+03 -0.12655927733E+03  0.25745503394E+03  0.12500000000E+03 0.  0.
         25    1    1    2    0    0  0.13311293016E+03  0.28770505407E+03  0.30850012920E+02  0.34215489710E+03  0.12500000000E+03 0.  0.
         25    1    1    2    0    0 -0.55503217006E+02 -0.11853775153E+03  0.17063560101E+03  0.24874347020E+03  0.12500000000E+03 0.  0.
</event>
<event>
 5    0  0.5619558E-005  0.2170670E+03  0.7546771E-02  0.1136089E+00
         21   -1    0    0  502  501  0.00000000000E+00  0.00000000000E+00  0.12565141142E+03  0.12565141142E+03  0.00000000000E+00 0. -1.
         21   -1    0    0  501  502 -0.00000000000E+00 -0.00000000000E+00 -0.37499032334E+03  0.37499032334E+03  0.00000000000E+00 0. -1.
         25    1    1    2    0    0  0.33884413672E+02  0.39737172442E+02 -0.14340649600E+03  0.19727549128E+03  0.12500000000E+03 0.  0.
         25    1    1    2    0    0 -0.23859815291E+02 -0.62151412917E+02 -0.10444099144E+03  0.17596877452E+03  0.12500000000E+03 0.  0.
         25    1    1    2    0    0 -0.10024598381E+02  0.22414240475E+02 -0.14914244703E+01  0.12739746895E+03  0.12500000000E+03 0.  0.
</event>
<event>
 5    0  0.5619558E-005  0.6622061E+03  0.7546771E-02  0.9784141E-01
         21   -1    0    0  502  501  0.00000000000E+00  0.00000000000E+00  0.66979569368E+03  0.66979569368E+03  0.00000000000E+00 0. -1.
         21   -1    0    0  501  502 -0.00000000000E+00 -0.00000000000E+00 -0.65470245944E+03  0.65470245944E+03  0.00000000000E+00 0.  1.
         25    1    1    2    0    0 -0.24650133718E+03  0.14637530985E+03 -0.29286254715E+03  0.42846483180E+03  0.12500000000E+03 0.  0.
         25    1    1    2    0    0  0.49068434234E+03  0.38844081628E+02  0.22073611338E+03  0.55374129180E+03  0.12500000000E+03 0.  0.
         25    1    1    2    0    0 -0.24418300516E+03 -0.18521939148E+03  0.87219668005E+02  0.34229202952E+03  0.12500000000E+03 0.  0.
</event>
<event>
 5    0  0.5619558E-005  0.3077017E+03  0.7546771E-02  0.1081453E+00
         21   -1    0    0  502  501  0.00000000000E+00  0.00000000000E+00  0.40149895169E+03  0.40149895169E+03  0.00000000000E+00 0.  1.
         21   -1    0    0  501  502 -0.00000000000E+00 -0.00000000000E+00 -0.23581710798E+03  0.23581710798E+03  0.00000000000E+00 0.  1.
         25    1    1    2    0    0  0.22290366959E+02  0.27046547743E+02  0.19665328738E+03  0.23563932533E+03  0.12500000000E+03 0.  0.
         25    1    1    2    0    0 -0.76939858884E+02 -0.17066702642E+02  0.12548011050E+03  0.19385889806E+03  0.12500000000E+03 0.  0.
         25    1    1    2    0    0  0.54649491926E+02 -0.99798451015E+01 -0.15645155417E+03  0.20781783629E+03  0.12500000000E+03 0.  0.
</event>
<event>
 5    0  0.5619558E-005  0.3610623E+03  0.7546771E-02  0.1058164E+00
         21   -1    0    0  502  501  0.00000000000E+00  0.00000000000E+00  0.38940439093E+03  0.38940439093E+03  0.00000000000E+00 0.  1.
         21   -1    0    0  501  502 -0.00000000000E+00 -0.00000000000E+00 -0.33478303185E+03  0.33478303185E+03  0.00000000000E+00 0. -1.
         25    1    1    2    0    0 -0.25799061960E+02  0.23369985130E+03  0.11205248908E+02  0.26651786000E+03  0.12500000000E+03 0.  0.
         25    1    1    2    0    0 -0.10078411190E+03 -0.15330359865E+02  0.67767374008E+02  0.17495677788E+03  0.12500000000E+03 0.  0.
         25    1    1    2    0    0  0.12658317386E+03 -0.21836949144E+03 -0.24351263834E+02  0.28271278490E+03  0.12500000000E+03 0.  0.
</event>
<event>
 5    0  0.5619558E-005  0.3999298E+03  0.7546771E-02  0.1043804E+00
         21   -1    0    0  502  501  0.00000000000E+00  0.00000000000E+00  0.21885128744E+03  0.21885128744E+03  0.00000000000E+00 0. -1.
         21   -1    0    0  501  502 -0.00000000000E+00 -0.00000000000E+00 -0.73083337795E+03  0.73083337795E+03  0.00000000000E+00 0. -1.
         25    1    1    2    0    0 -0.10276750484E+03  0.21775534568E+03 -0.49939853299E+01  0.27134570296E+03  0.12500000000E+03 0.  0.
         25    1    1    2    0    0  0.33814675457E+02 -0.26044567480E+03 -0.26128854615E+03  0.39098860105E+03  0.12500000000E+03 0.  0.
         25    1    1    2    0    0  0.68952829378E+02  0.42690329115E+02 -0.24569955903E+03  0.28735036138E+03  0.12500000000E+03 0.  0.
</event>
<event>
 5    0  0.5619558E-005  0.3090318E+03  0.7546771E-02  0.1080811E+00
         21   -1    0    0  502  501  0.00000000000E+00  0.00000000000E+00  0.69670233433E+03  0.69670233433E+03  0.00000000000E+00 0. -1.
         21   -1    0    0  501  502 -0.00000000000E+00 -0.00000000000E+00 -0.13707523664E+03  0.13707523664E+03  0.00000000000E+00 0. -1.
         25    1    1    2    0    0  0.20889846445E+02 -0.11247736648E+02 -0.41661787613E+01  0.12729985982E+03  0.12500000000E+03 0.  0.
         25    1    1    2    0    0 -0.94402025520E+02  0.13958626141E+03  0.40471260497E+03  0.45586550585E+03  0.12500000000E+03 0.  0.
         25    1    1    2    0    0  0.73512179075E+02 -0.12833852477E+03  0.15908067147E+03  0.25061220531E+03  0.12500000000E+03 0.  0.
</event>
<event>
 5    0  0.5619558E-005  0.4201859E+03  0.7546771E-02  0.1037006E+00
         21   -1    0    0  502  501  0.00000000000E+00  0.00000000000E+00  0.47776373430E+03  0.47776373430E+03  0.00000000000E+00 0. -1.
         21   -1    0    0  501  502 -0.00000000000E+00 -0.00000000000E+00 -0.36954708940E+03  0.36954708940E+03  0.00000000000E+00 0. -1.
         25    1    1    2    0    0 -0.61794289722E+00 -0.11052356570E+03 -0.23382753765E+03  0.28725625805E+03  0.12500000000E+03 0.  0.
         25    1    1    2    0    0 -0.68505465572E+02  0.17484447154E+03  0.33419382601E+03  0.40320478839E+03  0.12500000000E+03 0.  0.
         25    1    1    2    0    0  0.69123408469E+02 -0.64320905838E+02  0.78503565352E+01  0.15684977725E+03  0.12500000000E+03 0.  0.
</event>
<event>
 5    0  0.5619558E-005  0.3107029E+03  0.7546771E-02  0.1080009E+00
         21   -1    0    0  502  501  0.00000000000E+00  0.00000000000E+00  0.17593388696E+04  0.17593388696E+04  0.00000000000E+00 0. -1.
         21   -1    0    0  501  502 -0.00000000000E+00 -0.00000000000E+00 -0.54870761254E+02  0.54870761254E+02  0.00000000000E+00 0. -1.
         25    1    1    2    0    0  0.76628657791E+02  0.63502512476E+02  0.29536982200E+03  0.33581669410E+03  0.12500000000E+03 0.  0.
         25    1    1    2    0    0 -0.63292782124E+02 -0.42368710198E+02  0.13882170819E+03  0.20173633916E+03  0.12500000000E+03 0.  0.
         25    1    1    2    0    0 -0.13335875667E+02 -0.21133802278E+02  0.12702765781E+04  0.12766565975E+04  0.12500000000E+03 0.  0.
</event>
<event>
 5    0  0.5619558E-005  0.3390149E+03  0.7546771E-02  0.1067216E+00
         21   -1    0    0  502  501  0.00000000000E+00  0.00000000000E+00  0.60196217809E+02  0.60196217809E+02  0.00000000000E+00 0.  1.
         21   -1    0    0  501  502 -0.00000000000E+00 -0.00000000000E+00 -0.19092745433E+04  0.19092745433E+04  0.00000000000E+00 0.  1.
         25    1    1    2    0    0 -0.19107948614E+03  0.43966769967E+02 -0.27261543883E+03  0.35831358385E+03  0.12500000000E+03 0.  0.
         25    1    1    2    0    0  0.90758585666E+02  0.60204690228E+01 -0.95424320176E+03  0.96668425819E+03  0.12500000000E+03 0.  0.
         25    1    1    2    0    0  0.10032090048E+03 -0.49987238990E+02 -0.62221968485E+03  0.64447291902E+03  0.12500000000E+03 0.  0.
</event>
<event>
 5    0  0.5619558E-005  0.2413956E+03  0.7546771E-02  0.1118867E+00
         21   -1    0    0  502  501  0.00000000000E+00  0.00000000000E+00  0.75682542731E+03  0.75682542731E+03  0.00000000000E+00 0. -1.
         21   -1    0    0  501  502 -0.00000000000E+00 -0.00000000000E+00 -0.76995094101E+02  0.76995094101E+02  0.00000000000E+00 0. -1.
         25    1    1    2    0    0 -0.48857271834E+02 -0.26813396424E+02  0.95173216472E+02  0.16670012709E+03  0.12500000000E+03 0.  0.
         25    1    1    2    0    0 -0.28025511335E+02 -0.49797530078E+02  0.37875834268E+03  0.40292444135E+03  0.12500000000E+03 0.  0.
         25    1    1    2    0    0  0.76882783169E+02  0.76610926502E+02  0.20589877406E+03  0.26419595297E+03  0.12500000000E+03 0.  0.
</event>
<event>
 5    0  0.6181053E-005  0.2916759E+03  0.7546771E-02  0.1089477E+00
         21   -1    0    0  502  501  0.00000000000E+00  0.00000000000E+00  0.90314100067E+03  0.90314100067E+03  0.00000000000E+00 0. -1.
         21   -1    0    0  501  502 -0.00000000000E+00 -0.00000000000E+00 -0.94198806782E+02  0.94198806782E+02  0.00000000000E+00 0. -1.
         25    1    1    2    0    0 -0.18293081372E+02 -0.30063162201E+02  0.48233037023E+03  0.49950577233E+03  0.12500000000E+03 0.  0.
         25    1    1    2    0    0 -0.65323210637E+02 -0.50391292690E+02  0.25718154458E+02  0.15196324455E+03  0.12500000000E+03 0.  0.
         25    1    1    2    0    0  0.83616292009E+02  0.80454454892E+02  0.30089366921E+03  0.34587079057E+03  0.12500000000E+03 0.  0.
</event>
<event>
 5    0  0.9064224E-005  0.3533914E+03  0.7546771E-02  0.1061232E+00
         21   -1    0    0  502  501  0.00000000000E+00  0.00000000000E+00  0.45429340615E+03  0.45429340615E+03  0.00000000000E+00 0.  1.
         21   -1    0    0  501  502 -0.00000000000E+00 -0.00000000000E+00 -0.27490050399E+03  0.27490050399E+03  0.00000000000E+00 0.  1.
         25    1    1    2    0    0  0.17031441692E+03 -0.35348305904E+02  0.97251963139E+02  0.23524337966E+03  0.12500000000E+03 0.  0.
         25    1    1    2    0    0 -0.10083757513E+03 -0.60648041764E+02  0.21592651904E+03  0.27585442384E+03  0.12500000000E+03 0.  0.
         25    1    1    2    0    0 -0.69476841788E+02  0.95996347668E+02 -0.13378558002E+03  0.21809610664E+03  0.12500000000E+03 0.  0.
</event>
<event>
 5    0  0.5619558E-005  0.3391269E+03  0.7546771E-02  0.1067168E+00
         21   -1    0    0  502  501  0.00000000000E+00  0.00000000000E+00  0.21546093116E+04  0.21546093116E+04  0.00000000000E+00 0. -1.
         21   -1    0    0  501  502 -0.00000000000E+00 -0.00000000000E+00 -0.53377233018E+02  0.53377233018E+02  0.00000000000E+00 0. -1.
         25    1    1    2    0    0  0.52868872564E+02  0.29275979827E+02  0.78516203241E+03  0.79734347544E+03  0.12500000000E+03 0.  0.
         25    1    1    2    0    0  0.62122255958E+02  0.76918467388E+02  0.12419394096E+03  0.20205138030E+03  0.12500000000E+03 0.  0.
         25    1    1    2    0    0 -0.11499112852E+03 -0.10619444721E+03  0.11918761052E+04  0.12085916889E+04  0.12500000000E+03 0.  0.
</event>
<event>
 5    0  0.5619558E-005  0.2358323E+03  0.7546771E-02  0.1122601E+00
         21   -1    0    0  502  501  0.00000000000E+00  0.00000000000E+00  0.25782803954E+03  0.25782803954E+03  0.00000000000E+00 0.  1.
         21   -1    0    0  501  502 -0.00000000000E+00 -0.00000000000E+00 -0.21571304923E+03  0.21571304923E+03  0.00000000000E+00 0.  1.
         25    1    1    2    0    0 -0.37065422237E+02 -0.72889027286E+02  0.86639971170E+02  0.17267929936E+03  0.12500000000E+03 0.  0.
         25    1    1    2    0    0  0.19564986926E+02 -0.69094336112E+01 -0.76686127434E+02  0.14810905147E+03  0.12500000000E+03 0.  0.
         25    1    1    2    0    0  0.17500435311E+02  0.79798460897E+02  0.32161146574E+02  0.15275273793E+03  0.12500000000E+03 0.  0.
</event>
<event>
 5    0  0.5619558E-005  0.4087178E+03  0.7546771E-02  0.1040802E+00
         21   -1    0    0  502  501  0.00000000000E+00  0.00000000000E+00  0.52585581903E+03  0.52585581903E+03  0.00000000000E+00 0. -1.
         21   -1    0    0  501  502 -0.00000000000E+00 -0.00000000000E+00 -0.31767303199E+03  0.31767303199E+03  0.00000000000E+00 0. -1.
         25    1    1    2    0    0  0.54744652357E+02 -0.67671998112E+02  0.99179037197E+02  0.18176346638E+03  0.12500000000E+03 0.  0.
         25    1    1    2    0    0 -0.22209443579E+02  0.13426485132E+03  0.34109533470E+03  0.38793212942E+03  0.12500000000E+03 0.  0.
         25    1    1    2    0    0 -0.32535208778E+02 -0.66592853204E+02 -0.23209158485E+03  0.27383325523E+03  0.12500000000E+03 0.  0.
</event>
<event>
 5    0  0.5619558E-005  0.3473786E+03  0.7546771E-02  0.1063696E+00
         21   -1    0    0  502  501  0.00000000000E+00  0.00000000000E+00  0.12945066115E+03  0.12945066115E+03  0.00000000000E+00 0.  1.
         21   -1    0    0  501  502 -0.00000000000E+00 -0.00000000000E+00 -0.93218426629E+03  0.93218426629E+03  0.00000000000E+00 0.  1.
         25    1    1    2    0    0 -0.59610195915E+02 -0.23296379004E+02 -0.42975337273E+03  0.45211619978E+03  0.12500000000E+03 0.  0.
         25    1    1    2    0    0  0.16131039515E+03  0.16379518161E+03 -0.15472676850E+03  0.30399881249E+03  0.12500000000E+03 0.  0.
         25    1    1    2    0    0 -0.10170019924E+03 -0.14049880260E+03 -0.21825346392E+03  0.30551991518E+03  0.12500000000E+03 0.  0.
</event>
<event>
 5    0  0.5619558E-005  0.2638581E+03  0.7546771E-02  0.1104847E+00
         21   -1    0    0  502  501  0.00000000000E+00  0.00000000000E+00  0.15045640363E+03  0.15045640363E+03  0.00000000000E+00 0. -1.
         21   -1    0    0  501  502 -0.00000000000E+00 -0.00000000000E+00 -0.46273257513E+03  0.46273257513E+03  0.00000000000E+00 0. -1.
         25    1    1    2    0    0  0.14979169071E+02  0.56417123389E+02 -0.23117327584E+03  0.26920874945E+03  0.12500000000E+03 0.  0.
         25    1    1    2    0    0 -0.22942599203E+02 -0.64412834904E+02  0.60473045690E+02  0.15478167015E+03  0.12500000000E+03 0.  0.
         25    1    1    2    0    0  0.79634301323E+01  0.79957115150E+01 -0.14157594135E+03  0.18919855917E+03  0.12500000000E+03 0.  0.
</event>
<event>
 5    0  0.5619558E-005  0.4740328E+03  0.7546771E-02  0.1020788E+00
         21   -1    0    0  502  501  0.00000000000E+00  0.00000000000E+00  0.87925882453E+03  0.87925882453E+03  0.00000000000E+00 0.  1.
         21   -1    0    0  501  502 -0.00000000000E+00 -0.00000000000E+00 -0.25556418602E+03  0.25556418602E+03  0.00000000000E+00 0.  1.
         25    1    1    2    0    0  0.10031438696E+03  0.10164182092E+03  0.12775883137E+02  0.19021634835E+03  0.12500000000E+03 0.  0.
         25    1    1    2    0    0 -0.60302926646E+02  0.25075261404E+03  0.86630983311E+02  0.29940481573E+03  0.12500000000E+03 0.  0.
         25    1    1    2    0    0 -0.40011460316E+02 -0.35239443496E+03  0.52428777206E+03  0.64520184647E+03  0.12500000000E+03 0.  0.
</event>
<event>
 5    0  0.5619558E-005  0.3057173E+03  0.7546771E-02  0.1082417E+00
         21   -1    0    0  502  501  0.00000000000E+00  0.00000000000E+00  0.25073188050E+03  0.25073188050E+03  0.00000000000E+00 0. -1.
         21   -1    0    0  501  502 -0.00000000000E+00 -0.00000000000E+00 -0.37276111806E+03  0.37276111806E+03  0.00000000000E+00 0. -1.
         25    1    1    2    0    0  0.19554625298E+03 -0.58831300103E+02 -0.27482943376E+02  0.24099745041E+03  0.12500000000E+03 0.  0.
         25    1    1    2    0    0 -0.13667931922E+03  0.11566367622E+03 -0.32706078677E+02  0.22080310207E+03  0.12500000000E+03 0.  0.
         25    1    1    2    0    0 -0.58866933764E+02 -0.56832376122E+02 -0.61840215512E+02  0.16169244608E+03  0.12500000000E+03 0.  0.
</event>
<event>
 5    0  0.5619558E-005  0.2201340E+03  0.7546771E-02  0.1133783E+00
         21   -1    0    0  502  501  0.00000000000E+00  0.00000000000E+00  0.18116311612E+03  0.18116311612E+03  0.00000000000E+00 0. -1.
         21   -1    0    0  501  502 -0.00000000000E+00 -0.00000000000E+00 -0.26748818310E+03  0.26748818310E+03  0.00000000000E+00 0. -1.
         25    1    1    2    0    0 -0.23043182650E+01  0.33067266462E+01 -0.84963002293E+02  0.15119509279E+03  0.12500000000E+03 0.  0.
         25    1    1    2    0    0 -0.69654069035E+02 -0.21590574083E+02 -0.33537395621E+02  0.14855167157E+03  0.12500000000E+03 0.  0.
         25    1    1    2    0    0  0.71958387300E+02  0.18283847437E+02  0.32175330940E+02  0.14890453486E+03  0.12500000000E+03 0.  0.
</event>
<event>
 5    0  0.5619558E-005  0.3516383E+03  0.7546771E-02  0.1061945E+00
         21   -1    0    0  502  501  0.00000000000E+00  0.00000000000E+00  0.48882993276E+03  0.48882993276E+03  0.00000000000E+00 0. -1.
         21   -1    0    0  501  502 -0.00000000000E+00 -0.00000000000E+00 -0.25294988422E+03  0.25294988422E+03  0.00000000000E+00 0. -1.
         25    1    1    2    0    0  0.15292289675E+03  0.33405653084E+02  0.23541649953E+03  0.30910722777E+03  0.12500000000E+03 0.  0.
         25    1    1    2    0    0 -0.22097764441E+03 -0.75999714592E+01 -0.81082728801E+02  0.26662386953E+03  0.12500000000E+03 0.  0.
         25    1    1    2    0    0  0.68054747656E+02 -0.25805681625E+02  0.81546277803E+02  0.16604871968E+03  0.12500000000E+03 0.  0.
</event>
<event>
 5    0  0.5619558E-005  0.2143194E+03  0.7546771E-02  0.1138190E+00
         21   -1    0    0  502  501  0.00000000000E+00  0.00000000000E+00  0.14085260860E+03  0.14085260860E+03  0.00000000000E+00 0. -1.
         21   -1    0    0  501  502 -0.00000000000E+00 -0.00000000000E+00 -0.32610551185E+03  0.32610551185E+03  0.00000000000E+00 0. -1.
         25    1    1    2    0    0 -0.35693203239E+02 -0.17288560815E+02 -0.49455200160E+02  0.14015604131E+03  0.12500000000E+03 0.  0.
         25    1    1    2    0    0 -0.29760156977E+02  0.29269783698E+02 -0.12994159678E+03  0.18507351446E+03  0.12500000000E+03 0.  0.
         25    1    1    2    0    0  0.65453360216E+02 -0.11981222883E+02 -0.58561063097E+01  0.14172856468E+03  0.12500000000E+03 0.  0.
</event>
<event>
 5    0  0.5619558E-005  0.3018389E+03  0.7546771E-02  0.1084325E+00
         21   -1    0    0  502  501  0.00000000000E+00  0.00000000000E+00  0.62282529958E+03  0.62282529958E+03  0.00000000000E+00 0. -1.
         21   -1    0    0  501  502 -0.00000000000E+00 -0.00000000000E+00 -0.14627974042E+03  0.14627974042E+03  0.00000000000E+00 0. -1.
         25    1    1    2    0    0 -0.46240105711E+01 -0.16318670019E+02  0.22190323478E+03  0.25525227927E+03  0.12500000000E+03 0.  0.
         25    1    1    2    0    0  0.11454836605E+03  0.87287162370E+02  0.27186640420E+03  0.33207938601E+03  0.12500000000E+03 0.  0.
         25    1    1    2    0    0 -0.10992435548E+03 -0.70968492351E+02 -0.17224079826E+02  0.18177337473E+03  0.12500000000E+03 0.  0.
</event>
<event>
 5    0  0.5619558E-005  0.4767528E+03  0.7546771E-02  0.1020031E+00
         21   -1    0    0  502  501  0.00000000000E+00  0.00000000000E+00  0.49160420838E+03  0.49160420838E+03  0.00000000000E+00 0.  1.
         21   -1    0    0  501  502 -0.00000000000E+00 -0.00000000000E+00 -0.46234997690E+03  0.46234997690E+03  0.00000000000E+00 0.  1.
         25    1    1    2    0    0 -0.25563970407E+03  0.17283918367E+03 -0.11201179356E+03  0.35127864098E+03  0.12500000000E+03 0.  0.
         25    1    1    2    0    0 -0.10288924025E+03  0.14192074735E+02  0.44343221403E+02  0.16846047616E+03  0.12500000000E+03 0.  0.
         25    1    1    2    0    0  0.35852894432E+03 -0.18703125840E+03  0.96922803644E+02  0.43421506814E+03  0.12500000000E+03 0.  0.
</event>
<event>
 5    0  0.5619558E-005  0.4905772E+03  0.7546771E-02  0.1016268E+00
         21   -1    0    0  502  501  0.00000000000E+00  0.00000000000E+00  0.17121440723E+03  0.17121440723E+03  0.00000000000E+00 0.  1.
         21   -1    0    0  501  502 -0.00000000000E+00 -0.00000000000E+00 -0.14056409596E+04  0.14056409596E+04  0.00000000000E+00 0.  1.
         25    1    1    2    0    0  0.24873697643E+03 -0.44828604497E+02 -0.26326583168E+03  0.38576363923E+03  0.12500000000E+03 0.  0.
         25    1    1    2    0    0 -0.37329506211E+03 -0.15033843419E+03 -0.66647803128E+03  0.78852318569E+03  0.12500000000E+03 0.  0.
         25    1    1    2    0    0  0.12455808568E+03  0.19516703869E+03 -0.30468268937E+03  0.40256854187E+03  0.12500000000E+03 0.  0.
</event>
<event>
 5    0  0.5619558E-005  0.3399638E+03  0.7546771E-02  0.1066811E+00
         21   -1    0    0  502  501  0.00000000000E+00  0.00000000000E+00  0.29703741774E+04  0.29703741774E+04  0.00000000000E+00 0. -1.
         21   -1    0    0  501  502 -0.00000000000E+00 -0.00000000000E+00 -0.38909370401E+02  0.38909370401E+02  0.00000000000E+00 0. -1.
         25    1    1    2    0    0  0.57025739885E+02  0.13782280741E+03  0.18042221615E+04  0.18146872097E+04  0.12500000000E+03 0.  0.
         25    1    1    2    0    0  0.44791339212E+02 -0.52293495759E+01  0.76549288775E+03  0.77694142081E+03  0.12500000000E+03 0.  0.
         25    1    1    2    0    0 -0.10181707910E+03 -0.13259345783E+03  0.36174975777E+03  0.41765491725E+03  0.12500000000E+03 0.  0.
</event>
<event>
 5    0  0.5619558E-005  0.4997897E+03  0.7546771E-02  0.1013834E+00
         21   -1    0    0  502  501  0.00000000000E+00  0.00000000000E+00  0.24359923307E+03  0.24359923307E+03  0.00000000000E+00 0.  1.
         21   -1    0    0  501  502 -0.00000000000E+00 -0.00000000000E+00 -0.10254127633E+04  0.10254127633E+04  0.00000000000E+00 0.  1.
         25    1    1    2    0    0 -0.40340944970E+01  0.31568453995E+03 -0.53800679351E+03  0.63619911392E+03  0.12500000000E+03 0.  0.
         25    1    1    2    0    0 -0.79554546872E+01 -0.19339182455E+03 -0.35646472544E+03  0.42444762639E+03  0.12500000000E+03 0.  0.
         25    1    1    2    0    0  0.11989549184E+02 -0.12229271539E+03  0.11265798869E+03  0.20836525609E+03  0.12500000000E+03 0.  0.
</event>
<event>
 5    0  0.5619558E-005  0.2403974E+03  0.7546771E-02  0.1119528E+00
         21   -1    0    0  502  501  0.00000000000E+00  0.00000000000E+00  0.18331038511E+03  0.18331038511E+03  0.00000000000E+00 0. -1.
         21   -1    0    0  501  502 -0.00000000000E+00 -0.00000000000E+00 -0.31526248099E+03  0.31526248099E+03  0.00000000000E+00 0. -1.
         25    1    1    2    0    0  0.23182381153E+02 -0.17257375490E+02 -0.18168552786E+02  0.12957752936E+03  0.12500000000E+03 0.  0.
         25    1    1    2    0    0 -0.46732483606E+02  0.89012582970E+02 -0.14881442251E+03  0.21881018555E+03  0.12500000000E+03 0.  0.
         25    1    1    2    0    0  0.23550102452E+02 -0.71755207481E+02  0.35030879418E+02  0.15018515119E+03  0.12500000000E+03 0.  0.
</event>
<event>
 5    0  0.5619558E-005  0.4884328E+03  0.7546771E-02  0.1016843E+00
         21   -1    0    0  502  501  0.00000000000E+00  0.00000000000E+00  0.99902136819E+03  0.99902136819E+03  0.00000000000E+00 0.  1.
         21   -1    0    0  501  502 -0.00000000000E+00 -0.00000000000E+00 -0.23880026378E+03  0.23880026378E+03  0.00000000000E+00 0.  1.
         25    1    1    2    0    0 -0.33353336427E+03 -0.15114320788E+02  0.23662360464E+03  0.42788862808E+03  0.12500000000E+03 0.  0.
         25    1    1    2    0    0  0.43580395578E+03  0.23636332645E+02  0.35505127779E+03  0.57634206332E+03  0.12500000000E+03 0.  0.
         25    1    1    2    0    0 -0.10227059151E+03 -0.85220118562E+01  0.16854622198E+03  0.23359094057E+03  0.12500000000E+03 0.  0.
</event>
<event>
 5    0  0.6026453E-005  0.3162822E+03  0.7546771E-02  0.1077373E+00
         21   -1    0    0  502  501  0.00000000000E+00  0.00000000000E+00  0.97171383527E+03  0.97171383527E+03  0.00000000000E+00 0. -1.
         21   -1    0    0  501  502 -0.00000000000E+00 -0.00000000000E+00 -0.10294639648E+03  0.10294639648E+03  0.00000000000E+00 0. -1.
         25    1    1    2    0    0  0.49135257813E+02  0.19726474543E+03  0.47450151353E+03  0.53113495431E+03  0.12500000000E+03 0.  0.
         25    1    1    2    0    0 -0.12717202907E+02 -0.10118211885E+03  0.33388420350E+03  0.37081425239E+03  0.12500000000E+03 0.  0.
         25    1    1    2    0    0 -0.36418054906E+02 -0.96082626580E+02  0.60381721761E+02  0.17271102506E+03  0.12500000000E+03 0.  0.
</event>
<event>
 5    0  0.6243020E-005  0.4997838E+03  0.7546771E-02  0.1013835E+00
         21   -1    0    0  502  501  0.00000000000E+00  0.00000000000E+00  0.10960802998E+04  0.10960802998E+04  0.00000000000E+00 0.  1.
         21   -1    0    0  501  502 -0.00000000000E+00 -0.00000000000E+00 -0.22788827211E+03  0.22788827211E+03  0.00000000000E+00 0.  1.
         25    1    1    2    0    0 -0.97053678871E+02 -0.24368378499E+03  0.46705254228E+03  0.55005843407E+03  0.12500000000E+03 0.  0.
         25    1    1    2    0    0  0.18395830551E+03  0.17578651749E+03  0.50383892788E+03  0.57811782808E+03  0.12500000000E+03 0.  0.
         25    1    1    2    0    0 -0.86904626635E+02  0.67897267496E+02 -0.10269944248E+03  0.19579230973E+03  0.12500000000E+03 0.  0.
</event>
<event>
 5    0  0.5619558E-005  0.2579665E+03  0.7546771E-02  0.1108371E+00
         21   -1    0    0  502  501  0.00000000000E+00  0.00000000000E+00  0.14634754423E+03  0.14634754423E+03  0.00000000000E+00 0. -1.
         21   -1    0    0  501  502 -0.00000000000E+00 -0.00000000000E+00 -0.45471684782E+03  0.45471684782E+03  0.00000000000E+00 0. -1.
         25    1    1    2    0    0 -0.45636810685E+02  0.51358219326E+02 -0.10643444541E+03  0.17797099862E+03  0.12500000000E+03 0.  0.
         25    1    1    2    0    0  0.96454125142E+02 -0.13919972549E+03 -0.10599938621E+03  0.23567102434E+03  0.12500000000E+03 0.  0.
         25    1    1    2    0    0 -0.50817314457E+02  0.87841506168E+02 -0.95935471971E+02  0.18742236909E+03  0.12500000000E+03 0.  0.
</event>
<event>
 5    0  0.5619558E-005  0.3879450E+03  0.7546771E-02  0.1048036E+00
         21   -1    0    0  502  501  0.00000000000E+00  0.00000000000E+00  0.21236837225E+03  0.21236837225E+03  0.00000000000E+00 0.  1.
         21   -1    0    0  501  502 -0.00000000000E+00 -0.00000000000E+00 -0.70868065043E+03  0.70868065043E+03  0.00000000000E+00 0.  1.
         25    1    1    2    0    0  0.19032687708E+03  0.10554380439E+02 -0.75657571179E+02  0.24017656664E+03  0.12500000000E+03 0.  0.
         25    1    1    2    0    0 -0.84522276033E+02  0.19505145641E+03 -0.30885487557E+03  0.39522831371E+03  0.12500000000E+03 0.  0.
         25    1    1    2    0    0 -0.10580460104E+03 -0.20560583684E+03 -0.11179983143E+03  0.28564414234E+03  0.12500000000E+03 0.  0.
</event>
<event>
 5    0  0.5619558E-005  0.3452151E+03  0.7546771E-02  0.1064596E+00
         21   -1    0    0  502  501  0.00000000000E+00  0.00000000000E+00  0.34002638784E+03  0.34002638784E+03  0.00000000000E+00 0.  1.
         21   -1    0    0  501  502 -0.00000000000E+00 -0.00000000000E+00 -0.35048295810E+03  0.35048295810E+03  0.00000000000E+00 0.  1.
         25    1    1    2    0    0  0.13779680061E+02  0.99970342489E+02 -0.23610449945E+03  0.28557710626E+03  0.12500000000E+03 0.  0.
         25    1    1    2    0    0 -0.11078844603E+02 -0.15511675081E+03  0.13012128569E+03  0.23820263678E+03  0.12500000000E+03 0.  0.
         25    1    1    2    0    0 -0.27008354582E+01  0.55146408318E+02  0.95526643510E+02  0.16672960290E+03  0.12500000000E+03 0.  0.
</event>
<event>
 5    0  0.5619558E-005  0.2787668E+03  0.7546771E-02  0.1096364E+00
         21   -1    0    0  502  501  0.00000000000E+00  0.00000000000E+00  0.24933124232E+04  0.24933124232E+04  0.00000000000E+00 0. -1.
         21   -1    0    0  501  502 -0.00000000000E+00 -0.00000000000E+00 -0.31167750388E+02  0.31167750388E+02  0.00000000000E+00 0. -1.
         25    1    1    2    0    0  0.72516416750E+01 -0.47423994302E+02  0.44501087251E+03  0.46471636316E+03  0.12500000000E+03 0.  0.
         25    1    1    2    0    0 -0.10414895465E+03  0.15414110717E+03  0.98907052782E+03  0.10141459435E+04  0.12500000000E+03 0.  0.
         25    1    1    2    0    0  0.96897312975E+02 -0.10671711286E+03  0.10280632725E+04  0.10456178669E+04  0.12500000000E+03 0.  0.
</event>
<event>
 5    0  0.5619558E-005  0.2333453E+03  0.7546771E-02  0.1124307E+00
         21   -1    0    0  502  501  0.00000000000E+00  0.00000000000E+00  0.47667951925E+03  0.47667951925E+03  0.00000000000E+00 0. -1.
         21   -1    0    0  501  502 -0.00000000000E+00 -0.00000000000E+00 -0.11422773341E+03  0.11422773341E+03  0.00000000000E+00 0. -1.
         25    1    1    2    0    0 -0.66776690354E+02  0.24846083103E+02  0.61488206304E+02  0.15646805979E+03  0.12500000000E+03 0.  0.
         25    1    1    2    0    0  0.27981670414E+02 -0.90520010847E+02  0.10086399750E+03  0.18648161366E+03  0.12500000000E+03 0.  0.
         25    1    1    2    0    0  0.38795019940E+02  0.65673927744E+02  0.20009958204E+03  0.24795757921E+03  0.12500000000E+03 0.  0.
</event>
<event>
 5    0  0.6273124E-005  0.2972635E+03  0.7546771E-02  0.1086617E+00
         21   -1    0    0  502  501  0.00000000000E+00  0.00000000000E+00  0.13329365413E+03  0.13329365413E+03  0.00000000000E+00 0. -1.
         21   -1    0    0  501  502 -0.00000000000E+00 -0.00000000000E+00 -0.66293918948E+03  0.66293918948E+03  0.00000000000E+00 0. -1.
         25    1    1    2    0    0  0.10167608468E+02  0.23492494386E+02  0.26671981150E+02  0.13035210828E+03  0.12500000000E+03 0.  0.
         25    1    1    2    0    0 -0.82845983585E+02  0.88387416438E+02 -0.34519707649E+03  0.38660291515E+03  0.12500000000E+03 0.  0.
         25    1    1    2    0    0  0.72678375117E+02 -0.11187991082E+03 -0.21112044001E+03  0.27927782018E+03  0.12500000000E+03 0.  0.
</event>
