<event>
 6    0  0.3695460E+002  0.1300912E+03  0.7546771E-02  0.1227320E+00
          2   -1    0    0  504    0 -0.00000000000E+00  0.00000000000E+00  0.20953215032E+04  0.20953215032E+04  0.00000000000E+00 0. -1.
         21   -1    0    0  501  502  0.00000000000E+00 -0.00000000000E+00 -0.41309383795E+03  0.41309383795E+03  0.00000000000E+00 0.  1.
         21    1    1    2  503  502 -0.31423095534E+02  0.36301805696E+02 -0.24279076513E+03  0.24749260123E+03  0.00000000000E+00 0.  1.
         21    1    1    2  504  505 -0.86991838788E+00  0.33326392637E+02  0.28253080676E+03  0.28449088205E+03  0.00000000000E+00 0. -1.
         21    1    1    2  505  503 -0.71645603311E+02  0.44427871840E+02 -0.15280623931E+03  0.17451840889E+03  0.00000000000E+00 0.  1.
          2    1    1    2  501    0  0.10393861723E+03 -0.11405607017E+03  0.17952938630E+04  0.18019134490E+04  0.00000000000E+00 0. -1.
<scales pt_clust_3="48.04627" pt_clust_4="33.33774" pt_clust_5="130.09119" pt_clust_6="14000.00000"></scales>
<clustering>
<clus scale="   33.338">  1  4  2 -1</clus>
<clus scale="   48.046">  2  3  1 -1</clus>
<clus scale="  130.091">  2  5  1 -1</clus>
<clus scale="   48.046">  2  3  1 -1</clus>
</clustering>
</event>
<event>
 6    0  0.3695460E+002  0.7656081E+02  0.7546771E-02  0.1339105E+00
          2   -1    0    0  505    0 -0.00000000000E+00  0.00000000000E+00  0.22126094111E+04  0.22126094111E+04  0.00000000000E+00 0.  1.
         21   -1    0    0  504  502  0.00000000000E+00 -0.00000000000E+00 -0.70231121588E+03  0.70231121588E+03  0.00000000000E+00 0.  1.
         21    1    1    2  503  502  0.44733661025E+01  0.31913059671E+02 -0.99151543059E+02  0.10425681212E+03  0.00000000000E+00 0.  1.
         21    1    1    2  504  501  0.51745923534E+02 -0.61315882599E+02 -0.59418620163E+03  0.59957861892E+03  0.00000000000E+00 0.  1.
         21    1    1    2  505  503 -0.41958657016E+02 -0.55473134702E+02  0.45048089000E+03  0.45581885637E+03  0.00000000000E+00 0. -1.
          2    1    1    2  501    0 -0.14260632621E+02  0.84875957631E+02  0.17531550499E+04  0.17552663395E+04  0.00000000000E+00 0.  1.
<scales pt_clust_3="32.22506" pt_clust_4="63.51136" pt_clust_5="14000.00000" pt_clust_6="76.56081"></scales>
<clustering>
<clus scale="   32.225">  2  3  1 -1</clus>
<clus scale="   63.511">  2  4  1 -1</clus>
<clus scale="   76.561">  1  6  2 -1</clus>
<clus scale="   32.225">  2  3  1 -1</clus>
</clustering>
</event>
<event>
 6    0  0.3695460E+002  0.1102090E+03  0.7546771E-02  0.1260183E+00
          1   -1    0    0  505    0 -0.00000000000E+00  0.00000000000E+00  0.64300500937E+02  0.64300500937E+02  0.00000000000E+00 0. -1.
         21   -1    0    0  501  502  0.00000000000E+00 -0.00000000000E+00 -0.51417761602E+03  0.51417761602E+03  0.00000000000E+00 0. -1.
         21    1    1    2  503  502 -0.52055593726E+02 -0.22953009016E+02 -0.27837809677E+03  0.28413199437E+03  0.00000000000E+00 0. -1.
         21    1    1    2  504  503 -0.14883547352E+02 -0.39083650736E+02 -0.97599532519E+02  0.10618248671E+03  0.00000000000E+00 0. -1.
         21    1    1    2  505  504 -0.27547046606E+02 -0.22848085964E+02  0.84693252276E+01  0.36777768811E+02  0.00000000000E+00 0.  1.
          1    1    1    2  501    0  0.94486187683E+02  0.84884745715E+02 -0.82368811017E+02  0.15138586706E+03  0.00000000000E+00 0. -1.
<scales pt_clust_3="44.94529" pt_clust_4="44.94529" pt_clust_5="35.78931" pt_clust_6="97.41256"></scales>
<clustering>
<clus scale="   35.789">  1  5  2 -1</clus>
<clus scale="   44.945">  3  4 -1 -1</clus>
<clus scale="   97.413">  1  6  2 -1</clus>
<clus scale="  110.209">  2  3  1 -1</clus>
</clustering>
</event>
<event>
 6    0  0.3695460E+002  0.1898318E+03  0.7546771E-02  0.1158613E+00
          1   -1    0    0  505    0 -0.00000000000E+00  0.00000000000E+00  0.18635093860E+03  0.18635093860E+03  0.00000000000E+00 0. -1.
         21   -1    0    0  504  502  0.00000000000E+00 -0.00000000000E+00 -0.20810648587E+03  0.20810648587E+03  0.00000000000E+00 0.  1.
         21    1    1    2  503  502 -0.54431958951E+02 -0.51894147245E+02 -0.24886616617E+02  0.79216061252E+02  0.00000000000E+00 0.  1.
         21    1    1    2  504  501  0.61215280786E+02  0.13016471868E+02 -0.39367637620E+01  0.62707553377E+02  0.00000000000E+00 0. -1.
         21    1    1    2  505  503 -0.10253771309E+03 -0.36970625313E+02 -0.47308167770E+02  0.11882286177E+03  0.00000000000E+00 0.  1.
          1    1    1    2  501    0  0.95754391257E+02  0.75848300690E+02  0.54376000877E+02  0.13371094807E+03  0.00000000000E+00 0. -1.
<scales pt_clust_3="31.85699" pt_clust_4="42.34380" pt_clust_5="184.41076" pt_clust_6="42.34380"></scales>
<clustering>
<clus scale="   31.857">  3  5 -1 -1</clus>
<clus scale="   42.344">  4  6 -1 -1</clus>
<clus scale="  184.411">  2  3  1 -1</clus>
<clus scale="  184.411">  2  3  1 -1</clus>
</clustering>
</event>
<event>
 6    0  0.3695460E+002  0.1009593E+03  0.7546771E-02  0.1278292E+00
         21   -1    0    0  503  502  0.00000000000E+00  0.00000000000E+00  0.73666410732E+02  0.73666410732E+02  0.00000000000E+00 0. -1.
          2   -1    0    0  504    0 -0.00000000000E+00 -0.00000000000E+00 -0.16349390065E+04  0.16349390065E+04  0.00000000000E+00 0.  1.
         21    1    1    2  503  501  0.16922594991E+02  0.10441907028E+03 -0.75607351794E+02  0.13002379823E+03  0.00000000000E+00 0. -1.
         21    1    1    2  504  505 -0.84036542829E+01 -0.51635099695E+02 -0.14977501627E+03  0.15864854372E+03  0.00000000000E+00 0.  1.
         21    1    1    2  505  502  0.27658197714E+02  0.41271137533E+02  0.24792145064E+02  0.55524167270E+02  0.00000000000E+00 0. -1.
          2    1    1    2  501    0 -0.36177138422E+02 -0.94055108123E+02 -0.13606823727E+04  0.13644089080E+04  0.00000000000E+00 0.  1.
<scales pt_clust_3="100.95927" pt_clust_4="46.41329" pt_clust_5="49.68181" pt_clust_6="14000.00000"></scales>
<clustering>
<clus scale="   49.682">  1  5  2 -1</clus>
<clus scale="   46.413">  1  4  2 -1</clus>
<clus scale="  100.959">  1  3  2 -1</clus>
<clus scale="   49.682">  1  3  2 -1</clus>
</clustering>
</event>
<event>
 6    0  0.3695460E+002  0.9351902E+02  0.7546771E-02  0.1294547E+00
         21   -1    0    0  504  502  0.00000000000E+00  0.00000000000E+00  0.79135679253E+03  0.79135679253E+03  0.00000000000E+00 0. -1.
          2   -1    0    0  505    0 -0.00000000000E+00 -0.00000000000E+00 -0.11644015152E+03  0.11644015152E+03  0.00000000000E+00 0.  1.
         21    1    1    2  503  502 -0.38465449934E+01  0.61084021031E+02  0.57548177778E+03  0.57872733656E+03  0.00000000000E+00 0. -1.
         21    1    1    2  504  501 -0.25612697030E+02  0.28515770478E+02  0.89746490108E+02  0.97588892307E+02  0.00000000000E+00 0. -1.
         21    1    1    2  505  503  0.94938237029E+01  0.67750311965E+02  0.23336295794E+02  0.72282917493E+02  0.00000000000E+00 0. -1.
          2    1    1    2  501    0  0.19965418321E+02 -0.15735010347E+03 -0.13647922669E+02  0.15919779768E+03  0.00000000000E+00 0.  1.
<scales pt_clust_3="14000.00000" pt_clust_4="38.32962" pt_clust_5="70.13264" pt_clust_6="93.51902"></scales>
<clustering>
<clus scale="   38.330">  1  4  2 -1</clus>
<clus scale="   70.133">  2  5  1 -1</clus>
<clus scale="   93.519">  2  6  1 -1</clus>
<clus scale="   38.330">  1  3  2 -1</clus>
</clustering>
</event>
<event>
 6    0  0.3695460E+002  0.2002517E+03  0.7546771E-02  0.1149527E+00
         21   -1    0    0  505  502  0.00000000000E+00  0.00000000000E+00  0.90657217816E+02  0.90657217816E+02  0.00000000000E+00 0. -1.
          2   -1    0    0  503    0 -0.00000000000E+00 -0.00000000000E+00 -0.29820596739E+04  0.29820596739E+04  0.00000000000E+00 0. -1.
         21    1    1    2  503  504  0.71853878597E+02 -0.35857198644E+02 -0.19860471024E+03  0.21422546416E+03  0.00000000000E+00 0. -1.
         21    1    1    2  504  502  0.28331399500E+02  0.34640304411E+02 -0.76384230875E+02  0.88527790064E+02  0.00000000000E+00 0.  1.
         21    1    1    2  505  501  0.38174232130E+02 -0.14839693469E+03 -0.78256016673E+01  0.15342803611E+03  0.00000000000E+00 0. -1.
          2    1    1    2  501    0 -0.13835951023E+03  0.14961382892E+03 -0.26085879133E+04  0.26165356014E+04  0.00000000000E+00 0. -1.
<scales pt_clust_3="81.31638" pt_clust_4="44.75063" pt_clust_5="14000.00000" pt_clust_6="200.25174"></scales>
<clustering>
<clus scale="   44.751">  1  4  2 -1</clus>
<clus scale="   81.316">  1  3  2 -1</clus>
<clus scale="  200.252">  2  6  1 -1</clus>
<clus scale="   44.751">  1  3  2 -1</clus>
</clustering>
</event>
<event>
 6    0  0.3695460E+002  0.2057162E+03  0.7546771E-02  0.1145004E+00
          2   -1    0    0  503    0 -0.00000000000E+00  0.00000000000E+00  0.37565936110E+04  0.37565936110E+04  0.00000000000E+00 0.  1.
         21   -1    0    0  505  502  0.00000000000E+00 -0.00000000000E+00 -0.39517041757E+02  0.39517041757E+02  0.00000000000E+00 0. -1.
         21    1    1    2  503  504  0.79201085786E+02 -0.12615953719E+03  0.23535862960E+03  0.27853675761E+03  0.00000000000E+00 0. -1.
         21    1    1    2  504  502  0.10570620496E+02 -0.42457400159E+02  0.16745194275E+02  0.46848376463E+02  0.00000000000E+00 0. -1.
         21    1    1    2  505  501  0.16245767300E+01  0.49893148400E+02  0.86883780481E+03  0.87027070304E+03  0.00000000000E+00 0.  1.
          2    1    1    2  501    0 -0.91396283012E+02  0.11872378894E+03  0.25961349406E+04  0.26004548157E+04  0.00000000000E+00 0.  1.
<scales pt_clust_3="41.37622" pt_clust_4="41.37622" pt_clust_5="33.70104" pt_clust_6="199.74859"></scales>
<clustering>
<clus scale="   33.701">  5  6 -1 -1</clus>
<clus scale="   41.376">  3  4 -1 -1</clus>
<clus scale="  199.749">  1  5  2 -1</clus>
<clus scale="  205.716">  2  3  1 -1</clus>
</clustering>
</event>
<event>
 6    0  0.3695460E+002  0.1136145E+03  0.7546771E-02  0.1254019E+00
          1   -1    0    0  503    0 -0.00000000000E+00  0.00000000000E+00  0.25375639161E+04  0.25375639161E+04  0.00000000000E+00 0. -1.
         21   -1    0    0  501  502  0.00000000000E+00 -0.00000000000E+00 -0.42287042808E+03  0.42287042808E+03  0.00000000000E+00 0. -1.
         21    1    1    2  503  505 -0.49547392908E+02 -0.44311793947E+02  0.75607387492E+03  0.75899023943E+03  0.00000000000E+00 0. -1.
         21    1    1    2  504  502  0.53608204361E+02  0.13815566834E+02 -0.30960801818E+03  0.31451841660E+03  0.00000000000E+00 0. -1.
         21    1    1    2  505  504  0.62211794188E+02 -0.12937537953E+02 -0.99154618709E+02  0.11776810110E+03  0.00000000000E+00 0.  1.
          1    1    1    2  501    0 -0.66272605641E+02  0.43433765066E+02  0.17673822500E+04  0.17691575870E+04  0.00000000000E+00 0. -1.
<scales pt_clust_3="65.82545" pt_clust_4="55.35982" pt_clust_5="113.61453" pt_clust_6="14000.00000"></scales>
<clustering>
<clus scale="   55.360">  2  4  1 -1</clus>
<clus scale="   65.825">  1  3  2 -1</clus>
<clus scale="  113.615">  2  5  1 -1</clus>
<clus scale="   55.360">  2  3  1 -1</clus>
</clustering>
</event>
<event>
 6    0  0.3695460E+002  0.7111089E+02  0.7546771E-02  0.1356356E+00
          2   -1    0    0  503    0 -0.00000000000E+00  0.00000000000E+00  0.53727066489E+03  0.53727066489E+03  0.00000000000E+00 0. -1.
         21   -1    0    0  505  502  0.00000000000E+00 -0.00000000000E+00 -0.41369664035E+03  0.41369664035E+03  0.00000000000E+00 0.  1.
         21    1    1    2  503  504 -0.16279331750E+02  0.27826252377E+02  0.18205807821E+03  0.18489040214E+03  0.00000000000E+00 0. -1.
         21    1    1    2  504  502 -0.97041367069E+01  0.48797350578E+02 -0.31307168860E+02  0.58783420406E+02  0.00000000000E+00 0.  1.
         21    1    1    2  505  501 -0.59734530653E+02 -0.61197947870E+02 -0.35651773325E+03  0.36663100946E+03  0.00000000000E+00 0.  1.
          2    1    1    2  501    0  0.85717999110E+02 -0.15425655085E+02  0.32934084845E+03  0.34066247322E+03  0.00000000000E+00 0. -1.
<scales pt_clust_3="32.23844" pt_clust_4="50.93760" pt_clust_5="14000.00000" pt_clust_6="71.11089"></scales>
<clustering>
<clus scale="   32.238">  1  3  2 -1</clus>
<clus scale="   50.938">  2  4  1 -1</clus>
<clus scale="   71.111">  1  6  2 -1</clus>
<clus scale="   50.938">  2  3  1 -1</clus>
</clustering>
</event>
<event>
 6    0  0.3695460E+002  0.9785179E+02  0.7546771E-02  0.1284879E+00
          2   -1    0    0  504    0 -0.00000000000E+00  0.00000000000E+00  0.29060781327E+04  0.29060781327E+04  0.00000000000E+00 0.  1.
         21   -1    0    0  505  502  0.00000000000E+00 -0.00000000000E+00 -0.26304105482E+03  0.26304105482E+03  0.00000000000E+00 0.  1.
         21    1    1    2  503  501  0.57812226754E+02  0.43564627869E+01 -0.74647097023E+02  0.94516778533E+02  0.00000000000E+00 0. -1.
         21    1    1    2  504  502 -0.45160360162E+02 -0.49492829122E+02  0.16473285550E+03  0.17783675645E+03  0.00000000000E+00 0.  1.
         21    1    1    2  505  503  0.25894515037E+02 -0.45713382159E+02 -0.16697711470E+03  0.17504741087E+03  0.00000000000E+00 0.  1.
          2    1    1    2  501    0 -0.38546381629E+02  0.90849748494E+02  0.27199284341E+04  0.27217182417E+04  0.00000000000E+00 0.  1.
<scales pt_clust_3="14000.00000" pt_clust_4="68.25417" pt_clust_5="52.53798" pt_clust_6="97.85179"></scales>
<clustering>
<clus scale="   52.538">  2  5  1 -1</clus>
<clus scale="   68.254">  2  4  1 -1</clus>
<clus scale="   97.852">  1  6  2 -1</clus>
<clus scale="   52.538">  2  3  1 -1</clus>
</clustering>
</event>
<event>
 6    0  0.3695460E+002  0.1172116E+03  0.7546771E-02  0.1247769E+00
          2   -1    0    0  503    0 -0.00000000000E+00  0.00000000000E+00  0.12565964851E+04  0.12565964851E+04  0.00000000000E+00 0.  1.
         21   -1    0    0  504  502  0.00000000000E+00 -0.00000000000E+00 -0.24073093933E+03  0.24073093933E+03  0.00000000000E+00 0.  1.
         21    1    1    2  503  505  0.60335119045E+02 -0.28083117603E+01  0.35047066303E+03  0.35563731363E+03  0.00000000000E+00 0.  1.
         21    1    1    2  504  501 -0.15544726066E+03  0.21575490259E+02 -0.76964155009E+02  0.17479368920E+03  0.00000000000E+00 0.  1.
         21    1    1    2  505  502  0.40060076898E+02 -0.52458748351E+02 -0.10122664640E+03  0.12084520670E+03  0.00000000000E+00 0.  1.
          2    1    1    2  501    0  0.55052064720E+02  0.33691569852E+02  0.84358568411E+03  0.84605121485E+03  0.00000000000E+00 0.  1.
<scales pt_clust_3="60.40044" pt_clust_4="117.21164" pt_clust_5="66.42921" pt_clust_6="14000.00000"></scales>
<clustering>
<clus scale="   60.400">  1  3  2 -1</clus>
<clus scale="   66.429">  2  5  1 -1</clus>
<clus scale="  117.212">  2  4  1 -1</clus>
<clus scale="   66.429">  2  3  1 -1</clus>
</clustering>
</event>
<event>
 6    0  0.4558888E+002  0.1366747E+03  0.7546771E-02  0.1217875E+00
         21   -1    0    0  504  502  0.00000000000E+00  0.00000000000E+00  0.75891673835E+03  0.75891673835E+03  0.00000000000E+00 0.  1.
          2   -1    0    0  503    0 -0.00000000000E+00 -0.00000000000E+00 -0.47158855526E+03  0.47158855526E+03  0.00000000000E+00 0.  1.
         21    1    1    2  503  502  0.24411321047E+02 -0.47037623900E+02  0.60082379112E+03  0.60315642965E+03  0.00000000000E+00 0.  1.
         21    1    1    2  504  505  0.16525247274E+02 -0.36823289666E+02  0.10655261582E+03  0.11394076706E+03  0.00000000000E+00 0.  1.
         21    1    1    2  505  501  0.16431918415E+02 -0.41803951907E+02  0.22187894152E+02  0.50098712406E+02  0.00000000000E+00 0.  1.
          2    1    1    2  501    0 -0.57368486736E+02  0.12566486547E+03 -0.44223611801E+03  0.46330938449E+03  0.00000000000E+00 0.  1.
<scales pt_clust_3="136.67469" pt_clust_4="40.36135" pt_clust_5="47.16396" pt_clust_6="14000.00000"></scales>
<clustering>
<clus scale="   40.361">  1  4  2 -1</clus>
<clus scale="   47.164">  1  5  2 -1</clus>
<clus scale="  136.675">  1  3  2 -1</clus>
<clus scale="   40.361">  1  3  2 -1</clus>
</clustering>
</event>
<event>
 6    0  0.3695460E+002  0.1572552E+03  0.7546771E-02  0.1191831E+00
          1   -1    0    0  503    0 -0.00000000000E+00  0.00000000000E+00  0.16631843827E+04  0.16631843827E+04  0.00000000000E+00 0.  1.
         21   -1    0    0  504  502  0.00000000000E+00 -0.00000000000E+00 -0.34300633238E+02  0.34300633238E+02  0.00000000000E+00 0. -1.
         21    1    1    2  503  505 -0.11339150689E+03  0.20056165945E+02  0.22514168137E+03  0.25288072350E+03  0.00000000000E+00 0. -1.
         21    1    1    2  504  501  0.97703954596E+02  0.57551247817E+02  0.99427668212E+03  0.10007219042E+04  0.00000000000E+00 0.  1.
         21    1    1    2  505  502 -0.39242505556E+02 -0.70068966135E+02  0.94238257140E+02  0.12381632916E+03  0.00000000000E+00 0. -1.
          1    1    1    2  501    0  0.54930057845E+02 -0.75384476269E+01  0.31522712882E+03  0.32006605911E+03  0.00000000000E+00 0.  1.
<scales pt_clust_3="144.38490" pt_clust_4="43.56866" pt_clust_5="80.30961" pt_clust_6="43.56866"></scales>
<clustering>
<clus scale="   43.569">  4  6 -1 -1</clus>
<clus scale="   80.310">  2  5  1 -1</clus>
<clus scale="  144.385">  2  3  1 -1</clus>
<clus scale="   80.310">  2  3  1 -1</clus>
</clustering>
</event>
<event>
 6    0  0.3695460E+002  0.1406157E+03  0.7546771E-02  0.1212503E+00
          1   -1    0    0  505    0 -0.00000000000E+00  0.00000000000E+00  0.47916893752E+03  0.47916893752E+03  0.00000000000E+00 0. -1.
         21   -1    0    0  503  502  0.00000000000E+00 -0.00000000000E+00 -0.12844400504E+03  0.12844400504E+03  0.00000000000E+00 0.  1.
         21    1    1    2  503  501 -0.41511765613E+02 -0.93000418165E+02  0.64508454451E+02  0.12055556876E+03  0.00000000000E+00 0. -1.
         21    1    1    2  504  502  0.49648369559E+02  0.16814779850E+03 -0.12599216121E+02  0.17577651432E+03  0.00000000000E+00 0.  1.
         21    1    1    2  505  504  0.17947121115E+02 -0.34777537517E+02  0.13205733689E+03  0.13773422414E+03  0.00000000000E+00 0.  1.
          1    1    1    2  501    0 -0.26083725061E+02 -0.40369842821E+02  0.16675835725E+03  0.17354663534E+03  0.00000000000E+00 0. -1.
<scales pt_clust_3="140.61574" pt_clust_4="14000.00000" pt_clust_5="39.13536" pt_clust_6="60.07705"></scales>
<clustering>
<clus scale="   39.135">  1  5  2 -1</clus>
<clus scale="   60.077">  1  6  2 -1</clus>
<clus scale="  140.616">  1  3  2 -1</clus>
<clus scale="  140.616">  2  3  1 -1</clus>
</clustering>
</event>
<event>
 6    0  0.3695460E+002  0.1598653E+03  0.7546771E-02  0.1188849E+00
         -2   -1    0    0    0  501 -0.00000000000E+00  0.00000000000E+00  0.62021299537E+03  0.62021299537E+03  0.00000000000E+00 0.  1.
         21   -1    0    0  505  502  0.00000000000E+00 -0.00000000000E+00 -0.86960506008E+03  0.86960506008E+03  0.00000000000E+00 0.  1.
         21    1    1    2  503  502 -0.39441157577E+02  0.18348960821E+02  0.96449235518E+02  0.10580521871E+03  0.00000000000E+00 0.  1.
         21    1    1    2  504  501  0.12515602495E+03 -0.68118720715E+01 -0.53023182081E+03  0.54484513028E+03  0.00000000000E+00 0.  1.
         21    1    1    2  505  504  0.22995240715E+02 -0.20550512811E+02 -0.32082812477E+03  0.32230698149E+03  0.00000000000E+00 0.  1.
         -2    1    1    2    0  503 -0.10871010809E+03  0.90134240614E+01  0.50521864536E+03  0.51686072498E+03  0.00000000000E+00 0.  1.
<scales pt_clust_3="34.59340" pt_clust_4="150.15249" pt_clust_5="30.83998" pt_clust_6="34.59340"></scales>
<clustering>
<clus scale="   30.840">  2  5  1 -1</clus>
<clus scale="   34.593">  3  6 -1 -1</clus>
<clus scale="  150.152">  2  4  1 -1</clus>
<clus scale="   30.840">  2  3  1 -1</clus>
</clustering>
</event>
<event>
 6    0  0.3695460E+002  0.1517420E+03  0.7546771E-02  0.1198349E+00
         21   -1    0    0  504  502  0.00000000000E+00  0.00000000000E+00  0.71748680510E+02  0.71748680510E+02  0.00000000000E+00 0.  1.
          2   -1    0    0  505    0 -0.00000000000E+00 -0.00000000000E+00 -0.98093247812E+03  0.98093247812E+03  0.00000000000E+00 0.  1.
         21    1    1    2  503  501  0.75646761768E+02 -0.34884762155E+02 -0.32593175124E+02  0.89452189807E+02  0.00000000000E+00 0.  1.
         21    1    1    2  504  503  0.30148953695E+02 -0.56751906521E+02 -0.89940951990E+01  0.64889383193E+02  0.00000000000E+00 0.  1.
         21    1    1    2  505  502  0.53966875652E+02  0.24165526399E+02 -0.19718611863E+03  0.20586102524E+03  0.00000000000E+00 0.  1.
          2    1    1    2  501    0 -0.15976259112E+03  0.67471142278E+02 -0.67041040866E+03  0.69247856039E+03  0.00000000000E+00 0.  1.
<scales pt_clust_3="43.93164" pt_clust_4="43.93164" pt_clust_5="59.13033" pt_clust_6="143.26141"></scales>
<clustering>
<clus scale="   43.932">  3  4 -1 -1</clus>
<clus scale="   59.130">  2  5  1 -1</clus>
<clus scale="  143.261">  2  6  1 -1</clus>
<clus scale="  151.742">  1  3  2 -1</clus>
</clustering>
</event>
<event>
 6    0  0.3695460E+002  0.8889648E+02  0.7546771E-02  0.1305546E+00
         -2   -1    0    0    0  501 -0.00000000000E+00  0.00000000000E+00  0.25078146271E+03  0.25078146271E+03  0.00000000000E+00 0. -1.
         21   -1    0    0  504  502  0.00000000000E+00 -0.00000000000E+00 -0.57538913079E+03  0.57538913079E+03  0.00000000000E+00 0.  1.
         21    1    1    2  503  501 -0.77945974153E+01  0.32671799377E+02  0.70965403655E+02  0.78512997264E+02  0.00000000000E+00 0. -1.
         21    1    1    2  504  503  0.12735311165E+03 -0.86621805337E+02 -0.45919701016E+03  0.48433877229E+03  0.00000000000E+00 0.  1.
         21    1    1    2  505  502 -0.53895783933E+02  0.34813379496E+02 -0.81002865864E+02  0.10333533372E+03  0.00000000000E+00 0. -1.
         -2    1    1    2    0  505 -0.65662730302E+02  0.19136626464E+02  0.14462680429E+03  0.15998349022E+03  0.00000000000E+00 0. -1.
<scales pt_clust_3="33.58872" pt_clust_4="14000.00000" pt_clust_5="65.71796" pt_clust_6="88.89648"></scales>
<clustering>
<clus scale="   33.589">  1  3  2 -1</clus>
<clus scale="   65.718">  2  5  1 -1</clus>
<clus scale="   88.896">  1  6  2 -1</clus>
<clus scale="   65.718">  2  3  1 -1</clus>
</clustering>
</event>
<event>
 6    0  0.3695460E+002  0.1262410E+03  0.7546771E-02  0.1233143E+00
         21   -1    0    0  505  502  0.00000000000E+00  0.00000000000E+00  0.31243855701E+03  0.31243855701E+03  0.00000000000E+00 0.  1.
          2   -1    0    0  503    0 -0.00000000000E+00 -0.00000000000E+00 -0.94533851914E+03  0.94533851914E+03  0.00000000000E+00 0. -1.
         21    1    1    2  503  504 -0.48310739203E+02 -0.77095270737E+02 -0.40879693638E+03  0.41879892966E+03  0.00000000000E+00 0.  1.
         21    1    1    2  504  502  0.75099169565E+02  0.10298143993E+03  0.27238830099E+03  0.30073318533E+03  0.00000000000E+00 0.  1.
         21    1    1    2  505  501  0.26201139768E+01 -0.60903264488E+02 -0.27236787099E+02  0.66767620850E+02  0.00000000000E+00 0.  1.
          2    1    1    2  501    0 -0.29408544339E+02  0.35017095296E+02 -0.46925453965E+03  0.47147734031E+03  0.00000000000E+00 0. -1.
<scales pt_clust_3="14000.00000" pt_clust_4="126.24097" pt_clust_5="57.43879" pt_clust_6="45.72810"></scales>
<clustering>
<clus scale="   45.728">  2  6  1 -1</clus>
<clus scale="   57.439">  2  5  1 -1</clus>
<clus scale="  126.241">  1  4  2 -1</clus>
<clus scale="  126.241">  1  3  2 -1</clus>
</clustering>
</event>
<event>
 6    0  0.3695460E+002  0.1926979E+03  0.7546771E-02  0.1156050E+00
         21   -1    0    0  501  502  0.00000000000E+00  0.00000000000E+00  0.55872246433E+03  0.55872246433E+03  0.00000000000E+00 0. -1.
          1   -1    0    0  504    0 -0.00000000000E+00 -0.00000000000E+00 -0.17463610755E+04  0.17463610755E+04  0.00000000000E+00 0.  1.
         21    1    1    2  503  502  0.15906515414E+03 -0.10893448864E+03  0.51297953134E+03  0.54801135540E+03  0.00000000000E+00 0. -1.
         21    1    1    2  504  505  0.19678468424E+02 -0.60226879546E+02 -0.16086411220E+03  0.17289239929E+03  0.00000000000E+00 0. -1.
         21    1    1    2  505  503 -0.32270551922E+02  0.56134512823E+02 -0.47012211642E+02  0.80016373916E+02  0.00000000000E+00 0.  1.
          1    1    1    2  501    0 -0.14647307064E+03  0.11302685537E+03 -0.14927418186E+04  0.15041634112E+04  0.00000000000E+00 0.  1.
<scales pt_clust_3="192.69791" pt_clust_4="63.36023" pt_clust_5="62.25747" pt_clust_6="14000.00000"></scales>
<clustering>
<clus scale="   63.360">  2  4  1 -1</clus>
<clus scale="   62.257">  2  5  1 -1</clus>
<clus scale="  192.698">  1  3  2 -1</clus>
<clus scale="  192.698">  1  3  2 -1</clus>
</clustering>
</event>
<event>
 6    0  0.3695460E+002  0.7378582E+02  0.7546771E-02  0.1347673E+00
         21   -1    0    0  504  502  0.00000000000E+00  0.00000000000E+00  0.42421350821E+02  0.42421350821E+02  0.00000000000E+00 0.  1.
          2   -1    0    0  505    0 -0.00000000000E+00 -0.00000000000E+00 -0.24202695259E+04  0.24202695259E+04  0.00000000000E+00 0.  1.
         21    1    1    2  503  501  0.56940526751E+02 -0.33146938311E+02 -0.49017890931E+03  0.49458700573E+03  0.00000000000E+00 0.  1.
         21    1    1    2  504  503  0.32469046098E+02  0.70908499251E+02 -0.23258466124E+02  0.81383109225E+02  0.00000000000E+00 0.  1.
         21    1    1    2  505  502 -0.70282981320E+02  0.12137023104E+01 -0.10257152838E+03  0.12434664841E+03  0.00000000000E+00 0.  1.
          2    1    1    2  501    0 -0.19126591529E+02 -0.38975263251E+02 -0.17618392712E+04  0.17623741133E+04  0.00000000000E+00 0.  1.
<scales pt_clust_3="71.51896" pt_clust_4="14000.00000" pt_clust_5="73.78582" pt_clust_6="43.41541"></scales>
<clustering>
<clus scale="   43.415">  2  6  1 -1</clus>
<clus scale="   73.786">  1  5  2 -1</clus>
<clus scale="   71.519">  2  3  1 -1</clus>
<clus scale="   73.786">  1  3  2 -1</clus>
</clustering>
</event>
<event>
 6    0  0.3695460E+002  0.1098631E+03  0.7546771E-02  0.1260824E+00
         21   -1    0    0  504  502  0.00000000000E+00  0.00000000000E+00  0.15158601449E+02  0.15158601449E+02  0.00000000000E+00 0.  1.
          1   -1    0    0  503    0 -0.00000000000E+00 -0.00000000000E+00 -0.39408236955E+04  0.39408236955E+04  0.00000000000E+00 0.  1.
         21    1    1    2  503  505  0.18016799147E+02  0.13665587762E+03 -0.18025825901E+04  0.18078449680E+04  0.00000000000E+00 0.  1.
         21    1    1    2  504  501 -0.48172844355E+02 -0.29547684304E+02 -0.17404940156E+03  0.18299421511E+03  0.00000000000E+00 0.  1.
         21    1    1    2  505  502  0.55292313491E+02 -0.13749114154E+02 -0.11286152207E+03  0.12642784992E+03  0.00000000000E+00 0.  1.
          1    1    1    2  501    0 -0.25136268282E+02 -0.93359079161E+02 -0.18361715803E+04  0.18387152639E+04  0.00000000000E+00 0.  1.
<scales pt_clust_3="14000.00000" pt_clust_4="56.51273" pt_clust_5="40.83320" pt_clust_6="109.86313"></scales>
<clustering>
<clus scale="   56.513">  1  4  2 -1</clus>
<clus scale="   40.833">  1  5  2 -1</clus>
<clus scale="  109.863">  2  6  1 -1</clus>
<clus scale="   56.513">  1  3  2 -1</clus>
</clustering>
</event>
<event>
 6    0  0.3695460E+002  0.3495017E+03  0.7546771E-02  0.1062820E+00
         -2   -1    0    0    0  501 -0.00000000000E+00  0.00000000000E+00  0.98617615778E+03  0.98617615778E+03  0.00000000000E+00 0. -1.
         21   -1    0    0  505  502  0.00000000000E+00 -0.00000000000E+00 -0.68560890767E+03  0.68560890767E+03  0.00000000000E+00 0. -1.
         21    1    1    2  503  502  0.13483211041E+02  0.13596918355E+03 -0.65374315148E+02  0.15147018497E+03  0.00000000000E+00 0.  1.
         21    1    1    2  504  503  0.60258361035E+02 -0.37768095398E+03  0.76325395065E+03  0.85371574090E+03  0.00000000000E+00 0. -1.
         21    1    1    2  505  501 -0.12089541974E+03  0.20609819074E+03 -0.49657978267E+03  0.55107499244E+03  0.00000000000E+00 0. -1.
         -2    1    1    2    0  504  0.47153847669E+02  0.35613579685E+02  0.99267397275E+02  0.11552414713E+03  0.00000000000E+00 0. -1.
<scales pt_clust_3="138.61637" pt_clust_4="349.50172" pt_clust_5="14000.00000" pt_clust_6="59.09156"></scales>
<clustering>
<clus scale="   59.092">  1  6  2 -1</clus>
<clus scale="  138.616">  2  3  1 -1</clus>
<clus scale="  349.502">  1  4  2 -1</clus>
<clus scale="  138.616">  2  3  1 -1</clus>
</clustering>
</event>
<event>
 6    0  0.3695460E+002  0.3444503E+03  0.7546771E-02  0.1064916E+00
          2   -1    0    0  503    0 -0.00000000000E+00  0.00000000000E+00  0.17588836535E+04  0.17588836535E+04  0.00000000000E+00 0. -1.
         21   -1    0    0  505  502  0.00000000000E+00 -0.00000000000E+00 -0.39781743714E+04  0.39781743714E+04  0.00000000000E+00 0. -1.
         21    1    1    2  503  504  0.22542137029E+03  0.29469497762E+02  0.65648298038E+02  0.23662828343E+03  0.00000000000E+00 0.  1.
         21    1    1    2  504  502  0.11973543397E+03  0.47957910955E+02 -0.37446893573E+04  0.37469100493E+04  0.00000000000E+00 0. -1.
         21    1    1    2  505  501  0.26491668255E+02 -0.32153592593E+02 -0.12155538137E+03  0.12849658651E+03  0.00000000000E+00 0.  1.
          2    1    1    2  501    0 -0.37164847251E+03 -0.45273816124E+02  0.15813057226E+04  0.16250231057E+04  0.00000000000E+00 0. -1.
<scales pt_clust_3="14000.00000" pt_clust_4="146.44438" pt_clust_5="41.66128" pt_clust_6="344.45027"></scales>
<clustering>
<clus scale="   41.661">  2  5  1 -1</clus>
<clus scale="  146.444">  2  4  1 -1</clus>
<clus scale="  344.450">  1  6  2 -1</clus>
<clus scale="   41.661">  2  3  1 -1</clus>
</clustering>
</event>
<event>
 6    0  0.3695460E+002  0.1604073E+03  0.7546771E-02  0.1188238E+00
         -1   -1    0    0    0  501 -0.00000000000E+00  0.00000000000E+00  0.49006460684E+03  0.49006460684E+03  0.00000000000E+00 0. -1.
         21   -1    0    0  505  502  0.00000000000E+00 -0.00000000000E+00 -0.40653506025E+03  0.40653506025E+03  0.00000000000E+00 0.  1.
         21    1    1    2  503  504 -0.30802955031E+02  0.42733935234E+02 -0.93899739410E+02  0.10766695092E+03  0.00000000000E+00 0.  1.
         21    1    1    2  504  501 -0.37311553779E+02  0.34216276709E+01  0.32354040775E+02  0.49503974949E+02  0.00000000000E+00 0. -1.
         21    1    1    2  505  503  0.12964985479E+02  0.10466519358E+03 -0.27241534574E+03  0.29211815108E+03  0.00000000000E+00 0.  1.
         -1    1    1    2    0  502  0.55149523331E+02 -0.15082075648E+03  0.41749059096E+03  0.44731059014E+03  0.00000000000E+00 0. -1.
<scales pt_clust_3="42.54180" pt_clust_4="37.46811" pt_clust_5="42.54180" pt_clust_6="148.77442"></scales>
<clustering>
<clus scale="   37.468">  1  4  2 -1</clus>
<clus scale="   42.542">  3  5 -1 -1</clus>
<clus scale="  148.774">  1  6  2 -1</clus>
<clus scale="  160.407">  2  3  1 -1</clus>
</clustering>
</event>
<event>
 6    0  0.3695460E+002  0.7862179E+02  0.7546771E-02  0.1333009E+00
         -1   -1    0    0    0  501 -0.00000000000E+00  0.00000000000E+00  0.75782161263E+03  0.75782161263E+03  0.00000000000E+00 0.  1.
         21   -1    0    0  504  502  0.00000000000E+00 -0.00000000000E+00 -0.10497771917E+03  0.10497771917E+03  0.00000000000E+00 0.  1.
         21    1    1    2  503  501 -0.11586615521E+02 -0.47901535376E+02  0.11845065850E+03  0.12829405773E+03  0.00000000000E+00 0.  1.
         21    1    1    2  504  505  0.72801652019E+02  0.24238412471E+02 -0.58846493522E+02  0.96697936771E+02  0.00000000000E+00 0.  1.
         21    1    1    2  505  503 -0.92649259039E+02  0.78541042820E+00  0.78030288407E+02  0.12113310026E+03  0.00000000000E+00 0.  1.
         -1    1    1    2    0  502  0.31434222541E+02  0.22877712476E+02  0.51520944007E+03  0.51667423703E+03  0.00000000000E+00 0.  1.
<scales pt_clust_3="36.50444" pt_clust_4="78.62179" pt_clust_5="14000.00000" pt_clust_6="38.87802"></scales>
<clustering>
<clus scale="   38.878">  1  6  2 -1</clus>
<clus scale="   36.504">  1  3  2 -1</clus>
<clus scale="   78.622">  2  4  1 -1</clus>
<clus scale="   78.622">  2  3  1 -1</clus>
</clustering>
</event>
<event>
 6    0  0.3695460E+002  0.8064911E+02  0.7546771E-02  0.1327219E+00
         21   -1    0    0  505  502  0.00000000000E+00  0.00000000000E+00  0.32753957149E+02  0.32753957149E+02  0.00000000000E+00 0.  1.
         -1   -1    0    0    0  501 -0.00000000000E+00 -0.00000000000E+00 -0.86056401358E+03  0.86056401358E+03  0.00000000000E+00 0.  1.
         21    1    1    2  503  501  0.20963163129E+02  0.50894117053E+02 -0.20873001476E+03  0.21586543128E+03  0.00000000000E+00 0.  1.
         21    1    1    2  504  502 -0.69038033496E+02 -0.23937695026E+02 -0.76717406495E+02  0.10594726882E+03  0.00000000000E+00 0.  1.
         21    1    1    2  505  503 -0.50087144941E+02 -0.49782307186E+02 -0.31481602762E+03  0.32263932098E+03  0.00000000000E+00 0.  1.
         -1    1    1    2    0  504  0.98162015308E+02  0.22825885159E+02 -0.22754660756E+03  0.24886594965E+03  0.00000000000E+00 0.  1.
<scales pt_clust_3="55.04240" pt_clust_4="80.64911" pt_clust_5="46.85633" pt_clust_6="14000.00000"></scales>
<clustering>
<clus scale="   55.042">  2  3  1 -1</clus>
<clus scale="   46.856">  2  5  1 -1</clus>
<clus scale="   80.649">  1  4  2 -1</clus>
<clus scale="   80.649">  1  3  2 -1</clus>
</clustering>
</event>
<event>
 6    0  0.3695460E+002  0.1482290E+03  0.7546771E-02  0.1202666E+00
          2   -1    0    0  502    0 -0.00000000000E+00  0.00000000000E+00  0.17560513145E+04  0.17560513145E+04  0.00000000000E+00 0.  1.
         21   -1    0    0  504  502  0.00000000000E+00 -0.00000000000E+00 -0.18712377469E+03  0.18712377469E+03  0.00000000000E+00 0.  1.
         21    1    1    2  503  501  0.64801598446E+02 -0.38684866107E+02  0.59277787329E+03  0.59756286120E+03  0.00000000000E+00 0.  1.
         21    1    1    2  504  505 -0.36383204007E+02  0.15325070517E+02 -0.92452686025E+02  0.10052907278E+03  0.00000000000E+00 0.  1.
         21    1    1    2  505  503 -0.78911290607E+02  0.59161878702E+02 -0.59565917752E+02  0.11521813327E+03  0.00000000000E+00 0.  1.
          2    1    1    2  501    0  0.50492896168E+02 -0.35802083112E+02  0.11281682703E+04  0.11298650220E+04  0.00000000000E+00 0.  1.
<scales pt_clust_3="53.86960" pt_clust_4="39.47905" pt_clust_5="135.87305" pt_clust_6="53.86960"></scales>
<clustering>
<clus scale="   39.479">  2  4  1 -1</clus>
<clus scale="   53.870">  3  6 -1 -1</clus>
<clus scale="  135.873">  2  5  1 -1</clus>
<clus scale="   39.479">  2  3  1 -1</clus>
</clustering>
</event>
<event>
 6    0  0.3695460E+002  0.1565057E+03  0.7546771E-02  0.1192699E+00
         21   -1    0    0  501  502  0.00000000000E+00  0.00000000000E+00  0.29386135540E+03  0.29386135540E+03  0.00000000000E+00 0. -1.
          1   -1    0    0  503    0 -0.00000000000E+00 -0.00000000000E+00 -0.14086334031E+03  0.14086334031E+03  0.00000000000E+00 0.  1.
         21    1    1    2  503  504  0.65001570748E+02  0.45941622524E+02  0.79185954550E+01  0.79990880941E+02  0.00000000000E+00 0.  1.
         21    1    1    2  504  505  0.22171242110E+02  0.52878349752E+02  0.15825118868E+02  0.59482083322E+02  0.00000000000E+00 0. -1.
         21    1    1    2  505  502  0.40643787900E+01  0.54516161341E+02  0.10066171872E+03  0.11454829828E+03  0.00000000000E+00 0. -1.
          1    1    1    2  501    0 -0.91237191647E+02 -0.15333613362E+03  0.28592582039E+02  0.18070343317E+03  0.00000000000E+00 0.  1.
<scales pt_clust_3="33.13822" pt_clust_4="33.13822" pt_clust_5="54.66746" pt_clust_6="151.55716"></scales>
<clustering>
<clus scale="   33.138">  3  4 -1 -1</clus>
<clus scale="   54.667">  1  5  2 -1</clus>
<clus scale="  151.557">  1  6  2 -1</clus>
<clus scale="   54.667">  1  3  2 -1</clus>
</clustering>
</event>
<event>
 6    0  0.3695460E+002  0.1893729E+03  0.7546771E-02  0.1159028E+00
         21   -1    0    0  505  502  0.00000000000E+00  0.00000000000E+00  0.94694007896E+02  0.94694007896E+02  0.00000000000E+00 0. -1.
         -4   -1    0    0    0  501 -0.00000000000E+00 -0.00000000000E+00 -0.16755449293E+04  0.16755449293E+04  0.00000000000E+00 0.  1.
         21    1    1    2  503  501 -0.16798963076E+02  0.30861670562E+02 -0.15777917230E+03  0.16164440938E+03  0.00000000000E+00 0.  1.
         21    1    1    2  504  502 -0.10529602321E+03  0.19819437545E+02 -0.55757014811E+02  0.12078454913E+03  0.00000000000E+00 0. -1.
         21    1    1    2  505  503 -0.82180726113E+02 -0.96698828750E+02 -0.25101747656E+02  0.12936163636E+03  0.00000000000E+00 0. -1.
         -4    1    1    2    0  504  0.20427571240E+03  0.46017720643E+02 -0.13422129866E+04  0.13584483423E+04  0.00000000000E+00 0.  1.
<scales pt_clust_3="35.13756" pt_clust_4="108.45044" pt_clust_5="189.37290" pt_clust_6="14000.00000"></scales>
<clustering>
<clus scale="   35.138">  2  3  1 -1</clus>
<clus scale="  108.450">  1  4  2 -1</clus>
<clus scale="  189.373">  1  5  2 -1</clus>
<clus scale="  108.450">  1  3  2 -1</clus>
</clustering>
</event>
<event>
 6    0  0.3695460E+002  0.1152553E+03  0.7546771E-02  0.1251136E+00
         -3   -1    0    0    0  501 -0.00000000000E+00  0.00000000000E+00  0.81439747336E+03  0.81439747336E+03  0.00000000000E+00 0. -1.
         21   -1    0    0  503  502  0.00000000000E+00 -0.00000000000E+00 -0.28267973470E+02  0.28267973470E+02  0.00000000000E+00 0. -1.
         21    1    1    2  503  504 -0.41156857653E+02  0.32886455137E+02  0.94612667981E+02  0.10829110215E+03  0.00000000000E+00 0. -1.
         21    1    1    2  504  501 -0.89615923616E+02 -0.14661775017E+02  0.38728105554E+03  0.39778461181E+03  0.00000000000E+00 0. -1.
         21    1    1    2  505  502  0.44771447658E+02  0.20428086296E+02  0.91477103006E+02  0.10387420089E+03  0.00000000000E+00 0. -1.
         -3    1    1    2    0  505  0.86001333611E+02 -0.38652766416E+02  0.21275867336E+03  0.23271553198E+03  0.00000000000E+00 0. -1.
<scales pt_clust_3="52.68212" pt_clust_4="99.92102" pt_clust_5="41.49873" pt_clust_6="41.49873"></scales>
<clustering>
<clus scale="   41.499">  5  6 -1 -1</clus>
<clus scale="   52.682">  2  3  1 -1</clus>
<clus scale="   99.921">  1  4  2 -1</clus>
<clus scale="   52.682">  2  3  1 -1</clus>
</clustering>
</event>
<event>
 6    0  0.3695460E+002  0.1950052E+03  0.7546771E-02  0.1154023E+00
          2   -1    0    0  503    0 -0.00000000000E+00  0.00000000000E+00  0.21315295611E+04  0.21315295611E+04  0.00000000000E+00 0.  1.
         21   -1    0    0  505  502  0.00000000000E+00 -0.00000000000E+00 -0.49489411542E+02  0.49489411542E+02  0.00000000000E+00 0.  1.
         21    1    1    2  503  504  0.19598550213E+03 -0.13609307933E+02  0.14816843052E+04  0.14946517690E+04  0.00000000000E+00 0.  1.
         21    1    1    2  504  502 -0.17459568682E+03  0.12377802881E+03  0.38623589743E+03  0.44156859347E+03  0.00000000000E+00 0.  1.
         21    1    1    2  505  501 -0.23874131018E+02 -0.38980055645E+02  0.64127406497E+02  0.78751146874E+02  0.00000000000E+00 0.  1.
          2    1    1    2  501    0  0.24843157152E+01 -0.71188665235E+02  0.14999254044E+03  0.16604746331E+03  0.00000000000E+00 0.  1.
<scales pt_clust_3="195.00520" pt_clust_4="14000.00000" pt_clust_5="30.86278" pt_clust_6="118.65500"></scales>
<clustering>
<clus scale="   30.863">  5  6 -1 -1</clus>
<clus scale="  118.655">  2  5  1 -1</clus>
<clus scale="  195.005">  1  3  2 -1</clus>
<clus scale="  118.655">  2  3  1 -1</clus>
</clustering>
</event>
<event>
 6    0  0.3695460E+002  0.1670929E+03  0.7546771E-02  0.1180914E+00
          2   -1    0    0  504    0 -0.00000000000E+00  0.00000000000E+00  0.78169328428E+03  0.78169328428E+03  0.00000000000E+00 0.  1.
         21   -1    0    0  505  502  0.00000000000E+00 -0.00000000000E+00 -0.27328842056E+03  0.27328842056E+03  0.00000000000E+00 0.  1.
         21    1    1    2  503  501 -0.87193646607E+02 -0.46841976082E+02 -0.11380864634E+03  0.15082874631E+03  0.00000000000E+00 0.  1.
         21    1    1    2  504  502  0.20624222270E+02 -0.31598817794E+02  0.61786455454E+02  0.72397582196E+02  0.00000000000E+00 0.  1.
         21    1    1    2  505  503 -0.65577214453E+02 -0.54194930304E+01 -0.11821803403E+03  0.13529687923E+03  0.00000000000E+00 0.  1.
          2    1    1    2  501    0  0.13214663879E+03  0.83860286906E+02  0.67864508864E+03  0.69645849711E+03  0.00000000000E+00 0.  1.
<scales pt_clust_3="36.10895" pt_clust_4="37.73386" pt_clust_5="36.10895" pt_clust_6="161.11712"></scales>
<clustering>
<clus scale="   36.109">  3  5 -1 -1</clus>
<clus scale="   37.734">  1  4  2 -1</clus>
<clus scale="  161.117">  1  6  2 -1</clus>
<clus scale="  167.093">  2  3  1 -1</clus>
</clustering>
</event>
<event>
 6    0  0.3695460E+002  0.8384923E+02  0.7546771E-02  0.1318470E+00
          2   -1    0    0  503    0 -0.00000000000E+00  0.00000000000E+00  0.39323794553E+02  0.39323794553E+02  0.00000000000E+00 0. -1.
         21   -1    0    0  505  502  0.00000000000E+00 -0.00000000000E+00 -0.77678400934E+03  0.77678400934E+03  0.00000000000E+00 0. -1.
         21    1    1    2  503  502 -0.45995176171E+02  0.80244385691E+01 -0.10163043409E+03  0.11184226830E+03  0.00000000000E+00 0. -1.
         21    1    1    2  504  501  0.31094625513E+02  0.56191991129E+02 -0.20012712301E+03  0.21017916397E+03  0.00000000000E+00 0. -1.
         21    1    1    2  505  504 -0.24594580737E+02  0.29148358696E+02 -0.37287699813E+03  0.37482232585E+03  0.00000000000E+00 0. -1.
          2    1    1    2  501    0  0.39495131395E+02 -0.93364788395E+02 -0.62825659549E+02  0.11926404577E+03  0.00000000000E+00 0. -1.
<scales pt_clust_3="54.82019" pt_clust_4="83.84923" pt_clust_5="38.13817" pt_clust_6="14000.00000"></scales>
<clustering>
<clus scale="   38.138">  2  5  1 -1</clus>
<clus scale="   54.820">  2  3  1 -1</clus>
<clus scale="   83.849">  2  4  1 -1</clus>
<clus scale="   38.138">  2  3  1 -1</clus>
</clustering>
</event>
<event>
 6    0  0.3695460E+002  0.1789361E+03  0.7546771E-02  0.1168837E+00
         21   -1    0    0  501  502  0.00000000000E+00  0.00000000000E+00  0.62745900383E+02  0.62745900383E+02  0.00000000000E+00 0. -1.
          2   -1    0    0  505    0 -0.00000000000E+00 -0.00000000000E+00 -0.28924681363E+04  0.28924681363E+04  0.00000000000E+00 0. -1.
         21    1    1    2  503  502  0.46367160486E+02 -0.82642421705E+02 -0.43552579230E+02  0.10429051057E+03  0.00000000000E+00 0. -1.
         21    1    1    2  504  503  0.14011319132E+03  0.25004938700E+02 -0.15404555525E+03  0.20973074747E+03  0.00000000000E+00 0. -1.
         21    1    1    2  505  504 -0.49980812100E+02 -0.10578941995E+02 -0.32134732933E+03  0.32538300764E+03  0.00000000000E+00 0.  1.
          2    1    1    2  501    0 -0.13649953971E+03  0.68216424999E+02 -0.23107767721E+04  0.23158097710E+04  0.00000000000E+00 0. -1.
<scales pt_clust_3="94.33341" pt_clust_4="178.93612" pt_clust_5="51.08812" pt_clust_6="14000.00000"></scales>
<clustering>
<clus scale="   51.088">  2  5  1 -1</clus>
<clus scale="   94.333">  1  3  2 -1</clus>
<clus scale="  178.936">  1  4  2 -1</clus>
<clus scale="   94.333">  1  3  2 -1</clus>
</clustering>
</event>
<event>
 6    0  0.3695460E+002  0.2224448E+03  0.7546771E-02  0.1132073E+00
          2   -1    0    0  505    0 -0.00000000000E+00  0.00000000000E+00  0.70669117401E+03  0.70669117401E+03  0.00000000000E+00 0. -1.
         21   -1    0    0  503  502  0.00000000000E+00 -0.00000000000E+00 -0.28981800759E+03  0.28981800759E+03  0.00000000000E+00 0. -1.
         21    1    1    2  503  504  0.77334005166E+00 -0.13056366039E+03 -0.11857953138E+03  0.17637622496E+03  0.00000000000E+00 0. -1.
         21    1    1    2  504  501  0.68386826135E+02 -0.66220316067E+02 -0.10389010608E+03  0.14090792167E+03  0.00000000000E+00 0. -1.
         21    1    1    2  505  502 -0.12673461580E+01  0.56600352065E+02  0.76145067649E+02  0.94885601371E+02  0.00000000000E+00 0. -1.
          2    1    1    2  501    0 -0.67892820028E+02  0.14018362439E+03  0.56319773623E+03  0.58433943359E+03  0.00000000000E+00 0. -1.
<scales pt_clust_3="75.06847" pt_clust_4="75.06847" pt_clust_5="56.61454" pt_clust_6="204.48050"></scales>
<clustering>
<clus scale="   56.615">  1  5  2 -1</clus>
<clus scale="   75.068">  3  4 -1 -1</clus>
<clus scale="  204.480">  1  6  2 -1</clus>
<clus scale="  222.445">  2  3  1 -1</clus>
</clustering>
</event>
<event>
 6    0  0.3695460E+002  0.2216158E+03  0.7546771E-02  0.1132684E+00
          2   -1    0    0  503    0 -0.00000000000E+00  0.00000000000E+00  0.18599504492E+04  0.18599504492E+04  0.00000000000E+00 0.  1.
         21   -1    0    0  501  502  0.00000000000E+00 -0.00000000000E+00 -0.80899211791E+02  0.80899211791E+02  0.00000000000E+00 0. -1.
         21    1    1    2  503  505  0.32041320781E+02 -0.26513821217E+02  0.14375932631E+03  0.14965417754E+03  0.00000000000E+00 0.  1.
         21    1    1    2  504  502 -0.85898588932E+02 -0.46992698962E+02  0.72051149342E+02  0.12156582356E+03  0.00000000000E+00 0.  1.
         21    1    1    2  505  504 -0.10086974805E+03 -0.65624135839E+02  0.32279151484E+02  0.12459204187E+03  0.00000000000E+00 0. -1.
          2    1    1    2  501    0  0.15472701620E+03  0.13913065602E+03  0.15309616103E+04  0.15450376180E+04  0.00000000000E+00 0.  1.
<scales pt_clust_3="41.58881" pt_clust_4="41.68140" pt_clust_5="41.68140" pt_clust_6="216.72485"></scales>
<clustering>
<clus scale="   41.589">  1  3  2 -1</clus>
<clus scale="   41.681">  4  5 -1 -1</clus>
<clus scale="  216.725">  1  6  2 -1</clus>
<clus scale="  221.616">  2  3  1 -1</clus>
</clustering>
</event>
<event>
 6    0  0.3695460E+002  0.2138319E+03  0.7546771E-02  0.1138567E+00
          2   -1    0    0  505    0 -0.00000000000E+00  0.00000000000E+00  0.11500814459E+04  0.11500814459E+04  0.00000000000E+00 0.  1.
         21   -1    0    0  504  502  0.00000000000E+00 -0.00000000000E+00 -0.60235606567E+03  0.60235606567E+03  0.00000000000E+00 0.  1.
         21    1    1    2  503  501 -0.11689418956E+03  0.85228210126E+02  0.62092878161E+03  0.63755835120E+03  0.00000000000E+00 0.  1.
         21    1    1    2  504  503 -0.27768675061E+02  0.81363338800E+02 -0.28815077559E+02  0.90671941140E+02  0.00000000000E+00 0.  1.
         21    1    1    2  505  502  0.19312322919E+03 -0.20519720062E+03 -0.49487664088E+03  0.56947814926E+03  0.00000000000E+00 0.  1.
          2    1    1    2  501    0 -0.48460364563E+02  0.38605651694E+02  0.45048831704E+03  0.45472906995E+03  0.00000000000E+00 0.  1.
<scales pt_clust_3="32.59229" pt_clust_4="85.97146" pt_clust_5="207.95150" pt_clust_6="32.59229"></scales>
<clustering>
<clus scale="   32.592">  3  6 -1 -1</clus>
<clus scale="   85.971">  2  4  1 -1</clus>
<clus scale="  207.952">  2  5  1 -1</clus>
<clus scale="   85.971">  2  3  1 -1</clus>
</clustering>
</event>
<event>
 6    0  0.3695460E+002  0.1072722E+03  0.7546771E-02  0.1265706E+00
         21   -1    0    0  505  502  0.00000000000E+00  0.00000000000E+00  0.64444094588E+03  0.64444094588E+03  0.00000000000E+00 0. -1.
          2   -1    0    0  503    0 -0.00000000000E+00 -0.00000000000E+00 -0.72246746590E+03  0.72246746590E+03  0.00000000000E+00 0.  1.
         21    1    1    2  503  502 -0.36769538651E+02 -0.11054074244E+02  0.31756025895E+02  0.49826064571E+02  0.00000000000E+00 0. -1.
         21    1    1    2  504  501  0.75400463893E+02  0.11139290138E+03 -0.23205226893E+03  0.26821980529E+03  0.00000000000E+00 0.  1.
         21    1    1    2  505  504 -0.47635906514E+02 -0.55099792003E+02  0.58214292645E+03  0.58668181622E+03  0.00000000000E+00 0. -1.
          2    1    1    2  501    0  0.90049812717E+01 -0.45239035128E+02 -0.45987320342E+03  0.46218072571E+03  0.00000000000E+00 0.  1.
<scales pt_clust_3="38.39520" pt_clust_4="14000.00000" pt_clust_5="107.27219" pt_clust_6="46.13362"></scales>
<clustering>
<clus scale="   38.395">  1  3  2 -1</clus>
<clus scale="   46.134">  2  6  1 -1</clus>
<clus scale="  107.272">  1  5  2 -1</clus>
<clus scale="   38.395">  1  3  2 -1</clus>
</clustering>
</event>
<event>
 6    0  0.4651667E+002  0.8866194E+02  0.7546771E-02  0.1306125E+00
          2   -1    0    0  504    0 -0.00000000000E+00  0.00000000000E+00  0.15961610914E+04  0.15961610914E+04  0.00000000000E+00 0. -1.
         21   -1    0    0  505  502  0.00000000000E+00 -0.00000000000E+00 -0.68222791855E+03  0.68222791855E+03  0.00000000000E+00 0.  1.
         21    1    1    2  503  502 -0.35687255102E+02 -0.24761069630E+02 -0.31278933702E+02  0.53526278028E+02  0.00000000000E+00 0.  1.
         21    1    1    2  504  503  0.59651314303E+02  0.10763586165E+03  0.19308264211E+03  0.22896433062E+03  0.00000000000E+00 0.  1.
         21    1    1    2  505  501 -0.38179069502E+02 -0.23957686010E+02 -0.62039812470E+03  0.62203331519E+03  0.00000000000E+00 0.  1.
          2    1    1    2  501    0  0.14215010301E+02 -0.58917106010E+02  0.13725275891E+04  0.13738650861E+04  0.00000000000E+00 0. -1.
<scales pt_clust_3="43.43605" pt_clust_4="88.66194" pt_clust_5="14000.00000" pt_clust_6="60.62411"></scales>
<clustering>
<clus scale="   43.436">  2  3  1 -1</clus>
<clus scale="   60.624">  1  6  2 -1</clus>
<clus scale="   88.662">  1  4  2 -1</clus>
<clus scale="   43.436">  2  3  1 -1</clus>
</clustering>
</event>
<event>
 6    0  0.3695460E+002  0.1144832E+03  0.7546771E-02  0.1252486E+00
         -2   -1    0    0    0  501 -0.00000000000E+00  0.00000000000E+00  0.11475453687E+03  0.11475453687E+03  0.00000000000E+00 0.  1.
         21   -1    0    0  505  502  0.00000000000E+00 -0.00000000000E+00 -0.19115235347E+03  0.19115235347E+03  0.00000000000E+00 0.  1.
         21    1    1    2  503  502 -0.44622604367E+02  0.29218795985E+02  0.42293945546E+01  0.53505164588E+02  0.00000000000E+00 0. -1.
         21    1    1    2  504  501  0.77956509645E+02 -0.43870477729E+02 -0.21637517014E+02  0.92032702637E+02  0.00000000000E+00 0.  1.
         21    1    1    2  505  504  0.50019158897E+02  0.16909427273E+02 -0.55949788495E+02  0.76929992981E+02  0.00000000000E+00 0.  1.
         -2    1    1    2    0  503 -0.83353064174E+02 -0.22577455296E+01 -0.30399056442E+01  0.83439030127E+02  0.00000000000E+00 0.  1.
<scales pt_clust_3="32.46433" pt_clust_4="107.04563" pt_clust_5="52.80005" pt_clust_6="32.46433"></scales>
<clustering>
<clus scale="   32.464">  3  6 -1 -1</clus>
<clus scale="   52.800">  2  5  1 -1</clus>
<clus scale="  107.046">  1  4  2 -1</clus>
<clus scale="   52.800">  2  3  1 -1</clus>
</clustering>
</event>
<event>
 6    0  0.3695460E+002  0.2886307E+03  0.7546771E-02  0.1091066E+00
          1   -1    0    0  505    0 -0.00000000000E+00  0.00000000000E+00  0.38718953803E+04  0.38718953803E+04  0.00000000000E+00 0.  1.
         21   -1    0    0  503  502  0.00000000000E+00 -0.00000000000E+00 -0.98011438944E+02  0.98011438944E+02  0.00000000000E+00 0.  1.
         21    1    1    2  503  504  0.10211471246E+03 -0.49226185283E+02  0.75019507008E+02  0.13593586080E+03  0.00000000000E+00 0.  1.
         21    1    1    2  504  501  0.16940570633E+03 -0.49778561650E+02  0.68752925647E+02  0.18948130072E+03  0.00000000000E+00 0.  1.
         21    1    1    2  505  502 -0.39931395757E+02  0.40186461471E+02  0.26927278086E+03  0.27516776440E+03  0.00000000000E+00 0.  1.
          1    1    1    2  501    0 -0.23158902304E+03  0.58818285462E+02  0.33608387279E+04  0.33693218934E+04  0.00000000000E+00 0.  1.
<scales pt_clust_3="33.04217" pt_clust_4="33.04217" pt_clust_5="56.65217" pt_clust_6="285.66961"></scales>
<clustering>
<clus scale="   33.042">  3  4 -1 -1</clus>
<clus scale="   56.652">  1  5  2 -1</clus>
<clus scale="  285.670">  1  6  2 -1</clus>
<clus scale="  288.631">  2  3  1 -1</clus>
</clustering>
</event>
<event>
 6    0  0.3695460E+002  0.2164173E+03  0.7546771E-02  0.1136583E+00
          2   -1    0    0  503    0 -0.00000000000E+00  0.00000000000E+00  0.18433629480E+04  0.18433629480E+04  0.00000000000E+00 0. -1.
         21   -1    0    0  505  502  0.00000000000E+00 -0.00000000000E+00 -0.29291503144E+02  0.29291503144E+02  0.00000000000E+00 0.  1.
         21    1    1    2  503  502 -0.21091053519E+03 -0.35669099795E+02  0.97302843260E+03  0.99626295183E+03  0.00000000000E+00 0.  1.
         21    1    1    2  504  501  0.90396926827E+02  0.24430968665E+02  0.24659989462E+03  0.26378018241E+03  0.00000000000E+00 0. -1.
         21    1    1    2  505  504  0.21445522968E+02 -0.21935573430E+02  0.53494930219E+02  0.61666744654E+02  0.00000000000E+00 0.  1.
          2    1    1    2  501    0  0.99068085392E+02  0.33173704561E+02  0.54094818742E+03  0.55094457225E+03  0.00000000000E+00 0. -1.
<scales pt_clust_3="206.17300" pt_clust_4="63.26329" pt_clust_5="30.67702" pt_clust_6="63.26329"></scales>
<clustering>
<clus scale="   30.677">  2  5  1 -1</clus>
<clus scale="   63.263">  4  6 -1 -1</clus>
<clus scale="  206.173">  1  3  2 -1</clus>
<clus scale="   30.677">  2  3  1 -1</clus>
</clustering>
</event>
<event>
 6    0  0.3695460E+002  0.1387339E+03  0.7546771E-02  0.1215043E+00
         21   -1    0    0  505  502  0.00000000000E+00  0.00000000000E+00  0.14022690298E+03  0.14022690298E+03  0.00000000000E+00 0. -1.
          1   -1    0    0  504    0 -0.00000000000E+00 -0.00000000000E+00 -0.74826242067E+03  0.74826242067E+03  0.00000000000E+00 0. -1.
         21    1    1    2  503  501  0.26478462112E+02  0.52170451416E+02 -0.25408177380E+03  0.26073053664E+03  0.00000000000E+00 0. -1.
         21    1    1    2  504  502 -0.49771978954E+02 -0.97962130500E+02  0.45518284212E+02  0.11893587810E+03  0.00000000000E+00 0. -1.
         21    1    1    2  505  503  0.27861810970E+02 -0.35890927695E+02  0.40768692917E+02  0.61045274375E+02  0.00000000000E+00 0.  1.
          1    1    1    2  501    0 -0.45682941273E+01  0.81682606779E+02 -0.44024072101E+03  0.44777763454E+03  0.00000000000E+00 0. -1.
<scales pt_clust_3="32.78926" pt_clust_4="133.20542" pt_clust_5="45.43610" pt_clust_6="32.78926"></scales>
<clustering>
<clus scale="   32.789">  3  6 -1 -1</clus>
<clus scale="   45.436">  1  5  2 -1</clus>
<clus scale="  133.205">  1  4  2 -1</clus>
<clus scale="   45.436">  1  3  2 -1</clus>
</clustering>
</event>
<event>
 6    0  0.3695460E+002  0.1661777E+03  0.7546771E-02  0.1181894E+00
          1   -1    0    0  505    0 -0.00000000000E+00  0.00000000000E+00  0.24119217416E+04  0.24119217416E+04  0.00000000000E+00 0.  1.
         21   -1    0    0  503  502  0.00000000000E+00 -0.00000000000E+00 -0.83331338456E+02  0.83331338456E+02  0.00000000000E+00 0.  1.
         21    1    1    2  503  504  0.92205070386E+02  0.38554202001E+02 -0.15835040670E+02  0.10118769693E+03  0.00000000000E+00 0.  1.
         21    1    1    2  504  501  0.51763914727E+02 -0.12024523994E+02  0.33512439491E+02  0.62826552076E+02  0.00000000000E+00 0.  1.
         21    1    1    2  505  502  0.61957283375E+02  0.56316856995E+02  0.53592684210E+03  0.54242775871E+03  0.00000000000E+00 0.  1.
          1    1    1    2  501    0 -0.20592626849E+03 -0.82846535002E+02  0.17749861622E+04  0.17888110723E+04  0.00000000000E+00 0.  1.
<scales pt_clust_3="52.36712" pt_clust_4="52.36712" pt_clust_5="83.72749" pt_clust_6="149.85908"></scales>
<clustering>
<clus scale="   52.367">  3  4 -1 -1</clus>
<clus scale="   83.727">  1  5  2 -1</clus>
<clus scale="  149.859">  1  6  2 -1</clus>
<clus scale="  166.178">  2  3  1 -1</clus>
</clustering>
</event>
<event>
 6    0  0.3695460E+002  0.2172080E+03  0.7546771E-02  0.1135982E+00
          2   -1    0    0  505    0 -0.00000000000E+00  0.00000000000E+00  0.32771961989E+04  0.32771961989E+04  0.00000000000E+00 0. -1.
         21   -1    0    0  503  502  0.00000000000E+00 -0.00000000000E+00 -0.40327393539E+03  0.40327393539E+03  0.00000000000E+00 0. -1.
         21    1    1    2  503  501 -0.12343677040E+02  0.43249376623E+02  0.45967320674E+02  0.64310726252E+02  0.00000000000E+00 0.  1.
         21    1    1    2  504  502 -0.10255541967E+03 -0.22938795209E+03 -0.33979956384E+03  0.42261115727E+03  0.00000000000E+00 0. -1.
         21    1    1    2  505  504  0.82527599522E+02  0.54478377905E+02  0.20409904673E+03  0.22679311987E+03  0.00000000000E+00 0. -1.
          2    1    1    2  501    0  0.32371497184E+02  0.13166019756E+03  0.29636554599E+04  0.29667551309E+04  0.00000000000E+00 0. -1.
<scales pt_clust_3="44.97638" pt_clust_4="217.20795" pt_clust_5="99.28440" pt_clust_6="14000.00000"></scales>
<clustering>
<clus scale="   44.976">  2  3  1 -1</clus>
<clus scale="   99.284">  1  5  2 -1</clus>
<clus scale="  217.208">  2  4  1 -1</clus>
<clus scale="   44.976">  2  3  1 -1</clus>
</clustering>
</event>
<event>
 6    0  0.3695460E+002  0.1466868E+03  0.7546771E-02  0.1204604E+00
         -1   -1    0    0    0  501 -0.00000000000E+00  0.00000000000E+00  0.82097714050E+03  0.82097714050E+03  0.00000000000E+00 0.  1.
         21   -1    0    0  505  502  0.00000000000E+00 -0.00000000000E+00 -0.12001698466E+03  0.12001698466E+03  0.00000000000E+00 0.  1.
         21    1    1    2  503  502  0.14021479196E+02 -0.51273059555E+02  0.18937595106E+03  0.19669463479E+03  0.00000000000E+00 0. -1.
         21    1    1    2  504  501 -0.52092470517E+02 -0.23846000736E+02  0.72867923140E+02  0.92692995736E+02  0.00000000000E+00 0.  1.
         21    1    1    2  505  504 -0.38691391925E+02  0.13137345258E+03 -0.55897171516E+02  0.14792059233E+03  0.00000000000E+00 0.  1.
         -1    1    1    2    0  503  0.76762383246E+02 -0.56254392290E+02  0.49461345315E+03  0.50368590230E+03  0.00000000000E+00 0.  1.
<scales pt_clust_3="40.15982" pt_clust_4="57.29099" pt_clust_5="136.48989" pt_clust_6="40.15982"></scales>
<clustering>
<clus scale="   40.160">  3  6 -1 -1</clus>
<clus scale="   57.291">  1  4  2 -1</clus>
<clus scale="  136.490">  2  5  1 -1</clus>
<clus scale="  136.490">  2  3  1 -1</clus>
</clustering>
</event>
<event>
 6    0  0.3695460E+002  0.1369435E+03  0.7546771E-02  0.1217502E+00
         21   -1    0    0  503  502  0.00000000000E+00  0.00000000000E+00  0.14787334651E+03  0.14787334651E+03  0.00000000000E+00 0.  1.
         -2   -1    0    0    0  501 -0.00000000000E+00 -0.00000000000E+00 -0.33292578840E+03  0.33292578840E+03  0.00000000000E+00 0.  1.
         21    1    1    2  503  505  0.33735143171E+02  0.44767822386E+02  0.68026032800E+02  0.88146236133E+02  0.00000000000E+00 0.  1.
         21    1    1    2  504  501 -0.30774845604E+02  0.79456179989E+01 -0.10603546272E+03  0.11069662742E+03  0.00000000000E+00 0.  1.
         21    1    1    2  505  504  0.45502198362E+02  0.57734930828E+02  0.19755313624E+02  0.76118622622E+02  0.00000000000E+00 0.  1.
         -2    1    1    2    0  502 -0.48462495929E+02 -0.11044837121E+03 -0.16679832560E+03  0.20583764874E+03  0.00000000000E+00 0.  1.
<scales pt_clust_3="43.83983" pt_clust_4="31.78402" pt_clust_5="43.83983" pt_clust_6="127.52067"></scales>
<clustering>
<clus scale="   31.784">  2  4  1 -1</clus>
<clus scale="   43.840">  3  5 -1 -1</clus>
<clus scale="  127.521">  2  6  1 -1</clus>
<clus scale="  136.944">  1  3  2 -1</clus>
</clustering>
</event>
<event>
 6    0  0.3695460E+002  0.9138707E+02  0.7546771E-02  0.1299527E+00
         21   -1    0    0  504  502  0.00000000000E+00  0.00000000000E+00  0.28906372831E+04  0.28906372831E+04  0.00000000000E+00 0. -1.
          2   -1    0    0  503    0 -0.00000000000E+00 -0.00000000000E+00 -0.20671061748E+04  0.20671061748E+04  0.00000000000E+00 0. -1.
         21    1    1    2  503  505 -0.93723691776E+02 -0.10249022578E+03 -0.10229276240E+03  0.17248821995E+03  0.00000000000E+00 0. -1.
         21    1    1    2  504  501 -0.20508867158E+02  0.68192153428E+02  0.22605797027E+04  0.22617009917E+04  0.00000000000E+00 0. -1.
         21    1    1    2  505  502  0.39673246163E+02 -0.16238794280E+02  0.59257313073E+03  0.59412168801E+03  0.00000000000E+00 0. -1.
          2    1    1    2  501    0  0.74559312770E+02  0.50536866635E+02 -0.19273289627E+04  0.19294325582E+04  0.00000000000E+00 0. -1.
<scales pt_clust_3="91.38707" pt_clust_4="55.40310" pt_clust_5="42.86799" pt_clust_6="14000.00000"></scales>
<clustering>
<clus scale="   42.868">  1  5  2 -1</clus>
<clus scale="   55.403">  1  4  2 -1</clus>
<clus scale="   91.387">  1  3  2 -1</clus>
<clus scale="   42.868">  1  3  2 -1</clus>
</clustering>
</event>
<event>
 6    0  0.3695460E+002  0.1675648E+03  0.7546771E-02  0.1180411E+00
         21   -1    0    0  503  502  0.00000000000E+00  0.00000000000E+00  0.52377151247E+03  0.52377151247E+03  0.00000000000E+00 0. -1.
          4   -1    0    0  505    0 -0.00000000000E+00 -0.00000000000E+00 -0.91910259830E+03  0.91910259830E+03  0.00000000000E+00 0. -1.
         21    1    1    2  503  501  0.61715765098E+02 -0.34879348169E+02  0.81330639098E+02  0.10788919059E+03  0.00000000000E+00 0.  1.
         21    1    1    2  504  502  0.11016959551E+03  0.78967966735E+01  0.37694631239E+03  0.39279539407E+03  0.00000000000E+00 0. -1.
         21    1    1    2  505  504  0.17814184965E+02  0.93229253737E+02 -0.38075511271E+02  0.10226819397E+03  0.00000000000E+00 0.  1.
          4    1    1    2  501    0 -0.18969954557E+03 -0.66246702242E+02 -0.81553252605E+03  0.83992133215E+03  0.00000000000E+00 0. -1.
<scales pt_clust_3="70.89009" pt_clust_4="14000.00000" pt_clust_5="93.35526" pt_clust_6="167.56483"></scales>
<clustering>
<clus scale="   70.890">  1  3  2 -1</clus>
<clus scale="   93.355">  2  5  1 -1</clus>
<clus scale="  167.565">  2  6  1 -1</clus>
<clus scale="   70.890">  1  3  2 -1</clus>
</clustering>
</event>
<event>
 6    0  0.3695460E+002  0.1324597E+03  0.7546771E-02  0.1223851E+00
         21   -1    0    0  504  502  0.00000000000E+00  0.00000000000E+00  0.72433048570E+03  0.72433048570E+03  0.00000000000E+00 0. -1.
         -1   -1    0    0    0  501 -0.00000000000E+00 -0.00000000000E+00 -0.16933802610E+03  0.16933802610E+03  0.00000000000E+00 0. -1.
         21    1    1    2  503  502  0.37704472585E+02  0.41482820345E+02  0.48801045370E+03  0.49121955840E+03  0.00000000000E+00 0. -1.
         21    1    1    2  504  501 -0.41487648134E+02 -0.83155397352E+01 -0.10752104406E+02  0.43657541135E+02  0.00000000000E+00 0.  1.
         21    1    1    2  505  503  0.32020387633E+02  0.88540414941E+02  0.17615749831E+03  0.19974026763E+03  0.00000000000E+00 0. -1.
         -1    1    1    2    0  505 -0.28237212084E+02 -0.12170769555E+03 -0.98423388000E+02  0.15905114463E+03  0.00000000000E+00 0. -1.
<scales pt_clust_3="55.67381" pt_clust_4="42.31280" pt_clust_5="132.45970" pt_clust_6="14000.00000"></scales>
<clustering>
<clus scale="   42.313">  2  4  1 -1</clus>
<clus scale="   55.674">  1  3  2 -1</clus>
<clus scale="  132.460">  1  5  2 -1</clus>
<clus scale="   55.674">  1  3  2 -1</clus>
</clustering>
</event>
<event>
 6    0  0.3695460E+002  0.1291677E+03  0.7546771E-02  0.1228696E+00
          1   -1    0    0  503    0 -0.00000000000E+00  0.00000000000E+00  0.13993573083E+04  0.13993573083E+04  0.00000000000E+00 0. -1.
         21   -1    0    0  505  502  0.00000000000E+00 -0.00000000000E+00 -0.11612045576E+03  0.11612045576E+03  0.00000000000E+00 0.  1.
         21    1    1    2  503  504 -0.72552104638E+02 -0.43418097741E+02  0.26611173768E+03  0.27922105227E+03  0.00000000000E+00 0. -1.
         21    1    1    2  504  502  0.45453548739E+02 -0.82676192049E+02  0.34421806681E+02  0.10043026735E+03  0.00000000000E+00 0.  1.
         21    1    1    2  505  501  0.57142671149E+02 -0.18065453269E+02 -0.58803276610E+02  0.83961126767E+02  0.00000000000E+00 0.  1.
          1    1    1    2  501    0 -0.30044115250E+02  0.14415974306E+03  0.10415065848E+04  0.10518653177E+04  0.00000000000E+00 0. -1.
<scales pt_clust_3="79.00034" pt_clust_4="14000.00000" pt_clust_5="59.93034" pt_clust_6="129.16767"></scales>
<clustering>
<clus scale="   59.930">  2  5  1 -1</clus>
<clus scale="   79.000">  1  3  2 -1</clus>
<clus scale="  129.168">  1  6  2 -1</clus>
<clus scale="   59.930">  2  3  1 -1</clus>
</clustering>
</event>
<event>
 6    0  0.3695460E+002  0.1171501E+03  0.7546771E-02  0.1247874E+00
         21   -1    0    0  503  502  0.00000000000E+00  0.00000000000E+00  0.16122087389E+04  0.16122087389E+04  0.00000000000E+00 0. -1.
         -1   -1    0    0    0  501 -0.00000000000E+00 -0.00000000000E+00 -0.28276934026E+02  0.28276934026E+02  0.00000000000E+00 0. -1.
         21    1    1    2  503  505 -0.54453613178E+02 -0.32261061172E+02  0.80591074032E+03  0.80839228931E+03  0.00000000000E+00 0. -1.
         21    1    1    2  504  502 -0.75522549141E+02 -0.48688781977E+02  0.39218150565E+03  0.40234386573E+03  0.00000000000E+00 0. -1.
         21    1    1    2  505  501 -0.33147883568E+01  0.49753856064E+02  0.13618301461E+03  0.14502498916E+03  0.00000000000E+00 0.  1.
         -1    1    1    2    0  504  0.13329095068E+03  0.31195987085E+02  0.24965654431E+03  0.28472452873E+03  0.00000000000E+00 0. -1.
<scales pt_clust_3="62.16516" pt_clust_4="14000.00000" pt_clust_5="49.86416" pt_clust_6="117.15009"></scales>
<clustering>
<clus scale="   49.864">  2  5  1 -1</clus>
<clus scale="   62.165">  1  3  2 -1</clus>
<clus scale="  117.150">  2  6  1 -1</clus>
<clus scale="   62.165">  1  3  2 -1</clus>
</clustering>
</event>
<event>
 6    0  0.3695460E+002  0.1406377E+03  0.7546771E-02  0.1212473E+00
         21   -1    0    0  501  502  0.00000000000E+00  0.00000000000E+00  0.37103581867E+02  0.37103581867E+02  0.00000000000E+00 0. -1.
          2   -1    0    0  505    0 -0.00000000000E+00 -0.00000000000E+00 -0.19347500786E+04  0.19347500786E+04  0.00000000000E+00 0. -1.
         21    1    1    2  503  504 -0.45196745362E+02 -0.55966403405E+01 -0.34669745093E+03  0.34967583653E+03  0.00000000000E+00 0.  1.
         21    1    1    2  504  502  0.93234969795E+02  0.11020070417E+03 -0.15021249974E+03  0.20832846630E+03  0.00000000000E+00 0. -1.
         21    1    1    2  505  503 -0.32605507587E+02  0.29668761412E+02 -0.16658999777E+03  0.17232406067E+03  0.00000000000E+00 0. -1.
          2    1    1    2  501    0 -0.15432716846E+02 -0.13427282524E+03 -0.12341465483E+04  0.12415252970E+04  0.00000000000E+00 0. -1.
<scales pt_clust_3="51.62849" pt_clust_4="14000.00000" pt_clust_5="44.08349" pt_clust_6="140.63774"></scales>
<clustering>
<clus scale="   44.083">  2  5  1 -1</clus>
<clus scale="   51.628">  2  3  1 -1</clus>
<clus scale="  140.638">  2  6  1 -1</clus>
<clus scale="  140.638">  1  3  2 -1</clus>
</clustering>
</event>
<event>
 6    0  0.3695460E+002  0.2167351E+03  0.7546771E-02  0.1136341E+00
          1   -1    0    0  503    0 -0.00000000000E+00  0.00000000000E+00  0.33743860476E+04  0.33743860476E+04  0.00000000000E+00 0. -1.
         21   -1    0    0  501  502  0.00000000000E+00 -0.00000000000E+00 -0.86658139940E+02  0.86658139940E+02  0.00000000000E+00 0.  1.
         21    1    1    2  503  505 -0.43643686931E+02 -0.10464022466E+02  0.98477523801E+03  0.98579741152E+03  0.00000000000E+00 0. -1.
         21    1    1    2  504  502  0.22391229552E+02 -0.42535880350E+02 -0.10314518642E+02  0.49163579740E+02  0.00000000000E+00 0.  1.
         21    1    1    2  505  504  0.11958042453E+03 -0.10930109425E+03  0.72830642426E+02  0.17762463121E+03  0.00000000000E+00 0.  1.
          1    1    1    2  501    0 -0.98327967152E+02  0.16230099707E+03  0.22404365459E+04  0.22484585651E+04  0.00000000000E+00 0. -1.
<scales pt_clust_3="44.88059" pt_clust_4="35.77819" pt_clust_5="35.77819" pt_clust_6="206.54269"></scales>
<clustering>
<clus scale="   35.778">  4  5 -1 -1</clus>
<clus scale="   44.881">  1  3  2 -1</clus>
<clus scale="  206.543">  1  6  2 -1</clus>
<clus scale="  216.735">  2  3  1 -1</clus>
</clustering>
</event>
<event>
 6    0  0.3695460E+002  0.1374640E+03  0.7546771E-02  0.1216783E+00
          1   -1    0    0  505    0 -0.00000000000E+00  0.00000000000E+00  0.87653455695E+03  0.87653455695E+03  0.00000000000E+00 0.  1.
         21   -1    0    0  503  502  0.00000000000E+00 -0.00000000000E+00 -0.85170464185E+02  0.85170464185E+02  0.00000000000E+00 0. -1.
         21    1    1    2  503  504 -0.11320922756E+03  0.23412266717E+02  0.10586412594E+01  0.11560961966E+03  0.00000000000E+00 0. -1.
         21    1    1    2  504  501 -0.13345352363E+02  0.31447806824E+02  0.37653059220E+01  0.34369179687E+02  0.00000000000E+00 0.  1.
         21    1    1    2  505  502  0.49458381999E+02 -0.82881826063E+02  0.23389911740E+03  0.25303028625E+03  0.00000000000E+00 0.  1.
          1    1    1    2  501    0  0.77096197921E+02  0.28021752523E+02  0.55264102818E+03  0.55869593553E+03  0.00000000000E+00 0.  1.
<scales pt_clust_3="31.90510" pt_clust_4="31.90510" pt_clust_5="124.30480" pt_clust_6="82.03074"></scales>
<clustering>
<clus scale="   31.905">  3  4 -1 -1</clus>
<clus scale="   82.031">  1  6  2 -1</clus>
<clus scale="  124.305">  1  5  2 -1</clus>
<clus scale="  137.464">  2  3  1 -1</clus>
</clustering>
</event>
<event>
 6    0  0.3695460E+002  0.1383497E+03  0.7546771E-02  0.1215567E+00
          1   -1    0    0  505    0 -0.00000000000E+00  0.00000000000E+00  0.26163106416E+03  0.26163106416E+03  0.00000000000E+00 0.  1.
         21   -1    0    0  503  502  0.00000000000E+00 -0.00000000000E+00 -0.33588165945E+03  0.33588165945E+03  0.00000000000E+00 0.  1.
         21    1    1    2  503  504  0.34511384052E+02 -0.84664440357E+02 -0.11446341083E+03  0.14649565013E+03  0.00000000000E+00 0.  1.
         21    1    1    2  504  501 -0.16167073032E+01  0.76077330864E+02  0.10392651302E+03  0.12880642112E+03  0.00000000000E+00 0.  1.
         21    1    1    2  505  502  0.90203879592E+01 -0.44270600057E+02 -0.18119272340E+03  0.18674061272E+03  0.00000000000E+00 0.  1.
          1    1    1    2  501    0 -0.41915064708E+02  0.52857709551E+02  0.11747902591E+03  0.13547003963E+03  0.00000000000E+00 0.  1.
<scales pt_clust_3="129.76233" pt_clust_4="45.17868" pt_clust_5="45.18023" pt_clust_6="45.17868"></scales>
<clustering>
<clus scale="   45.179">  4  6 -1 -1</clus>
<clus scale="   45.180">  2  5  1 -1</clus>
<clus scale="  129.762">  2  3  1 -1</clus>
<clus scale="   45.180">  2  3  1 -1</clus>
</clustering>
</event>
<event>
 6    0  0.3695460E+002  0.2534278E+03  0.7546771E-02  0.1111157E+00
         21   -1    0    0  503  502  0.00000000000E+00  0.00000000000E+00  0.10890752861E+04  0.10890752861E+04  0.00000000000E+00 0.  1.
          2   -1    0    0  504    0 -0.00000000000E+00 -0.00000000000E+00 -0.26915163572E+04  0.26915163572E+04  0.00000000000E+00 0. -1.
         21    1    1    2  503  505 -0.28170796369E+03 -0.19940880587E+02  0.10103241404E+04  0.10490528510E+04  0.00000000000E+00 0.  1.
         21    1    1    2  504  502  0.30506456151E+02 -0.61044786607E+01  0.36854946654E+02  0.48230650207E+02  0.00000000000E+00 0. -1.
         21    1    1    2  505  501  0.27906879547E+03 -0.20864455451E+02 -0.11820883908E+04  0.12147623972E+04  0.00000000000E+00 0. -1.
          2    1    1    2  501    0 -0.27867287928E+02  0.46909814698E+02 -0.14675317673E+04  0.14685457448E+04  0.00000000000E+00 0. -1.
<scales pt_clust_3="253.42785" pt_clust_4="31.11123" pt_clust_5="14000.00000" pt_clust_6="54.55287"></scales>
<clustering>
<clus scale="   31.111">  1  4  2 -1</clus>
<clus scale="   54.553">  2  6  1 -1</clus>
<clus scale="  253.428">  1  3  2 -1</clus>
<clus scale="   31.111">  1  3  2 -1</clus>
</clustering>
</event>
<event>
 6    0  0.3695460E+002  0.1282654E+03  0.7546771E-02  0.1230053E+00
         -4   -1    0    0    0  501 -0.00000000000E+00  0.00000000000E+00  0.76785497627E+02  0.76785497627E+02  0.00000000000E+00 0.  1.
         21   -1    0    0  503  502  0.00000000000E+00 -0.00000000000E+00 -0.10869594632E+04  0.10869594632E+04  0.00000000000E+00 0. -1.
         21    1    1    2  503  505 -0.34058409203E+02 -0.33491122761E+02 -0.21290904754E+03  0.21820149648E+03  0.00000000000E+00 0.  1.
         21    1    1    2  504  502  0.58951811401E+02  0.10548044403E+02 -0.13472449813E+02  0.61384722954E+02  0.00000000000E+00 0. -1.
         21    1    1    2  505  501 -0.87611252721E+02  0.48474723995E+01 -0.80932430254E+03  0.81406698513E+03  0.00000000000E+00 0. -1.
         -4    1    1    2    0  504  0.62717850523E+02  0.18095605959E+02  0.25531834339E+02  0.70091756248E+02  0.00000000000E+00 0.  1.
<scales pt_clust_3="47.76642" pt_clust_4="37.30253" pt_clust_5="122.21022" pt_clust_6="37.30253"></scales>
<clustering>
<clus scale="   37.303">  4  6 -1 -1</clus>
<clus scale="   47.766">  2  3  1 -1</clus>
<clus scale="  122.210">  2  5  1 -1</clus>
<clus scale="   47.766">  2  3  1 -1</clus>
</clustering>
</event>
<event>
 6    0  0.3695460E+002  0.1408194E+03  0.7546771E-02  0.1212231E+00
         21   -1    0    0  503  502  0.00000000000E+00  0.00000000000E+00  0.62861771881E+02  0.62861771881E+02  0.00000000000E+00 0. -1.
          2   -1    0    0  504    0 -0.00000000000E+00 -0.00000000000E+00 -0.40876670487E+03  0.40876670487E+03  0.00000000000E+00 0. -1.
         21    1    1    2  503  505 -0.48460811589E+02  0.29307466362E+02 -0.23412397168E+02  0.61282282803E+02  0.00000000000E+00 0. -1.
         21    1    1    2  504  502  0.12674127889E+03  0.15296479278E+01 -0.19737350509E+03  0.23456767063E+03  0.00000000000E+00 0. -1.
         21    1    1    2  505  501 -0.87201378862E+02  0.23345184253E+01 -0.75136804787E+02  0.11513066440E+03  0.00000000000E+00 0. -1.
          2    1    1    2  501    0  0.89209115656E+01 -0.33171632715E+02 -0.49982225942E+02  0.60647858909E+02  0.00000000000E+00 0. -1.
<scales pt_clust_3="35.58372" pt_clust_4="133.51387" pt_clust_5="35.58372" pt_clust_6="34.35025"></scales>
<clustering>
<clus scale="   34.350">  2  6  1 -1</clus>
<clus scale="   35.584">  3  5 -1 -1</clus>
<clus scale="  133.514">  2  4  1 -1</clus>
<clus scale="  140.819">  1  3  2 -1</clus>
</clustering>
</event>
<event>
 6    0  0.3695460E+002  0.1080146E+03  0.7546771E-02  0.1264291E+00
         -3   -1    0    0    0  501 -0.00000000000E+00  0.00000000000E+00  0.23018357594E+03  0.23018357594E+03  0.00000000000E+00 0.  1.
         21   -1    0    0  505  502  0.00000000000E+00 -0.00000000000E+00 -0.10366448361E+03  0.10366448361E+03  0.00000000000E+00 0.  1.
         21    1    1    2  503  502  0.24827301558E+02 -0.65837340328E+02 -0.17257143032E+02  0.72448321373E+02  0.00000000000E+00 0.  1.
         21    1    1    2  504  503  0.22263048887E+02  0.38775231895E+02  0.19582527389E+02  0.48812266217E+02  0.00000000000E+00 0. -1.
         21    1    1    2  505  501 -0.56616060497E+02 -0.45052132896E+02  0.44617100659E+01  0.72491239757E+02  0.00000000000E+00 0. -1.
         -3    1    1    2    0  504  0.95257100520E+01  0.72114241329E+02  0.11973199791E+03  0.14009623220E+03  0.00000000000E+00 0.  1.
<scales pt_clust_3="70.36299" pt_clust_4="42.73328" pt_clust_5="93.25383" pt_clust_6="42.73328"></scales>
<clustering>
<clus scale="   42.733">  4  6 -1 -1</clus>
<clus scale="   70.363">  2  3  1 -1</clus>
<clus scale="   93.254">  2  5  1 -1</clus>
<clus scale="   70.363">  2  3  1 -1</clus>
</clustering>
</event>
<event>
 6    0  0.3695460E+002  0.2311839E+03  0.7546771E-02  0.1125809E+00
         -3   -1    0    0    0  501 -0.00000000000E+00  0.00000000000E+00  0.24178359598E+03  0.24178359598E+03  0.00000000000E+00 0.  1.
         21   -1    0    0  505  502  0.00000000000E+00 -0.00000000000E+00 -0.88832055316E+03  0.88832055316E+03  0.00000000000E+00 0.  1.
         21    1    1    2  503  501 -0.12176223027E+03  0.39045650740E+02 -0.34313324318E+03  0.36618441548E+03  0.00000000000E+00 0.  1.
         21    1    1    2  504  502  0.59489390129E+02 -0.30618318482E+02  0.59796598545E+02  0.89733506351E+02  0.00000000000E+00 0.  1.
         21    1    1    2  505  503 -0.91087887021E+02 -0.17811872523E+02 -0.47511830884E+03  0.48409882602E+03  0.00000000000E+00 0.  1.
         -3    1    1    2    0  504  0.15336072716E+03  0.93845402644E+01  0.11191799630E+03  0.19008740129E+03  0.00000000000E+00 0.  1.
<scales pt_clust_3="74.71068" pt_clust_4="36.49010" pt_clust_5="74.71068" pt_clust_6="220.93854"></scales>
<clustering>
<clus scale="   36.490">  4  6 -1 -1</clus>
<clus scale="   74.711">  3  5 -1 -1</clus>
<clus scale="  220.939">  1  4  2 -1</clus>
<clus scale="  231.184">  2  3  1 -1</clus>
</clustering>
</event>
<event>
 6    0  0.3695460E+002  0.1464957E+03  0.7546771E-02  0.1204846E+00
         21   -1    0    0  504  502  0.00000000000E+00  0.00000000000E+00  0.24733028508E+03  0.24733028508E+03  0.00000000000E+00 0. -1.
          1   -1    0    0  503    0 -0.00000000000E+00 -0.00000000000E+00 -0.78881605343E+03  0.78881605343E+03  0.00000000000E+00 0.  1.
         21    1    1    2  503  505 -0.76101737569E+02 -0.27055687913E+02  0.30678698216E+02  0.86398305734E+02  0.00000000000E+00 0. -1.
         21    1    1    2  504  501  0.67530904149E+02  0.11289896062E+03  0.12815868075E+03  0.18366068108E+03  0.00000000000E+00 0. -1.
         21    1    1    2  505  502 -0.23228848416E+02  0.59755476943E+02 -0.16483446148E+02  0.66196679828E+02  0.00000000000E+00 0.  1.
          1    1    1    2  501    0  0.31799681836E+02 -0.14559874965E+03 -0.68383970117E+03  0.69989067187E+03  0.00000000000E+00 0.  1.
<scales pt_clust_3="82.99121" pt_clust_4="146.49573" pt_clust_5="64.11159" pt_clust_6="14000.00000"></scales>
<clustering>
<clus scale="   64.112">  1  5  2 -1</clus>
<clus scale="   82.991">  1  3  2 -1</clus>
<clus scale="  146.496">  1  4  2 -1</clus>
<clus scale="   64.112">  1  3  2 -1</clus>
</clustering>
</event>
<event>
 6    0  0.3695460E+002  0.9045686E+02  0.7546771E-02  0.1301749E+00
          2   -1    0    0  504    0 -0.00000000000E+00  0.00000000000E+00  0.24997821174E+03  0.24997821174E+03  0.00000000000E+00 0. -1.
         21   -1    0    0  503  502  0.00000000000E+00 -0.00000000000E+00 -0.22651737519E+03  0.22651737519E+03  0.00000000000E+00 0. -1.
         21    1    1    2  503  505  0.20406537975E+02  0.52921235686E+02 -0.10833007649E+03  0.12228037231E+03  0.00000000000E+00 0. -1.
         21    1    1    2  504  502  0.63489052561E+02  0.24997895969E+00  0.23978092401E+02  0.67866569088E+02  0.00000000000E+00 0. -1.
         21    1    1    2  505  501 -0.18283852003E+02  0.28049427507E+02 -0.71443951502E+02  0.78900619983E+02  0.00000000000E+00 0. -1.
          2    1    1    2  501    0 -0.65611738533E+02 -0.81220642152E+02  0.17925677215E+03  0.20744802555E+03  0.00000000000E+00 0. -1.
<scales pt_clust_3="30.67839" pt_clust_4="63.48954" pt_clust_5="30.67839" pt_clust_6="81.16715"></scales>
<clustering>
<clus scale="   30.678">  3  5 -1 -1</clus>
<clus scale="   63.490">  1  4  2 -1</clus>
<clus scale="   81.167">  1  6  2 -1</clus>
<clus scale="   90.457">  2  3  1 -1</clus>
</clustering>
</event>
<event>
 6    0  0.3695460E+002  0.1438837E+03  0.7546771E-02  0.1208197E+00
         21   -1    0    0  503  502  0.00000000000E+00  0.00000000000E+00  0.49211941919E+03  0.49211941919E+03  0.00000000000E+00 0. -1.
          2   -1    0    0  505    0 -0.00000000000E+00 -0.00000000000E+00 -0.78774933259E+03  0.78774933259E+03  0.00000000000E+00 0. -1.
         21    1    1    2  503  504  0.75095732665E+02 -0.61302898969E+02  0.16500574287E+03  0.19137478848E+03  0.00000000000E+00 0. -1.
         21    1    1    2  504  501  0.13598760108E+02  0.32168612709E+02 -0.12864998070E+03  0.13330627688E+03  0.00000000000E+00 0. -1.
         21    1    1    2  505  502 -0.38234597238E+02 -0.66334135734E+02  0.30226458150E+03  0.31181080677E+03  0.00000000000E+00 0. -1.
          2    1    1    2  501    0 -0.50459895535E+02  0.95468421994E+02 -0.63425025708E+03  0.64337687965E+03  0.00000000000E+00 0. -1.
<scales pt_clust_3="130.89129" pt_clust_4="33.97995" pt_clust_5="76.56437" pt_clust_6="33.97995"></scales>
<clustering>
<clus scale="   33.980">  4  6 -1 -1</clus>
<clus scale="   76.564">  1  5  2 -1</clus>
<clus scale="  130.891">  1  3  2 -1</clus>
<clus scale="   76.564">  1  3  2 -1</clus>
</clustering>
</event>
<event>
 6    0  0.3695460E+002  0.9889332E+02  0.7546771E-02  0.1282640E+00
          2   -1    0    0  504    0 -0.00000000000E+00  0.00000000000E+00  0.69404052538E+03  0.69404052538E+03  0.00000000000E+00 0. -1.
         21   -1    0    0  501  502  0.00000000000E+00 -0.00000000000E+00 -0.14732989998E+03  0.14732989998E+03  0.00000000000E+00 0.  1.
         21    1    1    2  503  505  0.13553546581E+03  0.20613112286E+02 -0.69516224847E+02  0.15371164044E+03  0.00000000000E+00 0.  1.
         21    1    1    2  504  503 -0.34809612588E+02  0.26497005749E+02  0.14154767868E+03  0.14815379098E+03  0.00000000000E+00 0.  1.
         21    1    1    2  505  502 -0.35700072303E+02 -0.32997527901E+02 -0.10540918625E+02  0.49743773233E+02  0.00000000000E+00 0.  1.
          2    1    1    2  501    0 -0.65025780918E+02 -0.14112590133E+02  0.48522009019E+03  0.48976122071E+03  0.00000000000E+00 0. -1.
<scales pt_clust_3="98.89332" pt_clust_4="43.74700" pt_clust_5="48.90875" pt_clust_6="14000.00000"></scales>
<clustering>
<clus scale="   43.747">  1  4  2 -1</clus>
<clus scale="   48.909">  2  5  1 -1</clus>
<clus scale="   98.893">  2  3  1 -1</clus>
<clus scale="   48.909">  2  3  1 -1</clus>
</clustering>
</event>
<event>
 6    0  0.3695460E+002  0.9183707E+02  0.7546771E-02  0.1298463E+00
         21   -1    0    0  503  502  0.00000000000E+00  0.00000000000E+00  0.14863033403E+02  0.14863033403E+02  0.00000000000E+00 0. -1.
          2   -1    0    0  505    0 -0.00000000000E+00 -0.00000000000E+00 -0.22017033203E+04  0.22017033203E+04  0.00000000000E+00 0. -1.
         21    1    1    2  503  501  0.45808315200E+02 -0.14938945704E+02 -0.11809459057E+03  0.12754570225E+03  0.00000000000E+00 0. -1.
         21    1    1    2  504  502 -0.50875234333E+02  0.15219342011E+02 -0.15279906597E+03  0.16176363127E+03  0.00000000000E+00 0. -1.
         21    1    1    2  505  504 -0.76263643564E+02 -0.49189633879E+02 -0.13793773580E+04  0.13823594537E+04  0.00000000000E+00 0. -1.
          2    1    1    2  501    0  0.81330562698E+02  0.48909237571E+02 -0.53656927235E+03  0.54489756651E+03  0.00000000000E+00 0. -1.
<scales pt_clust_3="48.18271" pt_clust_4="31.80966" pt_clust_5="14000.00000" pt_clust_6="91.83707"></scales>
<clustering>
<clus scale="   48.183">  1  3  2 -1</clus>
<clus scale="   31.810">  1  4  2 -1</clus>
<clus scale="   91.837">  1  6  2 -1</clus>
<clus scale="   48.183">  1  3  2 -1</clus>
</clustering>
</event>
<event>
 6    0  0.3695460E+002  0.2953734E+03  0.7546771E-02  0.1087577E+00
         21   -1    0    0  505  502  0.00000000000E+00  0.00000000000E+00  0.35179579038E+02  0.35179579038E+02  0.00000000000E+00 0.  1.
          1   -1    0    0  503    0 -0.00000000000E+00 -0.00000000000E+00 -0.24894778918E+04  0.24894778918E+04  0.00000000000E+00 0. -1.
         21    1    1    2  503  504  0.25230299520E+02  0.63141697627E+02 -0.20098570495E+03  0.21217609570E+03  0.00000000000E+00 0. -1.
         21    1    1    2  504  502  0.80035010110E+01  0.22490406341E+03 -0.90760876597E+03  0.93509334605E+03  0.00000000000E+00 0.  1.
         21    1    1    2  505  501 -0.14212853202E+02 -0.17956851300E+03 -0.93381334600E+03  0.95102798130E+03  0.00000000000E+00 0.  1.
          1    1    1    2  501    0 -0.19020947328E+02 -0.10847724803E+03 -0.41189049584E+03  0.42636004778E+03  0.00000000000E+00 0. -1.
<scales pt_clust_3="30.95122" pt_clust_4="30.95122" pt_clust_5="36.70966" pt_clust_6="293.73279"></scales>
<clustering>
<clus scale="   30.951">  3  4 -1 -1</clus>
<clus scale="   36.710">  5  6 -1 -1</clus>
<clus scale="  293.733">  2  5  1 -1</clus>
<clus scale="  295.373">  1  3  2 -1</clus>
</clustering>
</event>
<event>
 6    0  0.4276907E+002  0.3030686E+03  0.7546771E-02  0.1083717E+00
          2   -1    0    0  503    0 -0.00000000000E+00  0.00000000000E+00  0.10713484593E+04  0.10713484593E+04  0.00000000000E+00 0.  1.
         21   -1    0    0  504  502  0.00000000000E+00 -0.00000000000E+00 -0.84072782553E+03  0.84072782553E+03  0.00000000000E+00 0. -1.
         21    1    1    2  503  502 -0.27682563573E+02  0.18070496158E+02 -0.16223077068E+01  0.33098323819E+02  0.00000000000E+00 0.  1.
         21    1    1    2  504  505  0.18348863454E+02 -0.67198805134E+02 -0.16854561076E+02  0.71668936302E+02  0.00000000000E+00 0. -1.
         21    1    1    2  505  501  0.28575000524E+02 -0.25476344527E+03 -0.73434374975E+03  0.77780568685E+03  0.00000000000E+00 0. -1.
          2    1    1    2  501    0 -0.19241300406E+02  0.30389175425E+03  0.98344125226E+03  0.10295033378E+04  0.00000000000E+00 0.  1.
<scales pt_clust_3="33.05854" pt_clust_4="68.33997" pt_clust_5="14000.00000" pt_clust_6="303.06857"></scales>
<clustering>
<clus scale="   33.059">  2  3  1 -1</clus>
<clus scale="   68.340">  2  4  1 -1</clus>
<clus scale="  303.069">  1  6  2 -1</clus>
<clus scale="   33.059">  2  3  1 -1</clus>
</clustering>
</event>
<event>
 6    0  0.3695460E+002  0.4250884E+03  0.7546771E-02  0.1035423E+00
          1   -1    0    0  503    0 -0.00000000000E+00  0.00000000000E+00  0.20842778807E+04  0.20842778807E+04  0.00000000000E+00 0. -1.
         21   -1    0    0  501  502  0.00000000000E+00 -0.00000000000E+00 -0.89198686688E+03  0.89198686688E+03  0.00000000000E+00 0.  1.
         21    1    1    2  503  504  0.10701598476E+03  0.41541550655E+02  0.25160056532E+03  0.27655192260E+03  0.00000000000E+00 0.  1.
         21    1    1    2  504  505 -0.10481742349E+03  0.60413305582E+02 -0.32323950840E+03  0.34513800073E+03  0.00000000000E+00 0.  1.
         21    1    1    2  505  502 -0.28805681647E+03  0.76769428426E+02 -0.48726457377E+03  0.57122415872E+03  0.00000000000E+00 0.  1.
          1    1    1    2  501    0  0.28585825519E+03 -0.17872428466E+03  0.17511945306E+04  0.17833506655E+04  0.00000000000E+00 0. -1.
<scales pt_clust_3="114.79600" pt_clust_4="62.52608" pt_clust_5="62.52608" pt_clust_6="413.60208"></scales>
<clustering>
<clus scale="   62.526">  4  5 -1 -1</clus>
<clus scale="  114.796">  1  3  2 -1</clus>
<clus scale="  413.602">  1  6  2 -1</clus>
<clus scale="  425.088">  2  3  1 -1</clus>
</clustering>
</event>
<event>
 6    0  0.3695460E+002  0.1853672E+03  0.7546771E-02  0.1162707E+00
         21   -1    0    0  505  502  0.00000000000E+00  0.00000000000E+00  0.32271475689E+03  0.32271475689E+03  0.00000000000E+00 0.  1.
          2   -1    0    0  503    0 -0.00000000000E+00 -0.00000000000E+00 -0.14334186370E+04  0.14334186370E+04  0.00000000000E+00 0. -1.
         21    1    1    2  503  502 -0.78225297921E+02 -0.18578299178E+02  0.26042917611E+03  0.27255771170E+03  0.00000000000E+00 0.  1.
         21    1    1    2  504  501  0.10775400583E+03  0.65822985261E+02 -0.67539580922E+03  0.68709758424E+03  0.00000000000E+00 0. -1.
         21    1    1    2  505  504 -0.80623314111E+02 -0.57977827007E+02 -0.52354274964E+00  0.99306703197E+02  0.00000000000E+00 0. -1.
          2    1    1    2  501    0  0.51094606201E+02  0.10733140924E+02 -0.69521370426E+03  0.69717139478E+03  0.00000000000E+00 0. -1.
<scales pt_clust_3="80.40118" pt_clust_4="51.98765" pt_clust_5="166.80695" pt_clust_6="51.98765"></scales>
<clustering>
<clus scale="   51.988">  4  6 -1 -1</clus>
<clus scale="   80.401">  1  3  2 -1</clus>
<clus scale="  166.807">  1  5  2 -1</clus>
<clus scale="   80.401">  1  3  2 -1</clus>
</clustering>
</event>
<event>
 6    0  0.3695460E+002  0.4458049E+03  0.7546771E-02  0.1028980E+00
         -3   -1    0    0    0  501 -0.00000000000E+00  0.00000000000E+00  0.30817496832E+04  0.30817496832E+04  0.00000000000E+00 0. -1.
         21   -1    0    0  503  502  0.00000000000E+00 -0.00000000000E+00 -0.31041630848E+03  0.31041630848E+03  0.00000000000E+00 0. -1.
         21    1    1    2  503  505 -0.65792412695E+02  0.10388482636E+02 -0.10506250978E+03  0.12439731951E+03  0.00000000000E+00 0.  1.
         21    1    1    2  504  502  0.36397561214E+02 -0.93234435086E+02  0.31181281422E+03  0.32748232542E+03  0.00000000000E+00 0. -1.
         21    1    1    2  505  501 -0.14553346812E+03  0.34500989332E+03  0.18642521746E+02  0.37491247039E+03  0.00000000000E+00 0. -1.
         -3    1    1    2    0  504  0.17492831960E+03 -0.26216394087E+03  0.25459405486E+04  0.25653738764E+04  0.00000000000E+00 0. -1.
<scales pt_clust_3="66.60752" pt_clust_4="98.74958" pt_clust_5="409.69007" pt_clust_6="98.74958"></scales>
<clustering>
<clus scale="   66.608">  2  3  1 -1</clus>
<clus scale="   98.750">  4  6 -1 -1</clus>
<clus scale="  409.690">  2  5  1 -1</clus>
<clus scale="   66.608">  2  3  1 -1</clus>
</clustering>
</event>
<event>
 6    0  0.3695460E+002  0.1936556E+03  0.7546771E-02  0.1155205E+00
          2   -1    0    0  504    0 -0.00000000000E+00  0.00000000000E+00  0.43437857047E+04  0.43437857047E+04  0.00000000000E+00 0. -1.
         21   -1    0    0  503  502  0.00000000000E+00 -0.00000000000E+00 -0.64738961699E+03  0.64738961699E+03  0.00000000000E+00 0. -1.
         21    1    1    2  503  505  0.45946782641E+02 -0.18931731529E+03 -0.59740169449E+03  0.62836369825E+03  0.00000000000E+00 0. -1.
         21    1    1    2  504  502 -0.71651317561E+02  0.36904755211E+02  0.29477654971E+04  0.29488671211E+04  0.00000000000E+00 0. -1.
         21    1    1    2  505  501  0.58091860441E+02  0.18941086967E+03  0.26039970874E+03  0.32719894577E+03  0.00000000000E+00 0. -1.
          2    1    1    2  501    0 -0.32387325521E+02 -0.36998309594E+02  0.10856325765E+04  0.10867455566E+04  0.00000000000E+00 0. -1.
<scales pt_clust_3="14000.00000" pt_clust_4="101.02163" pt_clust_5="193.65561" pt_clust_6="49.17127"></scales>
<clustering>
<clus scale="   49.171">  1  6  2 -1</clus>
<clus scale="  101.022">  1  4  2 -1</clus>
<clus scale="  193.656">  1  5  2 -1</clus>
<clus scale="  193.656">  2  3  1 -1</clus>
</clustering>
</event>
<event>
 6    0  0.3695460E+002  0.2256657E+03  0.7546771E-02  0.1129728E+00
         21   -1    0    0  505  502  0.00000000000E+00  0.00000000000E+00  0.28127468031E+03  0.28127468031E+03  0.00000000000E+00 0.  1.
          2   -1    0    0  503    0 -0.00000000000E+00 -0.00000000000E+00 -0.27121367460E+04  0.27121367460E+04  0.00000000000E+00 0.  1.
         21    1    1    2  503  502 -0.64797822300E+02 -0.28926749183E+01 -0.96720484722E+03  0.96937729592E+03  0.00000000000E+00 0.  1.
         21    1    1    2  504  501  0.14698395186E+02  0.73881650841E+02  0.40022879667E+02  0.85301653260E+02  0.00000000000E+00 0. -1.
         21    1    1    2  505  504  0.12136732463E+03  0.75359804074E+02  0.18973894223E+03  0.23750788146E+03  0.00000000000E+00 0.  1.
          2    1    1    2  501    0 -0.71267897517E+02 -0.14634878000E+03 -0.16934190404E+04  0.17012245957E+04  0.00000000000E+00 0.  1.
<scales pt_clust_3="64.86236" pt_clust_4="74.96828" pt_clust_5="74.96828" pt_clust_6="200.73965"></scales>
<clustering>
<clus scale="   64.862">  2  3  1 -1</clus>
<clus scale="   74.968">  4  5 -1 -1</clus>
<clus scale="  200.740">  2  6  1 -1</clus>
<clus scale="  225.666">  1  3  2 -1</clus>
</clustering>
</event>
<event>
 6    0  0.3695460E+002  0.2202218E+03  0.7546771E-02  0.1133718E+00
          2   -1    0    0  505    0 -0.00000000000E+00  0.00000000000E+00  0.17637929926E+04  0.17637929926E+04  0.00000000000E+00 0.  1.
         21   -1    0    0  503  502  0.00000000000E+00 -0.00000000000E+00 -0.70617823766E+02  0.70617823766E+02  0.00000000000E+00 0.  1.
         21    1    1    2  503  501 -0.14879002035E+02 -0.64028365569E+02  0.37915796538E+03  0.38481395376E+03  0.00000000000E+00 0.  1.
         21    1    1    2  504  502 -0.17184170048E+02  0.31280321793E+02  0.60671863054E+02  0.70390547648E+02  0.00000000000E+00 0. -1.
         21    1    1    2  505  504 -0.37944661493E+02  0.16760034598E+03  0.69037264709E+02  0.18519129900E+03  0.00000000000E+00 0.  1.
          2    1    1    2  501    0  0.70007833576E+02 -0.13485230220E+03  0.11843080757E+04  0.11940150159E+04  0.00000000000E+00 0.  1.
<scales pt_clust_3="49.58090" pt_clust_4="35.01979" pt_clust_5="35.01979" pt_clust_6="219.71539"></scales>
<clustering>
<clus scale="   35.020">  4  5 -1 -1</clus>
<clus scale="   49.581">  3  6 -1 -1</clus>
<clus scale="  219.715">  1  3  2 -1</clus>
<clus scale="  220.222">  2  3  1 -1</clus>
</clustering>
</event>
<event>
 6    0  0.3695460E+002  0.8888270E+02  0.7546771E-02  0.1305580E+00
          2   -1    0    0  504    0 -0.00000000000E+00  0.00000000000E+00  0.23708185112E+04  0.23708185112E+04  0.00000000000E+00 0.  1.
         21   -1    0    0  505  502  0.00000000000E+00 -0.00000000000E+00 -0.23587531282E+03  0.23587531282E+03  0.00000000000E+00 0. -1.
         21    1    1    2  503  502 -0.47305824547E+02  0.13287321944E+02 -0.85627793201E+02  0.98724429241E+02  0.00000000000E+00 0. -1.
         21    1    1    2  504  503  0.31791911719E+02 -0.10149168193E+03 -0.11803368817E+03  0.15888120938E+03  0.00000000000E+00 0. -1.
         21    1    1    2  505  501  0.63349246478E+02  0.64397418530E+02  0.41394375288E+03  0.42368571500E+03  0.00000000000E+00 0.  1.
          2    1    1    2  501    0 -0.47835333649E+02  0.23806941453E+02  0.19246609269E+04  0.19254024704E+04  0.00000000000E+00 0.  1.
<scales pt_clust_3="49.13648" pt_clust_4="14000.00000" pt_clust_5="88.88270" pt_clust_6="53.55666"></scales>
<clustering>
<clus scale="   49.136">  2  3  1 -1</clus>
<clus scale="   53.557">  1  6  2 -1</clus>
<clus scale="   88.883">  1  5  2 -1</clus>
<clus scale="   49.136">  2  3  1 -1</clus>
</clustering>
</event>
<event>
 6    0  0.3695460E+002  0.1597504E+03  0.7546771E-02  0.1188979E+00
         -1   -1    0    0    0  501 -0.00000000000E+00  0.00000000000E+00  0.47289218148E+02  0.47289218148E+02  0.00000000000E+00 0.  1.
         21   -1    0    0  505  502  0.00000000000E+00 -0.00000000000E+00 -0.17542465380E+04  0.17542465380E+04  0.00000000000E+00 0.  1.
         21    1    1    2  503  502  0.79959338777E+01  0.66581049014E+02 -0.51598932294E+03  0.52032869653E+03  0.00000000000E+00 0.  1.
         21    1    1    2  504  503  0.11510532210E+02  0.73209912733E+02 -0.89574345343E+02  0.11625724501E+03  0.00000000000E+00 0.  1.
         21    1    1    2  505  501  0.21097133094E+02 -0.20028492013E+03 -0.10643125042E+04  0.10831990791E+04  0.00000000000E+00 0.  1.
         -1    1    1    2    0  504 -0.40603599182E+02  0.60493958385E+02 -0.37081147300E+02  0.81750735487E+02  0.00000000000E+00 0.  1.
<scales pt_clust_3="67.05946" pt_clust_4="66.08601" pt_clust_5="145.18187" pt_clust_6="66.08601"></scales>
<clustering>
<clus scale="   66.086">  4  6 -1 -1</clus>
<clus scale="   67.059">  2  3  1 -1</clus>
<clus scale="  145.182">  2  5  1 -1</clus>
<clus scale="   67.059">  2  3  1 -1</clus>
</clustering>
</event>
<event>
 6    0  0.3695460E+002  0.1284662E+03  0.7546771E-02  0.1229749E+00
          4   -1    0    0  505    0 -0.00000000000E+00  0.00000000000E+00  0.20245948060E+03  0.20245948060E+03  0.00000000000E+00 0. -1.
         21   -1    0    0  503  502  0.00000000000E+00 -0.00000000000E+00 -0.13265266089E+04  0.13265266089E+04  0.00000000000E+00 0. -1.
         21    1    1    2  503  504  0.21689370945E+01 -0.49315696464E+02 -0.71018270053E+03  0.71189620756E+03  0.00000000000E+00 0. -1.
         21    1    1    2  504  501 -0.41138705299E+02  0.30949491297E+02 -0.38815587854E+02  0.64474133927E+02  0.00000000000E+00 0. -1.
         21    1    1    2  505  502 -0.78134722852E+02 -0.38574999261E+02 -0.53745274332E+03  0.54447085945E+03  0.00000000000E+00 0. -1.
          4    1    1    2  501    0  0.11710449106E+03  0.56941204429E+02  0.16238390336E+03  0.20814488862E+03  0.00000000000E+00 0. -1.
<scales pt_clust_3="49.36337" pt_clust_4="48.95209" pt_clust_5="128.46622" pt_clust_6="14000.00000"></scales>
<clustering>
<clus scale="   49.363">  2  3  1 -1</clus>
<clus scale="   48.952">  2  4  1 -1</clus>
<clus scale="  128.466">  2  5  1 -1</clus>
<clus scale="   49.363">  2  3  1 -1</clus>
</clustering>
</event>
<event>
 6    0  0.3695460E+002  0.1220476E+03  0.7546771E-02  0.1239757E+00
          2   -1    0    0  505    0 -0.00000000000E+00  0.00000000000E+00  0.15492302721E+04  0.15492302721E+04  0.00000000000E+00 0. -1.
         21   -1    0    0  503  502  0.00000000000E+00 -0.00000000000E+00 -0.32609383717E+02  0.32609383717E+02  0.00000000000E+00 0. -1.
         21    1    1    2  503  501  0.83395623823E+02 -0.13442195084E+02  0.93894366668E+02  0.12629993972E+03  0.00000000000E+00 0. -1.
         21    1    1    2  504  502  0.34548273617E+02 -0.80433177821E+02  0.16913488254E+03  0.19044602331E+03  0.00000000000E+00 0. -1.
         21    1    1    2  505  504 -0.56341425005E+01  0.48831148636E+02  0.37541905620E+03  0.37862341765E+03  0.00000000000E+00 0.  1.
          2    1    1    2  501    0 -0.11230975494E+03  0.45044224270E+02  0.87817258301E+03  0.88647027516E+03  0.00000000000E+00 0. -1.
<scales pt_clust_3="14000.00000" pt_clust_4="80.34542" pt_clust_5="49.15511" pt_clust_6="122.04757"></scales>
<clustering>
<clus scale="   49.155">  1  5  2 -1</clus>
<clus scale="   80.345">  2  4  1 -1</clus>
<clus scale="  122.048">  1  6  2 -1</clus>
<clus scale="   80.345">  2  3  1 -1</clus>
</clustering>
</event>
<event>
 6    0  0.3695460E+002  0.2731208E+03  0.7546771E-02  0.1099507E+00
         21   -1    0    0  505  502  0.00000000000E+00  0.00000000000E+00  0.18955302734E+03  0.18955302734E+03  0.00000000000E+00 0. -1.
          2   -1    0    0  504    0 -0.00000000000E+00 -0.00000000000E+00 -0.19265683351E+04  0.19265683351E+04  0.00000000000E+00 0. -1.
         21    1    1    2  503  501  0.92466093632E+02  0.11543267963E+03 -0.86564328113E+03  0.87818732180E+03  0.00000000000E+00 0. -1.
         21    1    1    2  504  502 -0.16883459854E+03 -0.15114225230E+03  0.61705328506E+02  0.23485452872E+03  0.00000000000E+00 0. -1.
         21    1    1    2  505  503  0.11407396904E+02 -0.73806683460E+02 -0.14950326924E+02  0.76164739234E+02  0.00000000000E+00 0.  1.
          2    1    1    2  501    0  0.64961108001E+02  0.10951625613E+03 -0.91812702823E+03  0.92691477272E+03  0.00000000000E+00 0. -1.
<scales pt_clust_3="31.76107" pt_clust_4="270.96727" pt_clust_5="74.68303" pt_clust_6="31.76107"></scales>
<clustering>
<clus scale="   31.761">  3  6 -1 -1</clus>
<clus scale="   74.683">  1  5  2 -1</clus>
<clus scale="  270.967">  1  4  2 -1</clus>
<clus scale="   74.683">  1  3  2 -1</clus>
</clustering>
</event>
<event>
 6    0  0.3695460E+002  0.1833513E+03  0.7546771E-02  0.1164599E+00
          1   -1    0    0  502    0 -0.00000000000E+00  0.00000000000E+00  0.11426371148E+03  0.11426371148E+03  0.00000000000E+00 0. -1.
         21   -1    0    0  505  502  0.00000000000E+00 -0.00000000000E+00 -0.58476644792E+03  0.58476644792E+03  0.00000000000E+00 0. -1.
         21    1    1    2  503  501  0.49161802685E+02 -0.16010778896E+02 -0.15870251252E+02  0.54084126681E+02  0.00000000000E+00 0.  1.
         21    1    1    2  504  503 -0.94314762378E+02  0.76563695897E+02 -0.24585866901E+03  0.27423303787E+03  0.00000000000E+00 0. -1.
         21    1    1    2  505  504 -0.25414068394E+02  0.43397336643E+02 -0.23671952662E+03  0.24200276442E+03  0.00000000000E+00 0. -1.
          1    1    1    2  501    0  0.70567028088E+02 -0.10395025364E+03  0.27945710440E+02  0.12871023043E+03  0.00000000000E+00 0. -1.
<scales pt_clust_3="43.23487" pt_clust_4="45.00282" pt_clust_5="45.00282" pt_clust_6="182.39507"></scales>
<clustering>
<clus scale="   43.235">  3  6 -1 -1</clus>
<clus scale="   45.003">  4  5 -1 -1</clus>
<clus scale="  182.395">  1  3  2 -1</clus>
<clus scale="  183.351">  2  3  1 -1</clus>
</clustering>
</event>
<event>
 6    0  0.3695460E+002  0.1008193E+03  0.7546771E-02  0.1278582E+00
          1   -1    0    0  504    0 -0.00000000000E+00  0.00000000000E+00  0.54271617598E+03  0.54271617598E+03  0.00000000000E+00 0.  1.
         21   -1    0    0  505  502  0.00000000000E+00 -0.00000000000E+00 -0.11914604729E+03  0.11914604729E+03  0.00000000000E+00 0.  1.
         21    1    1    2  503  501  0.73643439848E+02  0.28033224835E+01  0.24492133591E+02  0.77660024836E+02  0.00000000000E+00 0. -1.
         21    1    1    2  504  502 -0.89217549816E+02 -0.76001896370E+02  0.25564633167E+03  0.28123141067E+03  0.00000000000E+00 0.  1.
         21    1    1    2  505  503  0.41202570641E+02  0.43934530648E+02 -0.66350877978E+02  0.89612129866E+02  0.00000000000E+00 0.  1.
          1    1    1    2  501    0 -0.25628460673E+02  0.29264043239E+02  0.20978254141E+03  0.21335865791E+03  0.00000000000E+00 0.  1.
<scales pt_clust_3="14000.00000" pt_clust_4="100.81931" pt_clust_5="60.38129" pt_clust_6="38.89990"></scales>
<clustering>
<clus scale="   38.900">  1  6  2 -1</clus>
<clus scale="   60.381">  2  5  1 -1</clus>
<clus scale="  100.819">  1  4  2 -1</clus>
<clus scale="   60.381">  2  3  1 -1</clus>
</clustering>
</event>
<event>
 6    0  0.3695460E+002  0.1654732E+03  0.7546771E-02  0.1182653E+00
         21   -1    0    0  503  502  0.00000000000E+00  0.00000000000E+00  0.92777993197E+03  0.92777993197E+03  0.00000000000E+00 0. -1.
          1   -1    0    0  505    0 -0.00000000000E+00 -0.00000000000E+00 -0.20086258533E+03  0.20086258533E+03  0.00000000000E+00 0. -1.
         21    1    1    2  503  504 -0.10358227390E+03  0.87381622459E+02  0.69263780894E+03  0.70577047953E+03  0.00000000000E+00 0. -1.
         21    1    1    2  504  501  0.42495618850E+02 -0.35747236274E+01 -0.87408581626E+01  0.43532273912E+02  0.00000000000E+00 0.  1.
         21    1    1    2  505  502 -0.52692638431E+02 -0.70847816277E+02  0.18018555918E+03  0.20065583209E+03  0.00000000000E+00 0. -1.
          1    1    1    2  501    0  0.11377929348E+03 -0.12959082554E+02 -0.13716516331E+03  0.17868393176E+03  0.00000000000E+00 0. -1.
<scales pt_clust_3="154.87129" pt_clust_4="35.56371" pt_clust_5="88.29455" pt_clust_6="35.56371"></scales>
<clustering>
<clus scale="   35.564">  4  6 -1 -1</clus>
<clus scale="   88.295">  1  5  2 -1</clus>
<clus scale="  154.871">  1  3  2 -1</clus>
<clus scale="   88.295">  1  3  2 -1</clus>
</clustering>
</event>
<event>
 6    0  0.3695460E+002  0.1370169E+03  0.7546771E-02  0.1217400E+00
         21   -1    0    0  505  502  0.00000000000E+00  0.00000000000E+00  0.28969690518E+02  0.28969690518E+02  0.00000000000E+00 0. -1.
         -3   -1    0    0    0  501 -0.00000000000E+00 -0.00000000000E+00 -0.19390379113E+04  0.19390379113E+04  0.00000000000E+00 0.  1.
         21    1    1    2  503  504 -0.40527673914E+02  0.30206932061E+02 -0.75896368496E+02  0.91187772471E+02  0.00000000000E+00 0. -1.
         21    1    1    2  504  502 -0.89080723867E+02 -0.14027398737E+02 -0.98446494450E+02  0.13350601316E+03  0.00000000000E+00 0. -1.
         21    1    1    2  505  501  0.45401656333E+02  0.10318106393E+01 -0.19603568564E+03  0.20122714796E+03  0.00000000000E+00 0.  1.
         -3    1    1    2    0  503  0.84206741448E+02 -0.17211343964E+02 -0.15396896722E+04  0.15420866683E+04  0.00000000000E+00 0.  1.
<scales pt_clust_3="41.22314" pt_clust_4="41.22314" pt_clust_5="45.41338" pt_clust_6="125.46663"></scales>
<clustering>
<clus scale="   41.223">  3  4 -1 -1</clus>
<clus scale="   45.413">  2  5  1 -1</clus>
<clus scale="  125.467">  2  6  1 -1</clus>
<clus scale="  137.017">  1  3  2 -1</clus>
</clustering>
</event>
<event>
 6    0  0.3695460E+002  0.1279983E+03  0.7546771E-02  0.1230456E+00
          2   -1    0    0  505    0 -0.00000000000E+00  0.00000000000E+00  0.42193675852E+04  0.42193675852E+04  0.00000000000E+00 0. -1.
         21   -1    0    0  501  502  0.00000000000E+00 -0.00000000000E+00 -0.67384301510E+03  0.67384301510E+03  0.00000000000E+00 0.  1.
         21    1    1    2  503  504  0.78822650241E+02  0.19012627011E+02 -0.18674018606E+03  0.20358385807E+03  0.00000000000E+00 0.  1.
         21    1    1    2  504  502 -0.15513518671E+02  0.60932977416E+02 -0.47122026020E+03  0.47539670867E+03  0.00000000000E+00 0.  1.
         21    1    1    2  505  503 -0.11385644737E+03  0.50990951928E+02  0.10120237440E+04  0.10196839835E+04  0.00000000000E+00 0. -1.
          2    1    1    2  501    0  0.50547315798E+02 -0.13093655635E+03  0.31914612724E+04  0.31945460501E+04  0.00000000000E+00 0. -1.
<scales pt_clust_3="100.96432" pt_clust_4="62.87684" pt_clust_5="14000.00000" pt_clust_6="127.99834"></scales>
<clustering>
<clus scale="   62.877">  2  4  1 -1</clus>
<clus scale="  100.964">  2  3  1 -1</clus>
<clus scale="  127.998">  1  6  2 -1</clus>
<clus scale="   62.877">  2  3  1 -1</clus>
</clustering>
</event>
<event>
 6    0  0.3695460E+002  0.1359730E+03  0.7546771E-02  0.1218853E+00
         21   -1    0    0  505  502  0.00000000000E+00  0.00000000000E+00  0.20675512764E+03  0.20675512764E+03  0.00000000000E+00 0.  1.
          1   -1    0    0  504    0 -0.00000000000E+00 -0.00000000000E+00 -0.33782338061E+03  0.33782338061E+03  0.00000000000E+00 0. -1.
         21    1    1    2  503  501  0.85735387138E+02 -0.37886872719E+02 -0.17533916489E+03  0.19882101115E+03  0.00000000000E+00 0. -1.
         21    1    1    2  504  502 -0.65191446235E+02  0.98917550522E+02  0.14001469518E+03  0.18340861847E+03  0.00000000000E+00 0.  1.
         21    1    1    2  505  503 -0.31238344490E+02 -0.21136618526E+02  0.17668010926E+02  0.41650323159E+02  0.00000000000E+00 0.  1.
          1    1    1    2  501    0  0.10694403587E+02 -0.39894059276E+02 -0.11341179418E+03  0.12069855547E+03  0.00000000000E+00 0. -1.
<scales pt_clust_3="38.91087" pt_clust_4="122.96987" pt_clust_5="37.71725" pt_clust_6="38.91087"></scales>
<clustering>
<clus scale="   37.717">  1  5  2 -1</clus>
<clus scale="   38.911">  3  6 -1 -1</clus>
<clus scale="  122.970">  1  4  2 -1</clus>
<clus scale="   37.717">  1  3  2 -1</clus>
</clustering>
</event>
<event>
 6    0  0.3695460E+002  0.1357779E+03  0.7546771E-02  0.1219126E+00
         21   -1    0    0  505  502  0.00000000000E+00  0.00000000000E+00  0.72582940708E+02  0.72582940708E+02  0.00000000000E+00 0.  1.
          1   -1    0    0  503    0 -0.00000000000E+00 -0.00000000000E+00 -0.13911001419E+04  0.13911001419E+04  0.00000000000E+00 0. -1.
         21    1    1    2  503  504  0.75014007411E+02  0.29175387143E+02 -0.30152074306E+03  0.31207861673E+03  0.00000000000E+00 0. -1.
         21    1    1    2  504  502 -0.23777115703E+02 -0.25722636627E+02 -0.44143226870E+02  0.56352726151E+02  0.00000000000E+00 0.  1.
         21    1    1    2  505  501 -0.74708448514E+02 -0.84461315252E+02  0.58580509843E+01  0.11291316493E+03  0.00000000000E+00 0.  1.
          1    1    1    2  501    0  0.23471556806E+02  0.81008564737E+02 -0.97871128226E+03  0.98233857481E+03  0.00000000000E+00 0. -1.
<scales pt_clust_3="77.99734" pt_clust_4="35.02863" pt_clust_5="135.77790" pt_clust_6="14000.00000"></scales>
<clustering>
<clus scale="   35.029">  1  4  2 -1</clus>
<clus scale="   77.997">  2  3  1 -1</clus>
<clus scale="  135.778">  1  5  2 -1</clus>
<clus scale="   35.029">  1  3  2 -1</clus>
</clustering>
</event>
<event>
 6    0  0.3695460E+002  0.8350757E+02  0.7546771E-02  0.1319382E+00
          2   -1    0    0  504    0 -0.00000000000E+00  0.00000000000E+00  0.23392294072E+04  0.23392294072E+04  0.00000000000E+00 0. -1.
         21   -1    0    0  505  502  0.00000000000E+00 -0.00000000000E+00 -0.46365299761E+02  0.46365299761E+02  0.00000000000E+00 0.  1.
         21    1    1    2  503  502 -0.10019370875E+02 -0.10038668178E+03  0.21560827230E+03  0.23804369505E+03  0.00000000000E+00 0.  1.
         21    1    1    2  504  503 -0.36459712715E+02 -0.12620856829E+02  0.15750503860E+03  0.16216175215E+03  0.00000000000E+00 0.  1.
         21    1    1    2  505  501  0.32922985041E+02  0.73552625673E+02  0.17223812060E+02  0.82404923332E+02  0.00000000000E+00 0.  1.
          2    1    1    2  501    0  0.13556098549E+02  0.39454912940E+02  0.19025269844E+04  0.19029843364E+04  0.00000000000E+00 0. -1.
<scales pt_clust_3="14000.00000" pt_clust_4="38.58234" pt_clust_5="83.50757" pt_clust_6="33.80250"></scales>
<clustering>
<clus scale="   38.582">  1  4  2 -1</clus>
<clus scale="   33.802">  1  6  2 -1</clus>
<clus scale="   83.508">  2  5  1 -1</clus>
<clus scale="   83.508">  2  3  1 -1</clus>
</clustering>
</event>
<event>
 6    0  0.3695460E+002  0.1075080E+03  0.7546771E-02  0.1265256E+00
         21   -1    0    0  505  502  0.00000000000E+00  0.00000000000E+00  0.10141985170E+03  0.10141985170E+03  0.00000000000E+00 0. -1.
          2   -1    0    0  503    0 -0.00000000000E+00 -0.00000000000E+00 -0.12918868733E+04  0.12918868733E+04  0.00000000000E+00 0.  1.
         21    1    1    2  503  504 -0.26318501799E+02  0.83080224503E+02 -0.74264140261E+03  0.74773741387E+03  0.00000000000E+00 0.  1.
         21    1    1    2  504  502 -0.30797729707E+02  0.15732773713E+02 -0.45748259073E+02  0.57349137151E+02  0.00000000000E+00 0.  1.
         21    1    1    2  505  501  0.11256419721E+03 -0.88468759399E+02  0.35108223882E+02  0.14741101474E+03  0.00000000000E+00 0. -1.
          2    1    1    2  501    0 -0.55447965702E+02 -0.10344238817E+02 -0.43718558380E+03  0.44080915923E+03  0.00000000000E+00 0.  1.
<scales pt_clust_3="14000.00000" pt_clust_4="34.58353" pt_clust_5="107.50798" pt_clust_6="56.92500"></scales>
<clustering>
<clus scale="   34.584">  1  4  2 -1</clus>
<clus scale="   56.925">  2  6  1 -1</clus>
<clus scale="  107.508">  1  5  2 -1</clus>
<clus scale="   34.584">  1  3  2 -1</clus>
</clustering>
</event>
<event>
 6    0  0.3695460E+002  0.3217970E+03  0.7546771E-02  0.1074825E+00
         21   -1    0    0  505  502  0.00000000000E+00  0.00000000000E+00  0.46356917274E+03  0.46356917274E+03  0.00000000000E+00 0.  1.
         -2   -1    0    0    0  501 -0.00000000000E+00 -0.00000000000E+00 -0.10574388873E+04  0.10574388873E+04  0.00000000000E+00 0.  1.
         21    1    1    2  503  502 -0.64996949267E+01 -0.22059061047E+03  0.35552695156E+03  0.41845176155E+03  0.00000000000E+00 0.  1.
         21    1    1    2  504  503 -0.49220122327E+01  0.54677575092E+02 -0.79793484320E+02  0.96854858228E+02  0.00000000000E+00 0.  1.
         21    1    1    2  505  501 -0.46575665413E+02 -0.87099550740E+02 -0.61464266168E+00  0.98772476598E+02  0.00000000000E+00 0. -1.
         -2    1    1    2    0  504  0.57997372573E+02  0.25301258611E+03 -0.86898853911E+03  0.90692896363E+03  0.00000000000E+00 0.  1.
<scales pt_clust_3="306.02107" pt_clust_4="45.76820" pt_clust_5="98.77056" pt_clust_6="45.76820"></scales>
<clustering>
<clus scale="   45.768">  4  6 -1 -1</clus>
<clus scale="   98.771">  1  5  2 -1</clus>
<clus scale="  306.021">  1  3  2 -1</clus>
<clus scale="   98.771">  1  3  2 -1</clus>
</clustering>
</event>
<event>
 6    0  0.3695460E+002  0.1137629E+03  0.7546771E-02  0.1253756E+00
         21   -1    0    0  504  502  0.00000000000E+00  0.00000000000E+00  0.53196008002E+03  0.53196008002E+03  0.00000000000E+00 0. -1.
         -1   -1    0    0    0  501 -0.00000000000E+00 -0.00000000000E+00 -0.12584987126E+03  0.12584987126E+03  0.00000000000E+00 0.  1.
         21    1    1    2  503  505 -0.65883613452E+02 -0.61226210349E+02  0.28457800028E+03  0.29845257178E+03  0.00000000000E+00 0. -1.
         21    1    1    2  504  501  0.47721649770E+02 -0.69210137484E+02 -0.25077114651E+02  0.87728334457E+02  0.00000000000E+00 0.  1.
         21    1    1    2  505  502 -0.51313791983E+02  0.15728291699E+02  0.12467941252E+03  0.13574034152E+03  0.00000000000E+00 0. -1.
         -1    1    1    2    0  503  0.69475755665E+02  0.11470805614E+03  0.21929910602E+02  0.13588870353E+03  0.00000000000E+00 0.  1.
<scales pt_clust_3="14000.00000" pt_clust_4="80.82870" pt_clust_5="53.67014" pt_clust_6="113.76288"></scales>
<clustering>
<clus scale="   53.670">  1  5  2 -1</clus>
<clus scale="   80.829">  2  4  1 -1</clus>
<clus scale="  113.763">  2  6  1 -1</clus>
<clus scale="   53.670">  1  3  2 -1</clus>
</clustering>
</event>
<event>
 6    0  0.3695460E+002  0.1185648E+03  0.7546771E-02  0.1245484E+00
         -1   -1    0    0    0  501 -0.00000000000E+00  0.00000000000E+00  0.24746957521E+03  0.24746957521E+03  0.00000000000E+00 0.  1.
         21   -1    0    0  504  502  0.00000000000E+00 -0.00000000000E+00 -0.20344288298E+03  0.20344288298E+03  0.00000000000E+00 0.  1.
         21    1    1    2  503  502  0.38347013071E+02  0.64770730153E+02 -0.11587168228E+03  0.13817375890E+03  0.00000000000E+00 0.  1.
         21    1    1    2  504  501  0.71482888191E+02 -0.21481016429E+02 -0.33836558132E+02  0.81952120395E+02  0.00000000000E+00 0. -1.
         21    1    1    2  505  503 -0.47577207838E+02 -0.19736586655E+02  0.47286428651E+02  0.69922313269E+02  0.00000000000E+00 0.  1.
         -1    1    1    2    0  505 -0.62252693425E+02 -0.23553127069E+02  0.14644850399E+03  0.16086426562E+03  0.00000000000E+00 0.  1.
<scales pt_clust_3="110.74748" pt_clust_4="74.64072" pt_clust_5="37.24588" pt_clust_6="37.24588"></scales>
<clustering>
<clus scale="   37.246">  5  6 -1 -1</clus>
<clus scale="   74.641">  2  4  1 -1</clus>
<clus scale="  110.747">  2  3  1 -1</clus>
<clus scale="   74.641">  2  3  1 -1</clus>
</clustering>
</event>
<event>
 6    0  0.3695460E+002  0.9978506E+02  0.7546771E-02  0.1280749E+00
         21   -1    0    0  501  502  0.00000000000E+00  0.00000000000E+00  0.19670472744E+03  0.19670472744E+03  0.00000000000E+00 0. -1.
          2   -1    0    0  504    0 -0.00000000000E+00 -0.00000000000E+00 -0.34128460929E+04  0.34128460929E+04  0.00000000000E+00 0.  1.
         21    1    1    2  503  505  0.54054492702E+02 -0.33811673505E+02  0.10204724302E+03  0.12032770776E+03  0.00000000000E+00 0. -1.
         21    1    1    2  504  503 -0.16184664792E+02 -0.51035189415E+02 -0.31345982953E+03  0.31799936896E+03  0.00000000000E+00 0.  1.
         21    1    1    2  505  502  0.31948448856E+02  0.14349634345E+02  0.78730230664E+02  0.86168814606E+02  0.00000000000E+00 0. -1.
          2    1    1    2  501    0 -0.69818276766E+02  0.70497228575E+02 -0.30834590096E+04  0.30850549290E+04  0.00000000000E+00 0.  1.
<scales pt_clust_3="34.64485" pt_clust_4="53.54002" pt_clust_5="34.64485" pt_clust_6="88.15904"></scales>
<clustering>
<clus scale="   34.645">  3  5 -1 -1</clus>
<clus scale="   53.540">  2  4  1 -1</clus>
<clus scale="   88.159">  2  6  1 -1</clus>
<clus scale="   99.785">  1  3  2 -1</clus>
</clustering>
</event>
<event>
 6    0  0.3695460E+002  0.1397511E+03  0.7546771E-02  0.1213664E+00
         21   -1    0    0  505  502  0.00000000000E+00  0.00000000000E+00  0.85776866538E+02  0.85776866538E+02  0.00000000000E+00 0. -1.
         -4   -1    0    0    0  501 -0.00000000000E+00 -0.00000000000E+00 -0.16035823058E+04  0.16035823058E+04  0.00000000000E+00 0. -1.
         21    1    1    2  503  502  0.23616612381E+02  0.41056371583E+02 -0.59121417400E+02  0.75754287161E+02  0.00000000000E+00 0.  1.
         21    1    1    2  504  501  0.19759628914E+02  0.30535161756E+02  0.12248813948E+02  0.38378020811E+02  0.00000000000E+00 0. -1.
         21    1    1    2  505  504  0.67916104452E+02  0.22220138118E+01  0.25698254306E+02  0.72649396857E+02  0.00000000000E+00 0. -1.
         -4    1    1    2    0  503 -0.11129234575E+03 -0.73813547150E+02 -0.14966310901E+04  0.15025774675E+04  0.00000000000E+00 0. -1.
<scales pt_clust_3="47.36423" pt_clust_4="33.74132" pt_clust_5="33.74132" pt_clust_6="131.92164"></scales>
<clustering>
<clus scale="   33.741">  4  5 -1 -1</clus>
<clus scale="   47.364">  1  3  2 -1</clus>
<clus scale="  131.922">  2  6  1 -1</clus>
<clus scale="   47.364">  1  3  2 -1</clus>
</clustering>
</event>
<event>
 6    0  0.3695460E+002  0.3809783E+03  0.7546771E-02  0.1050573E+00
         -2   -1    0    0    0  501 -0.00000000000E+00  0.00000000000E+00  0.71692368215E+03  0.71692368215E+03  0.00000000000E+00 0.  1.
         21   -1    0    0  501  502  0.00000000000E+00 -0.00000000000E+00 -0.72281815313E+03  0.72281815313E+03  0.00000000000E+00 0.  1.
         21    1    1    2  503  505 -0.70071187403E+02 -0.17310230741E+02 -0.89745470351E+02  0.11516885361E+03  0.00000000000E+00 0.  1.
         21    1    1    2  504  503  0.88744580920E+02 -0.89916944262E+01  0.30332467124E+03  0.31616816316E+03  0.00000000000E+00 0. -1.
         21    1    1    2  505  502 -0.27798923308E+03  0.63928301747E+02 -0.53012848864E+03  0.60199755476E+03  0.00000000000E+00 0.  1.
         -2    1    1    2    0  504  0.25931583956E+03 -0.37626376580E+02  0.31065481676E+03  0.40640726376E+03  0.00000000000E+00 0.  1.
<scales pt_clust_3="41.37274" pt_clust_4="86.19492" pt_clust_5="360.67150" pt_clust_6="86.19492"></scales>
<clustering>
<clus scale="   41.373">  3  5 -1 -1</clus>
<clus scale="   86.195">  4  6 -1 -1</clus>
<clus scale="  360.672">  2  3  1 -1</clus>
<clus scale="  360.672">  2  3  1 -1</clus>
</clustering>
</event>
<event>
 6    0  0.3695460E+002  0.1587464E+03  0.7546771E-02  0.1190119E+00
         21   -1    0    0  503  502  0.00000000000E+00  0.00000000000E+00  0.10210514207E+03  0.10210514207E+03  0.00000000000E+00 0. -1.
          2   -1    0    0  505    0 -0.00000000000E+00 -0.00000000000E+00 -0.17436351793E+04  0.17436351793E+04  0.00000000000E+00 0. -1.
         21    1    1    2  503  504  0.49643906857E+02  0.43504245542E+02 -0.80912247080E+02  0.10442187796E+03  0.00000000000E+00 0.  1.
         21    1    1    2  504  501 -0.13987012663E+02 -0.54282725160E+02 -0.42195194108E+03  0.42565912578E+03  0.00000000000E+00 0. -1.
         21    1    1    2  505  502  0.51788350051E+02  0.62512970963E+02  0.67283739204E+02  0.10543721497E+03  0.00000000000E+00 0. -1.
          2    1    1    2  501    0 -0.87445244245E+02 -0.51734491345E+02 -0.12059495883E+04  0.12102221027E+04  0.00000000000E+00 0. -1.
<scales pt_clust_3="66.00861" pt_clust_4="49.91455" pt_clust_5="143.82131" pt_clust_6="49.91455"></scales>
<clustering>
<clus scale="   49.915">  4  6 -1 -1</clus>
<clus scale="   66.009">  1  3  2 -1</clus>
<clus scale="  143.821">  1  5  2 -1</clus>
<clus scale="   66.009">  1  3  2 -1</clus>
</clustering>
</event>
<event>
 6    0  0.3695460E+002  0.3006029E+03  0.7546771E-02  0.1084940E+00
          1   -1    0    0  502    0 -0.00000000000E+00  0.00000000000E+00  0.10135910637E+03  0.10135910637E+03  0.00000000000E+00 0.  1.
         21   -1    0    0  505  502  0.00000000000E+00 -0.00000000000E+00 -0.15644042619E+04  0.15644042619E+04  0.00000000000E+00 0.  1.
         21    1    1    2  503  504  0.27144743313E+03  0.15414239507E+03 -0.38003328230E+03  0.49180166995E+03  0.00000000000E+00 0.  1.
         21    1    1    2  504  501 -0.70986642574E+02 -0.23575996394E+02 -0.15676146274E+03  0.17369250769E+03  0.00000000000E+00 0.  1.
         21    1    1    2  505  503 -0.52382730897E+02  0.34332895898E+01 -0.68533366709E+03  0.68734123491E+03  0.00000000000E+00 0.  1.
          1    1    1    2  501    0 -0.14807805966E+03 -0.13399968826E+03 -0.24091674337E+03  0.31292795567E+03  0.00000000000E+00 0.  1.
<scales pt_clust_3="290.74043" pt_clust_4="46.73727" pt_clust_5="52.49512" pt_clust_6="46.73727"></scales>
<clustering>
<clus scale="   46.737">  4  6 -1 -1</clus>
<clus scale="   52.495">  2  5  1 -1</clus>
<clus scale="  290.740">  2  3  1 -1</clus>
<clus scale="   52.495">  2  3  1 -1</clus>
</clustering>
</event>
<event>
 6    0  0.3695460E+002  0.7553721E+02  0.7546771E-02  0.1342215E+00
          2   -1    0    0  504    0 -0.00000000000E+00  0.00000000000E+00  0.16151247486E+04  0.16151247486E+04  0.00000000000E+00 0.  1.
         21   -1    0    0  503  502  0.00000000000E+00 -0.00000000000E+00 -0.47942522828E+02  0.47942522828E+02  0.00000000000E+00 0.  1.
         21    1    1    2  503  505  0.54505849600E+02 -0.67535057962E+02  0.35777979646E+02  0.93871910187E+02  0.00000000000E+00 0.  1.
         21    1    1    2  504  502 -0.36516339822E+02  0.33737276976E+02  0.50035897823E+03  0.50282278590E+03  0.00000000000E+00 0.  1.
         21    1    1    2  505  501 -0.66745268327E+02  0.21013122925E+02  0.54936987734E+02  0.88963783645E+02  0.00000000000E+00 0. -1.
          2    1    1    2  501    0  0.48755758548E+02  0.12784658061E+02  0.97610828013E+03  0.97740879166E+03  0.00000000000E+00 0.  1.
<scales pt_clust_3="14000.00000" pt_clust_4="49.71566" pt_clust_5="75.53721" pt_clust_6="45.55886"></scales>
<clustering>
<clus scale="   49.716">  1  4  2 -1</clus>
<clus scale="   45.559">  1  6  2 -1</clus>
<clus scale="   75.537">  1  5  2 -1</clus>
<clus scale="   75.537">  2  3  1 -1</clus>
</clustering>
</event>
<event>
 6    0  0.3695460E+002  0.1164373E+03  0.7546771E-02  0.1249093E+00
         -3   -1    0    0    0  501 -0.00000000000E+00  0.00000000000E+00  0.81714826757E+02  0.81714826757E+02  0.00000000000E+00 0. -1.
         21   -1    0    0  505  502  0.00000000000E+00 -0.00000000000E+00 -0.22569723773E+04  0.22569723773E+04  0.00000000000E+00 0. -1.
         21    1    1    2  503  502  0.16084646848E+03  0.10054234483E+03 -0.93173206058E+03  0.95084435227E+03  0.00000000000E+00 0. -1.
         21    1    1    2  504  501  0.22732767390E+02 -0.64332440378E+02 -0.15001852701E+02  0.69860555270E+02  0.00000000000E+00 0. -1.
         21    1    1    2  505  504 -0.89838425899E+02 -0.45401986974E+02 -0.12191814099E+04  0.12233297158E+04  0.00000000000E+00 0. -1.
         -3    1    1    2    0  503 -0.93740809969E+02  0.91920825203E+01 -0.93422273643E+01  0.94652580772E+02  0.00000000000E+00 0. -1.
<scales pt_clust_3="14000.00000" pt_clust_4="68.23080" pt_clust_5="116.43734" pt_clust_6="86.41746"></scales>
<clustering>
<clus scale="   68.231">  1  4  2 -1</clus>
<clus scale="   86.417">  1  6  2 -1</clus>
<clus scale="  116.437">  2  5  1 -1</clus>
<clus scale="  116.437">  2  3  1 -1</clus>
</clustering>
</event>
<event>
 6    0  0.3695460E+002  0.8031423E+02  0.7546771E-02  0.1328162E+00
          2   -1    0    0  505    0 -0.00000000000E+00  0.00000000000E+00  0.12310042387E+04  0.12310042387E+04  0.00000000000E+00 0.  1.
         21   -1    0    0  504  502  0.00000000000E+00 -0.00000000000E+00 -0.56482809433E+02  0.56482809433E+02  0.00000000000E+00 0.  1.
         21    1    1    2  503  502 -0.62391146590E+02 -0.79205728484E+02  0.92099910848E+01  0.10124735322E+03  0.00000000000E+00 0.  1.
         21    1    1    2  504  501 -0.17954923140E+02  0.55072258262E+02  0.10342474420E+03  0.11854117685E+03  0.00000000000E+00 0.  1.
         21    1    1    2  505  503  0.12310914425E+02  0.35181788546E+02  0.23427967698E+03  0.23722622938E+03  0.00000000000E+00 0.  1.
          2    1    1    2  501    0  0.68035155305E+02 -0.11048318323E+02  0.82760701704E+03  0.83047228873E+03  0.00000000000E+00 0.  1.
<scales pt_clust_3="14000.00000" pt_clust_4="61.28157" pt_clust_5="37.27354" pt_clust_6="80.31423"></scales>
<clustering>
<clus scale="   37.274">  1  5  2 -1</clus>
<clus scale="   61.282">  2  4  1 -1</clus>
<clus scale="   80.314">  1  6  2 -1</clus>
<clus scale="   61.282">  2  3  1 -1</clus>
</clustering>
</event>
<event>
 6    0  0.3695460E+002  0.1674345E+03  0.7546771E-02  0.1180550E+00
         21   -1    0    0  504  502  0.00000000000E+00  0.00000000000E+00  0.42667413124E+03  0.42667413124E+03  0.00000000000E+00 0.  1.
          1   -1    0    0  505    0 -0.00000000000E+00 -0.00000000000E+00 -0.30389509146E+04  0.30389509146E+04  0.00000000000E+00 0. -1.
         21    1    1    2  503  502  0.25710181586E+02 -0.31242089212E+02  0.57067403061E+02  0.69955486330E+02  0.00000000000E+00 0. -1.
         21    1    1    2  504  501  0.25590395298E+02 -0.79199051506E+02  0.34140704782E+03  0.35140593391E+03  0.00000000000E+00 0.  1.
         21    1    1    2  505  503  0.62441339450E+02 -0.13290070311E+02 -0.56547087663E+02  0.85282588870E+02  0.00000000000E+00 0. -1.
          1    1    1    2  501    0 -0.11374191634E+03  0.12373121103E+03 -0.29542041466E+04  0.29589810367E+04  0.00000000000E+00 0. -1.
<scales pt_clust_3="40.46086" pt_clust_4="14000.00000" pt_clust_5="65.09984" pt_clust_6="167.43451"></scales>
<clustering>
<clus scale="   40.461">  1  3  2 -1</clus>
<clus scale="   65.100">  1  5  2 -1</clus>
<clus scale="  167.435">  2  6  1 -1</clus>
<clus scale="   40.461">  1  3  2 -1</clus>
</clustering>
</event>
<event>
 6    0  0.3695460E+002  0.1077847E+03  0.7546771E-02  0.1264728E+00
          2   -1    0    0  503    0 -0.00000000000E+00  0.00000000000E+00  0.22968457147E+03  0.22968457147E+03  0.00000000000E+00 0. -1.
         21   -1    0    0  504  502  0.00000000000E+00 -0.00000000000E+00 -0.98233389717E+02  0.98233389717E+02  0.00000000000E+00 0. -1.
         21    1    1    2  503  502 -0.62007473217E+02  0.18735248175E+02  0.56755100398E+02  0.86122457467E+02  0.00000000000E+00 0. -1.
         21    1    1    2  504  505  0.32907227594E+02  0.48617580565E+02 -0.16028328664E+02  0.60856076835E+02  0.00000000000E+00 0. -1.
         21    1    1    2  505  501  0.35079567652E+02  0.36348005770E+02  0.16025612484E+02  0.52995979523E+02  0.00000000000E+00 0. -1.
          2    1    1    2  501    0 -0.59793220293E+01 -0.10370083451E+03  0.74698797536E+02  0.12794344736E+03  0.00000000000E+00 0. -1.
<scales pt_clust_3="64.77605" pt_clust_4="31.05659" pt_clust_5="31.05659" pt_clust_6="102.45293"></scales>
<clustering>
<clus scale="   31.057">  4  5 -1 -1</clus>
<clus scale="   64.776">  1  3  2 -1</clus>
<clus scale="  102.453">  1  6  2 -1</clus>
<clus scale="  107.785">  2  3  1 -1</clus>
</clustering>
</event>
<event>
 6    0  0.3695460E+002  0.9303881E+02  0.7546771E-02  0.1295655E+00
         21   -1    0    0  505  502  0.00000000000E+00  0.00000000000E+00  0.10658636131E+03  0.10658636131E+03  0.00000000000E+00 0.  1.
         -1   -1    0    0    0  501 -0.00000000000E+00 -0.00000000000E+00 -0.34925488287E+04  0.34925488287E+04  0.00000000000E+00 0. -1.
         21    1    1    2  503  502  0.58051262104E+02  0.52565006758E+02  0.51285120777E+02  0.93611925418E+02  0.00000000000E+00 0.  1.
         21    1    1    2  504  501  0.73043276517E+02 -0.12369635081E+02 -0.16166569877E+04  0.16183535287E+04  0.00000000000E+00 0. -1.
         21    1    1    2  505  504 -0.14117165483E+03 -0.89418679851E+01 -0.11785449807E+03  0.18411701671E+03  0.00000000000E+00 0.  1.
         -1    1    1    2    0  503  0.10077116204E+02 -0.31253503691E+02 -0.17027361024E+04  0.17030527192E+04  0.00000000000E+00 0. -1.
<scales pt_clust_3="78.15472" pt_clust_4="14000.00000" pt_clust_5="93.03881" pt_clust_6="32.83793"></scales>
<clustering>
<clus scale="   32.838">  2  6  1 -1</clus>
<clus scale="   78.155">  1  3  2 -1</clus>
<clus scale="   93.039">  1  5  2 -1</clus>
<clus scale="   78.155">  1  3  2 -1</clus>
</clustering>
</event>
<event>
 6    0  0.3695460E+002  0.1646445E+03  0.7546771E-02  0.1183551E+00
          2   -1    0    0  504    0 -0.00000000000E+00  0.00000000000E+00  0.12004891873E+04  0.12004891873E+04  0.00000000000E+00 0.  1.
         21   -1    0    0  505  502  0.00000000000E+00 -0.00000000000E+00 -0.36835561858E+02  0.36835561858E+02  0.00000000000E+00 0. -1.
         21    1    1    2  503  502  0.64125187964E+02  0.21245971472E+02  0.48202124678E+02  0.82987202981E+02  0.00000000000E+00 0. -1.
         21    1    1    2  504  503  0.58107339398E+02  0.58481469012E+02  0.12141956262E+03  0.14676258139E+03  0.00000000000E+00 0. -1.
         21    1    1    2  505  501 -0.10449873456E+03 -0.25499981174E+02  0.64095714198E+03  0.64992022005E+03  0.00000000000E+00 0.  1.
          2    1    1    2  501    0 -0.17733792802E+02 -0.54227459309E+02  0.35307479613E+03  0.35765474471E+03  0.00000000000E+00 0.  1.
<scales pt_clust_3="47.17707" pt_clust_4="154.96273" pt_clust_5="55.51556" pt_clust_6="55.51556"></scales>
<clustering>
<clus scale="   47.177">  3  4 -1 -1</clus>
<clus scale="   55.516">  5  6 -1 -1</clus>
<clus scale="  154.963">  2  3  1 -1</clus>
<clus scale="  154.963">  2  3  1 -1</clus>
</clustering>
</event>
<event>
 6    0  0.3695460E+002  0.1902173E+03  0.7546771E-02  0.1158265E+00
         21   -1    0    0  503  502  0.00000000000E+00  0.00000000000E+00  0.68238178621E+02  0.68238178621E+02  0.00000000000E+00 0.  1.
          1   -1    0    0  505    0 -0.00000000000E+00 -0.00000000000E+00 -0.17348978430E+04  0.17348978430E+04  0.00000000000E+00 0.  1.
         21    1    1    2  503  501 -0.67060497887E+02  0.38659910476E+02 -0.62886911595E+02  0.99731954281E+02  0.00000000000E+00 0.  1.
         21    1    1    2  504  502  0.17680289441E+03  0.10532844518E+03 -0.23735806667E+03  0.31415314203E+03  0.00000000000E+00 0.  1.
         21    1    1    2  505  504  0.20337705495E+02  0.25428129663E+02 -0.10674889970E+03  0.11160438894E+03  0.00000000000E+00 0.  1.
          1    1    1    2  501    0 -0.13008010201E+03 -0.16941648532E+03 -0.12596657864E+04  0.12776465363E+04  0.00000000000E+00 0.  1.
<scales pt_clust_3="77.17681" pt_clust_4="14000.00000" pt_clust_5="32.56090" pt_clust_6="190.21734"></scales>
<clustering>
<clus scale="   32.561">  2  5  1 -1</clus>
<clus scale="   77.177">  1  3  2 -1</clus>
<clus scale="  190.217">  2  6  1 -1</clus>
<clus scale="   77.177">  1  3  2 -1</clus>
</clustering>
</event>
<event>
 6    0  0.3695460E+002  0.1390463E+03  0.7546771E-02  0.1214618E+00
          2   -1    0    0  505    0 -0.00000000000E+00  0.00000000000E+00  0.51259519171E+03  0.51259519171E+03  0.00000000000E+00 0.  1.
         21   -1    0    0  501  502  0.00000000000E+00 -0.00000000000E+00 -0.47213145851E+03  0.47213145851E+03  0.00000000000E+00 0. -1.
         21    1    1    2  503  504 -0.72797801084E+02  0.82234328403E+01  0.48525577969E+01  0.73421332101E+02  0.00000000000E+00 0. -1.
         21    1    1    2  504  502  0.81540808669E+02  0.11484649038E+03 -0.40795274705E+03  0.43158320595E+03  0.00000000000E+00 0. -1.
         21    1    1    2  505  503 -0.35230856491E+02  0.10647319364E+02  0.17166414782E+03  0.17556525369E+03  0.00000000000E+00 0. -1.
          2    1    1    2  501    0  0.26487848906E+02 -0.13371724259E+03  0.27189977464E+03  0.30415685847E+03  0.00000000000E+00 0.  1.
<scales pt_clust_3="77.44443" pt_clust_4="14000.00000" pt_clust_5="36.80460" pt_clust_6="139.04633"></scales>
<clustering>
<clus scale="   36.805">  1  5  2 -1</clus>
<clus scale="   77.444">  1  3  2 -1</clus>
<clus scale="  139.046">  1  6  2 -1</clus>
<clus scale="  139.046">  2  3  1 -1</clus>
</clustering>
</event>
<event>
 6    0  0.5454150E+002  0.1235324E+03  0.7546771E-02  0.1237381E+00
          1   -1    0    0  503    0 -0.00000000000E+00  0.00000000000E+00  0.35225106244E+04  0.35225106244E+04  0.00000000000E+00 0.  1.
         21   -1    0    0  505  502  0.00000000000E+00 -0.00000000000E+00 -0.15563861709E+03  0.15563861709E+03  0.00000000000E+00 0.  1.
         21    1    1    2  503  504  0.55993665627E+02  0.83430175666E+01  0.12022113300E+03  0.13288347283E+03  0.00000000000E+00 0. -1.
         21    1    1    2  504  502  0.30111989247E+02 -0.13173269346E+02 -0.16655179788E+02  0.36846464355E+02  0.00000000000E+00 0.  1.
         21    1    1    2  505  501  0.36185156944E+02 -0.17595061009E+02 -0.11808060932E+03  0.12474767353E+03  0.00000000000E+00 0.  1.
          1    1    1    2  501    0 -0.12229081182E+03  0.22425312788E+02  0.33813866634E+04  0.33836716308E+04  0.00000000000E+00 0.  1.
<scales pt_clust_3="57.98579" pt_clust_4="32.86741" pt_clust_5="123.53235" pt_clust_6="14000.00000"></scales>
<clustering>
<clus scale="   32.867">  2  4  1 -1</clus>
<clus scale="   57.986">  2  3  1 -1</clus>
<clus scale="  123.532">  2  5  1 -1</clus>
<clus scale="   32.867">  2  3  1 -1</clus>
</clustering>
</event>
<event>
 6    0  0.3695460E+002  0.2202437E+03  0.7546771E-02  0.1133701E+00
          2   -1    0    0  505    0 -0.00000000000E+00  0.00000000000E+00  0.90773854313E+03  0.90773854313E+03  0.00000000000E+00 0.  1.
         21   -1    0    0  503  502  0.00000000000E+00 -0.00000000000E+00 -0.16084294554E+03  0.16084294554E+03  0.00000000000E+00 0.  1.
         21    1    1    2  503  501  0.93249497879E+02  0.15916557226E+03 -0.31928339658E+02  0.18721262543E+03  0.00000000000E+00 0.  1.
         21    1    1    2  504  502 -0.14538704021E+02  0.55798082448E+02  0.42143425172E+02  0.71420362675E+02  0.00000000000E+00 0.  1.
         21    1    1    2  505  504  0.73886732516E+02 -0.20526285451E+02  0.93588496543E+02  0.12099332346E+03  0.00000000000E+00 0.  1.
          2    1    1    2  501    0 -0.15259752637E+03 -0.19443736926E+03  0.64309201553E+03  0.68895517710E+03  0.00000000000E+00 0.  1.
<scales pt_clust_3="14000.00000" pt_clust_4="57.66108" pt_clust_5="74.11981" pt_clust_6="220.24370"></scales>
<clustering>
<clus scale="   57.661">  2  4  1 -1</clus>
<clus scale="   74.120">  1  5  2 -1</clus>
<clus scale="  220.244">  1  6  2 -1</clus>
<clus scale="   57.661">  2  3  1 -1</clus>
</clustering>
</event>
<event>
 6    0  0.3695460E+002  0.1057499E+03  0.7546771E-02  0.1268649E+00
          2   -1    0    0  503    0 -0.00000000000E+00  0.00000000000E+00  0.24624585660E+04  0.24624585660E+04  0.00000000000E+00 0. -1.
         21   -1    0    0  504  502  0.00000000000E+00 -0.00000000000E+00 -0.24324477617E+02  0.24324477617E+02  0.00000000000E+00 0. -1.
         21    1    1    2  503  502  0.36922867267E+02 -0.18680476300E+02  0.10460973292E+03  0.11249646458E+03  0.00000000000E+00 0.  1.
         21    1    1    2  504  505 -0.56634265006E+02 -0.38566883076E+02  0.24213706450E+03  0.25164499289E+03  0.00000000000E+00 0.  1.
         21    1    1    2  505  501 -0.86923650429E+02  0.37054588601E+02  0.14401373597E+03  0.17224610210E+03  0.00000000000E+00 0. -1.
          2    1    1    2  501    0  0.10663504817E+03  0.20192770775E+02  0.19473735549E+04  0.19503954840E+04  0.00000000000E+00 0. -1.
<scales pt_clust_3="41.37944" pt_clust_4="64.40951" pt_clust_5="14000.00000" pt_clust_6="105.74993"></scales>
<clustering>
<clus scale="   41.379">  2  3  1 -1</clus>
<clus scale="   64.410">  2  4  1 -1</clus>
<clus scale="  105.750">  1  6  2 -1</clus>
<clus scale="   41.379">  2  3  1 -1</clus>
</clustering>
</event>
<event>
 6    0  0.3695460E+002  0.2399093E+03  0.7546771E-02  0.1119853E+00
          1   -1    0    0  504    0 -0.00000000000E+00  0.00000000000E+00  0.13162151342E+04  0.13162151342E+04  0.00000000000E+00 0.  1.
         21   -1    0    0  505  502  0.00000000000E+00 -0.00000000000E+00 -0.92554157775E+02  0.92554157775E+02  0.00000000000E+00 0. -1.
         21    1    1    2  503  501  0.35574691570E+02 -0.11722486846E+03  0.57109744953E+03  0.58408862797E+03  0.00000000000E+00 0.  1.
         21    1    1    2  504  502 -0.11058782602E+03 -0.14136587870E+02  0.12643270452E+03  0.16856672018E+03  0.00000000000E+00 0. -1.
         21    1    1    2  505  503  0.37625302968E+02  0.23851849277E+03  0.20923797733E+03  0.31951097943E+03  0.00000000000E+00 0. -1.
          1    1    1    2  501    0  0.37387831477E+02 -0.10715703644E+03  0.31689284504E+03  0.33660296440E+03  0.00000000000E+00 0.  1.
<scales pt_clust_3="56.74336" pt_clust_4="111.48771" pt_clust_5="232.55323" pt_clust_6="56.74336"></scales>
<clustering>
<clus scale="   56.743">  3  6 -1 -1</clus>
<clus scale="  111.488">  2  4  1 -1</clus>
<clus scale="  232.553">  2  5  1 -1</clus>
<clus scale="  111.488">  2  3  1 -1</clus>
</clustering>
</event>
<event>
 6    0  0.3695460E+002  0.6087689E+02  0.7546771E-02  0.1394188E+00
          2   -1    0    0  503    0 -0.00000000000E+00  0.00000000000E+00  0.13275135190E+04  0.13275135190E+04  0.00000000000E+00 0. -1.
         21   -1    0    0  501  502  0.00000000000E+00 -0.00000000000E+00 -0.21435208753E+03  0.21435208753E+03  0.00000000000E+00 0.  1.
         21    1    1    2  503  505 -0.65229697283E+01 -0.41163042923E+02  0.30669807129E+03  0.30951680435E+03  0.00000000000E+00 0.  1.
         21    1    1    2  504  502 -0.51486449731E+02  0.12675917267E+02 -0.96922681894E+02  0.11047868414E+03  0.00000000000E+00 0.  1.
         21    1    1    2  505  504  0.67389554603E+02 -0.48717242059E+02 -0.91677522617E+02  0.12377192693E+03  0.00000000000E+00 0.  1.
          2    1    1    2  501    0 -0.93801351441E+01  0.77204367714E+02  0.99506356469E+03  0.99809819111E+03  0.00000000000E+00 0. -1.
<scales pt_clust_3="41.67667" pt_clust_4="14000.00000" pt_clust_5="60.87689" pt_clust_6="40.18143"></scales>
<clustering>
<clus scale="   41.677">  1  3  2 -1</clus>
<clus scale="   40.181">  1  6  2 -1</clus>
<clus scale="   60.877">  1  5  2 -1</clus>
<clus scale="   60.877">  2  3  1 -1</clus>
</clustering>
</event>
<event>
 6    0  0.3695460E+002  0.8916710E+02  0.7546771E-02  0.1304881E+00
          3   -1    0    0  505    0 -0.00000000000E+00  0.00000000000E+00  0.13436405976E+03  0.13436405976E+03  0.00000000000E+00 0. -1.
         21   -1    0    0  503  502  0.00000000000E+00 -0.00000000000E+00 -0.52967245507E+03  0.52967245507E+03  0.00000000000E+00 0. -1.
         21    1    1    2  503  501 -0.19570865850E+02  0.12234907049E+03 -0.35257600832E+03  0.37371400226E+03  0.00000000000E+00 0. -1.
         21    1    1    2  504  502 -0.10598005695E+02 -0.64670876197E+02 -0.13008366328E+03  0.14565850269E+03  0.00000000000E+00 0. -1.
         21    1    1    2  505  504  0.42541136290E+01 -0.41589980125E+02 -0.97124584067E+01  0.42920342239E+02  0.00000000000E+00 0. -1.
          3    1    1    2  501    0  0.25914757916E+02 -0.16088214171E+02  0.97063734693E+02  0.10174366764E+03  0.00000000000E+00 0. -1.
<scales pt_clust_3="89.16710" pt_clust_4="14000.00000" pt_clust_5="51.94205" pt_clust_6="30.50255"></scales>
<clustering>
<clus scale="   30.503">  1  6  2 -1</clus>
<clus scale="   51.942">  1  5  2 -1</clus>
<clus scale="   89.167">  1  3  2 -1</clus>
<clus scale="   89.167">  2  3  1 -1</clus>
</clustering>
</event>
<event>
 6    0  0.3695460E+002  0.1030548E+03  0.7546771E-02  0.1274000E+00
         -2   -1    0    0    0  501 -0.00000000000E+00  0.00000000000E+00  0.15478260687E+04  0.15478260687E+04  0.00000000000E+00 0. -1.
         21   -1    0    0  503  502  0.00000000000E+00 -0.00000000000E+00 -0.21053288115E+03  0.21053288115E+03  0.00000000000E+00 0. -1.
         21    1    1    2  503  504  0.39897429551E+02  0.33685474885E+02 -0.12063372869E+03  0.13144965805E+03  0.00000000000E+00 0. -1.
         21    1    1    2  504  505 -0.10867924405E+02  0.67468148584E+02 -0.63573862687E+02  0.93336481995E+02  0.00000000000E+00 0. -1.
         21    1    1    2  505  501  0.50447487106E+02  0.10053804064E+02  0.29188572053E+03  0.29638370700E+03  0.00000000000E+00 0.  1.
         -2    1    1    2    0  502 -0.79476992252E+02 -0.11120742753E+03  0.12296150584E+04  0.12371891028E+04  0.00000000000E+00 0. -1.
<scales pt_clust_3="52.41041" pt_clust_4="103.05477" pt_clust_5="51.43956" pt_clust_6="14000.00000"></scales>
<clustering>
<clus scale="   51.440">  1  5  2 -1</clus>
<clus scale="   52.410">  2  3  1 -1</clus>
<clus scale="  103.055">  2  4  1 -1</clus>
<clus scale="   52.410">  2  3  1 -1</clus>
</clustering>
</event>
<event>
 6    0  0.3695460E+002  0.8731740E+02  0.7546771E-02  0.1309481E+00
          2   -1    0    0  505    0 -0.00000000000E+00  0.00000000000E+00  0.41351073176E+04  0.41351073176E+04  0.00000000000E+00 0. -1.
         21   -1    0    0  503  502  0.00000000000E+00 -0.00000000000E+00 -0.25225363726E+03  0.25225363726E+03  0.00000000000E+00 0.  1.
         21    1    1    2  503  501 -0.18956876046E+02 -0.13926745328E+03  0.81658646417E+02  0.16255128799E+03  0.00000000000E+00 0. -1.
         21    1    1    2  504  502 -0.22020042565E+02  0.81402616667E+02 -0.20235452517E+03  0.21922276828E+03  0.00000000000E+00 0.  1.
         21    1    1    2  505  504  0.22502957530E+02 -0.30025069300E+02  0.10392304173E+04  0.10399075671E+04  0.00000000000E+00 0.  1.
          2    1    1    2  501    0  0.18473961081E+02  0.87889905909E+02  0.29643191417E+04  0.29656793314E+04  0.00000000000E+00 0. -1.
<scales pt_clust_3="14000.00000" pt_clust_4="87.31740" pt_clust_5="37.52183" pt_clust_6="71.40527"></scales>
<clustering>
<clus scale="   37.522">  1  5  2 -1</clus>
<clus scale="   71.405">  1  6  2 -1</clus>
<clus scale="   87.317">  2  4  1 -1</clus>
<clus scale="   87.317">  2  3  1 -1</clus>
</clustering>
</event>
<event>
 6    0  0.3695460E+002  0.2021449E+03  0.7546771E-02  0.1147942E+00
         21   -1    0    0  501  502  0.00000000000E+00  0.00000000000E+00  0.28332950206E+03  0.28332950206E+03  0.00000000000E+00 0.  1.
          2   -1    0    0  503    0 -0.00000000000E+00 -0.00000000000E+00 -0.63843823329E+03  0.63843823329E+03  0.00000000000E+00 0. -1.
         21    1    1    2  503  505  0.36061224810E+02 -0.49337201477E+02 -0.18182539351E+03  0.19182034592E+03  0.00000000000E+00 0. -1.
         21    1    1    2  504  502 -0.29090994441E+02 -0.64349560019E+02  0.71982056863E+02  0.10083931943E+03  0.00000000000E+00 0.  1.
         21    1    1    2  505  504  0.25418737736E+02 -0.12478437387E+03  0.13084884744E+03  0.18258880871E+03  0.00000000000E+00 0.  1.
          2    1    1    2  501    0 -0.32388968105E+02  0.23847113537E+03 -0.37611424201E+03  0.44651926129E+03  0.00000000000E+00 0. -1.
<scales pt_clust_3="61.11114" pt_clust_4="43.46013" pt_clust_5="43.46013" pt_clust_6="193.53693"></scales>
<clustering>
<clus scale="   43.460">  4  5 -1 -1</clus>
<clus scale="   61.111">  2  3  1 -1</clus>
<clus scale="  193.537">  2  6  1 -1</clus>
<clus scale="  202.145">  1  3  2 -1</clus>
</clustering>
</event>
<event>
 6    0  0.3695460E+002  0.4494682E+03  0.7546771E-02  0.1027881E+00
         21   -1    0    0  503  502  0.00000000000E+00  0.00000000000E+00  0.12143579141E+03  0.12143579141E+03  0.00000000000E+00 0. -1.
          2   -1    0    0  502    0 -0.00000000000E+00 -0.00000000000E+00 -0.21164417474E+04  0.21164417474E+04  0.00000000000E+00 0.  1.
         21    1    1    2  503  504 -0.31146791302E+02 -0.61986164005E+01 -0.58238566031E+02  0.66334576407E+02  0.00000000000E+00 0.  1.
         21    1    1    2  504  505  0.21061439701E+03 -0.39256813398E+03 -0.51443455865E+03  0.68052265148E+03  0.00000000000E+00 0. -1.
         21    1    1    2  505  501 -0.70206675205E+02  0.81202877381E+02 -0.43848377327E+03  0.45143205908E+03  0.00000000000E+00 0. -1.
          2    1    1    2  501    0 -0.10926093051E+03  0.31756387300E+03 -0.98384905801E+03  0.10395882518E+04  0.00000000000E+00 0.  1.
<scales pt_clust_3="31.75760" pt_clust_4="439.47052" pt_clust_5="53.42807" pt_clust_6="53.42807"></scales>
<clustering>
<clus scale="   31.758">  1  3  2 -1</clus>
<clus scale="   53.428">  5  6 -1 -1</clus>
<clus scale="  439.471">  1  4  2 -1</clus>
<clus scale="   31.758">  1  3  2 -1</clus>
</clustering>
</event>
<event>
 6    0  0.3695460E+002  0.9027013E+02  0.7546771E-02  0.1302199E+00
         21   -1    0    0  505  502  0.00000000000E+00  0.00000000000E+00  0.23997220796E+02  0.23997220796E+02  0.00000000000E+00 0.  1.
          2   -1    0    0  504    0 -0.00000000000E+00 -0.00000000000E+00 -0.15327645545E+04  0.15327645545E+04  0.00000000000E+00 0.  1.
         21    1    1    2  503  501  0.16793277611E+02 -0.55969625345E+02 -0.22351223947E+03  0.23102453187E+03  0.00000000000E+00 0.  1.
         21    1    1    2  504  502 -0.78019801234E+02  0.64275219735E+02 -0.16573633969E+03  0.19413121220E+03  0.00000000000E+00 0.  1.
         21    1    1    2  505  503 -0.30748146139E+02 -0.22360157182E+02 -0.87513696038E+02  0.95415261434E+02  0.00000000000E+00 0. -1.
          2    1    1    2  501    0  0.91974669761E+02  0.14054562792E+02 -0.10320050585E+04  0.10361907698E+04  0.00000000000E+00 0.  1.
<scales pt_clust_3="61.16244" pt_clust_4="90.27013" pt_clust_5="38.01875" pt_clust_6="14000.00000"></scales>
<clustering>
<clus scale="   38.019">  1  5  2 -1</clus>
<clus scale="   61.162">  1  3  2 -1</clus>
<clus scale="   90.270">  1  4  2 -1</clus>
<clus scale="   38.019">  1  3  2 -1</clus>
</clustering>
</event>
<event>
 6    0  0.3695460E+002  0.1346042E+03  0.7546771E-02  0.1220780E+00
          2   -1    0    0  504    0 -0.00000000000E+00  0.00000000000E+00  0.42415360767E+03  0.42415360767E+03  0.00000000000E+00 0. -1.
         21   -1    0    0  503  502  0.00000000000E+00 -0.00000000000E+00 -0.63365983629E+03  0.63365983629E+03  0.00000000000E+00 0. -1.
         21    1    1    2  503  505  0.34280785023E+01  0.97163278687E+02 -0.59389636689E+03  0.60180175228E+03  0.00000000000E+00 0. -1.
         21    1    1    2  504  502 -0.16930982517E+01  0.33432350987E+02 -0.13261157697E+02  0.36006207488E+02  0.00000000000E+00 0.  1.
         21    1    1    2  505  501 -0.70161232549E+00 -0.66624183020E+02  0.14835013645E+03  0.16262545006E+03  0.00000000000E+00 0. -1.
          2    1    1    2  501    0 -0.10333679251E+01 -0.63971446654E+02  0.24930115951E+03  0.25738003413E+03  0.00000000000E+00 0. -1.
<scales pt_clust_3="129.99406" pt_clust_4="33.47519" pt_clust_5="34.26644" pt_clust_6="34.26644"></scales>
<clustering>
<clus scale="   33.475">  2  4  1 -1</clus>
<clus scale="   34.266">  5  6 -1 -1</clus>
<clus scale="  129.994">  2  3  1 -1</clus>
<clus scale="   33.475">  2  3  1 -1</clus>
</clustering>
</event>
<event>
 6    0  0.3695460E+002  0.2187147E+03  0.7546771E-02  0.1134845E+00
         21   -1    0    0  505  502  0.00000000000E+00  0.00000000000E+00  0.27596081643E+03  0.27596081643E+03  0.00000000000E+00 0. -1.
          2   -1    0    0  503    0 -0.00000000000E+00 -0.00000000000E+00 -0.17218788282E+04  0.17218788282E+04  0.00000000000E+00 0. -1.
         21    1    1    2  503  504  0.42662955181E+02  0.94951895240E+02  0.90116608904E+02  0.13768439764E+03  0.00000000000E+00 0. -1.
         21    1    1    2  504  502  0.28616574231E+02  0.89879752853E+02  0.14060328692E+03  0.16931202729E+03  0.00000000000E+00 0. -1.
         21    1    1    2  505  501 -0.17036742278E+02 -0.75617914815E+02 -0.34336527394E+03  0.35200572577E+03  0.00000000000E+00 0. -1.
          2    1    1    2  501    0 -0.54242787134E+02 -0.10921373328E+03 -0.13332726336E+04  0.13388374939E+04  0.00000000000E+00 0. -1.
<scales pt_clust_3="202.52194" pt_clust_4="40.06665" pt_clust_5="73.90498" pt_clust_6="73.90498"></scales>
<clustering>
<clus scale="   40.067">  3  4 -1 -1</clus>
<clus scale="   73.905">  5  6 -1 -1</clus>
<clus scale="  202.522">  1  3  2 -1</clus>
<clus scale="  202.522">  1  3  2 -1</clus>
</clustering>
</event>
<event>
 6    0  0.4867379E+002  0.1254978E+03  0.7546771E-02  0.1234293E+00
          2   -1    0    0  505    0 -0.00000000000E+00  0.00000000000E+00  0.13773463702E+04  0.13773463702E+04  0.00000000000E+00 0.  1.
         21   -1    0    0  504  502  0.00000000000E+00 -0.00000000000E+00 -0.16398196583E+03  0.16398196583E+03  0.00000000000E+00 0. -1.
         21    1    1    2  503  502  0.74179145326E+02  0.57935834691E+02 -0.13200538401E+03  0.16212503801E+03  0.00000000000E+00 0. -1.
         21    1    1    2  504  501  0.40379005432E+02 -0.50018897961E+01  0.26694257397E+02  0.48662782074E+02  0.00000000000E+00 0. -1.
         21    1    1    2  505  503  0.23653892122E+02 -0.24447588900E+02  0.18341349572E+03  0.18654142067E+03  0.00000000000E+00 0.  1.
          2    1    1    2  501    0 -0.13821204288E+03 -0.28486355995E+02  0.11352620353E+04  0.11439990953E+04  0.00000000000E+00 0.  1.
<scales pt_clust_3="14000.00000" pt_clust_4="41.52987" pt_clust_5="34.01751" pt_clust_6="125.49779"></scales>
<clustering>
<clus scale="   34.018">  1  5  2 -1</clus>
<clus scale="   41.530">  2  4  1 -1</clus>
<clus scale="  125.498">  1  6  2 -1</clus>
<clus scale="   41.530">  2  3  1 -1</clus>
</clustering>
</event>
<event>
 6    0  0.3695460E+002  0.1108453E+03  0.7546771E-02  0.1259013E+00
          1   -1    0    0  505    0 -0.00000000000E+00  0.00000000000E+00  0.16098844338E+04  0.16098844338E+04  0.00000000000E+00 0.  1.
         21   -1    0    0  504  502  0.00000000000E+00 -0.00000000000E+00 -0.84057911687E+03  0.84057911687E+03  0.00000000000E+00 0. -1.
         21    1    1    2  503  502 -0.69369223170E+02  0.23452763171E+02 -0.72925535614E+03  0.73292257141E+03  0.00000000000E+00 0. -1.
         21    1    1    2  504  501 -0.41299408538E+02 -0.37507204789E+02 -0.87578857263E+02  0.10383875864E+03  0.00000000000E+00 0. -1.
         21    1    1    2  505  503 -0.59013333919E+01 -0.68213676877E+02  0.10278476456E+03  0.12350157600E+03  0.00000000000E+00 0.  1.
          1    1    1    2  501    0  0.11656996510E+03  0.82268118495E+02  0.14833547658E+04  0.14902006447E+04  0.00000000000E+00 0.  1.
<scales pt_clust_3="110.84528" pt_clust_4="55.78917" pt_clust_5="69.03963" pt_clust_6="14000.00000"></scales>
<clustering>
<clus scale="   55.789">  2  4  1 -1</clus>
<clus scale="   69.040">  1  5  2 -1</clus>
<clus scale="  110.845">  2  3  1 -1</clus>
<clus scale="   55.789">  2  3  1 -1</clus>
</clustering>
</event>
<event>
 6    0  0.3695460E+002  0.1583256E+03  0.7546771E-02  0.1190600E+00
         21   -1    0    0  504  502  0.00000000000E+00  0.00000000000E+00  0.74655691102E+02  0.74655691102E+02  0.00000000000E+00 0. -1.
          1   -1    0    0  503    0 -0.00000000000E+00 -0.00000000000E+00 -0.74510116930E+03  0.74510116930E+03  0.00000000000E+00 0. -1.
         21    1    1    2  503  502 -0.33132899288E+02 -0.10621167868E+02 -0.36552881969E+02  0.50464952218E+02  0.00000000000E+00 0. -1.
         21    1    1    2  504  505 -0.10128198788E+03  0.70278352458E+02 -0.88106720930E+01  0.12359092133E+03  0.00000000000E+00 0. -1.
         21    1    1    2  505  501  0.75873954099E+02 -0.17768279719E+02 -0.20145320781E+03  0.21599991577E+03  0.00000000000E+00 0. -1.
          1    1    1    2  501    0  0.58540933068E+02 -0.41888904871E+02 -0.42362871632E+03  0.42970107108E+03  0.00000000000E+00 0. -1.
<scales pt_clust_3="34.79365" pt_clust_4="143.14675" pt_clust_5="65.95915" pt_clust_6="65.95915"></scales>
<clustering>
<clus scale="   34.794">  1  3  2 -1</clus>
<clus scale="   65.959">  5  6 -1 -1</clus>
<clus scale="  143.147">  1  4  2 -1</clus>
<clus scale="   34.794">  1  3  2 -1</clus>
</clustering>
</event>
<event>
 6    0  0.3695460E+002  0.1053231E+03  0.7546771E-02  0.1269484E+00
         -2   -1    0    0    0  501 -0.00000000000E+00  0.00000000000E+00  0.13036325351E+03  0.13036325351E+03  0.00000000000E+00 0. -1.
         21   -1    0    0  504  502  0.00000000000E+00 -0.00000000000E+00 -0.16580391255E+04  0.16580391255E+04  0.00000000000E+00 0. -1.
         21    1    1    2  503  505 -0.97528239138E+02  0.77426926769E+02  0.21551883440E+02  0.12637709483E+03  0.00000000000E+00 0. -1.
         21    1    1    2  504  501  0.42641576517E+02 -0.28519452140E+02 -0.22322154973E+03  0.22904044067E+03  0.00000000000E+00 0. -1.
         21    1    1    2  505  502  0.64134085112E+02  0.15041759840E+02 -0.13588888398E+04  0.13604845880E+04  0.00000000000E+00 0. -1.
         -2    1    1    2    0  503 -0.92474224909E+01 -0.63949234469E+02  0.32882634115E+02  0.72500255435E+02  0.00000000000E+00 0. -1.
<scales pt_clust_3="14000.00000" pt_clust_4="51.29974" pt_clust_5="105.32314" pt_clust_6="64.92360"></scales>
<clustering>
<clus scale="   51.300">  2  4  1 -1</clus>
<clus scale="   64.924">  1  6  2 -1</clus>
<clus scale="  105.323">  2  5  1 -1</clus>
<clus scale="   51.300">  2  3  1 -1</clus>
</clustering>
</event>
<event>
 6    0  0.3695460E+002  0.1726589E+03  0.7546771E-02  0.1175103E+00
          2   -1    0    0  505    0 -0.00000000000E+00  0.00000000000E+00  0.11939083108E+04  0.11939083108E+04  0.00000000000E+00 0. -1.
         21   -1    0    0  503  502  0.00000000000E+00 -0.00000000000E+00 -0.20962150287E+03  0.20962150287E+03  0.00000000000E+00 0. -1.
         21    1    1    2  503  501 -0.49366235876E+02 -0.36449306658E+02 -0.15011735408E+03  0.16217520525E+03  0.00000000000E+00 0. -1.
         21    1    1    2  504  502 -0.42614708740E+02  0.73105336579E+01 -0.56409727178E+01  0.43603645221E+02  0.00000000000E+00 0. -1.
         21    1    1    2  505  504  0.77335814265E+02  0.17884407152E+03  0.83760274027E+03  0.85996766253E+03  0.00000000000E+00 0. -1.
          2    1    1    2  501    0  0.14645130352E+02 -0.14970529852E+03  0.30244239450E+03  0.33778330071E+03  0.00000000000E+00 0. -1.
<scales pt_clust_3="90.54732" pt_clust_4="43.23722" pt_clust_5="172.65885" pt_clust_6="14000.00000"></scales>
<clustering>
<clus scale="   43.237">  2  4  1 -1</clus>
<clus scale="   90.547">  2  3  1 -1</clus>
<clus scale="  172.659">  1  5  2 -1</clus>
<clus scale="   43.237">  2  3  1 -1</clus>
</clustering>
</event>
<event>
 6    0  0.3695460E+002  0.4314478E+03  0.7546771E-02  0.1033404E+00
         21   -1    0    0  505  502  0.00000000000E+00  0.00000000000E+00  0.24484809539E+03  0.24484809539E+03  0.00000000000E+00 0.  1.
          2   -1    0    0  503    0 -0.00000000000E+00 -0.00000000000E+00 -0.24593836579E+04  0.24593836579E+04  0.00000000000E+00 0. -1.
         21    1    1    2  503  502 -0.30437475397E+02  0.51161313551E+01 -0.20697556410E+02  0.37161856115E+02  0.00000000000E+00 0. -1.
         21    1    1    2  504  501  0.13279202272E+03  0.10978064556E+03 -0.68328249585E+03  0.70467047659E+03  0.00000000000E+00 0.  1.
         21    1    1    2  505  504 -0.28706387769E+03 -0.28584256286E+03  0.25456163448E+02  0.40590597048E+03  0.00000000000E+00 0.  1.
          2    1    1    2  501    0  0.18470933036E+03  0.17094578595E+03 -0.15360116737E+04  0.15564934501E+04  0.00000000000E+00 0. -1.
<scales pt_clust_3="30.86446" pt_clust_4="73.84249" pt_clust_5="422.09713" pt_clust_6="73.84249"></scales>
<clustering>
<clus scale="   30.864">  1  3  2 -1</clus>
<clus scale="   73.842">  4  6 -1 -1</clus>
<clus scale="  422.097">  1  5  2 -1</clus>
<clus scale="   30.864">  1  3  2 -1</clus>
</clustering>
</event>
<event>
 6    0  0.3695460E+002  0.1188593E+03  0.7546771E-02  0.1244991E+00
          3   -1    0    0  505    0 -0.00000000000E+00  0.00000000000E+00  0.69635793094E+03  0.69635793094E+03  0.00000000000E+00 0.  1.
         21   -1    0    0  501  502  0.00000000000E+00 -0.00000000000E+00 -0.33806965567E+02  0.33806965567E+02  0.00000000000E+00 0. -1.
         21    1    1    2  503  502  0.31106972085E+02 -0.10598707447E+02  0.45955114476E+02  0.56496449963E+02  0.00000000000E+00 0. -1.
         21    1    1    2  504  503 -0.14252336361E+01  0.39935447976E+02  0.36103336872E+02  0.53854639812E+02  0.00000000000E+00 0. -1.
         21    1    1    2  505  504 -0.62369635650E+02  0.69176690656E+02  0.14665579476E+03  0.17373343984E+03  0.00000000000E+00 0. -1.
          3    1    1    2  501    0  0.32687897201E+02 -0.98513431185E+02  0.43383671926E+03  0.44608036689E+03  0.00000000000E+00 0.  1.
<scales pt_clust_3="32.86299" pt_clust_4="32.22330" pt_clust_5="32.22330" pt_clust_6="108.20052"></scales>
<clustering>
<clus scale="   32.223">  4  5 -1 -1</clus>
<clus scale="   32.863">  2  3  1 -1</clus>
<clus scale="  108.201">  1  6  2 -1</clus>
<clus scale="   32.863">  2  3  1 -1</clus>
</clustering>
</event>
<event>
 6    0  0.3695460E+002  0.1058916E+03  0.7546771E-02  0.1268373E+00
         21   -1    0    0  504  502  0.00000000000E+00  0.00000000000E+00  0.38168609942E+02  0.38168609942E+02  0.00000000000E+00 0. -1.
          2   -1    0    0  503    0 -0.00000000000E+00 -0.00000000000E+00 -0.16839324945E+04  0.16839324945E+04  0.00000000000E+00 0.  1.
         21    1    1    2  503  505  0.10131115303E+03  0.50642713792E+02 -0.22822522084E+03  0.25478497918E+03  0.00000000000E+00 0. -1.
         21    1    1    2  504  501 -0.24616645999E+01 -0.59664756728E+02 -0.54389879716E+03  0.54716710842E+03  0.00000000000E+00 0. -1.
         21    1    1    2  505  502 -0.96953602569E+02  0.48162097238E+02 -0.10600463318E+03  0.15151425978E+03  0.00000000000E+00 0. -1.
          2    1    1    2  501    0 -0.18958858563E+01 -0.39140054302E+02 -0.76763523337E+03  0.76863475705E+03  0.00000000000E+00 0.  1.
<scales pt_clust_3="99.43162" pt_clust_4="30.65075" pt_clust_5="14000.00000" pt_clust_6="105.89162"></scales>
<clustering>
<clus scale="   30.651">  4  6 -1 -1</clus>
<clus scale="  105.892">  2  4  1 -1</clus>
<clus scale="   99.432">  2  3  1 -1</clus>
<clus scale="  105.892">  1  3  2 -1</clus>
</clustering>
</event>
<event>
 6    0  0.3695460E+002  0.1901121E+03  0.7546771E-02  0.1158360E+00
         21   -1    0    0  504  502  0.00000000000E+00  0.00000000000E+00  0.10477402145E+03  0.10477402145E+03  0.00000000000E+00 0. -1.
          1   -1    0    0  503    0 -0.00000000000E+00 -0.00000000000E+00 -0.12354532014E+04  0.12354532014E+04  0.00000000000E+00 0. -1.
         21    1    1    2  503  502  0.29588487942E+02  0.34716152616E+02 -0.52783818631E+02  0.69762607322E+02  0.00000000000E+00 0. -1.
         21    1    1    2  504  505  0.15491671267E+03 -0.75212917652E+02  0.34237699686E+01  0.17224370248E+03  0.00000000000E+00 0. -1.
         21    1    1    2  505  501 -0.82294210878E+02  0.35222745970E+02 -0.51936004041E+03  0.52701786550E+03  0.00000000000E+00 0. -1.
          1    1    1    2  501    0 -0.10221098973E+03  0.52740190668E+01 -0.56195909092E+03  0.57120304758E+03  0.00000000000E+00 0. -1.
<scales pt_clust_3="45.61458" pt_clust_4="187.04722" pt_clust_5="31.79663" pt_clust_6="31.79663"></scales>
<clustering>
<clus scale="   31.797">  5  6 -1 -1</clus>
<clus scale="   45.615">  1  3  2 -1</clus>
<clus scale="  187.047">  1  4  2 -1</clus>
<clus scale="   45.615">  1  3  2 -1</clus>
</clustering>
</event>
<event>
 6    0  0.3695460E+002  0.2412761E+03  0.7546771E-02  0.1118946E+00
         21   -1    0    0  505  502  0.00000000000E+00  0.00000000000E+00  0.82538079884E+03  0.82538079884E+03  0.00000000000E+00 0. -1.
          2   -1    0    0  503    0 -0.00000000000E+00 -0.00000000000E+00 -0.21507779907E+04  0.21507779907E+04  0.00000000000E+00 0. -1.
         21    1    1    2  503  504  0.36702419074E+02  0.35011681169E+02 -0.85868012847E+02  0.99730642305E+02  0.00000000000E+00 0.  1.
         21    1    1    2  504  502 -0.40972282367E+02  0.33964121933E+01  0.21366754650E+03  0.21758695725E+03  0.00000000000E+00 0.  1.
         21    1    1    2  505  501 -0.11028093372E+03 -0.19276969759E+03  0.57767411015E+03  0.61889370509E+03  0.00000000000E+00 0. -1.
          2    1    1    2  501    0  0.11455079702E+03  0.15436160423E+03 -0.20308708357E+04  0.20399474849E+04  0.00000000000E+00 0. -1.
<scales pt_clust_3="50.41447" pt_clust_4="41.11281" pt_clust_5="14000.00000" pt_clust_6="241.27612"></scales>
<clustering>
<clus scale="   41.113">  1  4  2 -1</clus>
<clus scale="   50.414">  2  3  1 -1</clus>
<clus scale="  241.276">  2  6  1 -1</clus>
<clus scale="   41.113">  1  3  2 -1</clus>
</clustering>
</event>
<event>
 6    0  0.3695460E+002  0.7021465E+02  0.7546771E-02  0.1359365E+00
          2   -1    0    0  505    0 -0.00000000000E+00  0.00000000000E+00  0.11416700245E+04  0.11416700245E+04  0.00000000000E+00 0.  1.
         21   -1    0    0  504  502  0.00000000000E+00 -0.00000000000E+00 -0.85203084486E+02  0.85203084486E+02  0.00000000000E+00 0. -1.
         21    1    1    2  503  502 -0.36899881173E+02  0.59481528328E+02 -0.57988938993E+02  0.90897582412E+02  0.00000000000E+00 0. -1.
         21    1    1    2  504  501  0.64376542382E+02 -0.50080792090E+02  0.48649016235E+03  0.49327994385E+03  0.00000000000E+00 0.  1.
         21    1    1    2  505  503  0.22451626488E+02  0.36514217249E+02  0.81955603853E+02  0.92488294374E+02  0.00000000000E+00 0.  1.
          2    1    1    2  501    0 -0.49928287698E+02 -0.45914953487E+02  0.54601011285E+03  0.55020728840E+03  0.00000000000E+00 0.  1.
<scales pt_clust_3="70.21465" pt_clust_4="14000.00000" pt_clust_5="42.86448" pt_clust_6="46.78817"></scales>
<clustering>
<clus scale="   42.864">  1  5  2 -1</clus>
<clus scale="   46.788">  1  6  2 -1</clus>
<clus scale="   70.215">  2  3  1 -1</clus>
<clus scale="   70.215">  2  3  1 -1</clus>
</clustering>
</event>
<event>
 6    0  0.3695460E+002  0.1146475E+03  0.7546771E-02  0.1252198E+00
          2   -1    0    0  504    0 -0.00000000000E+00  0.00000000000E+00  0.17201857546E+04  0.17201857546E+04  0.00000000000E+00 0.  1.
         21   -1    0    0  505  502  0.00000000000E+00 -0.00000000000E+00 -0.56606452970E+02  0.56606452970E+02  0.00000000000E+00 0.  1.
         21    1    1    2  503  502 -0.13241045588E+03  0.82075291614E+02  0.14669156425E+03  0.21397966571E+03  0.00000000000E+00 0.  1.
         21    1    1    2  504  503 -0.83405783206E+02 -0.68271562533E+02  0.47260750468E+03  0.48474259602E+03  0.00000000000E+00 0.  1.
         21    1    1    2  505  501  0.58657101978E+02 -0.22737026458E+02  0.83852425501E+02  0.10482775037E+03  0.00000000000E+00 0. -1.
          2    1    1    2  501    0  0.15715913710E+03  0.89332973774E+01  0.96042780724E+03  0.97324219550E+03  0.00000000000E+00 0.  1.
<scales pt_clust_3="114.64752" pt_clust_4="103.95757" pt_clust_5="62.90968" pt_clust_6="14000.00000"></scales>
<clustering>
<clus scale="   62.910">  2  5  1 -1</clus>
<clus scale="  103.958">  1  4  2 -1</clus>
<clus scale="  114.648">  2  3  1 -1</clus>
<clus scale="   62.910">  2  3  1 -1</clus>
</clustering>
</event>
<event>
 6    0  0.3695460E+002  0.9713817E+02  0.7546771E-02  0.1286432E+00
          2   -1    0    0  505    0 -0.00000000000E+00  0.00000000000E+00  0.30008063756E+04  0.30008063756E+04  0.00000000000E+00 0.  1.
         21   -1    0    0  503  502  0.00000000000E+00 -0.00000000000E+00 -0.81065168846E+01  0.81065168846E+01  0.00000000000E+00 0.  1.
         21    1    1    2  503  501  0.12229661311E+02  0.42220314185E+02  0.26824552426E+03  0.27182306898E+03  0.00000000000E+00 0.  1.
         21    1    1    2  504  502  0.75877654598E+02  0.16269789955E+02  0.36470702277E+03  0.37287174335E+03  0.00000000000E+00 0.  1.
         21    1    1    2  505  504  0.18786345958E+02 -0.25658702072E+02  0.38717056568E+03  0.38847437846E+03  0.00000000000E+00 0.  1.
          2    1    1    2  501    0 -0.10689366187E+03 -0.32831402068E+02  0.19725767460E+04  0.19757437017E+04  0.00000000000E+00 0.  1.
<scales pt_clust_3="42.02974" pt_clust_4="14000.00000" pt_clust_5="31.80088" pt_clust_6="97.13817"></scales>
<clustering>
<clus scale="   31.801">  1  5  2 -1</clus>
<clus scale="   42.030">  2  3  1 -1</clus>
<clus scale="   97.138">  1  6  2 -1</clus>
<clus scale="   42.030">  2  3  1 -1</clus>
</clustering>
</event>
<event>
 6    0  0.3695460E+002  0.2596621E+03  0.7546771E-02  0.1107346E+00
          1   -1    0    0  504    0 -0.00000000000E+00  0.00000000000E+00  0.44049537964E+03  0.44049537964E+03  0.00000000000E+00 0.  1.
         21   -1    0    0  505  502  0.00000000000E+00 -0.00000000000E+00 -0.37472346572E+03  0.37472346572E+03  0.00000000000E+00 0.  1.
         21    1    1    2  503  501  0.13372554718E+03 -0.37182135812E+02 -0.11462489834E+03  0.18001083442E+03  0.00000000000E+00 0.  1.
         21    1    1    2  504  502 -0.16875061666E+02  0.37254274983E+02  0.10781227878E+03  0.11530887289E+03  0.00000000000E+00 0.  1.
         21    1    1    2  505  503  0.10075433590E+03  0.63178618621E+02 -0.15723627465E+03  0.19714517524E+03  0.00000000000E+00 0.  1.
          1    1    1    2  501    0 -0.21760482141E+03 -0.63250757792E+02  0.22982080813E+03  0.32275396281E+03  0.00000000000E+00 0.  1.
<scales pt_clust_3="105.37660" pt_clust_4="40.89803" pt_clust_5="105.37660" pt_clust_6="233.97195"></scales>
<clustering>
<clus scale="   40.898">  1  4  2 -1</clus>
<clus scale="  105.377">  3  5 -1 -1</clus>
<clus scale="  233.972">  1  6  2 -1</clus>
<clus scale="  259.662">  2  3  1 -1</clus>
</clustering>
</event>
<event>
 6    0  0.3695460E+002  0.1702701E+03  0.7546771E-02  0.1177567E+00
          2   -1    0    0  505    0 -0.00000000000E+00  0.00000000000E+00  0.15342024085E+04  0.15342024085E+04  0.00000000000E+00 0.  1.
         21   -1    0    0  503  502  0.00000000000E+00 -0.00000000000E+00 -0.31125319139E+02  0.31125319139E+02  0.00000000000E+00 0. -1.
         21    1    1    2  503  501 -0.39799177680E+02 -0.96038498664E+02  0.79951523600E+03  0.80624560797E+03  0.00000000000E+00 0.  1.
         21    1    1    2  504  502  0.10901793279E+02  0.58930380271E+02  0.57449613811E+02  0.83018654184E+02  0.00000000000E+00 0.  1.
         21    1    1    2  505  504  0.16515296859E+02  0.10192069301E+03  0.19981491869E+03  0.22491461585E+03  0.00000000000E+00 0. -1.
          2    1    1    2  501    0  0.12382087542E+02 -0.64812574614E+02  0.44629732090E+03  0.45114884967E+03  0.00000000000E+00 0.  1.
<scales pt_clust_3="38.76171" pt_clust_4="34.18299" pt_clust_5="169.22724" pt_clust_6="38.76171"></scales>
<clustering>
<clus scale="   34.183">  4  5 -1 -1</clus>
<clus scale="   38.762">  3  6 -1 -1</clus>
<clus scale="  169.227">  2  4  1 -1</clus>
<clus scale="  169.227">  2  3  1 -1</clus>
</clustering>
</event>
<event>
 6    0  0.3695460E+002  0.1446694E+03  0.7546771E-02  0.1207181E+00
         -2   -1    0    0    0  501 -0.00000000000E+00  0.00000000000E+00  0.23706072454E+04  0.23706072454E+04  0.00000000000E+00 0. -1.
         21   -1    0    0  505  502  0.00000000000E+00 -0.00000000000E+00 -0.41654430174E+02  0.41654430174E+02  0.00000000000E+00 0. -1.
         21    1    1    2  503  501 -0.79079755619E+01 -0.36989783015E+02  0.19575159061E+03  0.19937267955E+03  0.00000000000E+00 0.  1.
         21    1    1    2  504  503 -0.47857491136E+02  0.11222440801E+03  0.15393935302E+03  0.19642296612E+03  0.00000000000E+00 0. -1.
         21    1    1    2  505  504 -0.31107955860E+01  0.32155279254E+02 -0.10968141194E+01  0.32324016370E+02  0.00000000000E+00 0. -1.
         -2    1    1    2    0  502  0.58876262284E+02 -0.10738990424E+03  0.19803586857E+04  0.19841420135E+04  0.00000000000E+00 0. -1.
<scales pt_clust_3="35.59752" pt_clust_4="144.66936" pt_clust_5="32.30540" pt_clust_6="14000.00000"></scales>
<clustering>
<clus scale="   32.305">  2  5  1 -1</clus>
<clus scale="   35.598">  1  3  2 -1</clus>
<clus scale="  144.669">  2  4  1 -1</clus>
<clus scale="   32.305">  2  3  1 -1</clus>
</clustering>
</event>
<event>
 6    0  0.3695460E+002  0.1248119E+03  0.7546771E-02  0.1235364E+00
         21   -1    0    0  501  502  0.00000000000E+00  0.00000000000E+00  0.23188343118E+02  0.23188343118E+02  0.00000000000E+00 0. -1.
          2   -1    0    0  505    0 -0.00000000000E+00 -0.00000000000E+00 -0.20609609403E+04  0.20609609403E+04  0.00000000000E+00 0. -1.
         21    1    1    2  503  502 -0.51903663961E+02 -0.17751652445E+02 -0.17253896994E+03  0.18104918571E+03  0.00000000000E+00 0. -1.
         21    1    1    2  504  503 -0.33558445083E+02  0.12983429569E+03 -0.60671836050E+03  0.62136163587E+03  0.00000000000E+00 0. -1.
         21    1    1    2  505  504 -0.23407729143E+02 -0.12169172183E+03 -0.84434631720E+03  0.85339176251E+03  0.00000000000E+00 0. -1.
          2    1    1    2  501    0  0.10886983819E+03  0.96090785851E+01 -0.41416894951E+03  0.42834669929E+03  0.00000000000E+00 0. -1.
<scales pt_clust_3="54.85537" pt_clust_4="124.81191" pt_clust_5="14000.00000" pt_clust_6="89.48542"></scales>
<clustering>
<clus scale="   54.855">  1  3  2 -1</clus>
<clus scale="   89.485">  1  6  2 -1</clus>
<clus scale="  124.812">  1  4  2 -1</clus>
<clus scale="   54.855">  1  3  2 -1</clus>
</clustering>
</event>
<event>
 6    0  0.3695460E+002  0.2591410E+03  0.7546771E-02  0.1107660E+00
         21   -1    0    0  504  502  0.00000000000E+00  0.00000000000E+00  0.15982839435E+04  0.15982839435E+04  0.00000000000E+00 0. -1.
         -1   -1    0    0    0  501 -0.00000000000E+00 -0.00000000000E+00 -0.78109334045E+03  0.78109334045E+03  0.00000000000E+00 0. -1.
         21    1    1    2  503  501 -0.88982635690E+02 -0.57589485976E+02 -0.12519495771E+03  0.16403729998E+03  0.00000000000E+00 0.  1.
         21    1    1    2  504  503  0.57817652220E+01 -0.38108497418E+02  0.85756481547E+02  0.94020532395E+02  0.00000000000E+00 0.  1.
         21    1    1    2  505  502 -0.18464445881E+03 -0.14740528921E+03  0.14267235837E+04  0.14461542379E+04  0.00000000000E+00 0. -1.
         -1    1    1    2    0  505  0.26784532928E+03  0.24310327260E+03 -0.57009450456E+03  0.67516521363E+03  0.00000000000E+00 0. -1.
<scales pt_clust_3="106.19779" pt_clust_4="38.54460" pt_clust_5="259.14099" pt_clust_6="14000.00000"></scales>
<clustering>
<clus scale="   38.545">  1  4  2 -1</clus>
<clus scale="  106.198">  2  3  1 -1</clus>
<clus scale="  259.141">  1  5  2 -1</clus>
<clus scale="   38.545">  1  3  2 -1</clus>
</clustering>
</event>
<event>
 6    0  0.3695460E+002  0.1036515E+03  0.7546771E-02  0.1272800E+00
          2   -1    0    0  505    0 -0.00000000000E+00  0.00000000000E+00  0.99383986236E+03  0.99383986236E+03  0.00000000000E+00 0. -1.
         21   -1    0    0  501  502  0.00000000000E+00 -0.00000000000E+00 -0.67835437344E+03  0.67835437344E+03  0.00000000000E+00 0.  1.
         21    1    1    2  503  502 -0.62345209822E+02  0.95220598741E+01 -0.51714566954E+03  0.52097719560E+03  0.00000000000E+00 0.  1.
         21    1    1    2  504  503 -0.24698347297E+02  0.24971595600E+02 -0.14237086529E+03  0.14663919064E+03  0.00000000000E+00 0. -1.
         21    1    1    2  505  504  0.34681321835E+02  0.68859555856E+02  0.12607755220E+03  0.14778356365E+03  0.00000000000E+00 0. -1.
          2    1    1    2  501    0  0.52362235284E+02 -0.10335321133E+03  0.84892447155E+03  0.85679428591E+03  0.00000000000E+00 0. -1.
<scales pt_clust_3="33.23298" pt_clust_4="33.23298" pt_clust_5="77.10015" pt_clust_6="93.59724"></scales>
<clustering>
<clus scale="   33.233">  3  4 -1 -1</clus>
<clus scale="   77.100">  1  5  2 -1</clus>
<clus scale="   93.597">  1  6  2 -1</clus>
<clus scale="  103.651">  2  3  1 -1</clus>
</clustering>
</event>
<event>
 6    0  0.3695460E+002  0.2679444E+03  0.7546771E-02  0.1102462E+00
          2   -1    0    0  505    0 -0.00000000000E+00  0.00000000000E+00  0.20650684355E+04  0.20650684355E+04  0.00000000000E+00 0. -1.
         21   -1    0    0  504  502  0.00000000000E+00 -0.00000000000E+00 -0.35975160901E+03  0.35975160901E+03  0.00000000000E+00 0.  1.
         21    1    1    2  503  502  0.44858286574E+02 -0.12213220987E+03 -0.18962892216E+03  0.22997319557E+03  0.00000000000E+00 0.  1.
         21    1    1    2  504  501 -0.30002865292E+03  0.34427331190E+02  0.41221248882E+02  0.30479767891E+03  0.00000000000E+00 0.  1.
         21    1    1    2  505  503  0.40689413300E+02 -0.38783828246E+02  0.73685776900E+02  0.92679055916E+02  0.00000000000E+00 0.  1.
          2    1    1    2  501    0  0.21448095305E+03  0.12648870693E+03  0.17800387229E+04  0.17973701141E+04  0.00000000000E+00 0. -1.
<scales pt_clust_3="130.62331" pt_clust_4="267.94436" pt_clust_5="56.21222" pt_clust_6="14000.00000"></scales>
<clustering>
<clus scale="   56.212">  1  5  2 -1</clus>
<clus scale="  130.623">  2  3  1 -1</clus>
<clus scale="  267.944">  2  4  1 -1</clus>
<clus scale="  130.623">  2  3  1 -1</clus>
</clustering>
</event>
<event>
 6    0  0.3695460E+002  0.1274715E+03  0.7546771E-02  0.1231257E+00
         21   -1    0    0  504  502  0.00000000000E+00  0.00000000000E+00  0.16472105358E+03  0.16472105358E+03  0.00000000000E+00 0.  1.
          2   -1    0    0  502    0 -0.00000000000E+00 -0.00000000000E+00 -0.24699662290E+03  0.24699662290E+03  0.00000000000E+00 0. -1.
         21    1    1    2  503  501 -0.52542638032E+02  0.16273723593E+02 -0.45488103506E+02  0.71377380531E+02  0.00000000000E+00 0. -1.
         21    1    1    2  504  505  0.61246250269E+02 -0.21361238888E+02  0.61830797821E+01  0.65158546442E+02  0.00000000000E+00 0. -1.
         21    1    1    2  505  503  0.64599114681E+02  0.26426008240E+02  0.94770318489E+02  0.11769788781E+03  0.00000000000E+00 0.  1.
          2    1    1    2  501    0 -0.73302726918E+02 -0.21338492945E+02 -0.13774086409E+03  0.15748386169E+03  0.00000000000E+00 0. -1.
<scales pt_clust_3="46.03885" pt_clust_4="64.86452" pt_clust_5="115.35633" pt_clust_6="46.03885"></scales>
<clustering>
<clus scale="   46.039">  3  6 -1 -1</clus>
<clus scale="   64.865">  1  4  2 -1</clus>
<clus scale="  115.356">  1  5  2 -1</clus>
<clus scale="   64.865">  1  3  2 -1</clus>
</clustering>
</event>
<event>
 6    0  0.3695460E+002  0.1728165E+03  0.7546771E-02  0.1174942E+00
         21   -1    0    0  503  502  0.00000000000E+00  0.00000000000E+00  0.88831352099E+03  0.88831352099E+03  0.00000000000E+00 0.  1.
          1   -1    0    0  505    0 -0.00000000000E+00 -0.00000000000E+00 -0.85315221637E+03  0.85315221637E+03  0.00000000000E+00 0.  1.
         21    1    1    2  503  501 -0.37045413259E+02  0.82873334663E+02  0.74868979162E+02  0.11766782178E+03  0.00000000000E+00 0.  1.
         21    1    1    2  504  502  0.20916273892E+03 -0.14315542025E+03  0.74092980998E+03  0.78308333465E+03  0.00000000000E+00 0.  1.
         21    1    1    2  505  504 -0.48917670676E+02  0.11812851168E+03 -0.60580510828E+03  0.61915031535E+03  0.00000000000E+00 0. -1.
          1    1    1    2  501    0 -0.12319965499E+03 -0.57846426094E+02 -0.17483237624E+03  0.22156426558E+03  0.00000000000E+00 0.  1.
<scales pt_clust_3="90.77639" pt_clust_4="172.81650" pt_clust_5="128.62095" pt_clust_6="14000.00000"></scales>
<clustering>
<clus scale="   90.776">  1  3  2 -1</clus>
<clus scale="  128.621">  2  5  1 -1</clus>
<clus scale="  172.817">  1  4  2 -1</clus>
<clus scale="   90.776">  1  3  2 -1</clus>
</clustering>
</event>
<event>
 6    0  0.3695460E+002  0.1713399E+03  0.7546771E-02  0.1176458E+00
          2   -1    0    0  505    0 -0.00000000000E+00  0.00000000000E+00  0.13902129630E+04  0.13902129630E+04  0.00000000000E+00 0.  1.
         21   -1    0    0  501  502  0.00000000000E+00 -0.00000000000E+00 -0.86621508833E+02  0.86621508833E+02  0.00000000000E+00 0.  1.
         21    1    1    2  503  504  0.36170414026E+02 -0.28829352173E+02  0.40839810863E+02  0.61703488952E+02  0.00000000000E+00 0. -1.
         21    1    1    2  504  502 -0.51895876698E+02 -0.21409733253E+02 -0.38122420074E+02  0.67859248512E+02  0.00000000000E+00 0.  1.
         21    1    1    2  505  503  0.12694282164E+03 -0.62633767026E+02  0.27562492936E+03  0.30984927048E+03  0.00000000000E+00 0.  1.
          2    1    1    2  501    0 -0.11121735897E+03  0.11287285245E+03  0.10252491340E+04  0.10374224639E+04  0.00000000000E+00 0.  1.
<scales pt_clust_3="30.94243" pt_clust_4="56.13875" pt_clust_5="30.94243" pt_clust_6="162.56469"></scales>
<clustering>
<clus scale="   30.942">  3  5 -1 -1</clus>
<clus scale="   56.139">  2  4  1 -1</clus>
<clus scale="  162.565">  1  6  2 -1</clus>
<clus scale="   56.139">  2  3  1 -1</clus>
</clustering>
</event>
<event>
 6    0  0.3695460E+002  0.8521583E+02  0.7546771E-02  0.1314869E+00
          1   -1    0    0  504    0 -0.00000000000E+00  0.00000000000E+00  0.55255375992E+03  0.55255375992E+03  0.00000000000E+00 0. -1.
         21   -1    0    0  503  502  0.00000000000E+00 -0.00000000000E+00 -0.10771294684E+03  0.10771294684E+03  0.00000000000E+00 0. -1.
         21    1    1    2  503  501  0.33540894787E+02 -0.28932775560E+02 -0.34934228281E+02  0.56413628055E+02  0.00000000000E+00 0. -1.
         21    1    1    2  504  505 -0.30160755492E+02  0.32557429674E+02  0.18753360223E+03  0.19271354225E+03  0.00000000000E+00 0.  1.
         21    1    1    2  505  502  0.45733439490E+02  0.68156607883E+02 -0.22088332439E+02  0.84998618317E+02  0.00000000000E+00 0. -1.
          1    1    1    2  501    0 -0.49113578785E+02 -0.71781261997E+02  0.31432977157E+03  0.32614091814E+03  0.00000000000E+00 0. -1.
<scales pt_clust_3="44.29557" pt_clust_4="42.54365" pt_clust_5="14000.00000" pt_clust_6="85.21583"></scales>
<clustering>
<clus scale="   44.296">  2  3  1 -1</clus>
<clus scale="   42.544">  1  4  2 -1</clus>
<clus scale="   85.216">  1  6  2 -1</clus>
<clus scale="   44.296">  2  3  1 -1</clus>
</clustering>
</event>
<event>
 6    0  0.3695460E+002  0.2397169E+03  0.7546771E-02  0.1119982E+00
          2   -1    0    0  503    0 -0.00000000000E+00  0.00000000000E+00  0.36106006664E+04  0.36106006664E+04  0.00000000000E+00 0.  1.
         21   -1    0    0  504  502  0.00000000000E+00 -0.00000000000E+00 -0.31287629682E+02  0.31287629682E+02  0.00000000000E+00 0. -1.
         21    1    1    2  503  505 -0.59237763556E+02  0.88309643951E+02  0.16725774489E+03  0.19819903903E+03  0.00000000000E+00 0. -1.
         21    1    1    2  504  501 -0.90598756269E+01 -0.64497399290E+02  0.96025999569E+03  0.96246623587E+03  0.00000000000E+00 0. -1.
         21    1    1    2  505  502 -0.24924976464E+02  0.12275916912E+03  0.34078053001E+03  0.36307359817E+03  0.00000000000E+00 0. -1.
          2    1    1    2  501    0  0.93222615647E+02 -0.14657141378E+03  0.21110147661E+04  0.21181494230E+04  0.00000000000E+00 0.  1.
<scales pt_clust_3="67.01716" pt_clust_4="46.75719" pt_clust_5="238.58769" pt_clust_6="46.75719"></scales>
<clustering>
<clus scale="   46.757">  4  6 -1 -1</clus>
<clus scale="   67.017">  3  5 -1 -1</clus>
<clus scale="  238.588">  2  3  1 -1</clus>
<clus scale="  238.588">  2  3  1 -1</clus>
</clustering>
</event>
<event>
 6    0  0.3695460E+002  0.1226032E+03  0.7546771E-02  0.1238863E+00
         21   -1    0    0  505  502  0.00000000000E+00  0.00000000000E+00  0.13948313938E+03  0.13948313938E+03  0.00000000000E+00 0.  1.
          2   -1    0    0  504    0 -0.00000000000E+00 -0.00000000000E+00 -0.55861639132E+03  0.55861639132E+03  0.00000000000E+00 0.  1.
         21    1    1    2  503  501 -0.55803965136E+00  0.41810013307E+02  0.13241541419E+02  0.43860312814E+02  0.00000000000E+00 0.  1.
         21    1    1    2  504  502 -0.14605050408E+02 -0.61379720410E+02 -0.11939506121E+03  0.13504057989E+03  0.00000000000E+00 0.  1.
         21    1    1    2  505  503 -0.54080824863E+02  0.56915931720E+02  0.83719064122E+02  0.11477386723E+03  0.00000000000E+00 0.  1.
          2    1    1    2  501    0  0.69243914922E+02 -0.37346224617E+02 -0.39669879628E+03  0.40442477077E+03  0.00000000000E+00 0.  1.
<scales pt_clust_3="40.17910" pt_clust_4="63.09340" pt_clust_5="40.17910" pt_clust_6="109.54600"></scales>
<clustering>
<clus scale="   40.179">  3  5 -1 -1</clus>
<clus scale="   63.093">  2  4  1 -1</clus>
<clus scale="  109.546">  2  6  1 -1</clus>
<clus scale="  122.603">  1  3  2 -1</clus>
</clustering>
</event>
<event>
 6    0  0.3695460E+002  0.1450149E+03  0.7546771E-02  0.1206736E+00
          2   -1    0    0  503    0 -0.00000000000E+00  0.00000000000E+00  0.12509557088E+04  0.12509557088E+04  0.00000000000E+00 0. -1.
         21   -1    0    0  504  502  0.00000000000E+00 -0.00000000000E+00 -0.63688040101E+02  0.63688040101E+02  0.00000000000E+00 0.  1.
         21    1    1    2  503  502 -0.15351690093E+02  0.49490780908E+02  0.58995977691E+03  0.59223099392E+03  0.00000000000E+00 0. -1.
         21    1    1    2  504  505  0.57186716081E+02  0.20056506646E+02  0.90923374536E+01  0.61280131816E+02  0.00000000000E+00 0.  1.
         21    1    1    2  505  501  0.47407553660E+02  0.64144215240E+02  0.38823591722E+02  0.88708667936E+02  0.00000000000E+00 0.  1.
          2    1    1    2  501    0 -0.89242579648E+02 -0.13369150279E+03  0.54939196263E+03  0.57242395525E+03  0.00000000000E+00 0. -1.
<scales pt_clust_3="51.81710" pt_clust_4="40.61377" pt_clust_5="40.61377" pt_clust_6="137.32565"></scales>
<clustering>
<clus scale="   40.614">  4  5 -1 -1</clus>
<clus scale="   51.817">  1  3  2 -1</clus>
<clus scale="  137.326">  1  6  2 -1</clus>
<clus scale="  145.015">  2  3  1 -1</clus>
</clustering>
</event>
<event>
 6    0  0.3695460E+002  0.1408920E+03  0.7546771E-02  0.1212134E+00
         -1   -1    0    0    0  501 -0.00000000000E+00  0.00000000000E+00  0.56010986588E+03  0.56010986588E+03  0.00000000000E+00 0.  1.
         21   -1    0    0  504  502  0.00000000000E+00 -0.00000000000E+00 -0.26652503542E+03  0.26652503542E+03  0.00000000000E+00 0. -1.
         21    1    1    2  503  501 -0.18451963990E+02  0.28402394520E+02  0.38567681575E+02  0.51328715663E+02  0.00000000000E+00 0.  1.
         21    1    1    2  504  503  0.83734602179E+02  0.13934300894E+03 -0.11232577866E+03  0.19759817382E+03  0.00000000000E+00 0. -1.
         21    1    1    2  505  502 -0.60820342296E+02 -0.10623841140E+03 -0.66630529501E+02  0.13937482397E+03  0.00000000000E+00 0. -1.
         -1    1    1    2    0  505 -0.44622958937E+01 -0.61506992060E+02  0.43397345705E+03  0.43833318786E+03  0.00000000000E+00 0.  1.
<scales pt_clust_3="33.86991" pt_clust_4="140.89198" pt_clust_5="14000.00000" pt_clust_6="42.50500"></scales>
<clustering>
<clus scale="   33.870">  1  3  2 -1</clus>
<clus scale="   42.505">  1  6  2 -1</clus>
<clus scale="  140.892">  1  4  2 -1</clus>
<clus scale="  140.892">  2  3  1 -1</clus>
</clustering>
</event>
<event>
 6    0  0.3695460E+002  0.9757085E+02  0.7546771E-02  0.1285489E+00
         21   -1    0    0  503  502  0.00000000000E+00  0.00000000000E+00  0.11323892201E+04  0.11323892201E+04  0.00000000000E+00 0.  1.
          1   -1    0    0  505    0 -0.00000000000E+00 -0.00000000000E+00 -0.75200974260E+03  0.75200974260E+03  0.00000000000E+00 0. -1.
         21    1    1    2  503  501  0.89966118640E+01  0.41044947557E+02  0.19689874358E+03  0.20133241659E+03  0.00000000000E+00 0.  1.
         21    1    1    2  504  502  0.57500898923E+02  0.31288495206E+02  0.92349878657E+03  0.92581603578E+03  0.00000000000E+00 0.  1.
         21    1    1    2  505  504 -0.91389201470E+02 -0.18099533534E+02 -0.32948505886E+03  0.34240324659E+03  0.00000000000E+00 0. -1.
          1    1    1    2  501    0  0.24891690683E+02 -0.54233909229E+02 -0.41053299384E+03  0.41484726370E+03  0.00000000000E+00 0. -1.
<scales pt_clust_3="42.01936" pt_clust_4="97.57085" pt_clust_5="14000.00000" pt_clust_6="59.59587"></scales>
<clustering>
<clus scale="   42.019">  1  3  2 -1</clus>
<clus scale="   59.596">  2  6  1 -1</clus>
<clus scale="   97.571">  1  4  2 -1</clus>
<clus scale="   42.019">  1  3  2 -1</clus>
</clustering>
</event>
<event>
 6    0  0.3695460E+002  0.1470254E+03  0.7546771E-02  0.1204177E+00
         21   -1    0    0  504  502  0.00000000000E+00  0.00000000000E+00  0.79891172556E+03  0.79891172556E+03  0.00000000000E+00 0. -1.
          2   -1    0    0  503    0 -0.00000000000E+00 -0.00000000000E+00 -0.17570590105E+04  0.17570590105E+04  0.00000000000E+00 0. -1.
         21    1    1    2  503  505  0.12354326100E+03  0.51009082769E+02 -0.41200219152E+03  0.43314047338E+03  0.00000000000E+00 0.  1.
         21    1    1    2  504  501 -0.14067583234E+03  0.40975633674E+02  0.74046460037E+03  0.75482217559E+03  0.00000000000E+00 0. -1.
         21    1    1    2  505  502  0.14318792720E+02  0.40722774224E+02  0.24876458870E+02  0.49821786112E+02  0.00000000000E+00 0. -1.
          2    1    1    2  501    0  0.28137786207E+01 -0.13270749067E+03 -0.13114861527E+04  0.13181863010E+04  0.00000000000E+00 0. -1.
<scales pt_clust_3="14000.00000" pt_clust_4="147.02541" pt_clust_5="43.16679" pt_clust_6="132.55957"></scales>
<clustering>
<clus scale="   43.167">  1  5  2 -1</clus>
<clus scale="  132.560">  2  6  1 -1</clus>
<clus scale="  147.025">  1  4  2 -1</clus>
<clus scale="   43.167">  1  3  2 -1</clus>
</clustering>
</event>
<event>
 6    0  0.3695460E+002  0.1117779E+03  0.7546771E-02  0.1257313E+00
         21   -1    0    0  505  502  0.00000000000E+00  0.00000000000E+00  0.19552761623E+03  0.19552761623E+03  0.00000000000E+00 0. -1.
          1   -1    0    0  504    0 -0.00000000000E+00 -0.00000000000E+00 -0.11623258235E+04  0.11623258235E+04  0.00000000000E+00 0. -1.
         21    1    1    2  503  502  0.70141723128E+01 -0.11332686871E+03  0.14945751735E+03  0.18769583713E+03  0.00000000000E+00 0. -1.
         21    1    1    2  504  503 -0.13172949092E+02  0.52677601118E+02 -0.17497388485E+02  0.57049231819E+02  0.00000000000E+00 0. -1.
         21    1    1    2  505  501 -0.20551164918E+02  0.84729179838E+02 -0.27335914170E+03  0.28692613099E+03  0.00000000000E+00 0. -1.
          1    1    1    2  501    0  0.26709941698E+02 -0.24079912251E+02 -0.82539919445E+03  0.82618223980E+03  0.00000000000E+00 0. -1.
<scales pt_clust_3="111.77786" pt_clust_4="51.04312" pt_clust_5="14000.00000" pt_clust_6="35.96197"></scales>
<clustering>
<clus scale="   35.962">  2  6  1 -1</clus>
<clus scale="   51.043">  2  4  1 -1</clus>
<clus scale="  111.778">  1  3  2 -1</clus>
<clus scale="  111.778">  1  3  2 -1</clus>
</clustering>
</event>
<event>
 6    0  0.3695460E+002  0.7749055E+02  0.7546771E-02  0.1336328E+00
         21   -1    0    0  504  502  0.00000000000E+00  0.00000000000E+00  0.18295367463E+03  0.18295367463E+03  0.00000000000E+00 0. -1.
          2   -1    0    0  505    0 -0.00000000000E+00 -0.00000000000E+00 -0.45397548356E+04  0.45397548356E+04  0.00000000000E+00 0.  1.
         21    1    1    2  503  501  0.70314317951E+02 -0.37726831001E+02 -0.10992380393E+04  0.11021305205E+04  0.00000000000E+00 0. -1.
         21    1    1    2  504  503  0.23870624079E+02 -0.22401511345E+02  0.98279783882E+01  0.34179285593E+02  0.00000000000E+00 0. -1.
         21    1    1    2  505  502 -0.98817894758E+02  0.18882573954E+01  0.14391879211E+03  0.17458854648E+03  0.00000000000E+00 0. -1.
          2    1    1    2  501    0  0.46329527289E+01  0.58240084951E+02 -0.34113098921E+04  0.34118101577E+04  0.00000000000E+00 0.  1.
<scales pt_clust_3="77.49055" pt_clust_4="32.73583" pt_clust_5="14000.00000" pt_clust_6="58.39232"></scales>
<clustering>
<clus scale="   32.736">  1  4  2 -1</clus>
<clus scale="   58.392">  2  6  1 -1</clus>
<clus scale="   77.491">  2  3  1 -1</clus>
<clus scale="   32.736">  1  3  2 -1</clus>
</clustering>
</event>
<event>
 6    0  0.3695460E+002  0.2049903E+03  0.7546771E-02  0.1145596E+00
         21   -1    0    0  504  502  0.00000000000E+00  0.00000000000E+00  0.57028924167E+02  0.57028924167E+02  0.00000000000E+00 0.  1.
          2   -1    0    0  502    0 -0.00000000000E+00 -0.00000000000E+00 -0.22672831661E+04  0.22672831661E+04  0.00000000000E+00 0. -1.
         21    1    1    2  503  501 -0.79562287948E+02  0.72940167454E+02 -0.11603680677E+04  0.11653773973E+04  0.00000000000E+00 0. -1.
         21    1    1    2  504  505  0.59206383364E+02 -0.17806203237E+02 -0.85636266238E+01  0.62416283178E+02  0.00000000000E+00 0.  1.
         21    1    1    2  505  503  0.11273545659E+03 -0.10589889218E+03 -0.22274002348E+03  0.27117702078E+03  0.00000000000E+00 0.  1.
          2    1    1    2  501    0 -0.92379552010E+02  0.50764927965E+02 -0.81858252420E+03  0.82534138904E+03  0.00000000000E+00 0. -1.
<scales pt_clust_3="42.49222" pt_clust_4="61.82602" pt_clust_5="200.42984" pt_clust_6="42.49222"></scales>
<clustering>
<clus scale="   42.492">  3  6 -1 -1</clus>
<clus scale="   61.826">  1  4  2 -1</clus>
<clus scale="  200.430">  1  5  2 -1</clus>
<clus scale="   61.826">  1  3  2 -1</clus>
</clustering>
</event>
<event>
 6    0  0.3695460E+002  0.2265685E+03  0.7546771E-02  0.1129079E+00
         21   -1    0    0  503  502  0.00000000000E+00  0.00000000000E+00  0.59811949869E+03  0.59811949869E+03  0.00000000000E+00 0.  1.
          2   -1    0    0  504    0 -0.00000000000E+00 -0.00000000000E+00 -0.92469162496E+03  0.92469162496E+03  0.00000000000E+00 0. -1.
         21    1    1    2  503  505 -0.13173820361E+03  0.11372674667E+03  0.35868600504E+03  0.39867828811E+03  0.00000000000E+00 0.  1.
         21    1    1    2  504  502 -0.82246772570E+02 -0.82689901135E+02  0.18806017919E+03  0.22128891149E+03  0.00000000000E+00 0.  1.
         21    1    1    2  505  501  0.23841118524E+02  0.20782025431E+02 -0.13748048301E+03  0.14107152343E+03  0.00000000000E+00 0.  1.
          2    1    1    2  501    0  0.19014385766E+03 -0.51818870969E+02 -0.73583782749E+03  0.76177240062E+03  0.00000000000E+00 0. -1.
<scales pt_clust_3="213.64424" pt_clust_4="116.62826" pt_clust_5="30.21665" pt_clust_6="30.21665"></scales>
<clustering>
<clus scale="   30.217">  5  6 -1 -1</clus>
<clus scale="  116.628">  1  4  2 -1</clus>
<clus scale="  213.644">  1  3  2 -1</clus>
<clus scale="  116.628">  1  3  2 -1</clus>
</clustering>
</event>
<event>
 6    0  0.3695460E+002  0.9235099E+02  0.7546771E-02  0.1297256E+00
         21   -1    0    0  505  502  0.00000000000E+00  0.00000000000E+00  0.11135221784E+03  0.11135221784E+03  0.00000000000E+00 0. -1.
          1   -1    0    0  503    0 -0.00000000000E+00 -0.00000000000E+00 -0.11948979249E+04  0.11948979249E+04  0.00000000000E+00 0. -1.
         21    1    1    2  503  504  0.15053064088E+02  0.35909286913E+02 -0.20516697073E+03  0.20882901500E+03  0.00000000000E+00 0. -1.
         21    1    1    2  504  502  0.44820193955E+02  0.12059840049E+02 -0.23947632130E+02  0.52228140047E+02  0.00000000000E+00 0. -1.
         21    1    1    2  505  501 -0.47355589187E+02 -0.10642890847E+03  0.58467770434E+02  0.13033857665E+03  0.00000000000E+00 0. -1.
          1    1    1    2  501    0 -0.12517668856E+02  0.58459781506E+02 -0.91289887464E+03  0.91485441105E+03  0.00000000000E+00 0. -1.
<scales pt_clust_3="38.93676" pt_clust_4="47.34934" pt_clust_5="14000.00000" pt_clust_6="92.35099"></scales>
<clustering>
<clus scale="   38.937">  2  3  1 -1</clus>
<clus scale="   47.349">  1  4  2 -1</clus>
<clus scale="   92.351">  2  6  1 -1</clus>
<clus scale="   47.349">  1  3  2 -1</clus>
</clustering>
</event>
<event>
 6    0  0.3695460E+002  0.2694156E+03  0.7546771E-02  0.1101615E+00
          2   -1    0    0  505    0 -0.00000000000E+00  0.00000000000E+00  0.48917079750E+03  0.48917079750E+03  0.00000000000E+00 0. -1.
         21   -1    0    0  504  502  0.00000000000E+00 -0.00000000000E+00 -0.54116683570E+03  0.54116683570E+03  0.00000000000E+00 0.  1.
         21    1    1    2  503  501  0.61237409348E+01  0.44288177826E+02  0.61865577891E+02  0.76330155417E+02  0.00000000000E+00 0.  1.
         21    1    1    2  504  503 -0.14718202675E+03 -0.15816576301E+03 -0.43878091105E+03  0.48908858655E+03  0.00000000000E+00 0.  1.
         21    1    1    2  505  502 -0.41134963999E+02 -0.23577946747E+02 -0.19892666586E+02  0.51417147139E+02  0.00000000000E+00 0.  1.
          2    1    1    2  501    0  0.18219324982E+03  0.13745553193E+03  0.34481196155E+03  0.41350174409E+03  0.00000000000E+00 0. -1.
<scales pt_clust_3="34.43957" pt_clust_4="257.93437" pt_clust_5="47.41313" pt_clust_6="34.43957"></scales>
<clustering>
<clus scale="   34.440">  3  6 -1 -1</clus>
<clus scale="   47.413">  2  5  1 -1</clus>
<clus scale="  257.934">  2  4  1 -1</clus>
<clus scale="   47.413">  2  3  1 -1</clus>
</clustering>
</event>
<event>
 6    0  0.3695460E+002  0.1512732E+03  0.7546771E-02  0.1198917E+00
          1   -1    0    0  504    0 -0.00000000000E+00  0.00000000000E+00  0.18395072703E+04  0.18395072703E+04  0.00000000000E+00 0.  1.
         21   -1    0    0  505  502  0.00000000000E+00 -0.00000000000E+00 -0.60679828525E+02  0.60679828525E+02  0.00000000000E+00 0. -1.
         21    1    1    2  503  501  0.52802774080E+02  0.16520543647E+02  0.33593276488E+03  0.34045834376E+03  0.00000000000E+00 0.  1.
         21    1    1    2  504  502 -0.78693707016E+02 -0.21910652773E+02  0.88356276475E+02  0.12033124208E+03  0.00000000000E+00 0. -1.
         21    1    1    2  505  503 -0.64493482675E+02 -0.25501916032E+02 -0.11262238790E+02  0.70260906993E+02  0.00000000000E+00 0. -1.
          1    1    1    2  501    0  0.90384415611E+02  0.30892025158E+02  0.13658006392E+04  0.13691366060E+04  0.00000000000E+00 0.  1.
<scales pt_clust_3="48.54059" pt_clust_4="137.17066" pt_clust_5="69.35241" pt_clust_6="48.54059"></scales>
<clustering>
<clus scale="   48.541">  3  6 -1 -1</clus>
<clus scale="   69.352">  2  5  1 -1</clus>
<clus scale="  137.171">  2  4  1 -1</clus>
<clus scale="   69.352">  2  3  1 -1</clus>
</clustering>
</event>
<event>
 6    0  0.3695460E+002  0.1933815E+03  0.7546771E-02  0.1155446E+00
         21   -1    0    0  503  502  0.00000000000E+00  0.00000000000E+00  0.18218165187E+03  0.18218165187E+03  0.00000000000E+00 0. -1.
         -3   -1    0    0    0  501 -0.00000000000E+00 -0.00000000000E+00 -0.89546425911E+03  0.89546425911E+03  0.00000000000E+00 0. -1.
         21    1    1    2  503  504  0.12690229828E+03 -0.86554047872E+02 -0.38566814462E+03  0.41513336928E+03  0.00000000000E+00 0. -1.
         21    1    1    2  504  501 -0.32171383111E+01 -0.37027513252E+02 -0.33112395203E+02  0.49777680065E+02  0.00000000000E+00 0.  1.
         21    1    1    2  505  502 -0.70309138482E+02 -0.16546206324E+03  0.21621430934E+02  0.18107610444E+03  0.00000000000E+00 0. -1.
         -3    1    1    2    0  505 -0.53376021485E+02  0.28904362436E+03 -0.31612349835E+03  0.43165875719E+03  0.00000000000E+00 0. -1.
<scales pt_clust_3="162.85513" pt_clust_4="37.16701" pt_clust_5="193.38150" pt_clust_6="14000.00000"></scales>
<clustering>
<clus scale="   37.167">  2  4  1 -1</clus>
<clus scale="  162.855">  2  3  1 -1</clus>
<clus scale="  193.381">  1  5  2 -1</clus>
<clus scale="  193.381">  1  3  2 -1</clus>
</clustering>
</event>
<event>
 6    0  0.3695460E+002  0.1546262E+03  0.7546771E-02  0.1194901E+00
          4   -1    0    0  505    0 -0.00000000000E+00  0.00000000000E+00  0.31121940658E+03  0.31121940658E+03  0.00000000000E+00 0.  1.
         21   -1    0    0  504  502  0.00000000000E+00 -0.00000000000E+00 -0.93779629028E+03  0.93779629028E+03  0.00000000000E+00 0. -1.
         21    1    1    2  503  501  0.18681626510E+02  0.54592991970E+02 -0.46532282938E+03  0.46888669578E+03  0.00000000000E+00 0. -1.
         21    1    1    2  504  503 -0.14445736318E+02  0.91129398053E+02 -0.43340804527E+03  0.44312050302E+03  0.00000000000E+00 0. -1.
         21    1    1    2  505  502  0.32415530449E+02 -0.13521778194E+03  0.13187092733E+03  0.19163652220E+03  0.00000000000E+00 0.  1.
          4    1    1    2  501    0 -0.36651420641E+02 -0.10504608084E+02  0.14028306362E+03  0.14537197586E+03  0.00000000000E+00 0.  1.
<scales pt_clust_3="41.69350" pt_clust_4="41.69350" pt_clust_5="145.33509" pt_clust_6="38.12707"></scales>
<clustering>
<clus scale="   38.127">  1  6  2 -1</clus>
<clus scale="   41.694">  3  4 -1 -1</clus>
<clus scale="  145.335">  1  5  2 -1</clus>
<clus scale="  154.626">  2  3  1 -1</clus>
</clustering>
</event>
<event>
 6    0  0.3695460E+002  0.4468090E+03  0.7546771E-02  0.1028678E+00
          2   -1    0    0  502    0 -0.00000000000E+00  0.00000000000E+00  0.16797787549E+04  0.16797787549E+04  0.00000000000E+00 0.  1.
         21   -1    0    0  503  502  0.00000000000E+00 -0.00000000000E+00 -0.80513932162E+03  0.80513932162E+03  0.00000000000E+00 0.  1.
         21    1    1    2  503  505 -0.77867927805E+02 -0.29281966993E+03 -0.48481070689E+03  0.57170638862E+03  0.00000000000E+00 0.  1.
         21    1    1    2  504  501 -0.11843956486E+02  0.29418057308E+03  0.63796492455E+03  0.70262488843E+03  0.00000000000E+00 0.  1.
         21    1    1    2  505  504 -0.23194892204E+02 -0.15733599742E+03 -0.20773691314E+03  0.26162424236E+03  0.00000000000E+00 0.  1.
          2    1    1    2  501    0  0.11290677649E+03  0.15597509426E+03  0.92922212878E+03  0.94896255712E+03  0.00000000000E+00 0.  1.
<scales pt_clust_3="32.10637" pt_clust_4="444.60586" pt_clust_5="32.10637" pt_clust_6="192.55173"></scales>
<clustering>
<clus scale="   32.106">  3  5 -1 -1</clus>
<clus scale="  192.552">  1  6  2 -1</clus>
<clus scale="  444.606">  1  4  2 -1</clus>
<clus scale="  446.809">  2  3  1 -1</clus>
</clustering>
</event>
<event>
 6    0  0.3695460E+002  0.1314984E+03  0.7546771E-02  0.1225249E+00
          2   -1    0    0  505    0 -0.00000000000E+00  0.00000000000E+00  0.15265465590E+04  0.15265465590E+04  0.00000000000E+00 0.  1.
         21   -1    0    0  501  502  0.00000000000E+00 -0.00000000000E+00 -0.64196514283E+03  0.64196514283E+03  0.00000000000E+00 0. -1.
         21    1    1    2  503  502  0.71380423942E+02 -0.22841054650E+02 -0.43198692099E+03  0.43843993729E+03  0.00000000000E+00 0. -1.
         21    1    1    2  504  503  0.38816376557E+02 -0.37348973376E+02 -0.19991617444E+03  0.20704621151E+03  0.00000000000E+00 0. -1.
         21    1    1    2  505  504 -0.38781061385E+02  0.21350085245E+02  0.24663873642E+03  0.25058025294E+03  0.00000000000E+00 0. -1.
          2    1    1    2  501    0 -0.71415739114E+02  0.38839942780E+02  0.12698457752E+04  0.12724453001E+04  0.00000000000E+00 0.  1.
<scales pt_clust_3="33.74873" pt_clust_4="33.74873" pt_clust_5="44.26959" pt_clust_6="125.32816"></scales>
<clustering>
<clus scale="   33.749">  3  4 -1 -1</clus>
<clus scale="   44.270">  1  5  2 -1</clus>
<clus scale="  125.328">  1  6  2 -1</clus>
<clus scale="  131.498">  2  3  1 -1</clus>
</clustering>
</event>
<event>
 6    0  0.3695460E+002  0.1493214E+03  0.7546771E-02  0.1201309E+00
         21   -1    0    0  503  502  0.00000000000E+00  0.00000000000E+00  0.46812349355E+03  0.46812349355E+03  0.00000000000E+00 0.  1.
          2   -1    0    0  504    0 -0.00000000000E+00 -0.00000000000E+00 -0.76611235104E+03  0.76611235104E+03  0.00000000000E+00 0. -1.
         21    1    1    2  503  501  0.36460785058E+01  0.45041835106E+02  0.27714519752E+01  0.45274073643E+02  0.00000000000E+00 0. -1.
         21    1    1    2  504  505  0.58551955320E+02 -0.42890888465E+02 -0.49600237251E+03  0.50128466296E+03  0.00000000000E+00 0. -1.
         21    1    1    2  505  502 -0.11008290711E+03  0.73622254241E+02  0.42282439967E+03  0.44307894976E+03  0.00000000000E+00 0.  1.
          2    1    1    2  501    0  0.47884873280E+02 -0.75773200882E+02 -0.22758233664E+03  0.24459815823E+03  0.00000000000E+00 0. -1.
<scales pt_clust_3="45.18917" pt_clust_4="72.44027" pt_clust_5="14000.00000" pt_clust_6="149.32144"></scales>
<clustering>
<clus scale="   45.189">  1  3  2 -1</clus>
<clus scale="   72.440">  2  4  1 -1</clus>
<clus scale="  149.321">  2  6  1 -1</clus>
<clus scale="   45.189">  1  3  2 -1</clus>
</clustering>
</event>
<event>
 6    0  0.3695460E+002  0.1071495E+03  0.7546771E-02  0.1265941E+00
          2   -1    0    0  503    0 -0.00000000000E+00  0.00000000000E+00  0.38447896357E+04  0.38447896357E+04  0.00000000000E+00 0. -1.
         21   -1    0    0  505  502  0.00000000000E+00 -0.00000000000E+00 -0.37945893544E+02  0.37945893544E+02  0.00000000000E+00 0.  1.
         21    1    1    2  503  504  0.47417066811E+02 -0.50031070570E+02  0.52277203712E+03  0.52729696476E+03  0.00000000000E+00 0.  1.
         21    1    1    2  504  502  0.14093421969E+02  0.77329649196E+02  0.20703801894E+02  0.81284356431E+02  0.00000000000E+00 0.  1.
         21    1    1    2  505  501  0.97078848081E-01  0.33718543087E+02  0.54315883121E+02  0.63930937201E+02  0.00000000000E+00 0.  1.
          2    1    1    2  501    0 -0.61607567628E+02 -0.61017121713E+02  0.32090520201E+04  0.32102232709E+04  0.00000000000E+00 0. -1.
<scales pt_clust_3="67.28346" pt_clust_4="107.14951" pt_clust_5="33.71868" pt_clust_6="14000.00000"></scales>
<clustering>
<clus scale="   33.719">  2  5  1 -1</clus>
<clus scale="   67.283">  1  3  2 -1</clus>
<clus scale="  107.150">  2  4  1 -1</clus>
<clus scale="   33.719">  2  3  1 -1</clus>
</clustering>
</event>
<event>
 6    0  0.3695460E+002  0.1787886E+03  0.7546771E-02  0.1168981E+00
          2   -1    0    0  505    0 -0.00000000000E+00  0.00000000000E+00  0.19084980861E+04  0.19084980861E+04  0.00000000000E+00 0.  1.
         21   -1    0    0  503  502  0.00000000000E+00 -0.00000000000E+00 -0.55407083235E+02  0.55407083235E+02  0.00000000000E+00 0.  1.
         21    1    1    2  503  501  0.19303066900E+03 -0.75761949911E+02  0.34015165633E+03  0.39837653236E+03  0.00000000000E+00 0.  1.
         21    1    1    2  504  502 -0.15518972697E+02  0.52637266716E+02  0.18850480857E+02  0.58024658460E+02  0.00000000000E+00 0. -1.
         21    1    1    2  505  504 -0.28286876889E+02 -0.29242234501E+02  0.23131089154E+03  0.23486162783E+03  0.00000000000E+00 0.  1.
          2    1    1    2  501    0 -0.14922481941E+03  0.52366917696E+02  0.12627779742E+04  0.12726423507E+04  0.00000000000E+00 0.  1.
<scales pt_clust_3="14000.00000" pt_clust_4="54.42341" pt_clust_5="40.68483" pt_clust_6="178.78856"></scales>
<clustering>
<clus scale="   40.685">  1  5  2 -1</clus>
<clus scale="   54.423">  2  4  1 -1</clus>
<clus scale="  178.789">  1  6  2 -1</clus>
<clus scale="   54.423">  2  3  1 -1</clus>
</clustering>
</event>
<event>
 6    0  0.3695460E+002  0.1497096E+03  0.7546771E-02  0.1200830E+00
          1   -1    0    0  503    0 -0.00000000000E+00  0.00000000000E+00  0.13348306758E+04  0.13348306758E+04  0.00000000000E+00 0. -1.
         21   -1    0    0  504  502  0.00000000000E+00 -0.00000000000E+00 -0.72231494531E+03  0.72231494531E+03  0.00000000000E+00 0. -1.
         21    1    1    2  503  502  0.35749825869E+02  0.21588341501E+02 -0.25178714711E+02  0.48765502283E+02  0.00000000000E+00 0. -1.
         21    1    1    2  504  505 -0.14787593780E+03 -0.11064376152E+03 -0.66856103761E+03  0.69360161184E+03  0.00000000000E+00 0. -1.
         21    1    1    2  505  501  0.26836830768E+02  0.43275857419E+02  0.35973770067E+03  0.36332386187E+03  0.00000000000E+00 0.  1.
          1    1    1    2  501    0  0.85289281162E+02  0.45779562600E+02  0.94651778215E+03  0.95145464514E+03  0.00000000000E+00 0. -1.
<scales pt_clust_3="41.76250" pt_clust_4="143.44671" pt_clust_5="31.07798" pt_clust_6="31.07798"></scales>
<clustering>
<clus scale="   31.078">  5  6 -1 -1</clus>
<clus scale="   41.763">  2  3  1 -1</clus>
<clus scale="  143.447">  2  4  1 -1</clus>
<clus scale="   41.763">  2  3  1 -1</clus>
</clustering>
</event>
<event>
 6    0  0.3695460E+002  0.1208436E+03  0.7546771E-02  0.1241712E+00
         21   -1    0    0  503  502  0.00000000000E+00  0.00000000000E+00  0.11890307679E+02  0.11890307679E+02  0.00000000000E+00 0.  1.
          2   -1    0    0  505    0 -0.00000000000E+00 -0.00000000000E+00 -0.27452420349E+04  0.27452420349E+04  0.00000000000E+00 0.  1.
         21    1    1    2  503  504 -0.53890179879E+02 -0.43623899958E+02 -0.17197547113E+03  0.18542588494E+03  0.00000000000E+00 0.  1.
         21    1    1    2  504  501 -0.19609437692E+02 -0.48454954579E+02 -0.20243379174E+03  0.20907379728E+03  0.00000000000E+00 0.  1.
         21    1    1    2  505  502 -0.30298181520E+01  0.31369228117E+02 -0.39140416388E+03  0.39267088990E+03  0.00000000000E+00 0.  1.
          2    1    1    2  501    0  0.76529435723E+02  0.60709626420E+02 -0.19675383005E+04  0.19699617705E+04  0.00000000000E+00 0.  1.
<scales pt_clust_3="33.88090" pt_clust_4="33.88090" pt_clust_5="31.51521" pt_clust_6="114.17612"></scales>
<clustering>
<clus scale="   31.515">  2  5  1 -1</clus>
<clus scale="   33.881">  3  4 -1 -1</clus>
<clus scale="  114.176">  2  6  1 -1</clus>
<clus scale="  120.844">  1  3  2 -1</clus>
</clustering>
</event>
<event>
 6    0  0.3695460E+002  0.8799449E+02  0.7546771E-02  0.1307782E+00
         21   -1    0    0  504  502  0.00000000000E+00  0.00000000000E+00  0.32286794007E+03  0.32286794007E+03  0.00000000000E+00 0.  1.
          2   -1    0    0  505    0 -0.00000000000E+00 -0.00000000000E+00 -0.32886854709E+04  0.32886854709E+04  0.00000000000E+00 0.  1.
         21    1    1    2  503  502 -0.56765336698E+02 -0.46803216680E+01  0.34290776784E+02  0.66483578678E+02  0.00000000000E+00 0. -1.
         21    1    1    2  504  501 -0.27695801024E+02  0.32858838002E+02  0.26745505404E+03  0.27088552298E+03  0.00000000000E+00 0.  1.
         21    1    1    2  505  503 -0.48330106139E+02  0.36212787504E+02 -0.10053447164E+04  0.10071569708E+04  0.00000000000E+00 0.  1.
          2    1    1    2  501    0  0.13279124386E+03 -0.64391303838E+02 -0.22622186453E+04  0.22670273385E+04  0.00000000000E+00 0.  1.
<scales pt_clust_3="14000.00000" pt_clust_4="42.97395" pt_clust_5="61.09848" pt_clust_6="87.99449"></scales>
<clustering>
<clus scale="   42.974">  1  4  2 -1</clus>
<clus scale="   61.098">  2  5  1 -1</clus>
<clus scale="   87.994">  2  6  1 -1</clus>
<clus scale="   42.974">  1  3  2 -1</clus>
</clustering>
</event>
<event>
 6    0  0.3695460E+002  0.1445410E+03  0.7546771E-02  0.1207346E+00
         21   -1    0    0  505  502  0.00000000000E+00  0.00000000000E+00  0.11308535283E+04  0.11308535283E+04  0.00000000000E+00 0.  1.
          3   -1    0    0  502    0 -0.00000000000E+00 -0.00000000000E+00 -0.16992512681E+03  0.16992512681E+03  0.00000000000E+00 0.  1.
         21    1    1    2  503  504  0.10570684943E+03 -0.77615442334E+02  0.11524894176E+03  0.17458640692E+03  0.00000000000E+00 0.  1.
         21    1    1    2  504  501 -0.28387372702E+01  0.83581389621E+02 -0.26704808089E+02  0.87789827972E+02  0.00000000000E+00 0.  1.
         21    1    1    2  505  503 -0.93693028315E+02 -0.74979742011E+02  0.93625973376E+03  0.94391876469E+03  0.00000000000E+00 0.  1.
          3    1    1    2  501    0 -0.91750838478E+01  0.69013794725E+02 -0.63875465900E+02  0.94483655570E+02  0.00000000000E+00 0.  1.
<scales pt_clust_3="138.93484" pt_clust_4="36.37320" pt_clust_5="120.00144" pt_clust_6="36.37320"></scales>
<clustering>
<clus scale="   36.373">  4  6 -1 -1</clus>
<clus scale="  120.001">  1  5  2 -1</clus>
<clus scale="  138.935">  1  3  2 -1</clus>
<clus scale="  120.001">  1  3  2 -1</clus>
</clustering>
</event>
<event>
 6    0  0.3695460E+002  0.1377637E+03  0.7546771E-02  0.1216370E+00
         21   -1    0    0  503  502  0.00000000000E+00  0.00000000000E+00  0.13120752976E+03  0.13120752976E+03  0.00000000000E+00 0. -1.
          1   -1    0    0  505    0 -0.00000000000E+00 -0.00000000000E+00 -0.23564859207E+04  0.23564859207E+04  0.00000000000E+00 0.  1.
         21    1    1    2  503  504 -0.36321807314E+02 -0.32004108338E+01  0.52970324980E+02  0.64306855346E+02  0.00000000000E+00 0. -1.
         21    1    1    2  504  501 -0.92020140202E+02  0.18908701638E+02  0.37400238560E+02  0.10111391123E+03  0.00000000000E+00 0. -1.
         21    1    1    2  505  502  0.49311663384E+02  0.17198853118E+02 -0.28027085169E+03  0.28509505608E+03  0.00000000000E+00 0. -1.
          1    1    1    2  501    0  0.79030284132E+02 -0.32907143923E+02 -0.20353781027E+04  0.20371776278E+04  0.00000000000E+00 0.  1.
<scales pt_clust_3="31.01781" pt_clust_4="31.01781" pt_clust_5="52.22490" pt_clust_6="128.45248"></scales>
<clustering>
<clus scale="   31.018">  3  4 -1 -1</clus>
<clus scale="   52.225">  2  5  1 -1</clus>
<clus scale="  128.452">  2  6  1 -1</clus>
<clus scale="  137.764">  1  3  2 -1</clus>
</clustering>
</event>
<event>
 6    0  0.3695460E+002  0.1097488E+03  0.7546771E-02  0.1261036E+00
          1   -1    0    0  503    0 -0.00000000000E+00  0.00000000000E+00  0.13032023280E+03  0.13032023280E+03  0.00000000000E+00 0.  1.
         21   -1    0    0  501  502  0.00000000000E+00 -0.00000000000E+00 -0.13629580937E+04  0.13629580937E+04  0.00000000000E+00 0. -1.
         21    1    1    2  503  505  0.49637304740E+02 -0.46031716083E+01 -0.23773029790E+02  0.55228689611E+02  0.00000000000E+00 0.  1.
         21    1    1    2  504  502 -0.69642584563E+02  0.77396804276E+02 -0.12389688566E+04  0.12433359090E+04  0.00000000000E+00 0. -1.
         21    1    1    2  505  504  0.46131817928E+02 -0.28039333507E+02 -0.66158113971E+02  0.85388786694E+02  0.00000000000E+00 0. -1.
          1    1    1    2  501    0 -0.26126538105E+02 -0.44754299160E+02  0.96262139445E+02  0.10932494124E+03  0.00000000000E+00 0.  1.
<scales pt_clust_3="36.57157" pt_clust_4="102.93874" pt_clust_5="36.57157" pt_clust_6="51.82223"></scales>
<clustering>
<clus scale="   36.572">  3  5 -1 -1</clus>
<clus scale="   51.822">  1  6  2 -1</clus>
<clus scale="  102.939">  2  4  1 -1</clus>
<clus scale="  102.939">  2  3  1 -1</clus>
</clustering>
</event>
<event>
 6    0  0.3695460E+002  0.1084222E+03  0.7546771E-02  0.1263520E+00
         21   -1    0    0  501  502  0.00000000000E+00  0.00000000000E+00  0.98545914101E+02  0.98545914101E+02  0.00000000000E+00 0.  1.
          2   -1    0    0  504    0 -0.00000000000E+00 -0.00000000000E+00 -0.27566711111E+03  0.27566711111E+03  0.00000000000E+00 0.  1.
         21    1    1    2  503  502 -0.10367725659E+03  0.34684379540E+02 -0.56603420758E+01  0.10947154511E+03  0.00000000000E+00 0.  1.
         21    1    1    2  504  505 -0.19175134426E+02  0.34566139602E+02 -0.37211008554E+02  0.54287778964E+02  0.00000000000E+00 0.  1.
         21    1    1    2  505  503  0.40443625213E+02  0.89191061532E+01 -0.66067408072E+02  0.77975250460E+02  0.00000000000E+00 0.  1.
          2    1    1    2  501    0  0.82408765799E+02 -0.78169625295E+02 -0.68182438309E+02  0.13247845067E+03  0.00000000000E+00 0.  1.
<scales pt_clust_3="108.42219" pt_clust_4="39.52852" pt_clust_5="39.69698" pt_clust_6="14000.00000"></scales>
<clustering>
<clus scale="   39.529">  2  4  1 -1</clus>
<clus scale="   39.697">  2  5  1 -1</clus>
<clus scale="  108.422">  1  3  2 -1</clus>
<clus scale="  108.422">  1  3  2 -1</clus>
</clustering>
</event>
<event>
 6    0  0.3695460E+002  0.9582152E+02  0.7546771E-02  0.1289336E+00
          2   -1    0    0  503    0 -0.00000000000E+00  0.00000000000E+00  0.79658497156E+03  0.79658497156E+03  0.00000000000E+00 0. -1.
         21   -1    0    0  505  502  0.00000000000E+00 -0.00000000000E+00 -0.56577893937E+03  0.56577893937E+03  0.00000000000E+00 0. -1.
         21    1    1    2  503  504  0.40990643681E+02  0.11890413945E+03  0.44446802706E+02  0.13339394858E+03  0.00000000000E+00 0. -1.
         21    1    1    2  504  502 -0.13575959624E+02 -0.39956821273E+02 -0.12228779033E+03  0.12936443835E+03  0.00000000000E+00 0. -1.
         21    1    1    2  505  501  0.58693823239E+02 -0.49400635476E+02 -0.38877250818E+03  0.39626941692E+03  0.00000000000E+00 0. -1.
          2    1    1    2  501    0 -0.86108507297E+02 -0.29546682698E+02  0.69741952800E+03  0.70333610708E+03  0.00000000000E+00 0. -1.
<scales pt_clust_3="14000.00000" pt_clust_4="42.20017" pt_clust_5="95.82152" pt_clust_6="91.21053"></scales>
<clustering>
<clus scale="   42.200">  2  4  1 -1</clus>
<clus scale="   91.211">  1  6  2 -1</clus>
<clus scale="   95.822">  2  5  1 -1</clus>
<clus scale="   42.200">  2  3  1 -1</clus>
</clustering>
</event>
<event>
 6    0  0.3695460E+002  0.1765363E+03  0.7546771E-02  0.1171198E+00
          1   -1    0    0  504    0 -0.00000000000E+00  0.00000000000E+00  0.19832723448E+03  0.19832723448E+03  0.00000000000E+00 0.  1.
         21   -1    0    0  505  502  0.00000000000E+00 -0.00000000000E+00 -0.59170430267E+03  0.59170430267E+03  0.00000000000E+00 0. -1.
         21    1    1    2  503  501  0.43140421456E+02 -0.18936332140E+03 -0.46791774197E+03  0.50662271633E+03  0.00000000000E+00 0. -1.
         21    1    1    2  504  502 -0.29279370996E+02  0.44124136418E+02 -0.31803595874E+01  0.53050312606E+02  0.00000000000E+00 0. -1.
         21    1    1    2  505  503 -0.35369139769E+02  0.75812557466E+01 -0.35609140817E+02  0.50758865200E+02  0.00000000000E+00 0.  1.
          1    1    1    2  501    0  0.21508089309E+02  0.13765792924E+03  0.11333017418E+03  0.17959964301E+03  0.00000000000E+00 0.  1.
<scales pt_clust_3="14000.00000" pt_clust_4="54.29652" pt_clust_5="36.17252" pt_clust_6="176.53632"></scales>
<clustering>
<clus scale="   36.173">  2  5  1 -1</clus>
<clus scale="   54.297">  1  4  2 -1</clus>
<clus scale="  176.536">  1  6  2 -1</clus>
<clus scale="   36.173">  2  3  1 -1</clus>
</clustering>
</event>
<event>
 6    0  0.3695460E+002  0.3069919E+03  0.7546771E-02  0.1081797E+00
         21   -1    0    0  505  502  0.00000000000E+00  0.00000000000E+00  0.94438693336E+02  0.94438693336E+02  0.00000000000E+00 0. -1.
          2   -1    0    0  504    0 -0.00000000000E+00 -0.00000000000E+00 -0.29962911493E+04  0.29962911493E+04  0.00000000000E+00 0.  1.
         21    1    1    2  503  501  0.20877207934E+03 -0.75971937648E+01 -0.11225422303E+03  0.23715924830E+03  0.00000000000E+00 0. -1.
         21    1    1    2  504  502  0.29410708844E+01 -0.39293407634E+02 -0.17586715064E+04  0.17591128699E+04  0.00000000000E+00 0.  1.
         21    1    1    2  505  503  0.70167026349E+02  0.32593187911E+02 -0.14080612329E+03  0.16066141989E+03  0.00000000000E+00 0.  1.
          2    1    1    2  501    0 -0.28188017658E+03  0.14297413488E+02 -0.89012060322E+03  0.93379630448E+03  0.00000000000E+00 0.  1.
<scales pt_clust_3="75.57101" pt_clust_4="39.40332" pt_clust_5="75.57101" pt_clust_6="280.09661"></scales>
<clustering>
<clus scale="   39.403">  2  4  1 -1</clus>
<clus scale="   75.571">  3  5 -1 -1</clus>
<clus scale="  280.097">  2  6  1 -1</clus>
<clus scale="  306.992">  1  3  2 -1</clus>
</clustering>
</event>
<event>
 6    0  0.3695460E+002  0.9497664E+02  0.7546771E-02  0.1291229E+00
         21   -1    0    0  504  502  0.00000000000E+00  0.00000000000E+00  0.69382837456E+02  0.69382837456E+02  0.00000000000E+00 0. -1.
         -2   -1    0    0    0  501 -0.00000000000E+00 -0.00000000000E+00 -0.43548786561E+03  0.43548786561E+03  0.00000000000E+00 0. -1.
         21    1    1    2  503  501 -0.10709714439E+03 -0.66055398287E+02 -0.45298477880E+02  0.13373505927E+03  0.00000000000E+00 0. -1.
         21    1    1    2  504  503  0.27151656710E+02  0.67412822884E+02 -0.57939662477E+02  0.92944637496E+02  0.00000000000E+00 0. -1.
         21    1    1    2  505  502  0.25076941485E+02 -0.21059394462E+02 -0.96617772331E+02  0.10201639584E+03  0.00000000000E+00 0. -1.
         -2    1    1    2    0  505  0.54868546197E+02  0.19701969865E+02 -0.16624911547E+03  0.17617461047E+03  0.00000000000E+00 0. -1.
<scales pt_clust_3="84.39462" pt_clust_4="72.67531" pt_clust_5="32.65248" pt_clust_6="32.65248"></scales>
<clustering>
<clus scale="   32.652">  5  6 -1 -1</clus>
<clus scale="   72.675">  1  4  2 -1</clus>
<clus scale="   84.395">  1  3  2 -1</clus>
<clus scale="   72.675">  1  3  2 -1</clus>
</clustering>
</event>
<event>
 6    0  0.3695460E+002  0.1181821E+03  0.7546771E-02  0.1246126E+00
         21   -1    0    0  505  502  0.00000000000E+00  0.00000000000E+00  0.13297680571E+02  0.13297680571E+02  0.00000000000E+00 0. -1.
         -3   -1    0    0    0  501 -0.00000000000E+00 -0.00000000000E+00 -0.42909079193E+04  0.42909079193E+04  0.00000000000E+00 0. -1.
         21    1    1    2  503  502 -0.51090791128E+02  0.15204275059E+02 -0.69878765778E+02  0.87889025622E+02  0.00000000000E+00 0. -1.
         21    1    1    2  504  503 -0.24166084458E+02 -0.40069492578E+02 -0.10037745560E+04  0.10048646293E+04  0.00000000000E+00 0. -1.
         21    1    1    2  505  501  0.56168246401E+02  0.93688336477E+02 -0.93310366515E+03  0.93947582524E+03  0.00000000000E+00 0. -1.
         -3    1    1    2    0  504  0.19088629184E+02 -0.68823118958E+02 -0.22708532518E+04  0.22719761197E+04  0.00000000000E+00 0. -1.
<scales pt_clust_3="53.30515" pt_clust_4="41.38863" pt_clust_5="106.54755" pt_clust_6="41.38863"></scales>
<clustering>
<clus scale="   41.389">  4  6 -1 -1</clus>
<clus scale="   53.305">  1  3  2 -1</clus>
<clus scale="  106.548">  1  5  2 -1</clus>
<clus scale="   53.305">  1  3  2 -1</clus>
</clustering>
</event>
<event>
 6    0  0.3695460E+002  0.6963490E+02  0.7546771E-02  0.1361339E+00
         -1   -1    0    0    0  501 -0.00000000000E+00  0.00000000000E+00  0.21911278004E+03  0.21911278004E+03  0.00000000000E+00 0. -1.
         21   -1    0    0  505  502  0.00000000000E+00 -0.00000000000E+00 -0.16801177016E+03  0.16801177016E+03  0.00000000000E+00 0. -1.
         21    1    1    2  503  502  0.51166864600E+02  0.88026640970E+01 -0.78932687219E+02  0.94477002703E+02  0.00000000000E+00 0. -1.
         21    1    1    2  504  501  0.54638349158E+02  0.17431920385E+02  0.53384886655E+02  0.78352837665E+02  0.00000000000E+00 0. -1.
         21    1    1    2  505  504  0.63856867328E+01  0.30168795150E+02 -0.34730552320E+02  0.46445069278E+02  0.00000000000E+00 0. -1.
         -1    1    1    2    0  503 -0.11219090049E+03 -0.56403379631E+02  0.11137936276E+03  0.16784964056E+03  0.00000000000E+00 0. -1.
<scales pt_clust_3="14000.00000" pt_clust_4="58.90468" pt_clust_5="30.83720" pt_clust_6="69.63490"></scales>
<clustering>
<clus scale="   30.837">  2  5  1 -1</clus>
<clus scale="   58.905">  1  4  2 -1</clus>
<clus scale="   69.635">  1  6  2 -1</clus>
<clus scale="   30.837">  2  3  1 -1</clus>
</clustering>
</event>
<event>
 6    0  0.3695460E+002  0.1074996E+03  0.7546771E-02  0.1265272E+00
          2   -1    0    0  505    0 -0.00000000000E+00  0.00000000000E+00  0.28326299252E+04  0.28326299252E+04  0.00000000000E+00 0.  1.
         21   -1    0    0  504  502  0.00000000000E+00 -0.00000000000E+00 -0.22109983561E+03  0.22109983561E+03  0.00000000000E+00 0. -1.
         21    1    1    2  503  502  0.70546573403E+02 -0.19286082143E+02 -0.51770042118E+01  0.73318301644E+02  0.00000000000E+00 0. -1.
         21    1    1    2  504  501 -0.78456549188E+02  0.12753363976E+03 -0.14896312384E+03  0.21121143824E+03  0.00000000000E+00 0. -1.
         21    1    1    2  505  503  0.38515717883E+02 -0.75883392667E+02  0.12596656748E+04  0.12625368755E+04  0.00000000000E+00 0.  1.
          2    1    1    2  501    0 -0.30605742098E+02 -0.32364164949E+02  0.15060045429E+04  0.15066631455E+04  0.00000000000E+00 0.  1.
<scales pt_clust_3="72.60317" pt_clust_4="107.49960" pt_clust_5="14000.00000" pt_clust_6="44.54381"></scales>
<clustering>
<clus scale="   44.544">  1  6  2 -1</clus>
<clus scale="   72.603">  2  3  1 -1</clus>
<clus scale="  107.500">  2  4  1 -1</clus>
<clus scale="   72.603">  2  3  1 -1</clus>
</clustering>
</event>
<event>
 6    0  0.3695460E+002  0.1336873E+03  0.7546771E-02  0.1222085E+00
          1   -1    0    0  503    0 -0.00000000000E+00  0.00000000000E+00  0.20342705975E+03  0.20342705975E+03  0.00000000000E+00 0. -1.
         21   -1    0    0  504  502  0.00000000000E+00 -0.00000000000E+00 -0.10539178210E+03  0.10539178210E+03  0.00000000000E+00 0. -1.
         21    1    1    2  503  505 -0.59896689885E+02  0.74395158406E+02 -0.28737469890E+02  0.99740138506E+02  0.00000000000E+00 0. -1.
         21    1    1    2  504  501  0.15874413946E+02 -0.32903209418E+02  0.72787221659E+01  0.37250476568E+02  0.00000000000E+00 0.  1.
         21    1    1    2  505  502  0.61813798445E-01  0.32405899615E+02  0.12905855263E+02  0.34881330979E+02  0.00000000000E+00 0.  1.
          1    1    1    2  501    0  0.43960462141E+02 -0.73897848603E+02  0.10658817012E+03  0.13694689580E+03  0.00000000000E+00 0. -1.
<scales pt_clust_3="31.29007" pt_clust_4="31.88180" pt_clust_5="31.29007" pt_clust_6="131.82965"></scales>
<clustering>
<clus scale="   31.290">  3  5 -1 -1</clus>
<clus scale="   31.882">  4  6 -1 -1</clus>
<clus scale="  131.830">  1  4  2 -1</clus>
<clus scale="  133.687">  2  3  1 -1</clus>
</clustering>
</event>
<event>
 6    0  0.3695460E+002  0.1815921E+03  0.7546771E-02  0.1166271E+00
          2   -1    0    0  504    0 -0.00000000000E+00  0.00000000000E+00  0.72875722525E+03  0.72875722525E+03  0.00000000000E+00 0. -1.
         21   -1    0    0  503  502  0.00000000000E+00 -0.00000000000E+00 -0.22357162780E+03  0.22357162780E+03  0.00000000000E+00 0.  1.
         21    1    1    2  503  501  0.25457103511E+02 -0.93200468049E+02 -0.79720721858E+02  0.12525887137E+03  0.00000000000E+00 0.  1.
         21    1    1    2  504  505 -0.15052389888E+02 -0.46581376482E+02  0.59746819162E+02  0.77240413491E+02  0.00000000000E+00 0.  1.
         21    1    1    2  505  502 -0.99674166406E+02 -0.83878892283E+02 -0.39362597512E+02  0.13608828789E+03  0.00000000000E+00 0.  1.
          2    1    1    2  501    0  0.89269452783E+02  0.22366073681E+03  0.56452209765E+03  0.61374128029E+03  0.00000000000E+00 0. -1.
<scales pt_clust_3="98.03182" pt_clust_4="48.95303" pt_clust_5="181.59214" pt_clust_6="14000.00000"></scales>
<clustering>
<clus scale="   48.953">  1  4  2 -1</clus>
<clus scale="   98.032">  2  3  1 -1</clus>
<clus scale="  181.592">  2  5  1 -1</clus>
<clus scale="   98.032">  2  3  1 -1</clus>
</clustering>
</event>
<event>
 6    0  0.3695460E+002  0.7481053E+02  0.7546771E-02  0.1344459E+00
          2   -1    0    0  503    0 -0.00000000000E+00  0.00000000000E+00  0.11211132370E+04  0.11211132370E+04  0.00000000000E+00 0.  1.
         21   -1    0    0  505  502  0.00000000000E+00 -0.00000000000E+00 -0.95748380197E+02  0.95748380197E+02  0.00000000000E+00 0.  1.
         21    1    1    2  503  502 -0.53162161358E+01 -0.83492522910E+02 -0.37675112412E+02  0.91753352152E+02  0.00000000000E+00 0.  1.
         21    1    1    2  504  501  0.35001859833E+01  0.54054336166E+02  0.24803852619E+02  0.59576452269E+02  0.00000000000E+00 0. -1.
         21    1    1    2  505  504  0.35497727094E+01 -0.45170216108E+02  0.29561492963E+02  0.54100195709E+02  0.00000000000E+00 0.  1.
          2    1    1    2  501    0 -0.17337425569E+01  0.74608402852E+02  0.10086746237E+04  0.10114316171E+04  0.00000000000E+00 0.  1.
<scales pt_clust_3="74.81053" pt_clust_4="44.84750" pt_clust_5="45.30948" pt_clust_6="14000.00000"></scales>
<clustering>
<clus scale="   45.309">  2  5  1 -1</clus>
<clus scale="   44.848">  2  4  1 -1</clus>
<clus scale="   74.811">  2  3  1 -1</clus>
<clus scale="   45.309">  2  3  1 -1</clus>
</clustering>
</event>
<event>
 6    0  0.3695460E+002  0.8240421E+02  0.7546771E-02  0.1322364E+00
          2   -1    0    0  504    0 -0.00000000000E+00  0.00000000000E+00  0.14020276323E+03  0.14020276323E+03  0.00000000000E+00 0.  1.
         21   -1    0    0  501  502  0.00000000000E+00 -0.00000000000E+00 -0.15728565696E+04  0.15728565696E+04  0.00000000000E+00 0. -1.
         21    1    1    2  503  502 -0.62819398931E+02 -0.68146736915E+01 -0.11731414974E+04  0.11748419850E+04  0.00000000000E+00 0. -1.
         21    1    1    2  504  505 -0.40579851710E+02  0.14852016277E+02 -0.28530163745E+01  0.43306425097E+02  0.00000000000E+00 0. -1.
         21    1    1    2  505  503  0.19847411896E+02  0.78423357689E+02 -0.33943245039E+03  0.34893915109E+03  0.00000000000E+00 0. -1.
          2    1    1    2  501    0  0.83551838744E+02 -0.86460700274E+02  0.82773157864E+02  0.14597177163E+03  0.00000000000E+00 0.  1.
<scales pt_clust_3="63.46264" pt_clust_4="43.21234" pt_clust_5="14000.00000" pt_clust_6="82.40421"></scales>
<clustering>
<clus scale="   43.212">  1  4  2 -1</clus>
<clus scale="   63.463">  2  3  1 -1</clus>
<clus scale="   82.404">  1  6  2 -1</clus>
<clus scale="   63.463">  2  3  1 -1</clus>
</clustering>
</event>
<event>
 6    0  0.3695460E+002  0.1118638E+03  0.7546771E-02  0.1257157E+00
          2   -1    0    0  503    0 -0.00000000000E+00  0.00000000000E+00  0.83423549420E+03  0.83423549420E+03  0.00000000000E+00 0. -1.
         21   -1    0    0  504  502  0.00000000000E+00 -0.00000000000E+00 -0.89295838198E+02  0.89295838198E+02  0.00000000000E+00 0. -1.
         21    1    1    2  503  505  0.65330379800E+02  0.40591312951E+02  0.30160567320E+03  0.31125824538E+03  0.00000000000E+00 0.  1.
         21    1    1    2  504  501 -0.98939252647E+02  0.15424542982E+02  0.11051329390E+03  0.14913108452E+03  0.00000000000E+00 0. -1.
         21    1    1    2  505  502  0.10305766526E+03 -0.60184771037E+02 -0.38017205711E+01  0.11940495012E+03  0.00000000000E+00 0. -1.
          2    1    1    2  501    0 -0.69448792412E+02  0.41689151041E+01  0.33662240948E+03  0.34373705239E+03  0.00000000000E+00 0. -1.
<scales pt_clust_3="48.57539" pt_clust_4="111.86382" pt_clust_5="14000.00000" pt_clust_6="69.57381"></scales>
<clustering>
<clus scale="   69.574">  1  6  2 -1</clus>
<clus scale="   48.575">  1  3  2 -1</clus>
<clus scale="  111.864">  1  4  2 -1</clus>
<clus scale="  111.864">  2  3  1 -1</clus>
</clustering>
</event>
<event>
 6    0  0.3695460E+002  0.7192154E+02  0.7546771E-02  0.1353678E+00
         21   -1    0    0  501  502  0.00000000000E+00  0.00000000000E+00  0.28890751562E+03  0.28890751562E+03  0.00000000000E+00 0.  1.
          1   -1    0    0  504    0 -0.00000000000E+00 -0.00000000000E+00 -0.90708616018E+03  0.90708616018E+03  0.00000000000E+00 0. -1.
         21    1    1    2  503  502  0.29847390282E+02  0.20951878704E+02  0.17488519707E+03  0.17864680261E+03  0.00000000000E+00 0.  1.
         21    1    1    2  504  505 -0.14997012371E+02 -0.34803585326E+02 -0.47089847827E+03  0.47242097410E+03  0.00000000000E+00 0.  1.
         21    1    1    2  505  503 -0.26621493484E+02 -0.90184146938E+02  0.83630422166E+02  0.12584089870E+03  0.00000000000E+00 0.  1.
          1    1    1    2  501    0  0.11771115573E+02  0.10403585356E+03 -0.40579578553E+03  0.41908500038E+03  0.00000000000E+00 0. -1.
<scales pt_clust_3="36.46708" pt_clust_4="37.68666" pt_clust_5="14000.00000" pt_clust_6="71.92154"></scales>
<clustering>
<clus scale="   36.467">  1  3  2 -1</clus>
<clus scale="   37.687">  2  4  1 -1</clus>
<clus scale="   71.922">  2  6  1 -1</clus>
<clus scale="   36.467">  1  3  2 -1</clus>
</clustering>
</event>
<event>
 6    0  0.3695460E+002  0.1354204E+03  0.7546771E-02  0.1219627E+00
         21   -1    0    0  504  502  0.00000000000E+00  0.00000000000E+00  0.31557113966E+02  0.31557113966E+02  0.00000000000E+00 0. -1.
          3   -1    0    0  503    0 -0.00000000000E+00 -0.00000000000E+00 -0.28001348436E+04  0.28001348436E+04  0.00000000000E+00 0.  1.
         21    1    1    2  503  502  0.40197585064E+01 -0.41461157393E+02 -0.45850522574E+03  0.46039355780E+03  0.00000000000E+00 0. -1.
         21    1    1    2  504  505  0.65913482785E+02  0.75571167268E+02 -0.76949211103E+02  0.12639924693E+03  0.00000000000E+00 0. -1.
         21    1    1    2  505  501 -0.19815965056E+01  0.33514579230E+02 -0.53454819570E+02  0.63123462206E+02  0.00000000000E+00 0.  1.
          3    1    1    2  501    0 -0.67951644785E+02 -0.67624589105E+02 -0.21796684732E+04  0.21817756906E+04  0.00000000000E+00 0.  1.
<scales pt_clust_3="41.65556" pt_clust_4="31.30257" pt_clust_5="31.30257" pt_clust_6="124.14521"></scales>
<clustering>
<clus scale="   31.303">  4  5 -1 -1</clus>
<clus scale="   41.656">  2  3  1 -1</clus>
<clus scale="  124.145">  2  6  1 -1</clus>
<clus scale="  135.420">  1  3  2 -1</clus>
</clustering>
</event>
<event>
 6    0  0.3695460E+002  0.7478894E+02  0.7546771E-02  0.1344526E+00
         21   -1    0    0  504  502  0.00000000000E+00  0.00000000000E+00  0.44491061850E+03  0.44491061850E+03  0.00000000000E+00 0.  1.
         -1   -1    0    0    0  501 -0.00000000000E+00 -0.00000000000E+00 -0.60168474765E+02  0.60168474765E+02  0.00000000000E+00 0.  1.
         21    1    1    2  503  502 -0.61597811954E+01  0.10688718654E+03  0.11456961565E+03  0.15680883387E+03  0.00000000000E+00 0.  1.
         21    1    1    2  504  505  0.42764572591E+02  0.12977817827E+01  0.11596402909E+03  0.12360480958E+03  0.00000000000E+00 0.  1.
         21    1    1    2  505  501  0.55471730850E+00 -0.60347601354E+02  0.15256627802E+03  0.16406891810E+03  0.00000000000E+00 0.  1.
         -1    1    1    2    0  503 -0.37159508704E+02 -0.47837366968E+02  0.16422209747E+01  0.60596531710E+02  0.00000000000E+00 0.  1.
<scales pt_clust_3="74.78894" pt_clust_4="42.78426" pt_clust_5="14000.00000" pt_clust_6="58.05106"></scales>
<clustering>
<clus scale="   42.784">  1  4  2 -1</clus>
<clus scale="   58.051">  2  6  1 -1</clus>
<clus scale="   74.789">  2  3  1 -1</clus>
<clus scale="   42.784">  1  3  2 -1</clus>
</clustering>
</event>
<event>
 6    0  0.3695460E+002  0.1895416E+03  0.7546771E-02  0.1158875E+00
         21   -1    0    0  504  502  0.00000000000E+00  0.00000000000E+00  0.34688587756E+02  0.34688587756E+02  0.00000000000E+00 0. -1.
          2   -1    0    0  502    0 -0.00000000000E+00 -0.00000000000E+00 -0.38264096694E+04  0.38264096694E+04  0.00000000000E+00 0. -1.
         21    1    1    2  503  501  0.23743562034E+02  0.94548709192E+02 -0.13106275951E+04  0.13142480390E+04  0.00000000000E+00 0. -1.
         21    1    1    2  504  505  0.13728965751E+03 -0.13801905649E+03 -0.39220642156E+03  0.43786252081E+03  0.00000000000E+00 0. -1.
         21    1    1    2  505  503 -0.20952408190E+03  0.20720409314E+02 -0.11882403636E+04  0.12067496998E+04  0.00000000000E+00 0. -1.
          2    1    1    2  501    0  0.48490862358E+02  0.22749937979E+02 -0.90064670144E+03  0.90223799755E+03  0.00000000000E+00 0. -1.
<scales pt_clust_3="47.46028" pt_clust_4="189.54163" pt_clust_5="14000.00000" pt_clust_6="151.90897"></scales>
<clustering>
<clus scale="   47.460">  3  6 -1 -1</clus>
<clus scale="  151.909">  2  3  1 -1</clus>
<clus scale="  189.542">  1  4  2 -1</clus>
<clus scale="  189.542">  1  3  2 -1</clus>
</clustering>
</event>
<event>
 6    0  0.3695460E+002  0.7394756E+02  0.7546771E-02  0.1347161E+00
         21   -1    0    0  503  502  0.00000000000E+00  0.00000000000E+00  0.66734419950E+02  0.66734419950E+02  0.00000000000E+00 0.  1.
          1   -1    0    0  505    0 -0.00000000000E+00 -0.00000000000E+00 -0.70031415795E+03  0.70031415795E+03  0.00000000000E+00 0.  1.
         21    1    1    2  503  504 -0.28842523292E+02  0.72805046665E+02 -0.39849145401E+02  0.87865922627E+02  0.00000000000E+00 0.  1.
         21    1    1    2  504  501  0.52480788262E+02 -0.45051064809E+02 -0.51583422483E+01  0.69357336106E+02  0.00000000000E+00 0.  1.
         21    1    1    2  505  502  0.48840289488E+02 -0.62151357156E+00 -0.69101452394E+02  0.84621338203E+02  0.00000000000E+00 0.  1.
          1    1    1    2  501    0 -0.72478554458E+02 -0.27132468285E+02 -0.51947079796E+03  0.52520398096E+03  0.00000000000E+00 0.  1.
<scales pt_clust_3="73.10317" pt_clust_4="14000.00000" pt_clust_5="48.84424" pt_clust_6="73.94756"></scales>
<clustering>
<clus scale="   48.844">  1  5  2 -1</clus>
<clus scale="   73.103">  1  3  2 -1</clus>
<clus scale="   73.948">  2  6  1 -1</clus>
<clus scale="   48.844">  1  3  2 -1</clus>
</clustering>
</event>
<event>
 6    0  0.3695460E+002  0.9475850E+02  0.7546771E-02  0.1291721E+00
          3   -1    0    0  505    0 -0.00000000000E+00  0.00000000000E+00  0.49619693224E+02  0.49619693224E+02  0.00000000000E+00 0.  1.
         21   -1    0    0  504  502  0.00000000000E+00 -0.00000000000E+00 -0.89465418984E+03  0.89465418984E+03  0.00000000000E+00 0. -1.
         21    1    1    2  503  501  0.37631170541E+02 -0.66468630790E+01 -0.26303858138E+03  0.26579988916E+03  0.00000000000E+00 0.  1.
         21    1    1    2  504  503  0.38389846898E+02  0.36720355310E+02 -0.47242381101E+03  0.47540132735E+03  0.00000000000E+00 0. -1.
         21    1    1    2  505  502  0.45334628214E+02 -0.16690226177E+02 -0.23722019884E+02  0.53819386772E+02  0.00000000000E+00 0.  1.
          3    1    1    2  501    0 -0.12135564565E+03 -0.13383266054E+02 -0.85850084346E+02  0.14925327978E+03  0.00000000000E+00 0.  1.
<scales pt_clust_3="35.89018" pt_clust_4="35.89018" pt_clust_5="48.30934" pt_clust_6="84.78484"></scales>
<clustering>
<clus scale="   35.890">  3  4 -1 -1</clus>
<clus scale="   48.309">  1  5  2 -1</clus>
<clus scale="   84.785">  1  6  2 -1</clus>
<clus scale="   94.758">  2  3  1 -1</clus>
</clustering>
</event>
<event>
 6    0  0.3695460E+002  0.2701907E+03  0.7546771E-02  0.1101171E+00
          3   -1    0    0  504    0 -0.00000000000E+00  0.00000000000E+00  0.10363363955E+04  0.10363363955E+04  0.00000000000E+00 0. -1.
         21   -1    0    0  503  502  0.00000000000E+00 -0.00000000000E+00 -0.35442194620E+03  0.35442194620E+03  0.00000000000E+00 0. -1.
         21    1    1    2  503  505  0.55335932874E+02 -0.56787511973E+02 -0.51741217626E+01  0.79458533331E+02  0.00000000000E+00 0.  1.
         21    1    1    2  504  502  0.19183984932E+03  0.15386158087E+03 -0.24090645370E+03  0.34425547678E+03  0.00000000000E+00 0. -1.
         21    1    1    2  505  501 -0.18415241759E+03 -0.55443787807E+02  0.73639765262E+03  0.76109633378E+03  0.00000000000E+00 0. -1.
          3    1    1    2  501    0 -0.63023364609E+02 -0.41630281091E+02  0.19159737213E+03  0.20594799779E+03  0.00000000000E+00 0. -1.
<scales pt_clust_3="79.28989" pt_clust_4="263.67075" pt_clust_5="36.97344" pt_clust_6="36.97344"></scales>
<clustering>
<clus scale="   36.973">  5  6 -1 -1</clus>
<clus scale="   79.290">  2  3  1 -1</clus>
<clus scale="  263.671">  2  4  1 -1</clus>
<clus scale="   79.290">  2  3  1 -1</clus>
</clustering>
</event>
<event>
 6    0  0.3695460E+002  0.1004236E+03  0.7546771E-02  0.1279408E+00
          1   -1    0    0  505    0 -0.00000000000E+00  0.00000000000E+00  0.82677220030E+03  0.82677220030E+03  0.00000000000E+00 0. -1.
         21   -1    0    0  503  502  0.00000000000E+00 -0.00000000000E+00 -0.11463981612E+03  0.11463981612E+03  0.00000000000E+00 0.  1.
         21    1    1    2  503  504 -0.43202527248E+01  0.67791295153E+02 -0.43932568552E+02  0.80897434210E+02  0.00000000000E+00 0.  1.
         21    1    1    2  504  501  0.86309654398E+02  0.14958493135E+01 -0.46997782933E+01  0.86450459359E+02  0.00000000000E+00 0.  1.
         21    1    1    2  505  502  0.36770191432E+01 -0.37461318478E+02  0.97165027586E+02  0.10420131207E+03  0.00000000000E+00 0. -1.
          1    1    1    2  501    0 -0.85666420816E+02 -0.31825825989E+02  0.66359970344E+03  0.66986281077E+03  0.00000000000E+00 0. -1.
<scales pt_clust_3="66.97123" pt_clust_4="100.42356" pt_clust_5="37.64134" pt_clust_6="14000.00000"></scales>
<clustering>
<clus scale="   37.641">  1  5  2 -1</clus>
<clus scale="   66.971">  2  3  1 -1</clus>
<clus scale="  100.424">  2  4  1 -1</clus>
<clus scale="   66.971">  2  3  1 -1</clus>
</clustering>
</event>
<event>
 6    0  0.3695460E+002  0.1518272E+03  0.7546771E-02  0.1198246E+00
          2   -1    0    0  505    0 -0.00000000000E+00  0.00000000000E+00  0.92605160863E+03  0.92605160863E+03  0.00000000000E+00 0.  1.
         21   -1    0    0  503  502  0.00000000000E+00 -0.00000000000E+00 -0.93889464576E+03  0.93889464576E+03  0.00000000000E+00 0.  1.
         21    1    1    2  503  501 -0.80397532772E+02  0.91892167469E+02 -0.84869488944E+03  0.85743276651E+03  0.00000000000E+00 0.  1.
         21    1    1    2  504  502  0.54199297301E+01  0.41011942749E+02 -0.64983952732E+02  0.77034207979E+02  0.00000000000E+00 0.  1.
         21    1    1    2  505  504  0.15561028180E+02 -0.15699375567E+03  0.49279708001E+03  0.51743419580E+03  0.00000000000E+00 0. -1.
          2    1    1    2  501    0  0.59416574861E+02  0.24089645451E+02  0.40803872502E+03  0.41304508410E+03  0.00000000000E+00 0.  1.
<scales pt_clust_3="151.82720" pt_clust_4="41.36853" pt_clust_5="14000.00000" pt_clust_6="64.17329"></scales>
<clustering>
<clus scale="   41.369">  2  4  1 -1</clus>
<clus scale="   64.173">  1  6  2 -1</clus>
<clus scale="  151.827">  2  3  1 -1</clus>
<clus scale="   41.369">  2  3  1 -1</clus>
</clustering>
</event>
<event>
 6    0  0.3695460E+002  0.1061721E+03  0.7546771E-02  0.1267827E+00
         21   -1    0    0  504  502  0.00000000000E+00  0.00000000000E+00  0.12998119641E+03  0.12998119641E+03  0.00000000000E+00 0.  1.
         -2   -1    0    0    0  501 -0.00000000000E+00 -0.00000000000E+00 -0.22184667277E+04  0.22184667277E+04  0.00000000000E+00 0.  1.
         21    1    1    2  503  501  0.30772897625E+02 -0.40719581636E+02 -0.12315930541E+04  0.12326501963E+04  0.00000000000E+00 0.  1.
         21    1    1    2  504  503  0.10146708544E+03 -0.11280436528E+02  0.84458134026E+02  0.13249903426E+03  0.00000000000E+00 0.  1.
         21    1    1    2  505  502 -0.15608472375E+03  0.26117217103E+02 -0.28487788849E+03  0.32588335547E+03  0.00000000000E+00 0.  1.
         -2    1    1    2    0  505  0.23844740684E+02  0.25882801061E+02 -0.65647272275E+03  0.65741533809E+03  0.00000000000E+00 0.  1.
<scales pt_clust_3="53.58068" pt_clust_4="14000.00000" pt_clust_5="106.17206" pt_clust_6="35.19220"></scales>
<clustering>
<clus scale="   35.192">  2  6  1 -1</clus>
<clus scale="   53.581">  2  3  1 -1</clus>
<clus scale="  106.172">  2  5  1 -1</clus>
<clus scale="  106.172">  1  3  2 -1</clus>
</clustering>
</event>
<event>
 6    0  0.3695460E+002  0.1287360E+03  0.7546771E-02  0.1229343E+00
         21   -1    0    0  505  502  0.00000000000E+00  0.00000000000E+00  0.21569962167E+02  0.21569962167E+02  0.00000000000E+00 0. -1.
          2   -1    0    0  502    0 -0.00000000000E+00 -0.00000000000E+00 -0.17246842897E+04  0.17246842897E+04  0.00000000000E+00 0. -1.
         21    1    1    2  503  501 -0.58553081803E+02  0.20050956041E+02 -0.47449156088E+03  0.47851096704E+03  0.00000000000E+00 0. -1.
         21    1    1    2  504  503  0.10882575527E+03  0.11324633174E+02 -0.19687026264E+03  0.22523142019E+03  0.00000000000E+00 0. -1.
         21    1    1    2  505  504  0.11516911051E+02 -0.34179935962E+02 -0.69756774914E+02  0.78529707175E+02  0.00000000000E+00 0. -1.
          2    1    1    2  501    0 -0.61789584521E+02  0.28043467474E+01 -0.96199572908E+03  0.96398215745E+03  0.00000000000E+00 0. -1.
<scales pt_clust_3="47.13679" pt_clust_4="119.52824" pt_clust_5="36.06809" pt_clust_6="47.13679"></scales>
<clustering>
<clus scale="   36.068">  1  5  2 -1</clus>
<clus scale="   47.137">  3  6 -1 -1</clus>
<clus scale="  119.528">  1  4  2 -1</clus>
<clus scale="   36.068">  1  3  2 -1</clus>
</clustering>
</event>
<event>
 6    0  0.3695460E+002  0.1045880E+03  0.7546771E-02  0.1270933E+00
         -1   -1    0    0    0  501 -0.00000000000E+00  0.00000000000E+00  0.47096909696E+02  0.47096909696E+02  0.00000000000E+00 0. -1.
         21   -1    0    0  503  502  0.00000000000E+00 -0.00000000000E+00 -0.15845658844E+04  0.15845658844E+04  0.00000000000E+00 0.  1.
         21    1    1    2  503  505 -0.16103783872E+02 -0.53630480132E+02 -0.11076595397E+04  0.11090740355E+04  0.00000000000E+00 0.  1.
         21    1    1    2  504  502 -0.11780293534E+02 -0.70927798796E+02 -0.31476405506E+03  0.32287139593E+03  0.00000000000E+00 0.  1.
         21    1    1    2  505  501 -0.24365348751E+02  0.35061800368E+02 -0.79353825724E+02  0.90111207527E+02  0.00000000000E+00 0. -1.
         -1    1    1    2    0  504  0.52249426157E+02  0.89496478560E+02 -0.35691554225E+02  0.10960615517E+03  0.00000000000E+00 0. -1.
<scales pt_clust_3="55.54846" pt_clust_4="14000.00000" pt_clust_5="42.69660" pt_clust_6="104.58801"></scales>
<clustering>
<clus scale="   42.697">  1  5  2 -1</clus>
<clus scale="   55.548">  2  3  1 -1</clus>
<clus scale="  104.588">  1  6  2 -1</clus>
<clus scale="   55.548">  2  3  1 -1</clus>
</clustering>
</event>
<event>
 6    0  0.3695460E+002  0.1535831E+03  0.7546771E-02  0.1196138E+00
         21   -1    0    0  505  502  0.00000000000E+00  0.00000000000E+00  0.19348237994E+02  0.19348237994E+02  0.00000000000E+00 0. -1.
          2   -1    0    0  502    0 -0.00000000000E+00 -0.00000000000E+00 -0.37418354126E+04  0.37418354126E+04  0.00000000000E+00 0. -1.
         21    1    1    2  503  504  0.94645990019E+02  0.53215805101E+02 -0.20782348876E+03  0.23447897096E+03  0.00000000000E+00 0. -1.
         21    1    1    2  504  501 -0.70596430779E+02 -0.49231018906E+02 -0.16194559340E+04  0.16217413701E+04  0.00000000000E+00 0. -1.
         21    1    1    2  505  503  0.68591269310E+01  0.43795324976E+02 -0.10658933359E+03  0.11543987243E+03  0.00000000000E+00 0. -1.
          2    1    1    2  501    0 -0.30908686171E+02 -0.47780111171E+02 -0.17886184183E+04  0.17895234372E+04  0.00000000000E+00 0. -1.
<scales pt_clust_3="39.76587" pt_clust_4="36.74725" pt_clust_5="39.76587" pt_clust_6="147.50185"></scales>
<clustering>
<clus scale="   36.747">  4  6 -1 -1</clus>
<clus scale="   39.766">  3  5 -1 -1</clus>
<clus scale="  147.502">  2  4  1 -1</clus>
<clus scale="  153.583">  1  3  2 -1</clus>
</clustering>
</event>
<event>
 6    0  0.3695460E+002  0.1499250E+03  0.7546771E-02  0.1200565E+00
         21   -1    0    0  504  502  0.00000000000E+00  0.00000000000E+00  0.26573185341E+03  0.26573185341E+03  0.00000000000E+00 0.  1.
          2   -1    0    0  503    0 -0.00000000000E+00 -0.00000000000E+00 -0.70561936612E+03  0.70561936612E+03  0.00000000000E+00 0.  1.
         21    1    1    2  503  502 -0.43565990576E+02 -0.39561227252E+02  0.56763950561E+01  0.59121127335E+02  0.00000000000E+00 0.  1.
         21    1    1    2  504  505 -0.11885894621E+03  0.41116679926E+02  0.20033385492E+03  0.23654108288E+03  0.00000000000E+00 0.  1.
         21    1    1    2  505  501  0.11214908884E+03  0.12209818425E+02 -0.22624015009E+03  0.25280645424E+03  0.00000000000E+00 0. -1.
          2    1    1    2  501    0  0.50275847948E+02 -0.13765271099E+02 -0.41965761260E+03  0.42288255508E+03  0.00000000000E+00 0.  1.
<scales pt_clust_3="56.37161" pt_clust_4="14000.00000" pt_clust_5="149.92502" pt_clust_6="52.12623"></scales>
<clustering>
<clus scale="   52.126">  2  6  1 -1</clus>
<clus scale="   56.372">  1  3  2 -1</clus>
<clus scale="  149.925">  2  5  1 -1</clus>
<clus scale="   56.372">  1  3  2 -1</clus>
</clustering>
</event>
<event>
 6    0  0.3695460E+002  0.2186992E+03  0.7546771E-02  0.1134857E+00
          2   -1    0    0  503    0 -0.00000000000E+00  0.00000000000E+00  0.77449900035E+03  0.77449900035E+03  0.00000000000E+00 0.  1.
         21   -1    0    0  505  502  0.00000000000E+00 -0.00000000000E+00 -0.32946224044E+03  0.32946224044E+03  0.00000000000E+00 0.  1.
         21    1    1    2  503  504 -0.13681238408E+03  0.63513746235E+00 -0.15505440210E+03  0.20678466928E+03  0.00000000000E+00 0.  1.
         21    1    1    2  504  502 -0.61140174874E+02  0.10010455328E+02 -0.12516755684E+03  0.13966118819E+03  0.00000000000E+00 0.  1.
         21    1    1    2  505  501  0.93255275588E+02 -0.32186158598E+02  0.22050225656E+03  0.24156518868E+03  0.00000000000E+00 0.  1.
          2    1    1    2  501    0  0.10469728337E+03  0.21540565808E+02  0.50475646230E+03  0.51595019464E+03  0.00000000000E+00 0.  1.
<scales pt_clust_3="203.71643" pt_clust_4="31.57647" pt_clust_5="88.73236" pt_clust_6="88.73236"></scales>
<clustering>
<clus scale="   31.576">  3  4 -1 -1</clus>
<clus scale="   88.732">  5  6 -1 -1</clus>
<clus scale="  203.716">  2  3  1 -1</clus>
<clus scale="  203.716">  2  3  1 -1</clus>
</clustering>
</event>
<event>
 6    0  0.3695460E+002  0.2494051E+03  0.7546771E-02  0.1113681E+00
         21   -1    0    0  504  502  0.00000000000E+00  0.00000000000E+00  0.30190921834E+03  0.30190921834E+03  0.00000000000E+00 0.  1.
          2   -1    0    0  505    0 -0.00000000000E+00 -0.00000000000E+00 -0.12209443974E+04  0.12209443974E+04  0.00000000000E+00 0. -1.
         21    1    1    2  503  502  0.25115893151E+03 -0.59587543324E+01  0.21000099227E+03  0.32743966220E+03  0.00000000000E+00 0.  1.
         21    1    1    2  504  501 -0.13368733057E+02  0.57060539748E+02 -0.24719465370E+03  0.25404689535E+03  0.00000000000E+00 0. -1.
         21    1    1    2  505  503 -0.23438764043E+03 -0.84249133202E+00 -0.45751178890E+03  0.51405769400E+03  0.00000000000E+00 0. -1.
          2    1    1    2  501    0 -0.34025580221E+01 -0.50259294084E+02 -0.42432972871E+03  0.42730936417E+03  0.00000000000E+00 0. -1.
<scales pt_clust_3="249.40506" pt_clust_4="43.67553" pt_clust_5="14000.00000" pt_clust_6="50.37434"></scales>
<clustering>
<clus scale="   50.374">  2  6  1 -1</clus>
<clus scale="   43.676">  2  4  1 -1</clus>
<clus scale="  249.405">  1  3  2 -1</clus>
<clus scale="  249.405">  1  3  2 -1</clus>
</clustering>
</event>
<event>
 6    0  0.3695460E+002  0.1301107E+03  0.7546771E-02  0.1227292E+00
         21   -1    0    0  505  502  0.00000000000E+00  0.00000000000E+00  0.57258898543E+02  0.57258898543E+02  0.00000000000E+00 0.  1.
          2   -1    0    0  503    0 -0.00000000000E+00 -0.00000000000E+00 -0.27299913084E+04  0.27299913084E+04  0.00000000000E+00 0. -1.
         21    1    1    2  503  502  0.34165173663E+02 -0.64818458162E+01  0.25326743111E+02  0.43019964356E+02  0.00000000000E+00 0.  1.
         21    1    1    2  504  501 -0.80840217054E+02  0.35787908741E+02 -0.16436736074E+04  0.16460494654E+04  0.00000000000E+00 0. -1.
         21    1    1    2  505  504  0.64175918170E+02 -0.68890986647E+02 -0.82062832040E+02  0.12489525578E+03  0.00000000000E+00 0.  1.
          2    1    1    2  501    0 -0.17500874778E+02  0.39584923722E+02 -0.97232271357E+03  0.97328552138E+03  0.00000000000E+00 0. -1.
<scales pt_clust_3="34.77461" pt_clust_4="32.26906" pt_clust_5="121.66263" pt_clust_6="32.26906"></scales>
<clustering>
<clus scale="   32.269">  4  6 -1 -1</clus>
<clus scale="   34.775">  1  3  2 -1</clus>
<clus scale="  121.663">  1  5  2 -1</clus>
<clus scale="   34.775">  1  3  2 -1</clus>
</clustering>
</event>
<event>
 6    0  0.3695460E+002  0.1183413E+03  0.7546771E-02  0.1245859E+00
          2   -1    0    0  505    0 -0.00000000000E+00  0.00000000000E+00  0.97719303869E+03  0.97719303869E+03  0.00000000000E+00 0.  1.
         21   -1    0    0  504  502  0.00000000000E+00 -0.00000000000E+00 -0.34715924739E+03  0.34715924739E+03  0.00000000000E+00 0.  1.
         21    1    1    2  503  502  0.32933161329E+02  0.36659697687E+01 -0.96851226454E+01  0.34522949615E+02  0.00000000000E+00 0.  1.
         21    1    1    2  504  501  0.47584740787E+02  0.82674314378E+02 -0.30588411350E+03  0.32041292219E+03  0.00000000000E+00 0.  1.
         21    1    1    2  505  503  0.52688967039E+02  0.30089717584E+01  0.21009364299E+03  0.21662068226E+03  0.00000000000E+00 0. -1.
          2    1    1    2  501    0 -0.13320686916E+03 -0.89349255905E+02  0.73550938445E+03  0.75279573201E+03  0.00000000000E+00 0.  1.
<scales pt_clust_3="33.13657" pt_clust_4="118.34126" pt_clust_5="53.10702" pt_clust_6="14000.00000"></scales>
<clustering>
<clus scale="   33.137">  2  3  1 -1</clus>
<clus scale="   53.107">  1  5  2 -1</clus>
<clus scale="  118.341">  2  4  1 -1</clus>
<clus scale="   33.137">  2  3  1 -1</clus>
</clustering>
</event>
<event>
 6    0  0.3695460E+002  0.3726789E+03  0.7546771E-02  0.1053673E+00
          2   -1    0    0  503    0 -0.00000000000E+00  0.00000000000E+00  0.12863724556E+04  0.12863724556E+04  0.00000000000E+00 0. -1.
         21   -1    0    0  504  502  0.00000000000E+00 -0.00000000000E+00 -0.20496219243E+03  0.20496219243E+03  0.00000000000E+00 0. -1.
         21    1    1    2  503  505  0.28075302590E+02 -0.43291536077E+02  0.16269556646E+03  0.17068165413E+03  0.00000000000E+00 0.  1.
         21    1    1    2  504  501  0.18875051141E+03  0.37456984821E+03  0.17474537268E+03  0.45438449799E+03  0.00000000000E+00 0. -1.
         21    1    1    2  505  502  0.84028603640E+00 -0.60773298027E+02  0.21098021679E+02  0.64336819571E+02  0.00000000000E+00 0. -1.
          2    1    1    2  501    0 -0.21766610004E+03 -0.27050501410E+03  0.72287130233E+03  0.80193167632E+03  0.00000000000E+00 0. -1.
<scales pt_clust_3="51.59825" pt_clust_4="372.67888" pt_clust_5="62.45418" pt_clust_6="14000.00000"></scales>
<clustering>
<clus scale="   51.598">  1  3  2 -1</clus>
<clus scale="   62.454">  2  5  1 -1</clus>
<clus scale="  372.679">  2  4  1 -1</clus>
<clus scale="   62.454">  2  3  1 -1</clus>
</clustering>
</event>
<event>
 6    0  0.3695460E+002  0.1136132E+03  0.7546771E-02  0.1254021E+00
          1   -1    0    0  505    0 -0.00000000000E+00  0.00000000000E+00  0.94885394309E+03  0.94885394309E+03  0.00000000000E+00 0. -1.
         21   -1    0    0  504  502  0.00000000000E+00 -0.00000000000E+00 -0.15977911246E+03  0.15977911246E+03  0.00000000000E+00 0.  1.
         21    1    1    2  503  501 -0.28207444182E+02 -0.51255080716E+02  0.37623882812E+03  0.38076029072E+03  0.00000000000E+00 0. -1.
         21    1    1    2  504  503  0.38075329719E+02 -0.18201378159E+02  0.14701029475E+02  0.44689385403E+02  0.00000000000E+00 0.  1.
         21    1    1    2  505  502 -0.22911136039E+02  0.12023043835E+03 -0.11466248888E+03  0.16771334120E+03  0.00000000000E+00 0.  1.
          1    1    1    2  501    0  0.13043250503E+02 -0.50773979472E+02  0.51279746191E+03  0.51547003823E+03  0.00000000000E+00 0. -1.
<scales pt_clust_3="44.55280" pt_clust_4="42.20214" pt_clust_5="103.46287" pt_clust_6="44.55280"></scales>
<clustering>
<clus scale="   42.202">  2  4  1 -1</clus>
<clus scale="   44.553">  3  6 -1 -1</clus>
<clus scale="  103.463">  2  5  1 -1</clus>
<clus scale="   42.202">  2  3  1 -1</clus>
</clustering>
</event>
<event>
 6    0  0.3695460E+002  0.1177116E+03  0.7546771E-02  0.1246921E+00
         21   -1    0    0  505  502  0.00000000000E+00  0.00000000000E+00  0.31415868806E+02  0.31415868806E+02  0.00000000000E+00 0. -1.
          2   -1    0    0  503    0 -0.00000000000E+00 -0.00000000000E+00 -0.12433369182E+04  0.12433369182E+04  0.00000000000E+00 0.  1.
         21    1    1    2  503  504 -0.45010786280E+02 -0.17840754238E+02 -0.10829954036E+03  0.11862990279E+03  0.00000000000E+00 0. -1.
         21    1    1    2  504  502 -0.77085272050E+02 -0.98202304816E+01 -0.58354605701E+02  0.97179401625E+02  0.00000000000E+00 0. -1.
         21    1    1    2  505  501  0.21360562281E+02  0.43405853456E+02 -0.14359140816E+03  0.15152172858E+03  0.00000000000E+00 0. -1.
          2    1    1    2  501    0  0.10073549605E+03 -0.15744868736E+02 -0.90167549519E+03  0.90742175403E+03  0.00000000000E+00 0.  1.
<scales pt_clust_3="44.14330" pt_clust_4="44.14330" pt_clust_5="48.37708" pt_clust_6="103.57871"></scales>
<clustering>
<clus scale="   44.143">  3  4 -1 -1</clus>
<clus scale="   48.377">  1  5  2 -1</clus>
<clus scale="  103.579">  2  6  1 -1</clus>
<clus scale="   48.377">  1  3  2 -1</clus>
</clustering>
</event>
<event>
 6    0  0.3695460E+002  0.1535349E+03  0.7546771E-02  0.1196195E+00
         21   -1    0    0  501  502  0.00000000000E+00  0.00000000000E+00  0.94388335318E+03  0.94388335318E+03  0.00000000000E+00 0. -1.
          2   -1    0    0  505    0 -0.00000000000E+00 -0.00000000000E+00 -0.97190726159E+03  0.97190726159E+03  0.00000000000E+00 0. -1.
         21    1    1    2  503  504 -0.10435928957E+02 -0.70339910932E+02  0.27311468017E+03  0.28222019808E+03  0.00000000000E+00 0. -1.
         21    1    1    2  504  502  0.21438569282E+00 -0.78417983551E+02  0.61450686114E+03  0.61949020048E+03  0.00000000000E+00 0. -1.
         21    1    1    2  505  503  0.64204878504E+02  0.88254903682E+02 -0.15434001660E+02  0.11022432969E+03  0.00000000000E+00 0. -1.
          2    1    1    2  501    0 -0.53983335240E+02  0.60502990801E+02 -0.90021144806E+03  0.90385588652E+03  0.00000000000E+00 0. -1.
<scales pt_clust_3="51.95066" pt_clust_4="51.95066" pt_clust_5="143.51556" pt_clust_6="81.08522"></scales>
<clustering>
<clus scale="   51.951">  3  4 -1 -1</clus>
<clus scale="   81.085">  2  6  1 -1</clus>
<clus scale="  143.516">  2  5  1 -1</clus>
<clus scale="  153.535">  1  3  2 -1</clus>
</clustering>
</event>
<event>
 6    0  0.3695460E+002  0.1577080E+03  0.7546771E-02  0.1191309E+00
         21   -1    0    0  504  502  0.00000000000E+00  0.00000000000E+00  0.14895941976E+03  0.14895941976E+03  0.00000000000E+00 0.  1.
          2   -1    0    0  505    0 -0.00000000000E+00 -0.00000000000E+00 -0.21900785848E+04  0.21900785848E+04  0.00000000000E+00 0. -1.
         21    1    1    2  503  501  0.62305525146E+02 -0.38832909637E+02 -0.12573176840E+04  0.12594593014E+04  0.00000000000E+00 0. -1.
         21    1    1    2  504  503 -0.10423308319E+03  0.33709814242E+02  0.11937575464E+03  0.16202301690E+03  0.00000000000E+00 0.  1.
         21    1    1    2  505  502 -0.38209986593E+02  0.99722366317E+01 -0.68822369483E+02  0.79347130510E+02  0.00000000000E+00 0.  1.
          2    1    1    2  501    0  0.80137544641E+02 -0.48491412368E+01 -0.83435486626E+03  0.83820855584E+03  0.00000000000E+00 0. -1.
<scales pt_clust_3="51.72718" pt_clust_4="148.16738" pt_clust_5="39.48985" pt_clust_6="51.72718"></scales>
<clustering>
<clus scale="   39.490">  1  5  2 -1</clus>
<clus scale="   51.727">  3  6 -1 -1</clus>
<clus scale="  148.167">  1  4  2 -1</clus>
<clus scale="   39.490">  1  3  2 -1</clus>
</clustering>
</event>
<event>
 6    0  0.3695460E+002  0.2534012E+03  0.7546771E-02  0.1111174E+00
         21   -1    0    0  501  502  0.00000000000E+00  0.00000000000E+00  0.73153764724E+03  0.73153764724E+03  0.00000000000E+00 0. -1.
         -1   -1    0    0    0  501 -0.00000000000E+00 -0.00000000000E+00 -0.23287881888E+03  0.23287881888E+03  0.00000000000E+00 0. -1.
         21    1    1    2  503  505 -0.95021132668E+02  0.64220382432E+02  0.20680803876E+03  0.23648010079E+03  0.00000000000E+00 0. -1.
         21    1    1    2  504  503 -0.92938477415E+00 -0.52501483857E+02 -0.15527590346E+02  0.54757425297E+02  0.00000000000E+00 0. -1.
         21    1    1    2  505  502 -0.69381211736E+02  0.99751523023E+02  0.42475796126E+03  0.44179570453E+03  0.00000000000E+00 0. -1.
         -1    1    1    2    0  504  0.16533172918E+03 -0.11147042160E+03 -0.11737958132E+03  0.23138323551E+03  0.00000000000E+00 0. -1.
<scales pt_clust_3="82.82287" pt_clust_4="52.07366" pt_clust_5="247.35088" pt_clust_6="52.07366"></scales>
<clustering>
<clus scale="   52.074">  4  6 -1 -1</clus>
<clus scale="   82.823">  3  5 -1 -1</clus>
<clus scale="  247.351">  1  3  2 -1</clus>
<clus scale="  247.351">  1  3  2 -1</clus>
</clustering>
</event>
<event>
 6    0  0.3695460E+002  0.1363632E+03  0.7546771E-02  0.1218308E+00
         21   -1    0    0  503  502  0.00000000000E+00  0.00000000000E+00  0.74502215767E+03  0.74502215767E+03  0.00000000000E+00 0.  1.
          2   -1    0    0  504    0 -0.00000000000E+00 -0.00000000000E+00 -0.47341578386E+03  0.47341578386E+03  0.00000000000E+00 0. -1.
         21    1    1    2  503  501 -0.89001682689E+02 -0.43646882559E+02  0.61643748908E+03  0.62435689139E+03  0.00000000000E+00 0.  1.
         21    1    1    2  504  505  0.35444535183E+02 -0.31334793005E+02 -0.30014579591E-01  0.47309462350E+02  0.00000000000E+00 0. -1.
         21    1    1    2  505  502 -0.42441780808E+02 -0.14908511943E+01  0.87566531013E+02  0.97321245106E+02  0.00000000000E+00 0.  1.
          2    1    1    2  501    0  0.95998928315E+02  0.76472526758E+02 -0.43236763171E+03  0.44945034268E+03  0.00000000000E+00 0. -1.
<scales pt_clust_3="136.36316" pt_clust_4="46.20548" pt_clust_5="42.46796" pt_clust_6="14000.00000"></scales>
<clustering>
<clus scale="   42.468">  1  5  2 -1</clus>
<clus scale="   46.205">  2  4  1 -1</clus>
<clus scale="  136.363">  1  3  2 -1</clus>
<clus scale="   42.468">  1  3  2 -1</clus>
</clustering>
</event>
<event>
 6    0  0.3695460E+002  0.1069112E+03  0.7546771E-02  0.1266399E+00
         21   -1    0    0  505  502  0.00000000000E+00  0.00000000000E+00  0.31260211998E+03  0.31260211998E+03  0.00000000000E+00 0. -1.
          2   -1    0    0  503    0 -0.00000000000E+00 -0.00000000000E+00 -0.30168159556E+04  0.30168159556E+04  0.00000000000E+00 0.  1.
         21    1    1    2  503  502  0.27910576392E+01 -0.10050682415E+03 -0.11262858277E+03  0.15097883746E+03  0.00000000000E+00 0. -1.
         21    1    1    2  504  501 -0.79844763476E+02 -0.91229572100E+01  0.16678412214E+03  0.18513605268E+03  0.00000000000E+00 0. -1.
         21    1    1    2  505  504 -0.18126085040E+00  0.32873357785E+02  0.11411498159E+03  0.11875571367E+03  0.00000000000E+00 0. -1.
          2    1    1    2  501    0  0.77234966687E+02  0.76756423578E+02 -0.28724843566E+04  0.28745474717E+04  0.00000000000E+00 0.  1.
<scales pt_clust_3="106.91124" pt_clust_4="82.55832" pt_clust_5="32.87386" pt_clust_6="14000.00000"></scales>
<clustering>
<clus scale="   32.874">  1  5  2 -1</clus>
<clus scale="   82.558">  1  4  2 -1</clus>
<clus scale="  106.911">  1  3  2 -1</clus>
<clus scale="   32.874">  1  3  2 -1</clus>
</clustering>
</event>
<event>
 6    0  0.3695460E+002  0.1968086E+03  0.7546771E-02  0.1152460E+00
         -2   -1    0    0    0  501 -0.00000000000E+00  0.00000000000E+00  0.46587958340E+03  0.46587958340E+03  0.00000000000E+00 0.  1.
         21   -1    0    0  503  502  0.00000000000E+00 -0.00000000000E+00 -0.18524599871E+04  0.18524599871E+04  0.00000000000E+00 0.  1.
         21    1    1    2  503  505  0.48749373480E+02  0.67208287056E+02 -0.14519298085E+04  0.14543017651E+04  0.00000000000E+00 0.  1.
         21    1    1    2  504  502 -0.13883029299E+03  0.11351545566E+03 -0.34757668357E+03  0.39111272018E+03  0.00000000000E+00 0.  1.
         21    1    1    2  505  501  0.10318753133E+03 -0.13732418304E+03  0.37960946054E+03  0.41666406181E+03  0.00000000000E+00 0.  1.
         -2    1    1    2    0  504 -0.13106611827E+02 -0.43399559675E+02  0.33316627877E+02  0.56261023334E+02  0.00000000000E+00 0.  1.
<scales pt_clust_3="82.90623" pt_clust_4="14000.00000" pt_clust_5="196.80862" pt_clust_6="45.33547"></scales>
<clustering>
<clus scale="   45.335">  1  6  2 -1</clus>
<clus scale="   82.906">  2  3  1 -1</clus>
<clus scale="  196.809">  1  5  2 -1</clus>
<clus scale="   82.906">  2  3  1 -1</clus>
</clustering>
</event>
<event>
 6    0  0.3695460E+002  0.1292678E+03  0.7546771E-02  0.1228546E+00
         21   -1    0    0  504  502  0.00000000000E+00  0.00000000000E+00  0.11480382547E+03  0.11480382547E+03  0.00000000000E+00 0.  1.
          2   -1    0    0  503    0 -0.00000000000E+00 -0.00000000000E+00 -0.59977117158E+03  0.59977117158E+03  0.00000000000E+00 0.  1.
         21    1    1    2  503  505 -0.61429367863E+02  0.90826468845E+02 -0.77882010652E+02  0.13449394879E+03  0.00000000000E+00 0.  1.
         21    1    1    2  504  501  0.26871216425E+02  0.30653181523E+02 -0.63050045876E+01  0.41248428969E+02  0.00000000000E+00 0.  1.
         21    1    1    2  505  502 -0.67559409028E+02 -0.29356815197E+02  0.35224770234E+02  0.81650969283E+02  0.00000000000E+00 0.  1.
          2    1    1    2  501    0  0.10211756047E+03 -0.92122835170E+02 -0.43600510110E+03  0.45718165001E+03  0.00000000000E+00 0.  1.
<scales pt_clust_3="14000.00000" pt_clust_4="40.76371" pt_clust_5="52.57945" pt_clust_6="129.26781"></scales>
<clustering>
<clus scale="   40.764">  1  4  2 -1</clus>
<clus scale="   52.579">  1  5  2 -1</clus>
<clus scale="  129.268">  2  6  1 -1</clus>
<clus scale="   40.764">  1  3  2 -1</clus>
</clustering>
</event>
<event>
 6    0  0.3695460E+002  0.1314810E+03  0.7546771E-02  0.1225275E+00
         21   -1    0    0  503  502  0.00000000000E+00  0.00000000000E+00  0.10801983111E+04  0.10801983111E+04  0.00000000000E+00 0.  1.
         -2   -1    0    0    0  501 -0.00000000000E+00 -0.00000000000E+00 -0.43398009629E+03  0.43398009629E+03  0.00000000000E+00 0. -1.
         21    1    1    2  503  501  0.32246218470E+02 -0.61743124109E+02  0.69797716269E+02  0.98609092770E+02  0.00000000000E+00 0. -1.
         21    1    1    2  504  502  0.41068174596E+02  0.34379224075E+02  0.62147168036E+03  0.62377526041E+03  0.00000000000E+00 0.  1.
         21    1    1    2  505  504 -0.25094816939E+02 -0.96553413186E+02  0.35577029283E+03  0.36949264227E+03  0.00000000000E+00 0.  1.
         -2    1    1    2    0  505 -0.48219576127E+02  0.12391731322E+03 -0.40082147461E+03  0.42230141197E+03  0.00000000000E+00 0. -1.
<scales pt_clust_3="68.22999" pt_clust_4="53.55862" pt_clust_5="14000.00000" pt_clust_6="131.48096"></scales>
<clustering>
<clus scale="   53.559">  1  4  2 -1</clus>
<clus scale="   68.230">  1  3  2 -1</clus>
<clus scale="  131.481">  2  6  1 -1</clus>
<clus scale="   53.559">  1  3  2 -1</clus>
</clustering>
</event>
<event>
 6    0  0.3695460E+002  0.1607259E+03  0.7546771E-02  0.1187880E+00
          2   -1    0    0  503    0 -0.00000000000E+00  0.00000000000E+00  0.29891025288E+04  0.29891025288E+04  0.00000000000E+00 0. -1.
         21   -1    0    0  501  502  0.00000000000E+00 -0.00000000000E+00 -0.31647116723E+03  0.31647116723E+03  0.00000000000E+00 0.  1.
         21    1    1    2  503  505  0.48859631288E+02 -0.33060051791E+00  0.52457180079E+03  0.52684243095E+03  0.00000000000E+00 0. -1.
         21    1    1    2  504  502 -0.14770312190E+03  0.65071885553E+02 -0.27988422179E+03  0.32308782106E+03  0.00000000000E+00 0.  1.
         21    1    1    2  505  504  0.55278153819E+02  0.54595673988E+02  0.11252150801E+03  0.13673862539E+03  0.00000000000E+00 0. -1.
          2    1    1    2  501    0  0.43565336792E+02 -0.11933695902E+03  0.23154222746E+04  0.23189048187E+04  0.00000000000E+00 0. -1.
<scales pt_clust_3="48.86075" pt_clust_4="14000.00000" pt_clust_5="79.46028" pt_clust_6="160.72595"></scales>
<clustering>
<clus scale="   48.861">  1  3  2 -1</clus>
<clus scale="   79.460">  1  5  2 -1</clus>
<clus scale="  160.726">  1  6  2 -1</clus>
<clus scale="  160.726">  2  3  1 -1</clus>
</clustering>
</event>
<event>
 6    0  0.3695460E+002  0.2479214E+03  0.7546771E-02  0.1114626E+00
         21   -1    0    0  505  502  0.00000000000E+00  0.00000000000E+00  0.27261572824E+03  0.27261572824E+03  0.00000000000E+00 0.  1.
         -1   -1    0    0    0  501 -0.00000000000E+00 -0.00000000000E+00 -0.50370493301E+03  0.50370493301E+03  0.00000000000E+00 0. -1.
         21    1    1    2  503  502  0.54553794801E+02 -0.11346075801E+03  0.29364129214E+02  0.12927378783E+03  0.00000000000E+00 0.  1.
         21    1    1    2  504  503 -0.15412764414E+03  0.85629874294E+02 -0.25122827503E+03  0.30692580901E+03  0.00000000000E+00 0. -1.
         21    1    1    2  505  501  0.18917791735E+03  0.11275473807E+02  0.86183766178E+02  0.20818996680E+03  0.00000000000E+00 0.  1.
         -1    1    1    2    0  504 -0.89604068010E+02  0.16555409912E+02 -0.95408825138E+02  0.13193109761E+03  0.00000000000E+00 0. -1.
<scales pt_clust_3="125.89464" pt_clust_4="36.59359" pt_clust_5="242.63940" pt_clust_6="36.59359"></scales>
<clustering>
<clus scale="   36.594">  4  6 -1 -1</clus>
<clus scale="  125.895">  1  3  2 -1</clus>
<clus scale="  242.639">  1  5  2 -1</clus>
<clus scale="  125.895">  1  3  2 -1</clus>
</clustering>
</event>
<event>
 6    0  0.3695460E+002  0.2139831E+03  0.7546771E-02  0.1138450E+00
         21   -1    0    0  504  502  0.00000000000E+00  0.00000000000E+00  0.64763904314E+03  0.64763904314E+03  0.00000000000E+00 0.  1.
         -2   -1    0    0    0  501 -0.00000000000E+00 -0.00000000000E+00 -0.82852075762E+03  0.82852075762E+03  0.00000000000E+00 0. -1.
         21    1    1    2  503  501 -0.65594423211E+02 -0.84960599187E+02 -0.37013801126E+03  0.38538692135E+03  0.00000000000E+00 0.  1.
         21    1    1    2  504  505  0.94793404202E+02 -0.88561409149E+01  0.31844997984E+03  0.33237721097E+03  0.00000000000E+00 0.  1.
         21    1    1    2  505  503  0.11848651520E+03  0.99926959657E+01  0.28604483107E+03  0.30977500486E+03  0.00000000000E+00 0.  1.
         -2    1    1    2    0  502 -0.14768549619E+03  0.83824044136E+02 -0.41523851414E+03  0.44862066357E+03  0.00000000000E+00 0. -1.
<scales pt_clust_3="107.33560" pt_clust_4="34.14215" pt_clust_5="34.14215" pt_clust_6="210.55378"></scales>
<clustering>
<clus scale="   34.142">  4  5 -1 -1</clus>
<clus scale="  107.336">  2  3  1 -1</clus>
<clus scale="  210.554">  2  6  1 -1</clus>
<clus scale="  213.983">  1  3  2 -1</clus>
</clustering>
</event>
<event>
 6    0  0.3695460E+002  0.1406228E+03  0.7546771E-02  0.1212493E+00
         21   -1    0    0  505  502  0.00000000000E+00  0.00000000000E+00  0.10519576361E+03  0.10519576361E+03  0.00000000000E+00 0.  1.
          2   -1    0    0  503    0 -0.00000000000E+00 -0.00000000000E+00 -0.15726987663E+04  0.15726987663E+04  0.00000000000E+00 0. -1.
         21    1    1    2  503  504  0.14704115077E+02  0.60465326765E+02 -0.15398242436E+03  0.16608086510E+03  0.00000000000E+00 0.  1.
         21    1    1    2  504  502  0.29602988936E+01 -0.14682618651E+03  0.28902236168E+02  0.14967308265E+03  0.00000000000E+00 0.  1.
         21    1    1    2  505  501 -0.94571813180E+02  0.84414794652E+02 -0.48569161678E+03  0.50196218185E+03  0.00000000000E+00 0.  1.
          2    1    1    2  501    0  0.76907399209E+02  0.19460650894E+01 -0.85673119774E+03  0.86017840033E+03  0.00000000000E+00 0. -1.
<scales pt_clust_3="62.22754" pt_clust_4="140.62283" pt_clust_5="14000.00000" pt_clust_6="94.15891"></scales>
<clustering>
<clus scale="   62.228">  2  3  1 -1</clus>
<clus scale="   94.159">  2  6  1 -1</clus>
<clus scale="  140.623">  1  4  2 -1</clus>
<clus scale="  140.623">  1  3  2 -1</clus>
</clustering>
</event>
<event>
 6    0  0.3695460E+002  0.1451886E+03  0.7546771E-02  0.1206513E+00
         21   -1    0    0  501  502  0.00000000000E+00  0.00000000000E+00  0.14042118963E+03  0.14042118963E+03  0.00000000000E+00 0.  1.
         -1   -1    0    0    0  501 -0.00000000000E+00 -0.00000000000E+00 -0.91342636844E+03  0.91342636844E+03  0.00000000000E+00 0. -1.
         21    1    1    2  503  505 -0.94463767891E+02  0.11122150636E+02 -0.21057653220E+03  0.23106185664E+03  0.00000000000E+00 0. -1.
         21    1    1    2  504  502 -0.18119786836E+02 -0.53949616658E+02  0.13428208657E+02  0.58473965149E+02  0.00000000000E+00 0. -1.
         21    1    1    2  505  504  0.17988044378E+03  0.75087092648E+02 -0.11736385637E+02  0.19527618463E+03  0.00000000000E+00 0.  1.
         -1    1    1    2    0  503 -0.67296889054E+02 -0.32259626625E+02 -0.56412046962E+03  0.56903555164E+03  0.00000000000E+00 0. -1.
<scales pt_clust_3="14000.00000" pt_clust_4="56.91123" pt_clust_5="145.18862" pt_clust_6="75.56851"></scales>
<clustering>
<clus scale="   56.911">  1  4  2 -1</clus>
<clus scale="   75.569">  2  6  1 -1</clus>
<clus scale="  145.189">  1  5  2 -1</clus>
<clus scale="   56.911">  1  3  2 -1</clus>
</clustering>
</event>
<event>
 6    0  0.3695460E+002  0.8166797E+02  0.7546771E-02  0.1324384E+00
          1   -1    0    0  504    0 -0.00000000000E+00  0.00000000000E+00  0.54754090158E+03  0.54754090158E+03  0.00000000000E+00 0. -1.
         21   -1    0    0  505  502  0.00000000000E+00 -0.00000000000E+00 -0.14652365141E+03  0.14652365141E+03  0.00000000000E+00 0. -1.
         21    1    1    2  503  502  0.70439851284E+02 -0.85737487425E+02  0.32987690975E+01  0.11101158172E+03  0.00000000000E+00 0. -1.
         21    1    1    2  504  503 -0.33786640477E+02 -0.58968490782E+00  0.66723846711E+02  0.74792757156E+02  0.00000000000E+00 0. -1.
         21    1    1    2  505  501  0.23659575366E+01  0.78637384666E+02 -0.69995109691E+02  0.10530314052E+03  0.00000000000E+00 0. -1.
          1    1    1    2  501    0 -0.39019168343E+02  0.76897876672E+01  0.40098974405E+03  0.40295707360E+03  0.00000000000E+00 0. -1.
<scales pt_clust_3="14000.00000" pt_clust_4="33.79179" pt_clust_5="81.66797" pt_clust_6="67.88665"></scales>
<clustering>
<clus scale="   33.792">  1  4  2 -1</clus>
<clus scale="   67.887">  1  6  2 -1</clus>
<clus scale="   81.668">  2  5  1 -1</clus>
<clus scale="   81.668">  2  3  1 -1</clus>
</clustering>
</event>
<event>
 6    0  0.3695460E+002  0.3484910E+03  0.7546771E-02  0.1063236E+00
         21   -1    0    0  501  502  0.00000000000E+00  0.00000000000E+00  0.87119380736E+03  0.87119380736E+03  0.00000000000E+00 0.  1.
          2   -1    0    0  505    0 -0.00000000000E+00 -0.00000000000E+00 -0.58682070810E+03  0.58682070810E+03  0.00000000000E+00 0. -1.
         21    1    1    2  503  504  0.93728001010E+02  0.21497121239E+02  0.11826307615E+03  0.15242447171E+03  0.00000000000E+00 0. -1.
         21    1    1    2  504  502  0.20275805878E+03  0.11950312706E+03  0.65749864494E+03  0.69835255843E+03  0.00000000000E+00 0.  1.
         21    1    1    2  505  503 -0.25292054059E+02  0.25516425332E+02 -0.75022526656E+02  0.83181461072E+02  0.00000000000E+00 0. -1.
          2    1    1    2  501    0 -0.27119400573E+03 -0.16651667363E+03 -0.41636609517E+03  0.52405602424E+03  0.00000000000E+00 0. -1.
<scales pt_clust_3="76.05687" pt_clust_4="76.05687" pt_clust_5="35.92737" pt_clust_6="327.43814"></scales>
<clustering>
<clus scale="   35.927">  2  5  1 -1</clus>
<clus scale="   76.057">  3  4 -1 -1</clus>
<clus scale="  327.438">  2  6  1 -1</clus>
<clus scale="  348.491">  1  3  2 -1</clus>
</clustering>
</event>
<event>
 6    0  0.3695460E+002  0.1351052E+03  0.7546771E-02  0.1220071E+00
          1   -1    0    0  503    0 -0.00000000000E+00  0.00000000000E+00  0.73323524268E+03  0.73323524268E+03  0.00000000000E+00 0.  1.
         21   -1    0    0  504  502  0.00000000000E+00 -0.00000000000E+00 -0.97222751335E+02  0.97222751335E+02  0.00000000000E+00 0.  1.
         21    1    1    2  503  505 -0.10811910211E+03  0.57358156826E+02  0.10499444672E+02  0.12284110360E+03  0.00000000000E+00 0.  1.
         21    1    1    2  504  501  0.97641043630E+02 -0.47463424536E+02  0.23189440735E+03  0.25604992918E+03  0.00000000000E+00 0.  1.
         21    1    1    2  505  502 -0.72278394683E+01  0.87701888818E+02  0.68101573516E+02  0.11127303034E+03  0.00000000000E+00 0.  1.
          1    1    1    2  501    0  0.17705897952E+02 -0.97596621108E+02  0.32551706580E+03  0.34029393089E+03  0.00000000000E+00 0.  1.
<scales pt_clust_3="14000.00000" pt_clust_4="135.10516" pt_clust_5="87.99922" pt_clust_6="90.63816"></scales>
<clustering>
<clus scale="   87.999">  2  5  1 -1</clus>
<clus scale="   90.638">  1  6  2 -1</clus>
<clus scale="  135.105">  1  4  2 -1</clus>
<clus scale="   87.999">  2  3  1 -1</clus>
</clustering>
</event>
<event>
 6    0  0.3695460E+002  0.2432062E+03  0.7546771E-02  0.1117675E+00
          2   -1    0    0  505    0 -0.00000000000E+00  0.00000000000E+00  0.23052203259E+04  0.23052203259E+04  0.00000000000E+00 0. -1.
         21   -1    0    0  503  502  0.00000000000E+00 -0.00000000000E+00 -0.15236347854E+03  0.15236347854E+03  0.00000000000E+00 0. -1.
         21    1    1    2  503  501 -0.13203141266E+03  0.39335204622E+02  0.10907818318E+04  0.10994473871E+04  0.00000000000E+00 0.  1.
         21    1    1    2  504  502  0.16951505797E+03 -0.65191341969E+02 -0.61977195663E+02  0.19190215926E+03  0.00000000000E+00 0. -1.
         21    1    1    2  505  504  0.52652021288E+02 -0.73460903826E+00  0.17193206141E+02  0.55392971879E+02  0.00000000000E+00 0. -1.
          2    1    1    2  501    0 -0.90135666598E+02  0.26590746385E+02  0.11068590051E+04  0.11108412863E+04  0.00000000000E+00 0. -1.
<scales pt_clust_3="37.36156" pt_clust_4="39.73205" pt_clust_5="39.73205" pt_clust_6="236.11601"></scales>
<clustering>
<clus scale="   37.362">  3  6 -1 -1</clus>
<clus scale="   39.732">  4  5 -1 -1</clus>
<clus scale="  236.116">  1  3  2 -1</clus>
<clus scale="  243.206">  2  3  1 -1</clus>
</clustering>
</event>
<event>
 6    0  0.3695460E+002  0.9765253E+02  0.7546771E-02  0.1285311E+00
          2   -1    0    0  505    0 -0.00000000000E+00  0.00000000000E+00  0.32368138141E+04  0.32368138141E+04  0.00000000000E+00 0. -1.
         21   -1    0    0  503  502  0.00000000000E+00 -0.00000000000E+00 -0.27561197185E+03  0.27561197185E+03  0.00000000000E+00 0. -1.
         21    1    1    2  503  501  0.47841633456E+02 -0.31109638974E+02 -0.13458760359E+03  0.14618636930E+03  0.00000000000E+00 0. -1.
         21    1    1    2  504  502 -0.11667387233E+03  0.96836466872E+02 -0.86456447203E+02  0.17454171726E+03  0.00000000000E+00 0. -1.
         21    1    1    2  505  504  0.14697102441E+03 -0.49704689997E+02  0.24990137579E+04  0.25038252336E+04  0.00000000000E+00 0. -1.
          2    1    1    2  501    0 -0.78138785536E+02 -0.16022137901E+02  0.68323213511E+03  0.68787246576E+03  0.00000000000E+00 0. -1.
<scales pt_clust_3="57.06690" pt_clust_4="97.65253" pt_clust_5="14000.00000" pt_clust_6="79.07060"></scales>
<clustering>
<clus scale="   57.067">  2  3  1 -1</clus>
<clus scale="   79.071">  1  6  2 -1</clus>
<clus scale="   97.653">  2  4  1 -1</clus>
<clus scale="   57.067">  2  3  1 -1</clus>
</clustering>
</event>
<event>
 6    0  0.3695460E+002  0.1403664E+03  0.7546771E-02  0.1212837E+00
         21   -1    0    0  504  502  0.00000000000E+00  0.00000000000E+00  0.13064386426E+04  0.13064386426E+04  0.00000000000E+00 0. -1.
          2   -1    0    0  505    0 -0.00000000000E+00 -0.00000000000E+00 -0.27989027948E+04  0.27989027948E+04  0.00000000000E+00 0. -1.
         21    1    1    2  503  501 -0.64944675289E+02 -0.26672836073E+01 -0.95733743189E+03  0.95954149663E+03  0.00000000000E+00 0. -1.
         21    1    1    2  504  503 -0.18084492717E+02  0.30731864484E+02  0.34439333747E+03  0.34623441086E+03  0.00000000000E+00 0. -1.
         21    1    1    2  505  502  0.15134541984E+03 -0.14465031617E+02  0.95333770441E+03  0.96538461345E+03  0.00000000000E+00 0. -1.
          2    1    1    2  501    0 -0.68316251836E+02 -0.13599549260E+02 -0.18328577622E+04  0.18341809165E+04  0.00000000000E+00 0. -1.
<scales pt_clust_3="39.51032" pt_clust_4="35.65805" pt_clust_5="134.27620" pt_clust_6="39.51032"></scales>
<clustering>
<clus scale="   35.658">  1  4  2 -1</clus>
<clus scale="   39.510">  3  6 -1 -1</clus>
<clus scale="  134.276">  1  5  2 -1</clus>
<clus scale="   35.658">  1  3  2 -1</clus>
</clustering>
</event>
<event>
 6    0  0.3695460E+002  0.1362887E+03  0.7546771E-02  0.1218412E+00
          2   -1    0    0  505    0 -0.00000000000E+00  0.00000000000E+00  0.30081263702E+03  0.30081263702E+03  0.00000000000E+00 0. -1.
         21   -1    0    0  504  502  0.00000000000E+00 -0.00000000000E+00 -0.20709944948E+04  0.20709944948E+04  0.00000000000E+00 0.  1.
         21    1    1    2  503  502 -0.11134592180E+03  0.57892242271E+01 -0.17148280523E+04  0.17184489164E+04  0.00000000000E+00 0.  1.
         21    1    1    2  504  501 -0.22268874347E+02 -0.32751514923E+02 -0.31836983550E+03  0.32082380936E+03  0.00000000000E+00 0. -1.
         21    1    1    2  505  503 -0.32114979272E+02  0.87131318260E+01  0.69792449347E+02  0.77319315477E+02  0.00000000000E+00 0. -1.
          2    1    1    2  501    0  0.16572977542E+03  0.18249158870E+02  0.19322358074E+03  0.25521509049E+03  0.00000000000E+00 0. -1.
<scales pt_clust_3="136.28866" pt_clust_4="39.66406" pt_clust_5="33.27598" pt_clust_6="14000.00000"></scales>
<clustering>
<clus scale="   33.276">  1  5  2 -1</clus>
<clus scale="   39.664">  2  4  1 -1</clus>
<clus scale="  136.289">  2  3  1 -1</clus>
<clus scale="   39.664">  2  3  1 -1</clus>
</clustering>
</event>
<event>
 6    0  0.3695460E+002  0.1475961E+03  0.7546771E-02  0.1203458E+00
         21   -1    0    0  503  502  0.00000000000E+00  0.00000000000E+00  0.12706926127E+03  0.12706926127E+03  0.00000000000E+00 0.  1.
          1   -1    0    0  505    0 -0.00000000000E+00 -0.00000000000E+00 -0.82945061792E+03  0.82945061792E+03  0.00000000000E+00 0. -1.
         21    1    1    2  503  504  0.62597738707E+01 -0.13442735202E+03  0.76477280113E+02  0.15478589120E+03  0.00000000000E+00 0.  1.
         21    1    1    2  504  501 -0.28045612910E+02  0.60263270752E+02 -0.42478974415E+03  0.42995877121E+03  0.00000000000E+00 0. -1.
         21    1    1    2  505  502 -0.12578946405E+02  0.32494533480E+02 -0.39795584507E+02  0.52894358348E+02  0.00000000000E+00 0. -1.
          1    1    1    2  501    0  0.34364785444E+02  0.41669547792E+02 -0.31427330811E+03  0.31888085844E+03  0.00000000000E+00 0. -1.
<scales pt_clust_3="132.92199" pt_clust_4="54.70998" pt_clust_5="34.84429" pt_clust_6="54.70998"></scales>
<clustering>
<clus scale="   34.844">  2  5  1 -1</clus>
<clus scale="   54.710">  4  6 -1 -1</clus>
<clus scale="  132.922">  1  3  2 -1</clus>
<clus scale="  132.922">  1  3  2 -1</clus>
</clustering>
</event>
<event>
 6    0  0.3695460E+002  0.1318356E+03  0.7546771E-02  0.1224757E+00
          1   -1    0    0  505    0 -0.00000000000E+00  0.00000000000E+00  0.45802611220E+03  0.45802611220E+03  0.00000000000E+00 0.  1.
         21   -1    0    0  503  502  0.00000000000E+00 -0.00000000000E+00 -0.33463793316E+03  0.33463793316E+03  0.00000000000E+00 0. -1.
         21    1    1    2  503  504 -0.39148266658E+02  0.45876896468E+02 -0.46835784484E+02  0.76360114721E+02  0.00000000000E+00 0.  1.
         21    1    1    2  504  501  0.12978515960E+03  0.14616224144E+02  0.78428020565E+02  0.15234426826E+03  0.00000000000E+00 0. -1.
         21    1    1    2  505  502  0.34623315437E+02 -0.11869077789E+03 -0.20341135054E+03  0.23803876209E+03  0.00000000000E+00 0. -1.
          1    1    1    2  501    0 -0.12526020838E+03  0.58197657277E+02  0.29520729349E+03  0.32592090030E+03  0.00000000000E+00 0.  1.
<scales pt_clust_3="60.30984" pt_clust_4="131.83556" pt_clust_5="81.65822" pt_clust_6="14000.00000"></scales>
<clustering>
<clus scale="   60.310">  2  3  1 -1</clus>
<clus scale="   81.658">  2  5  1 -1</clus>
<clus scale="  131.836">  2  4  1 -1</clus>
<clus scale="   60.310">  2  3  1 -1</clus>
</clustering>
</event>
<event>
 6    0  0.3695460E+002  0.1090423E+03  0.7546771E-02  0.1262354E+00
         21   -1    0    0  503  502  0.00000000000E+00  0.00000000000E+00  0.14140358962E+03  0.14140358962E+03  0.00000000000E+00 0. -1.
          1   -1    0    0  505    0 -0.00000000000E+00 -0.00000000000E+00 -0.45602891166E+04  0.45602891166E+04  0.00000000000E+00 0. -1.
         21    1    1    2  503  504  0.32679864704E+01  0.72625663032E+02 -0.24403432756E+02  0.76685684431E+02  0.00000000000E+00 0. -1.
         21    1    1    2  504  501  0.10322153013E+03 -0.50013162036E+02  0.84495335251E+02  0.14246214353E+03  0.00000000000E+00 0. -1.
         21    1    1    2  505  502  0.26720719335E+02 -0.28160010956E+02 -0.58559350479E+03  0.58687880854E+03  0.00000000000E+00 0. -1.
          1    1    1    2  501    0 -0.13321023593E+03  0.55475099609E+01 -0.38933839246E+04  0.38956660697E+04  0.00000000000E+00 0. -1.
<scales pt_clust_3="72.35751" pt_clust_4="14000.00000" pt_clust_5="38.81988" pt_clust_6="109.04229"></scales>
<clustering>
<clus scale="   38.820">  2  5  1 -1</clus>
<clus scale="   72.358">  1  3  2 -1</clus>
<clus scale="  109.042">  2  6  1 -1</clus>
<clus scale="   72.358">  1  3  2 -1</clus>
</clustering>
</event>
<event>
 6    0  0.3695460E+002  0.1245829E+03  0.7546771E-02  0.1235723E+00
         21   -1    0    0  503  502  0.00000000000E+00  0.00000000000E+00  0.37701998313E+02  0.37701998313E+02  0.00000000000E+00 0. -1.
          2   -1    0    0  504    0 -0.00000000000E+00 -0.00000000000E+00 -0.18719273424E+04  0.18719273424E+04  0.00000000000E+00 0.  1.
         21    1    1    2  503  501 -0.53940110356E+02 -0.33281537769E+02 -0.68201259736E+03  0.68495136997E+03  0.00000000000E+00 0.  1.
         21    1    1    2  504  505  0.10631089653E+03  0.11677622387E+02 -0.10768524182E+03  0.15177115961E+03  0.00000000000E+00 0. -1.
         21    1    1    2  505  502  0.58320123443E+01  0.30669514129E+02 -0.48874252496E+01  0.31599341615E+02  0.00000000000E+00 0. -1.
          2    1    1    2  501    0 -0.58202798517E+02 -0.90655987472E+01 -0.10396400797E+04  0.10413074695E+04  0.00000000000E+00 0.  1.
<scales pt_clust_3="37.75443" pt_clust_4="118.35783" pt_clust_5="31.21909" pt_clust_6="37.75443"></scales>
<clustering>
<clus scale="   31.219">  1  5  2 -1</clus>
<clus scale="   37.754">  3  6 -1 -1</clus>
<clus scale="  118.358">  1  4  2 -1</clus>
<clus scale="   31.219">  1  3  2 -1</clus>
</clustering>
</event>
<event>
 6    0  0.3695460E+002  0.1138377E+03  0.7546771E-02  0.1253624E+00
          2   -1    0    0  505    0 -0.00000000000E+00  0.00000000000E+00  0.16955845004E+04  0.16955845004E+04  0.00000000000E+00 0.  1.
         21   -1    0    0  501  502  0.00000000000E+00 -0.00000000000E+00 -0.62156512452E+02  0.62156512452E+02  0.00000000000E+00 0. -1.
         21    1    1    2  503  504  0.60242184049E+00 -0.55040313691E+02  0.13099886286E+03  0.14209328314E+03  0.00000000000E+00 0.  1.
         21    1    1    2  504  502 -0.44317381708E+02 -0.10432409023E+03  0.11992667951E+02  0.11397969209E+03  0.00000000000E+00 0. -1.
         21    1    1    2  505  503  0.34921018548E+02  0.29110146295E+02  0.22722938661E+03  0.23173276051E+03  0.00000000000E+00 0.  1.
          2    1    1    2  501    0  0.87939413198E+01  0.13025425762E+03  0.12632070705E+04  0.12699352771E+04  0.00000000000E+00 0.  1.
<scales pt_clust_3="52.47092" pt_clust_4="113.83774" pt_clust_5="45.46293" pt_clust_6="14000.00000"></scales>
<clustering>
<clus scale="   45.463">  1  5  2 -1</clus>
<clus scale="   52.471">  1  3  2 -1</clus>
<clus scale="  113.838">  2  4  1 -1</clus>
<clus scale="  113.838">  2  3  1 -1</clus>
</clustering>
</event>
<event>
 6    0  0.3695460E+002  0.8062282E+02  0.7546771E-02  0.1327293E+00
         21   -1    0    0  505  502  0.00000000000E+00  0.00000000000E+00  0.17432269204E+03  0.17432269204E+03  0.00000000000E+00 0.  1.
          2   -1    0    0  503    0 -0.00000000000E+00 -0.00000000000E+00 -0.98631010011E+03  0.98631010011E+03  0.00000000000E+00 0. -1.
         21    1    1    2  503  504  0.32651268061E+02 -0.60519753091E+02 -0.38563723146E+03  0.39172033405E+03  0.00000000000E+00 0. -1.
         21    1    1    2  504  502 -0.24327504171E+02  0.24194472994E+02  0.26562128070E+01  0.34413012787E+02  0.00000000000E+00 0. -1.
         21    1    1    2  505  501  0.97661666084E+02  0.64213040485E+01  0.13113703233E+03  0.16363360112E+03  0.00000000000E+00 0.  1.
          2    1    1    2  501    0 -0.10598542997E+03  0.29903976048E+02 -0.56014342174E+03  0.57086584420E+03  0.00000000000E+00 0. -1.
<scales pt_clust_3="68.12491" pt_clust_4="34.31035" pt_clust_5="80.62282" pt_clust_6="14000.00000"></scales>
<clustering>
<clus scale="   34.310">  1  4  2 -1</clus>
<clus scale="   68.125">  2  3  1 -1</clus>
<clus scale="   80.623">  1  5  2 -1</clus>
<clus scale="   34.310">  1  3  2 -1</clus>
</clustering>
</event>
<event>
 6    0  0.3695460E+002  0.2130963E+03  0.7546771E-02  0.1139137E+00
         21   -1    0    0  505  502  0.00000000000E+00  0.00000000000E+00  0.11823100726E+03  0.11823100726E+03  0.00000000000E+00 0.  1.
         -3   -1    0    0    0  501 -0.00000000000E+00 -0.00000000000E+00 -0.10535972361E+04  0.10535972361E+04  0.00000000000E+00 0.  1.
         21    1    1    2  503  504  0.37908533764E+02  0.24454481241E+02  0.78793954094E+01  0.45794797269E+02  0.00000000000E+00 0.  1.
         21    1    1    2  504  501  0.78536611967E+02  0.13327491273E+03 -0.18405955017E+03  0.24043319195E+03  0.00000000000E+00 0.  1.
         21    1    1    2  505  503  0.64756911359E+01  0.66426512608E+02  0.16602236035E+02  0.68775361826E+02  0.00000000000E+00 0.  1.
         -3    1    1    2    0  502 -0.12292083687E+03 -0.22415590658E+03 -0.77578831008E+03  0.81682489228E+03  0.00000000000E+00 0.  1.
<scales pt_clust_3="39.40852" pt_clust_4="213.09629" pt_clust_5="111.92395" pt_clust_6="14000.00000"></scales>
<clustering>
<clus scale="   39.409">  3  5 -1 -1</clus>
<clus scale="  111.924">  1  3  2 -1</clus>
<clus scale="  213.096">  1  4  2 -1</clus>
<clus scale="  111.924">  1  3  2 -1</clus>
</clustering>
</event>
<event>
 6    0  0.3695460E+002  0.8326407E+02  0.7546771E-02  0.1320036E+00
         21   -1    0    0  503  502  0.00000000000E+00  0.00000000000E+00  0.20884830846E+02  0.20884830846E+02  0.00000000000E+00 0. -1.
          2   -1    0    0  504    0 -0.00000000000E+00 -0.00000000000E+00 -0.16233945503E+04  0.16233945503E+04  0.00000000000E+00 0. -1.
         21    1    1    2  503  501 -0.24367070508E+02  0.11260089359E+03 -0.24617252746E+03  0.27179703574E+03  0.00000000000E+00 0. -1.
         21    1    1    2  504  505  0.72042198085E+01 -0.60643832574E+02 -0.40560851375E+03  0.41018025505E+03  0.00000000000E+00 0. -1.
         21    1    1    2  505  502 -0.38272531263E+02 -0.38894094232E+02 -0.15115800580E+03  0.16070556908E+03  0.00000000000E+00 0. -1.
          2    1    1    2  501    0  0.55435381962E+02 -0.13062966787E+02 -0.79957067248E+03  0.80159652130E+03  0.00000000000E+00 0. -1.
<scales pt_clust_3="83.26407" pt_clust_4="14000.00000" pt_clust_5="54.56681" pt_clust_6="55.25031"></scales>
<clustering>
<clus scale="   54.567">  1  5  2 -1</clus>
<clus scale="   55.250">  2  6  1 -1</clus>
<clus scale="   83.264">  1  3  2 -1</clus>
<clus scale="   54.567">  1  3  2 -1</clus>
</clustering>
</event>
<event>
 6    0  0.3695460E+002  0.1414626E+03  0.7546771E-02  0.1211374E+00
         21   -1    0    0  501  502  0.00000000000E+00  0.00000000000E+00  0.10645500222E+03  0.10645500222E+03  0.00000000000E+00 0.  1.
          1   -1    0    0  504    0 -0.00000000000E+00 -0.00000000000E+00 -0.84753077455E+03  0.84753077455E+03  0.00000000000E+00 0.  1.
         21    1    1    2  503  502 -0.62313169175E+02 -0.46453974060E+02  0.26950073818E+02  0.82263049040E+02  0.00000000000E+00 0.  1.
         21    1    1    2  504  505  0.78003086172E+00  0.66886064693E+02 -0.43257708476E+03  0.43771827510E+03  0.00000000000E+00 0. -1.
         21    1    1    2  505  503 -0.27852260192E+02 -0.64353411354E+02  0.13249029056E+02  0.71362782468E+02  0.00000000000E+00 0.  1.
          1    1    1    2  501    0  0.89385398505E+02  0.43921320721E+02 -0.34869779045E+03  0.36264167017E+03  0.00000000000E+00 0.  1.
<scales pt_clust_3="37.71784" pt_clust_4="66.89061" pt_clust_5="37.71784" pt_clust_6="135.77490"></scales>
<clustering>
<clus scale="   37.718">  3  5 -1 -1</clus>
<clus scale="   66.891">  2  4  1 -1</clus>
<clus scale="  135.775">  2  6  1 -1</clus>
<clus scale="  141.463">  1  3  2 -1</clus>
</clustering>
</event>
<event>
 6    0  0.3695460E+002  0.8740110E+02  0.7546771E-02  0.1309270E+00
          2   -1    0    0  504    0 -0.00000000000E+00  0.00000000000E+00  0.22397783789E+04  0.22397783789E+04  0.00000000000E+00 0.  1.
         21   -1    0    0  501  502  0.00000000000E+00 -0.00000000000E+00 -0.48862685936E+02  0.48862685936E+02  0.00000000000E+00 0.  1.
         21    1    1    2  503  502  0.29220246137E+02 -0.66559912381E+02  0.43209184715E+02  0.84564048888E+02  0.00000000000E+00 0.  1.
         21    1    1    2  504  505  0.32064442469E+02 -0.31730133657E+02  0.98532784774E+03  0.98635992284E+03  0.00000000000E+00 0. -1.
         21    1    1    2  505  503 -0.76070214615E+02 -0.10873805403E+02  0.34093907061E+02  0.84067304549E+02  0.00000000000E+00 0.  1.
          2    1    1    2  501    0  0.14785526008E+02  0.10916385144E+03  0.11282847535E+04  0.11336497886E+04  0.00000000000E+00 0.  1.
<scales pt_clust_3="74.83316" pt_clust_4="45.11020" pt_clust_5="14000.00000" pt_clust_6="87.40110"></scales>
<clustering>
<clus scale="   45.110">  1  4  2 -1</clus>
<clus scale="   74.833">  2  3  1 -1</clus>
<clus scale="   87.401">  1  6  2 -1</clus>
<clus scale="   74.833">  2  3  1 -1</clus>
</clustering>
</event>
<event>
 6    0  0.3695460E+002  0.2655824E+03  0.7546771E-02  0.1103835E+00
          1   -1    0    0  503    0 -0.00000000000E+00  0.00000000000E+00  0.13206687338E+04  0.13206687338E+04  0.00000000000E+00 0. -1.
         21   -1    0    0  501  502  0.00000000000E+00 -0.00000000000E+00 -0.94542483933E+03  0.94542483933E+03  0.00000000000E+00 0.  1.
         21    1    1    2  503  505  0.37605821083E+01 -0.32503825604E+02  0.49987077016E+03  0.50094054290E+03  0.00000000000E+00 0.  1.
         21    1    1    2  504  502  0.36784260699E+02  0.13409515581E+02 -0.27428905842E+03  0.27706927746E+03  0.00000000000E+00 0.  1.
         21    1    1    2  505  504  0.16444346767E+03  0.13797327726E+03 -0.63401288661E+03  0.66936583397E+03  0.00000000000E+00 0.  1.
          1    1    1    2  501    0 -0.20498831048E+03 -0.11887896724E+03  0.78367506932E+03  0.81871791880E+03  0.00000000000E+00 0. -1.
<scales pt_clust_3="32.72065" pt_clust_4="36.56039" pt_clust_5="36.56039" pt_clust_6="251.42863"></scales>
<clustering>
<clus scale="   32.721">  1  3  2 -1</clus>
<clus scale="   36.560">  4  5 -1 -1</clus>
<clus scale="  251.429">  1  6  2 -1</clus>
<clus scale="  265.582">  2  3  1 -1</clus>
</clustering>
</event>
<event>
 6    0  0.3695460E+002  0.6852453E+02  0.7546771E-02  0.1365184E+00
          1   -1    0    0  503    0 -0.00000000000E+00  0.00000000000E+00  0.14435317109E+04  0.14435317109E+04  0.00000000000E+00 0.  1.
         21   -1    0    0  505  502  0.00000000000E+00 -0.00000000000E+00 -0.15630242241E+03  0.15630242241E+03  0.00000000000E+00 0.  1.
         21    1    1    2  503  504  0.18084864782E+02  0.26297657510E+02  0.63194534710E+03  0.63275078100E+03  0.00000000000E+00 0. -1.
         21    1    1    2  504  502  0.88500317544E+02  0.42726817112E+02 -0.10639385314E+03  0.14483624924E+03  0.00000000000E+00 0.  1.
         21    1    1    2  505  501 -0.32184959881E+02 -0.65027624866E+01 -0.17379980167E+02  0.37151329359E+02  0.00000000000E+00 0.  1.
          1    1    1    2  501    0 -0.74400222444E+02 -0.62521712135E+02  0.77905777471E+03  0.78509577373E+03  0.00000000000E+00 0.  1.
<scales pt_clust_3="31.91597" pt_clust_4="68.52453" pt_clust_5="32.55693" pt_clust_6="14000.00000"></scales>
<clustering>
<clus scale="   31.916">  1  3  2 -1</clus>
<clus scale="   32.557">  2  5  1 -1</clus>
<clus scale="   68.525">  2  4  1 -1</clus>
<clus scale="   32.557">  2  3  1 -1</clus>
</clustering>
</event>
<event>
 6    0  0.3695460E+002  0.9189243E+02  0.7546771E-02  0.1298333E+00
         21   -1    0    0  503  502  0.00000000000E+00  0.00000000000E+00  0.15329092500E+04  0.15329092500E+04  0.00000000000E+00 0. -1.
          2   -1    0    0  505    0 -0.00000000000E+00 -0.00000000000E+00 -0.14040886656E+04  0.14040886656E+04  0.00000000000E+00 0.  1.
         21    1    1    2  503  504  0.11161713122E+02  0.43877965133E+02  0.10874287927E+04  0.10883709105E+04  0.00000000000E+00 0. -1.
         21    1    1    2  504  501  0.20287785781E+02  0.33921199616E+02  0.42103849287E+03  0.42288964815E+03  0.00000000000E+00 0. -1.
         21    1    1    2  505  502  0.20542410135E+02  0.50123656337E+02 -0.17963493114E+02  0.57070645902E+02  0.00000000000E+00 0. -1.
          2    1    1    2  501    0 -0.51991909037E+02 -0.12792282109E+03 -0.13616832081E+04  0.13686667111E+04  0.00000000000E+00 0.  1.
<scales pt_clust_3="34.87418" pt_clust_4="34.87418" pt_clust_5="54.16984" pt_clust_6="83.97068"></scales>
<clustering>
<clus scale="   34.874">  3  4 -1 -1</clus>
<clus scale="   54.170">  2  5  1 -1</clus>
<clus scale="   83.971">  2  6  1 -1</clus>
<clus scale="   91.892">  1  3  2 -1</clus>
</clustering>
</event>
<event>
 6    0  0.3695460E+002  0.1206754E+03  0.7546771E-02  0.1241987E+00
         21   -1    0    0  504  502  0.00000000000E+00  0.00000000000E+00  0.16677830900E+03  0.16677830900E+03  0.00000000000E+00 0. -1.
          1   -1    0    0  505    0 -0.00000000000E+00 -0.00000000000E+00 -0.34730341090E+03  0.34730341090E+03  0.00000000000E+00 0. -1.
         21    1    1    2  503  501 -0.10863017573E+02  0.70840501231E+02  0.63616362757E+02  0.95830179880E+02  0.00000000000E+00 0. -1.
         21    1    1    2  504  503  0.32105815340E+02  0.36325919050E+02  0.17829704111E+02  0.51655146135E+02  0.00000000000E+00 0. -1.
         21    1    1    2  505  502 -0.11225143647E+03 -0.67263349949E+02 -0.65307617340E+02  0.14625261748E+03  0.00000000000E+00 0. -1.
          1    1    1    2  501    0  0.91008638707E+02 -0.39903070332E+02 -0.19666355143E+03  0.22034377641E+03  0.00000000000E+00 0. -1.
<scales pt_clust_3="46.39888" pt_clust_4="46.39888" pt_clust_5="106.67700" pt_clust_6="99.37217"></scales>
<clustering>
<clus scale="   46.399">  3  4 -1 -1</clus>
<clus scale="   99.372">  2  6  1 -1</clus>
<clus scale="  106.677">  2  5  1 -1</clus>
<clus scale="  120.675">  1  3  2 -1</clus>
</clustering>
</event>
<event>
 6    0  0.3695460E+002  0.1638862E+03  0.7546771E-02  0.1184378E+00
          1   -1    0    0  504    0 -0.00000000000E+00  0.00000000000E+00  0.39816081601E+02  0.39816081601E+02  0.00000000000E+00 0.  1.
         21   -1    0    0  505  502  0.00000000000E+00 -0.00000000000E+00 -0.65339086058E+03  0.65339086058E+03  0.00000000000E+00 0. -1.
         21    1    1    2  503  502  0.60383816790E+02  0.25178907172E+02 -0.23856038235E+03  0.24736862922E+03  0.00000000000E+00 0. -1.
         21    1    1    2  504  503  0.64122225407E+02  0.55642023804E+02 -0.12136403936E+03  0.14811119017E+03  0.00000000000E+00 0. -1.
         21    1    1    2  505  501 -0.36403535517E+02 -0.22493349899E+02 -0.11970469564E+03  0.12712349250E+03  0.00000000000E+00 0.  1.
          1    1    1    2  501    0 -0.88102506680E+02 -0.58327581077E+02 -0.13394566163E+03  0.17060363029E+03  0.00000000000E+00 0.  1.
<scales pt_clust_3="60.97637" pt_clust_4="60.97637" pt_clust_5="30.31503" pt_clust_6="155.89399"></scales>
<clustering>
<clus scale="   30.315">  5  6 -1 -1</clus>
<clus scale="   60.976">  3  4 -1 -1</clus>
<clus scale="  155.894">  1  5  2 -1</clus>
<clus scale="  163.886">  2  3  1 -1</clus>
</clustering>
</event>
<event>
 6    0  0.3695460E+002  0.1361302E+03  0.7546771E-02  0.1218633E+00
          4   -1    0    0  503    0 -0.00000000000E+00  0.00000000000E+00  0.56550674363E+02  0.56550674363E+02  0.00000000000E+00 0.  1.
         21   -1    0    0  505  502  0.00000000000E+00 -0.00000000000E+00 -0.67245698917E+03  0.67245698917E+03  0.00000000000E+00 0. -1.
         21    1    1    2  503  504 -0.25578677051E+02  0.85871956527E+02 -0.34926743868E+03  0.36057732230E+03  0.00000000000E+00 0. -1.
         21    1    1    2  504  502  0.15893210557E+02  0.38297609325E+02 -0.22099583156E+03  0.22485208158E+03  0.00000000000E+00 0. -1.
         21    1    1    2  505  501  0.59150559727E+01 -0.60775644429E+02 -0.51394142945E+02  0.79812434945E+02  0.00000000000E+00 0.  1.
          4    1    1    2  501    0  0.37704105221E+01 -0.63393921423E+02  0.57510983727E+01  0.63765824713E+02  0.00000000000E+00 0.  1.
<scales pt_clust_3="132.39105" pt_clust_4="30.54035" pt_clust_5="53.88298" pt_clust_6="53.88298"></scales>
<clustering>
<clus scale="   30.540">  3  4 -1 -1</clus>
<clus scale="   53.883">  5  6 -1 -1</clus>
<clus scale="  132.391">  2  3  1 -1</clus>
<clus scale="  132.391">  2  3  1 -1</clus>
</clustering>
</event>
<event>
 6    0  0.8601609E+002  0.9438878E+02  0.7546771E-02  0.1292559E+00
         21   -1    0    0  504  502  0.00000000000E+00  0.00000000000E+00  0.47961364782E+03  0.47961364782E+03  0.00000000000E+00 0. -1.
          2   -1    0    0  505    0 -0.00000000000E+00 -0.00000000000E+00 -0.24782576207E+04  0.24782576207E+04  0.00000000000E+00 0. -1.
         21    1    1    2  503  501 -0.66440491086E+02  0.37301302386E+02 -0.20451182425E+03  0.21824484478E+03  0.00000000000E+00 0.  1.
         21    1    1    2  504  503  0.34858518094E+02 -0.89416227397E+02  0.46008209533E+03  0.46998501300E+03  0.00000000000E+00 0. -1.
         21    1    1    2  505  502 -0.10468733777E+02  0.57790636445E+02 -0.10741418650E+03  0.12242205483E+03  0.00000000000E+00 0.  1.
          2    1    1    2  501    0  0.42050706769E+02 -0.56757114339E+01 -0.21468000575E+04  0.21472193559E+04  0.00000000000E+00 0. -1.
<scales pt_clust_3="51.99043" pt_clust_4="94.38878" pt_clust_5="14000.00000" pt_clust_6="42.43201"></scales>
<clustering>
<clus scale="   42.432">  2  6  1 -1</clus>
<clus scale="   51.990">  2  3  1 -1</clus>
<clus scale="   94.389">  1  4  2 -1</clus>
<clus scale="   94.389">  1  3  2 -1</clus>
</clustering>
</event>
<event>
 6    0  0.3695460E+002  0.2740418E+03  0.7546771E-02  0.1098988E+00
          1   -1    0    0  503    0 -0.00000000000E+00  0.00000000000E+00  0.70455166000E+03  0.70455166000E+03  0.00000000000E+00 0. -1.
         21   -1    0    0  505  502  0.00000000000E+00 -0.00000000000E+00 -0.98452994751E+03  0.98452994751E+03  0.00000000000E+00 0. -1.
         21    1    1    2  503  502  0.27654878356E+02  0.11720566641E+02  0.81576017617E+01  0.31124113574E+02  0.00000000000E+00 0.  1.
         21    1    1    2  504  501  0.65714401626E+02  0.27995445075E+02 -0.18597543723E+03  0.19922095968E+03  0.00000000000E+00 0.  1.
         21    1    1    2  505  504  0.88794214215E+02  0.17802085813E+03 -0.73696569664E+03  0.76334414023E+03  0.00000000000E+00 0. -1.
          1    1    1    2  501    0 -0.18216349420E+03 -0.21773686984E+03  0.63480524459E+03  0.69539239402E+03  0.00000000000E+00 0. -1.
<scales pt_clust_3="30.03604" pt_clust_4="54.95506" pt_clust_5="54.95506" pt_clust_6="258.26978"></scales>
<clustering>
<clus scale="   30.036">  1  3  2 -1</clus>
<clus scale="   54.955">  4  5 -1 -1</clus>
<clus scale="  258.270">  1  6  2 -1</clus>
<clus scale="  274.042">  2  3  1 -1</clus>
</clustering>
</event>
<event>
 6    0  0.3695460E+002  0.8936909E+02  0.7546771E-02  0.1304387E+00
          2   -1    0    0  504    0 -0.00000000000E+00  0.00000000000E+00  0.19901534402E+04  0.19901534402E+04  0.00000000000E+00 0. -1.
         21   -1    0    0  505  502  0.00000000000E+00 -0.00000000000E+00 -0.27018391498E+02  0.27018391498E+02  0.00000000000E+00 0.  1.
         21    1    1    2  503  501 -0.44420439042E+02  0.13804360441E+02  0.21185988023E+03  0.21690630379E+03  0.00000000000E+00 0.  1.
         21    1    1    2  504  502 -0.70679753407E+02 -0.68400495294E+02  0.14613885604E+03  0.17615567134E+03  0.00000000000E+00 0.  1.
         21    1    1    2  505  503  0.43313908465E+02  0.25157387060E+01  0.48998292374E+02  0.65446590922E+02  0.00000000000E+00 0.  1.
          2    1    1    2  501    0  0.71786283984E+02  0.52080396147E+02  0.15561380200E+04  0.15586632656E+04  0.00000000000E+00 0. -1.
<scales pt_clust_3="41.11414" pt_clust_4="89.36909" pt_clust_5="43.38691" pt_clust_6="14000.00000"></scales>
<clustering>
<clus scale="   43.387">  2  5  1 -1</clus>
<clus scale="   41.114">  2  3  1 -1</clus>
<clus scale="   89.369">  2  4  1 -1</clus>
<clus scale="   43.387">  2  3  1 -1</clus>
</clustering>
</event>
<event>
 6    0  0.3695460E+002  0.9008932E+02  0.7546771E-02  0.1302636E+00
          2   -1    0    0  503    0 -0.00000000000E+00  0.00000000000E+00  0.22194642631E+02  0.22194642631E+02  0.00000000000E+00 0.  1.
         21   -1    0    0  504  502  0.00000000000E+00 -0.00000000000E+00 -0.11322254050E+04  0.11322254050E+04  0.00000000000E+00 0.  1.
         21    1    1    2  503  505  0.36417014372E+02  0.12660591577E+02 -0.39121525040E+02  0.54927071980E+02  0.00000000000E+00 0.  1.
         21    1    1    2  504  501  0.43982659435E+02 -0.13221838702E+01 -0.25856854873E+03  0.26228594490E+03  0.00000000000E+00 0.  1.
         21    1    1    2  505  502  0.23776884596E+02  0.64100282293E+02 -0.38146284717E+03  0.38754108195E+03  0.00000000000E+00 0.  1.
          2    1    1    2  501    0 -0.10417655840E+03 -0.75438690000E+02 -0.43087784141E+03  0.44966594878E+03  0.00000000000E+00 0.  1.
<scales pt_clust_3="38.55502" pt_clust_4="48.71988" pt_clust_5="14000.00000" pt_clust_6="90.08932"></scales>
<clustering>
<clus scale="   38.555">  1  3  2 -1</clus>
<clus scale="   48.720">  2  4  1 -1</clus>
<clus scale="   90.089">  1  6  2 -1</clus>
<clus scale="   48.720">  2  3  1 -1</clus>
</clustering>
</event>
<event>
 6    0  0.3695460E+002  0.1564969E+03  0.7546771E-02  0.1192709E+00
         21   -1    0    0  501  502  0.00000000000E+00  0.00000000000E+00  0.89134070929E+02  0.89134070929E+02  0.00000000000E+00 0. -1.
          1   -1    0    0  504    0 -0.00000000000E+00 -0.00000000000E+00 -0.51444704798E+03  0.51444704798E+03  0.00000000000E+00 0. -1.
         21    1    1    2  503  502  0.37067837168E+02  0.77413839061E+02 -0.18937065254E+02  0.87895048045E+02  0.00000000000E+00 0. -1.
         21    1    1    2  504  505  0.48342802050E+02 -0.17991670957E+02 -0.10156637707E+03  0.11391424706E+03  0.00000000000E+00 0. -1.
         21    1    1    2  505  503 -0.30183562277E+02  0.66687138961E+02 -0.68201010060E+01  0.73516907662E+02  0.00000000000E+00 0. -1.
          1    1    1    2  501    0 -0.55227076941E+02 -0.12610930706E+03 -0.29798943372E+03  0.32825491613E+03  0.00000000000E+00 0. -1.
<scales pt_clust_3="60.66637" pt_clust_4="51.58223" pt_clust_5="60.66637" pt_clust_6="141.11479"></scales>
<clustering>
<clus scale="   51.582">  2  4  1 -1</clus>
<clus scale="   60.666">  3  5 -1 -1</clus>
<clus scale="  141.115">  2  6  1 -1</clus>
<clus scale="  156.497">  1  3  2 -1</clus>
</clustering>
</event>
<event>
 6    0  0.3695460E+002  0.1166605E+03  0.7546771E-02  0.1248710E+00
         21   -1    0    0  504  502  0.00000000000E+00  0.00000000000E+00  0.39005312960E+02  0.39005312960E+02  0.00000000000E+00 0.  1.
          2   -1    0    0  505    0 -0.00000000000E+00 -0.00000000000E+00 -0.10823540304E+04  0.10823540304E+04  0.00000000000E+00 0.  1.
         21    1    1    2  503  501 -0.17152341701E+02  0.35134828527E+02 -0.19671621500E+03  0.20056402530E+03  0.00000000000E+00 0. -1.
         21    1    1    2  504  503 -0.11051578932E+02  0.42503137445E+02 -0.66773394823E+02  0.79920837995E+02  0.00000000000E+00 0.  1.
         21    1    1    2  505  502  0.93739247949E+02 -0.10045959577E+03 -0.13613819181E+03  0.19342384615E+03  0.00000000000E+00 0.  1.
          2    1    1    2  501    0 -0.65535327316E+02  0.22821629799E+02 -0.64372091582E+03  0.64745063393E+03  0.00000000000E+00 0.  1.
<scales pt_clust_3="38.25954" pt_clust_4="43.91644" pt_clust_5="104.93610" pt_clust_6="38.25954"></scales>
<clustering>
<clus scale="   38.260">  3  6 -1 -1</clus>
<clus scale="   43.916">  1  4  2 -1</clus>
<clus scale="  104.936">  1  5  2 -1</clus>
<clus scale="   43.916">  1  3  2 -1</clus>
</clustering>
</event>
<event>
 6    0  0.3695460E+002  0.7645538E+02  0.7546771E-02  0.1339423E+00
         21   -1    0    0  504  502  0.00000000000E+00  0.00000000000E+00  0.42436385962E+03  0.42436385962E+03  0.00000000000E+00 0.  1.
          2   -1    0    0  505    0 -0.00000000000E+00 -0.00000000000E+00 -0.44877759398E+03  0.44877759398E+03  0.00000000000E+00 0.  1.
         21    1    1    2  503  501 -0.67743418365E+01 -0.66218608322E+02 -0.62664283532E+02  0.91419955295E+02  0.00000000000E+00 0.  1.
         21    1    1    2  504  503 -0.70168865047E+02  0.49202722178E+02  0.18079658994E+03  0.20007994508E+03  0.00000000000E+00 0.  1.
         21    1    1    2  505  502  0.70044719198E+02 -0.18884492111E+02  0.21259085818E+03  0.22462804747E+03  0.00000000000E+00 0.  1.
          2    1    1    2  501    0  0.68984876860E+01  0.35900378255E+02 -0.35513689895E+03  0.35701350574E+03  0.00000000000E+00 0.  1.
<scales pt_clust_3="36.39780" pt_clust_4="14000.00000" pt_clust_5="76.45538" pt_clust_6="36.55716"></scales>
<clustering>
<clus scale="   36.557">  2  6  1 -1</clus>
<clus scale="   36.398">  2  3  1 -1</clus>
<clus scale="   76.455">  1  5  2 -1</clus>
<clus scale="   76.455">  1  3  2 -1</clus>
</clustering>
</event>
<event>
 6    0  0.3695460E+002  0.8572245E+02  0.7546771E-02  0.1313554E+00
          2   -1    0    0  504    0 -0.00000000000E+00  0.00000000000E+00  0.13330493896E+03  0.13330493896E+03  0.00000000000E+00 0. -1.
         21   -1    0    0  503  502  0.00000000000E+00 -0.00000000000E+00 -0.11943853254E+04  0.11943853254E+04  0.00000000000E+00 0.  1.
         21    1    1    2  503  505  0.23941800820E+02  0.13822394059E+03 -0.45729741620E+03  0.47833042392E+03  0.00000000000E+00 0. -1.
         21    1    1    2  504  502 -0.18575791295E+02 -0.75964104464E+02 -0.63451226164E+03  0.63931323728E+03  0.00000000000E+00 0.  1.
         21    1    1    2  505  501  0.79182037428E+02 -0.26142373440E+02 -0.41486832488E+02  0.93136330238E+02  0.00000000000E+00 0. -1.
          2    1    1    2  501    0 -0.84548046953E+02 -0.36117462684E+02  0.72216123916E+02  0.11691027289E+03  0.00000000000E+00 0. -1.
<scales pt_clust_3="74.94420" pt_clust_4="78.20233" pt_clust_5="14000.00000" pt_clust_6="85.72245"></scales>
<clustering>
<clus scale="   78.202">  2  4  1 -1</clus>
<clus scale="   74.944">  2  3  1 -1</clus>
<clus scale="   85.722">  1  6  2 -1</clus>
<clus scale="   78.202">  2  3  1 -1</clus>
</clustering>
</event>
<event>
 6    0  0.3695460E+002  0.1088092E+03  0.7546771E-02  0.1262791E+00
          2   -1    0    0  505    0 -0.00000000000E+00  0.00000000000E+00  0.30875457777E+04  0.30875457777E+04  0.00000000000E+00 0.  1.
         21   -1    0    0  504  502  0.00000000000E+00 -0.00000000000E+00 -0.51568995361E+03  0.51568995361E+03  0.00000000000E+00 0. -1.
         21    1    1    2  503  502 -0.32136984317E+02 -0.19658334729E+02 -0.83384885119E+02  0.91500136348E+02  0.00000000000E+00 0. -1.
         21    1    1    2  504  501 -0.72731625814E+02 -0.10039180013E+02 -0.42275386305E+03  0.42908216375E+03  0.00000000000E+00 0. -1.
         21    1    1    2  505  503 -0.12894647253E+02  0.33912686562E+02  0.30404470269E+03  0.30620176922E+03  0.00000000000E+00 0.  1.
          2    1    1    2  501    0  0.11776325738E+03 -0.42151718186E+01  0.27739498696E+04  0.27764516620E+04  0.00000000000E+00 0.  1.
<scales pt_clust_3="37.66302" pt_clust_4="108.80921" pt_clust_5="36.28143" pt_clust_6="14000.00000"></scales>
<clustering>
<clus scale="   36.281">  1  5  2 -1</clus>
<clus scale="   37.663">  2  3  1 -1</clus>
<clus scale="  108.809">  2  4  1 -1</clus>
<clus scale="   37.663">  2  3  1 -1</clus>
</clustering>
</event>
<event>
 6    0  0.3695460E+002  0.1025432E+03  0.7546771E-02  0.1275037E+00
         21   -1    0    0  503  502  0.00000000000E+00  0.00000000000E+00  0.25015922480E+04  0.25015922480E+04  0.00000000000E+00 0. -1.
          2   -1    0    0  505    0 -0.00000000000E+00 -0.00000000000E+00 -0.67668782964E+03  0.67668782964E+03  0.00000000000E+00 0. -1.
         21    1    1    2  503  504 -0.52844802203E+02  0.37109822426E+02  0.18410975868E+03  0.19510539531E+03  0.00000000000E+00 0. -1.
         21    1    1    2  504  501  0.50567909760E+02  0.62620648924E+02 -0.25646788232E+03  0.26880147661E+03  0.00000000000E+00 0.  1.
         21    1    1    2  505  502 -0.41193212620E+02 -0.80262119802E+02  0.23035436798E+04  0.23053096047E+04  0.00000000000E+00 0. -1.
          2    1    1    2  501    0  0.43470105062E+02 -0.19468351547E+02 -0.40628113781E+03  0.40906360103E+03  0.00000000000E+00 0. -1.
<scales pt_clust_3="63.61789" pt_clust_4="102.54318" pt_clust_5="14000.00000" pt_clust_6="47.63052"></scales>
<clustering>
<clus scale="   47.631">  2  6  1 -1</clus>
<clus scale="   63.618">  1  3  2 -1</clus>
<clus scale="  102.543">  2  4  1 -1</clus>
<clus scale="   63.618">  1  3  2 -1</clus>
</clustering>
</event>
<event>
 6    0  0.3695460E+002  0.2074081E+03  0.7546771E-02  0.1143635E+00
         21   -1    0    0  501  502  0.00000000000E+00  0.00000000000E+00  0.16951279574E+03  0.16951279574E+03  0.00000000000E+00 0.  1.
          2   -1    0    0  504    0 -0.00000000000E+00 -0.00000000000E+00 -0.17998387812E+04  0.17998387812E+04  0.00000000000E+00 0.  1.
         21    1    1    2  503  505  0.14472281367E+03  0.11107029143E+03  0.62115977931E+02  0.19271662396E+03  0.00000000000E+00 0.  1.
         21    1    1    2  504  503 -0.48199709132E+02  0.24986337489E+02 -0.46727872893E+03  0.47042208657E+03  0.00000000000E+00 0. -1.
         21    1    1    2  505  502 -0.90041727334E+01  0.50137147250E+02  0.11774175536E+02  0.52282309346E+02  0.00000000000E+00 0.  1.
          2    1    1    2  501    0 -0.87518931803E+02 -0.18619377617E+03 -0.12369374100E+04  0.12539305571E+04  0.00000000000E+00 0.  1.
<scales pt_clust_3="207.40812" pt_clust_4="54.64826" pt_clust_5="50.93926" pt_clust_6="14000.00000"></scales>
<clustering>
<clus scale="   50.939">  1  5  2 -1</clus>
<clus scale="   54.648">  2  4  1 -1</clus>
<clus scale="  207.408">  1  3  2 -1</clus>
<clus scale="   50.939">  1  3  2 -1</clus>
</clustering>
</event>
<event>
 6    0  0.3695460E+002  0.1354751E+03  0.7546771E-02  0.1219551E+00
          1   -1    0    0  503    0 -0.00000000000E+00  0.00000000000E+00  0.76005469278E+03  0.76005469278E+03  0.00000000000E+00 0. -1.
         21   -1    0    0  504  502  0.00000000000E+00 -0.00000000000E+00 -0.76009727585E+03  0.76009727585E+03  0.00000000000E+00 0.  1.
         21    1    1    2  503  505  0.10874449560E+03  0.25351636078E+01  0.58228525555E+02  0.12337890244E+03  0.00000000000E+00 0. -1.
         21    1    1    2  504  501  0.76960237884E+02 -0.42458453811E+02 -0.21647330735E+03  0.23363709318E+03  0.00000000000E+00 0.  1.
         21    1    1    2  505  502 -0.61349846714E+02 -0.36091961439E+02 -0.49183543551E+03  0.49695928303E+03  0.00000000000E+00 0.  1.
          1    1    1    2  501    0 -0.12435488677E+03  0.76015251642E+02  0.65003763424E+03  0.66617668998E+03  0.00000000000E+00 0. -1.
<scales pt_clust_3="135.47510" pt_clust_4="77.18838" pt_clust_5="71.17888" pt_clust_6="14000.00000"></scales>
<clustering>
<clus scale="   71.179">  2  5  1 -1</clus>
<clus scale="   77.188">  2  4  1 -1</clus>
<clus scale="  135.475">  2  3  1 -1</clus>
<clus scale="   71.179">  2  3  1 -1</clus>
</clustering>
</event>
<event>
 6    0  0.3695460E+002  0.1323998E+03  0.7546771E-02  0.1223938E+00
         21   -1    0    0  501  502  0.00000000000E+00  0.00000000000E+00  0.34015645544E+03  0.34015645544E+03  0.00000000000E+00 0. -1.
          2   -1    0    0  505    0 -0.00000000000E+00 -0.00000000000E+00 -0.58175238617E+03  0.58175238617E+03  0.00000000000E+00 0.  1.
         21    1    1    2  503  504 -0.41300797560E+02  0.37842859909E+02  0.14074598299E+03  0.15148356232E+03  0.00000000000E+00 0. -1.
         21    1    1    2  504  502  0.42995072453E+02  0.13602058863E+02  0.15349729242E+03  0.15998440875E+03  0.00000000000E+00 0. -1.
         21    1    1    2  505  503 -0.29315802422E+02  0.93564953332E+02 -0.66600014657E+02  0.11853007515E+03  0.00000000000E+00 0. -1.
          2    1    1    2  501    0  0.27621527529E+02 -0.14500987210E+03 -0.46923919149E+03  0.49191079539E+03  0.00000000000E+00 0.  1.
<scales pt_clust_3="49.18650" pt_clust_4="45.09537" pt_clust_5="132.39984" pt_clust_6="14000.00000"></scales>
<clustering>
<clus scale="   45.095">  1  4  2 -1</clus>
<clus scale="   49.186">  1  3  2 -1</clus>
<clus scale="  132.400">  1  5  2 -1</clus>
<clus scale="   45.095">  1  3  2 -1</clus>
</clustering>
</event>
<event>
 6    0  0.3695460E+002  0.2300339E+03  0.7546771E-02  0.1126616E+00
         21   -1    0    0  504  502  0.00000000000E+00  0.00000000000E+00  0.24994871805E+03  0.24994871805E+03  0.00000000000E+00 0.  1.
          2   -1    0    0  503    0 -0.00000000000E+00 -0.00000000000E+00 -0.22278252607E+04  0.22278252607E+04  0.00000000000E+00 0. -1.
         21    1    1    2  503  502 -0.12376605204E+03  0.67797619581E+02  0.19532449208E+03  0.24096931353E+03  0.00000000000E+00 0.  1.
         21    1    1    2  504  505 -0.73074348648E+02  0.65983195221E+01 -0.27094786147E+02  0.78214613003E+02  0.00000000000E+00 0.  1.
         21    1    1    2  505  501  0.83308253739E+02 -0.63344986824E+02 -0.67466242903E+03  0.68273145939E+03  0.00000000000E+00 0. -1.
          2    1    1    2  501    0  0.11353214695E+03 -0.11050952279E+02 -0.14714438195E+04  0.14758585928E+04  0.00000000000E+00 0. -1.
<scales pt_clust_3="208.46464" pt_clust_4="73.37164" pt_clust_5="92.95054" pt_clust_6="92.95054"></scales>
<clustering>
<clus scale="   73.372">  1  4  2 -1</clus>
<clus scale="   92.951">  5  6 -1 -1</clus>
<clus scale="  208.465">  1  3  2 -1</clus>
<clus scale="   73.372">  1  3  2 -1</clus>
</clustering>
</event>
<event>
 6    0  0.3695460E+002  0.9401295E+02  0.7546771E-02  0.1293415E+00
         21   -1    0    0  503  502  0.00000000000E+00  0.00000000000E+00  0.65323255857E+02  0.65323255857E+02  0.00000000000E+00 0.  1.
          2   -1    0    0  505    0 -0.00000000000E+00 -0.00000000000E+00 -0.30626821874E+03  0.30626821874E+03  0.00000000000E+00 0.  1.
         21    1    1    2  503  504 -0.82042786675E+01  0.31927308559E+02  0.24786973196E+01  0.33057633925E+02  0.00000000000E+00 0.  1.
         21    1    1    2  504  501  0.42555752695E+02  0.72969787542E+02 -0.58043089686E+02  0.10249186427E+03  0.00000000000E+00 0.  1.
         21    1    1    2  505  502 -0.34097627163E+02  0.44430263364E+01 -0.64166840497E+02  0.72799533518E+02  0.00000000000E+00 0.  1.
          2    1    1    2  501    0 -0.25384686451E+00 -0.10934012244E+03 -0.12121373002E+03  0.16324244288E+03  0.00000000000E+00 0.  1.
<scales pt_clust_3="32.96458" pt_clust_4="94.01295" pt_clust_5="35.60722" pt_clust_6="14000.00000"></scales>
<clustering>
<clus scale="   32.965">  1  3  2 -1</clus>
<clus scale="   35.607">  2  5  1 -1</clus>
<clus scale="   94.013">  1  4  2 -1</clus>
<clus scale="   32.965">  1  3  2 -1</clus>
</clustering>
</event>
<event>
 6    0  0.3695460E+002  0.1578615E+03  0.7546771E-02  0.1191132E+00
          2   -1    0    0  503    0 -0.00000000000E+00  0.00000000000E+00  0.14829651549E+04  0.14829651549E+04  0.00000000000E+00 0.  1.
         21   -1    0    0  504  502  0.00000000000E+00 -0.00000000000E+00 -0.42192113618E+03  0.42192113618E+03  0.00000000000E+00 0.  1.
         21    1    1    2  503  502  0.11204422093E+02  0.91586194305E+02 -0.89307289196E+02  0.12841091062E+03  0.00000000000E+00 0.  1.
         21    1    1    2  504  505 -0.89536238676E+02  0.37583779161E+02 -0.30109520628E+03  0.31636624621E+03  0.00000000000E+00 0.  1.
         21    1    1    2  505  501  0.45805109187E+02 -0.50267179359E+02  0.46052848982E+03  0.46552270330E+03  0.00000000000E+00 0.  1.
          2    1    1    2  501    0  0.32526707395E+02 -0.78902794107E+02  0.99091802437E+03  0.99458643095E+03  0.00000000000E+00 0.  1.
<scales pt_clust_3="92.26901" pt_clust_4="150.06439" pt_clust_5="43.74008" pt_clust_6="43.74008"></scales>
<clustering>
<clus scale="   43.740">  5  6 -1 -1</clus>
<clus scale="   92.269">  2  3  1 -1</clus>
<clus scale="  150.064">  2  4  1 -1</clus>
<clus scale="   92.269">  2  3  1 -1</clus>
</clustering>
</event>
<event>
 6    0  0.3695460E+002  0.1221194E+03  0.7546771E-02  0.1239641E+00
          2   -1    0    0  503    0 -0.00000000000E+00  0.00000000000E+00  0.29794768275E+04  0.29794768275E+04  0.00000000000E+00 0. -1.
         21   -1    0    0  504  502  0.00000000000E+00 -0.00000000000E+00 -0.25895206020E+02  0.25895206020E+02  0.00000000000E+00 0.  1.
         21    1    1    2  503  502  0.12512275534E+02 -0.38671967485E+02  0.82684707722E+03  0.82784549719E+03  0.00000000000E+00 0.  1.
         21    1    1    2  504  505 -0.49185608970E+02 -0.28612488221E+01  0.22130236628E+02  0.54010723452E+02  0.00000000000E+00 0.  1.
         21    1    1    2  505  501 -0.61559245121E+02  0.90983346549E+01  0.11118752852E+03  0.12741658782E+03  0.00000000000E+00 0. -1.
          2    1    1    2  501    0  0.98232578557E+02  0.32434881652E+02  0.19934167791E+04  0.19960992251E+04  0.00000000000E+00 0. -1.
<scales pt_clust_3="40.64576" pt_clust_4="47.69682" pt_clust_5="47.69682" pt_clust_6="109.88281"></scales>
<clustering>
<clus scale="   40.646">  1  3  2 -1</clus>
<clus scale="   47.697">  4  5 -1 -1</clus>
<clus scale="  109.883">  1  6  2 -1</clus>
<clus scale="  122.119">  2  3  1 -1</clus>
</clustering>
</event>
<event>
 6    0  0.3695460E+002  0.2516464E+03  0.7546771E-02  0.1112269E+00
          2   -1    0    0  504    0 -0.00000000000E+00  0.00000000000E+00  0.23143371520E+04  0.23143371520E+04  0.00000000000E+00 0.  1.
         21   -1    0    0  505  502  0.00000000000E+00 -0.00000000000E+00 -0.63205046938E+02  0.63205046938E+02  0.00000000000E+00 0.  1.
         21    1    1    2  503  502  0.14008452697E+03 -0.10639285063E+02  0.12481301884E+03  0.18792327891E+03  0.00000000000E+00 0.  1.
         21    1    1    2  504  503  0.12687157074E+03  0.63035912497E+01  0.18350876154E+03  0.22318511663E+03  0.00000000000E+00 0.  1.
         21    1    1    2  505  501 -0.24778734878E+02  0.27970855462E+02  0.86267241239E+02  0.94012719184E+02  0.00000000000E+00 0.  1.
          2    1    1    2  501    0 -0.24217736283E+03 -0.23635161649E+02  0.18565430834E+04  0.18724210842E+04  0.00000000000E+00 0.  1.
<scales pt_clust_3="50.09018" pt_clust_4="50.09018" pt_clust_5="37.36783" pt_clust_6="246.29753"></scales>
<clustering>
<clus scale="   37.368">  2  5  1 -1</clus>
<clus scale="   50.090">  3  4 -1 -1</clus>
<clus scale="  246.298">  1  6  2 -1</clus>
<clus scale="   37.368">  2  3  1 -1</clus>
</clustering>
</event>
<event>
 6    0  0.3695460E+002  0.8771892E+02  0.7546771E-02  0.1308472E+00
         -2   -1    0    0    0  501 -0.00000000000E+00  0.00000000000E+00  0.10669795578E+04  0.10669795578E+04  0.00000000000E+00 0.  1.
         21   -1    0    0  504  502  0.00000000000E+00 -0.00000000000E+00 -0.16151894438E+03  0.16151894438E+03  0.00000000000E+00 0.  1.
         21    1    1    2  503  505  0.60132015423E+02 -0.15939276723E+02 -0.11658067986E+03  0.13213998161E+03  0.00000000000E+00 0.  1.
         21    1    1    2  504  503  0.20124673545E+02 -0.23000463557E+02 -0.17433225584E+02  0.35184388063E+02  0.00000000000E+00 0.  1.
         21    1    1    2  505  501  0.30196666617E+00 -0.60839513025E+02  0.14061481052E+03  0.15321247491E+03  0.00000000000E+00 0. -1.
         -2    1    1    2    0  502 -0.80558655634E+02  0.99779253305E+02  0.89885970830E+03  0.90796165756E+03  0.00000000000E+00 0.  1.
<scales pt_clust_3="14000.00000" pt_clust_4="30.56180" pt_clust_5="61.92341" pt_clust_6="87.71892"></scales>
<clustering>
<clus scale="   30.562">  2  4  1 -1</clus>
<clus scale="   61.923">  1  5  2 -1</clus>
<clus scale="   87.719">  1  6  2 -1</clus>
<clus scale="   30.562">  2  3  1 -1</clus>
</clustering>
</event>
<event>
 6    0  0.3695460E+002  0.1598083E+03  0.7546771E-02  0.1188913E+00
         -1   -1    0    0    0  501 -0.00000000000E+00  0.00000000000E+00  0.45204671454E+03  0.45204671454E+03  0.00000000000E+00 0. -1.
         21   -1    0    0  503  502  0.00000000000E+00 -0.00000000000E+00 -0.98426986207E+02  0.98426986207E+02  0.00000000000E+00 0.  1.
         21    1    1    2  503  504  0.10705194248E+02  0.10101705894E+03 -0.29204732247E+02  0.10569751069E+03  0.00000000000E+00 0.  1.
         21    1    1    2  504  501 -0.85871076510E+01  0.46641917413E+02  0.26115184817E+02  0.54140647907E+02  0.00000000000E+00 0. -1.
         21    1    1    2  505  502 -0.29027532413E+02 -0.99666024593E+02  0.21965663097E+03  0.24295050859E+03  0.00000000000E+00 0. -1.
         -1    1    1    2    0  505  0.26909445816E+02 -0.47992951756E+02  0.13705264480E+03  0.14768503356E+03  0.00000000000E+00 0. -1.
<scales pt_clust_3="41.73611" pt_clust_4="41.73611" pt_clust_5="43.35943" pt_clust_6="159.23134"></scales>
<clustering>
<clus scale="   41.736">  3  4 -1 -1</clus>
<clus scale="   43.359">  5  6 -1 -1</clus>
<clus scale="  159.231">  1  5  2 -1</clus>
<clus scale="  159.808">  2  3  1 -1</clus>
</clustering>
</event>
<event>
 6    0  0.3695460E+002  0.1637444E+03  0.7546771E-02  0.1184533E+00
         21   -1    0    0  504  502  0.00000000000E+00  0.00000000000E+00  0.77184941976E+02  0.77184941976E+02  0.00000000000E+00 0.  1.
          2   -1    0    0  502    0 -0.00000000000E+00 -0.00000000000E+00 -0.23418259752E+04  0.23418259752E+04  0.00000000000E+00 0. -1.
         21    1    1    2  503  505  0.25679483538E+02 -0.51084047895E+02 -0.23562213363E+02  0.61840065675E+02  0.00000000000E+00 0.  1.
         21    1    1    2  504  503  0.39301386997E+02 -0.89820143957E+02  0.11440863699E+02  0.98707399128E+02  0.00000000000E+00 0.  1.
         21    1    1    2  505  501 -0.64170917686E+01  0.71769896048E+02 -0.87068248402E+03  0.87365902103E+03  0.00000000000E+00 0.  1.
          2    1    1    2  501    0 -0.58563778767E+02  0.69134295804E+02 -0.13818371995E+04  0.13848044313E+04  0.00000000000E+00 0. -1.
<scales pt_clust_3="30.08511" pt_clust_4="160.08923" pt_clust_5="46.64410" pt_clust_6="46.64410"></scales>
<clustering>
<clus scale="   30.085">  3  4 -1 -1</clus>
<clus scale="   46.644">  5  6 -1 -1</clus>
<clus scale="  160.089">  1  3  2 -1</clus>
<clus scale="  160.089">  1  3  2 -1</clus>
</clustering>
</event>
<event>
 6    0  0.3695460E+002  0.1221688E+03  0.7546771E-02  0.1239562E+00
         21   -1    0    0  503  502  0.00000000000E+00  0.00000000000E+00  0.14490794443E+03  0.14490794443E+03  0.00000000000E+00 0. -1.
          1   -1    0    0  504    0 -0.00000000000E+00 -0.00000000000E+00 -0.20286752261E+04  0.20286752261E+04  0.00000000000E+00 0. -1.
         21    1    1    2  503  505  0.17911166633E+02  0.26606088400E+02  0.69415400179E+02  0.76466931494E+02  0.00000000000E+00 0. -1.
         21    1    1    2  504  502 -0.37845768274E+02  0.20069324334E+02 -0.37102804276E+03  0.37349282251E+03  0.00000000000E+00 0. -1.
         21    1    1    2  505  501  0.33761987788E+02  0.85883739855E+02  0.36685502380E+02  0.99306166353E+02  0.00000000000E+00 0. -1.
          1    1    1    2  501    0 -0.13827386147E+02 -0.13255915259E+03 -0.16188401415E+04  0.16243172502E+04  0.00000000000E+00 0. -1.
<scales pt_clust_3="32.07326" pt_clust_4="42.78380" pt_clust_5="14000.00000" pt_clust_6="122.16879"></scales>
<clustering>
<clus scale="   32.073">  1  3  2 -1</clus>
<clus scale="   42.784">  2  4  1 -1</clus>
<clus scale="  122.169">  2  6  1 -1</clus>
<clus scale="   32.073">  1  3  2 -1</clus>
</clustering>
</event>
<event>
 6    0  0.3695460E+002  0.3297222E+03  0.7546771E-02  0.1071260E+00
         21   -1    0    0  504  502  0.00000000000E+00  0.00000000000E+00  0.10319809998E+03  0.10319809998E+03  0.00000000000E+00 0. -1.
          2   -1    0    0  503    0 -0.00000000000E+00 -0.00000000000E+00 -0.20785669898E+04  0.20785669898E+04  0.00000000000E+00 0.  1.
         21    1    1    2  503  505 -0.13017697152E+03 -0.24865024006E+03 -0.51745118276E+03  0.58866689421E+03  0.00000000000E+00 0. -1.
         21    1    1    2  504  501  0.30807234372E+02  0.19678985655E+02 -0.41911293229E+02  0.55613889148E+02  0.00000000000E+00 0.  1.
         21    1    1    2  505  502 -0.10951233776E+03 -0.69558929325E+02 -0.79392898796E+02  0.15210072041E+03  0.00000000000E+00 0. -1.
          2    1    1    2  501    0  0.20888207492E+03  0.29853018373E+03 -0.13366135150E+04  0.13853835860E+04  0.00000000000E+00 0.  1.
<scales pt_clust_3="14000.00000" pt_clust_4="36.55610" pt_clust_5="115.94245" pt_clust_6="329.72220"></scales>
<clustering>
<clus scale="   36.556">  1  4  2 -1</clus>
<clus scale="  115.942">  1  5  2 -1</clus>
<clus scale="  329.722">  2  6  1 -1</clus>
<clus scale="   36.556">  1  3  2 -1</clus>
</clustering>
</event>
<event>
 6    0  0.3695460E+002  0.1642300E+03  0.7546771E-02  0.1184002E+00
          1   -1    0    0  504    0 -0.00000000000E+00  0.00000000000E+00  0.60671222137E+03  0.60671222137E+03  0.00000000000E+00 0.  1.
         21   -1    0    0  503  502  0.00000000000E+00 -0.00000000000E+00 -0.72885879463E+03  0.72885879463E+03  0.00000000000E+00 0.  1.
         21    1    1    2  503  501  0.15854267630E+03 -0.33818539696E+02 -0.26029604999E+03  0.30664883413E+03  0.00000000000E+00 0.  1.
         21    1    1    2  504  505 -0.82594130091E+02  0.13656250146E+02  0.58576640927E+02  0.10217390252E+03  0.00000000000E+00 0. -1.
         21    1    1    2  505  502  0.10627339018E+02  0.46253070570E+02 -0.41817228009E+03  0.42085667716E+03  0.00000000000E+00 0.  1.
          1    1    1    2  501    0 -0.86575885224E+02 -0.26090781020E+02  0.49774511590E+03  0.50589160218E+03  0.00000000000E+00 0.  1.
<scales pt_clust_3="164.23003" pt_clust_4="83.57501" pt_clust_5="47.45826" pt_clust_6="14000.00000"></scales>
<clustering>
<clus scale="   47.458">  2  5  1 -1</clus>
<clus scale="   83.575">  1  4  2 -1</clus>
<clus scale="  164.230">  2  3  1 -1</clus>
<clus scale="   47.458">  2  3  1 -1</clus>
</clustering>
</event>
<event>
 6    0  0.3695460E+002  0.1076325E+03  0.7546771E-02  0.1265018E+00
          2   -1    0    0  503    0 -0.00000000000E+00  0.00000000000E+00  0.18772394501E+04  0.18772394501E+04  0.00000000000E+00 0. -1.
         21   -1    0    0  504  502  0.00000000000E+00 -0.00000000000E+00 -0.11814999211E+03  0.11814999211E+03  0.00000000000E+00 0.  1.
         21    1    1    2  503  505  0.13171962164E+03 -0.29058846591E+02  0.26067140228E+03  0.29350307538E+03  0.00000000000E+00 0. -1.
         21    1    1    2  504  501 -0.42241782907E+02  0.14409276138E+02  0.65614202162E+03  0.65765823039E+03  0.00000000000E+00 0. -1.
         21    1    1    2  505  502 -0.76656986134E+02 -0.45928984828E+02 -0.79961036489E+02  0.11991468854E+03  0.00000000000E+00 0.  1.
          2    1    1    2  501    0 -0.12820852595E+02  0.60578555282E+02  0.92223707062E+03  0.92431344794E+03  0.00000000000E+00 0. -1.
<scales pt_clust_3="94.26555" pt_clust_4="44.10498" pt_clust_5="89.36311" pt_clust_6="44.10498"></scales>
<clustering>
<clus scale="   44.105">  4  6 -1 -1</clus>
<clus scale="   89.363">  2  5  1 -1</clus>
<clus scale="   94.266">  2  3  1 -1</clus>
<clus scale="   89.363">  2  3  1 -1</clus>
</clustering>
</event>
<event>
 6    0  0.3695460E+002  0.3045136E+03  0.7546771E-02  0.1083006E+00
         21   -1    0    0  503  502  0.00000000000E+00  0.00000000000E+00  0.47327688847E+03  0.47327688847E+03  0.00000000000E+00 0. -1.
          2   -1    0    0  505    0 -0.00000000000E+00 -0.00000000000E+00 -0.22493383794E+04  0.22493383794E+04  0.00000000000E+00 0.  1.
         21    1    1    2  503  504  0.27651056826E+02 -0.14657706637E+02  0.16694661249E+03  0.16985464588E+03  0.00000000000E+00 0. -1.
         21    1    1    2  504  501 -0.76878789917E+02 -0.19054729933E+03  0.23527055644E+03  0.31236334028E+03  0.00000000000E+00 0. -1.
         21    1    1    2  505  502 -0.16792667815E+02 -0.96414828632E+02 -0.10226429421E+03  0.14154786732E+03  0.00000000000E+00 0.  1.
          2    1    1    2  501    0  0.66020400906E+02  0.30161983460E+03 -0.20760143656E+04  0.20988494144E+04  0.00000000000E+00 0.  1.
<scales pt_clust_3="31.29584" pt_clust_4="14000.00000" pt_clust_5="98.50961" pt_clust_6="304.51358"></scales>
<clustering>
<clus scale="   31.296">  1  3  2 -1</clus>
<clus scale="   98.510">  1  5  2 -1</clus>
<clus scale="  304.514">  2  6  1 -1</clus>
<clus scale="   31.296">  1  3  2 -1</clus>
</clustering>
</event>
<event>
 6    0  0.3695460E+002  0.1170997E+04  0.7546771E-02  0.9138628E-01
          2   -1    0    0  502    0 -0.00000000000E+00  0.00000000000E+00  0.98178636149E+03  0.98178636149E+03  0.00000000000E+00 0.  1.
         21   -1    0    0  505  502  0.00000000000E+00 -0.00000000000E+00 -0.24773589980E+04  0.24773589980E+04  0.00000000000E+00 0.  1.
         21    1    1    2  503  504 -0.85355421959E+03  0.81622724077E+02 -0.13578022457E+04  0.16058779571E+04  0.00000000000E+00 0.  1.
         21    1    1    2  504  501  0.52194057484E+02  0.22468621728E+02  0.14896493104E+01  0.56844328249E+02  0.00000000000E+00 0.  1.
         21    1    1    2  505  503 -0.30871396460E+03 -0.50356108214E+02 -0.53246382179E+03  0.61754171608E+03  0.00000000000E+00 0.  1.
          2    1    1    2  501    0  0.11100741267E+04 -0.53735237591E+02  0.39320378160E+03  0.11788813581E+04  0.00000000000E+00 0.  1.
<scales pt_clust_3="1170.67896" pt_clust_4="31.48685" pt_clust_5="82.47045" pt_clust_6="31.48685"></scales>
<clustering>
<clus scale="   31.487">  4  6 -1 -1</clus>
<clus scale="   82.470">  3  5 -1 -1</clus>
<clus scale=" 1170.679">  2  3  1 -1</clus>
<clus scale=" 1170.679">  2  3  1 -1</clus>
</clustering>
</event>
<event>
 6    0  0.3695460E+002  0.1848535E+03  0.7546771E-02  0.1163187E+00
          1   -1    0    0  504    0 -0.00000000000E+00  0.00000000000E+00  0.14658326524E+04  0.14658326524E+04  0.00000000000E+00 0.  1.
         21   -1    0    0  501  502  0.00000000000E+00 -0.00000000000E+00 -0.17500400660E+03  0.17500400660E+03  0.00000000000E+00 0. -1.
         21    1    1    2  503  502  0.13778273016E+03 -0.12409234386E+03 -0.10892870825E+03  0.21505453731E+03  0.00000000000E+00 0. -1.
         21    1    1    2  504  505 -0.62884994203E+02  0.25200961754E+02  0.25248231969E+03  0.26141333693E+03  0.00000000000E+00 0. -1.
         21    1    1    2  505  503 -0.56309084808E+02  0.48798681760E+02  0.16973802906E+03  0.18537265948E+03  0.00000000000E+00 0. -1.
          1    1    1    2  501    0 -0.18588651148E+02  0.50092700345E+02  0.97753700535E+03  0.97899612533E+03  0.00000000000E+00 0.  1.
<scales pt_clust_3="180.29502" pt_clust_4="38.90243" pt_clust_5="38.90243" pt_clust_6="53.43048"></scales>
<clustering>
<clus scale="   38.902">  4  5 -1 -1</clus>
<clus scale="   53.430">  1  6  2 -1</clus>
<clus scale="  180.295">  2  3  1 -1</clus>
<clus scale="  180.295">  2  3  1 -1</clus>
</clustering>
</event>
<event>
 6    0  0.3695460E+002  0.8762985E+02  0.7546771E-02  0.1308695E+00
         21   -1    0    0  504  502  0.00000000000E+00  0.00000000000E+00  0.24409689731E+03  0.24409689731E+03  0.00000000000E+00 0. -1.
          2   -1    0    0  505    0 -0.00000000000E+00 -0.00000000000E+00 -0.13682973161E+03  0.13682973161E+03  0.00000000000E+00 0. -1.
         21    1    1    2  503  501  0.21385441970E+02 -0.87924254761E+02  0.73112746924E+02  0.11633350964E+03  0.00000000000E+00 0. -1.
         21    1    1    2  504  503  0.26188883794E+02  0.18467960787E+02  0.12778020695E+02  0.34499290179E+02  0.00000000000E+00 0. -1.
         21    1    1    2  505  502 -0.46035958437E+02 -0.17947654544E+02  0.10062488157E+03  0.11210171526E+03  0.00000000000E+00 0. -1.
          2    1    1    2  501    0 -0.15383673264E+01  0.87403948517E+02 -0.79248483500E+02  0.11799211384E+03  0.00000000000E+00 0. -1.
<scales pt_clust_3="14000.00000" pt_clust_4="32.04564" pt_clust_5="34.60183" pt_clust_6="87.62985"></scales>
<clustering>
<clus scale="   32.046">  1  4  2 -1</clus>
<clus scale="   34.602">  1  5  2 -1</clus>
<clus scale="   87.630">  2  6  1 -1</clus>
<clus scale="   32.046">  1  3  2 -1</clus>
</clustering>
</event>
<event>
 6    0  0.3695460E+002  0.1463002E+03  0.7546771E-02  0.1205094E+00
         21   -1    0    0  504  502  0.00000000000E+00  0.00000000000E+00  0.23473432885E+04  0.23473432885E+04  0.00000000000E+00 0. -1.
          1   -1    0    0  503    0 -0.00000000000E+00 -0.00000000000E+00 -0.12566796982E+04  0.12566796982E+04  0.00000000000E+00 0. -1.
         21    1    1    2  503  502  0.57773114684E+02  0.13006896766E+02 -0.14858480030E+03  0.15995110198E+03  0.00000000000E+00 0. -1.
         21    1    1    2  504  505 -0.34256524202E+02 -0.45662088902E+02  0.42429800142E+03  0.42812069539E+03  0.00000000000E+00 0. -1.
         21    1    1    2  505  501 -0.10007869860E+03 -0.13445253740E+02  0.19123020983E+04  0.19149662754E+04  0.00000000000E+00 0. -1.
          1    1    1    2  501    0  0.76562108115E+02  0.46100445876E+02 -0.10973517090E+04  0.11009849140E+04  0.00000000000E+00 0. -1.
<scales pt_clust_3="59.09076" pt_clust_4="57.08359" pt_clust_5="14000.00000" pt_clust_6="146.30016"></scales>
<clustering>
<clus scale="   57.084">  1  4  2 -1</clus>
<clus scale="   59.091">  2  3  1 -1</clus>
<clus scale="  146.300">  2  6  1 -1</clus>
<clus scale="   57.084">  1  3  2 -1</clus>
</clustering>
</event>
<event>
 6    0  0.3695460E+002  0.8517708E+02  0.7546771E-02  0.1314970E+00
         21   -1    0    0  504  502  0.00000000000E+00  0.00000000000E+00  0.69679758611E+03  0.69679758611E+03  0.00000000000E+00 0.  1.
          3   -1    0    0  503    0 -0.00000000000E+00 -0.00000000000E+00 -0.56231490047E+03  0.56231490047E+03  0.00000000000E+00 0. -1.
         21    1    1    2  503  505  0.22132994445E+02 -0.70626859013E+02 -0.72000076890E+02  0.10325712435E+03  0.00000000000E+00 0. -1.
         21    1    1    2  504  501 -0.52992097835E+02 -0.16630839356E+02  0.56950035846E+03  0.57220224181E+03  0.00000000000E+00 0.  1.
         21    1    1    2  505  502 -0.30250689555E+02 -0.63260322538E+01  0.10138458665E+03  0.10599036425E+03  0.00000000000E+00 0.  1.
          3    1    1    2  501    0  0.61109792945E+02  0.93583730623E+02 -0.46440218259E+03  0.47766275616E+03  0.00000000000E+00 0. -1.
<scales pt_clust_3="73.93880" pt_clust_4="85.17708" pt_clust_5="30.90506" pt_clust_6="14000.00000"></scales>
<clustering>
<clus scale="   30.905">  1  5  2 -1</clus>
<clus scale="   73.939">  2  3  1 -1</clus>
<clus scale="   85.177">  1  4  2 -1</clus>
<clus scale="   30.905">  1  3  2 -1</clus>
</clustering>
</event>
<event>
 6    0  0.3695460E+002  0.1392280E+03  0.7546771E-02  0.1214372E+00
          2   -1    0    0  503    0 -0.00000000000E+00  0.00000000000E+00  0.68090359226E+02  0.68090359226E+02  0.00000000000E+00 0. -1.
         21   -1    0    0  505  502  0.00000000000E+00 -0.00000000000E+00 -0.12033130518E+04  0.12033130518E+04  0.00000000000E+00 0.  1.
         21    1    1    2  503  502 -0.48113942062E+02 -0.50299492381E+02 -0.81648832360E+02  0.10729176194E+03  0.00000000000E+00 0. -1.
         21    1    1    2  504  501  0.56952949473E+02 -0.18488858447E+01 -0.31305686462E+03  0.31820065575E+03  0.00000000000E+00 0.  1.
         21    1    1    2  505  504  0.71905486540E+02 -0.37198129461E+02 -0.71904180012E+03  0.72358497092E+03  0.00000000000E+00 0.  1.
          2    1    1    2  501    0 -0.80744493951E+02  0.89346507687E+02 -0.21475195477E+02  0.12232602242E+03  0.00000000000E+00 0. -1.
<scales pt_clust_3="69.60596" pt_clust_4="37.14707" pt_clust_5="37.14707" pt_clust_6="131.99985"></scales>
<clustering>
<clus scale="   37.147">  4  5 -1 -1</clus>
<clus scale="   69.606">  1  3  2 -1</clus>
<clus scale="  132.000">  1  6  2 -1</clus>
<clus scale="  139.228">  2  3  1 -1</clus>
</clustering>
</event>
<event>
 6    0  0.3695460E+002  0.1816207E+03  0.7546771E-02  0.1166244E+00
         -3   -1    0    0    0  501 -0.00000000000E+00  0.00000000000E+00  0.51272590260E+03  0.51272590260E+03  0.00000000000E+00 0. -1.
         21   -1    0    0  503  502  0.00000000000E+00 -0.00000000000E+00 -0.81730587777E+02  0.81730587777E+02  0.00000000000E+00 0. -1.
         21    1    1    2  503  504 -0.58487720564E+02 -0.22611700158E+02  0.16077077929E+02  0.64734649729E+02  0.00000000000E+00 0. -1.
         21    1    1    2  504  501 -0.35927366781E+02 -0.11200236398E+03  0.61912357800E+02  0.13292270411E+03  0.00000000000E+00 0. -1.
         21    1    1    2  505  502  0.19655583877E+02  0.48708604751E+02  0.19552253157E+03  0.20245476163E+03  0.00000000000E+00 0. -1.
         -3    1    1    2    0  505  0.74759503467E+02  0.85905459384E+02  0.15748334752E+03  0.19434437491E+03  0.00000000000E+00 0. -1.
<scales pt_clust_3="56.32500" pt_clust_4="56.32500" pt_clust_5="51.72723" pt_clust_6="181.20818"></scales>
<clustering>
<clus scale="   51.727">  5  6 -1 -1</clus>
<clus scale="   56.325">  3  4 -1 -1</clus>
<clus scale="  181.208">  1  5  2 -1</clus>
<clus scale="  181.621">  2  3  1 -1</clus>
</clustering>
</event>
<event>
 6    0  0.3695460E+002  0.1296015E+03  0.7546771E-02  0.1228048E+00
          2   -1    0    0  505    0 -0.00000000000E+00  0.00000000000E+00  0.40961466720E+03  0.40961466720E+03  0.00000000000E+00 0.  1.
         21   -1    0    0  503  502  0.00000000000E+00 -0.00000000000E+00 -0.20488402926E+03  0.20488402926E+03  0.00000000000E+00 0. -1.
         21    1    1    2  503  504 -0.67023698238E+02 -0.21197187690E+02 -0.12372967970E+03  0.14230435879E+03  0.00000000000E+00 0. -1.
         21    1    1    2  504  501 -0.46618047003E+02 -0.27889199254E+02 -0.42648117825E+02  0.69064547312E+02  0.00000000000E+00 0. -1.
         21    1    1    2  505  502  0.93300229121E+02  0.71757178069E+02  0.22550683334E+03  0.25437640858E+03  0.00000000000E+00 0.  1.
          2    1    1    2  501    0  0.20341516120E+02 -0.22670791125E+02  0.14560160213E+03  0.14875338178E+03  0.00000000000E+00 0.  1.
<scales pt_clust_3="35.96054" pt_clust_4="35.96054" pt_clust_5="122.98462" pt_clust_6="30.45886"></scales>
<clustering>
<clus scale="   30.459">  1  6  2 -1</clus>
<clus scale="   35.961">  3  4 -1 -1</clus>
<clus scale="  122.985">  1  5  2 -1</clus>
<clus scale="  129.601">  2  3  1 -1</clus>
</clustering>
</event>
<event>
 6    0  0.3695460E+002  0.3241024E+03  0.7546771E-02  0.1073777E+00
         21   -1    0    0  504  502  0.00000000000E+00  0.00000000000E+00  0.33651934463E+03  0.33651934463E+03  0.00000000000E+00 0. -1.
          3   -1    0    0  505    0 -0.00000000000E+00 -0.00000000000E+00 -0.32683067500E+04  0.32683067500E+04  0.00000000000E+00 0.  1.
         21    1    1    2  503  501  0.82686427608E+02 -0.85319114567E+02  0.96218812652E+02  0.15288707116E+03  0.00000000000E+00 0. -1.
         21    1    1    2  504  503  0.18624571443E+03 -0.87695662041E+02  0.15008823515E+03  0.25476356415E+03  0.00000000000E+00 0. -1.
         21    1    1    2  505  502 -0.11386960175E+02  0.35125864335E+02 -0.13086766342E+03  0.13597733096E+03  0.00000000000E+00 0. -1.
          3    1    1    2  501    0 -0.25754518187E+03  0.13788891227E+03 -0.30472267898E+04  0.30611981284E+04  0.00000000000E+00 0.  1.
<scales pt_clust_3="43.32141" pt_clust_4="43.32141" pt_clust_5="36.92545" pt_clust_6="319.04408"></scales>
<clustering>
<clus scale="   36.925">  2  5  1 -1</clus>
<clus scale="   43.321">  3  4 -1 -1</clus>
<clus scale="  319.044">  2  6  1 -1</clus>
<clus scale="  324.102">  1  3  2 -1</clus>
</clustering>
</event>
<event>
 6    0  0.3695460E+002  0.1929662E+03  0.7546771E-02  0.1155813E+00
         -4   -1    0    0    0  501 -0.00000000000E+00  0.00000000000E+00  0.21802512340E+04  0.21802512340E+04  0.00000000000E+00 0. -1.
         21   -1    0    0  503  502  0.00000000000E+00 -0.00000000000E+00 -0.37040575177E+02  0.37040575177E+02  0.00000000000E+00 0. -1.
         21    1    1    2  503  504 -0.12581715037E+03  0.88266595547E+02  0.19550772460E+03  0.24868497662E+03  0.00000000000E+00 0. -1.
         21    1    1    2  504  505 -0.36685492743E+02 -0.13021331967E+02  0.78905581729E+02  0.87985631168E+02  0.00000000000E+00 0.  1.
         21    1    1    2  505  501  0.29197913588E+02  0.29119760356E+02  0.35665427460E+03  0.35903029147E+03  0.00000000000E+00 0. -1.
         -4    1    1    2    0  502  0.13330472953E+03 -0.10436502394E+03  0.15121430779E+04  0.15215909100E+04  0.00000000000E+00 0. -1.
<scales pt_clust_3="38.90383" pt_clust_4="38.90383" pt_clust_5="41.23686" pt_clust_6="176.80636"></scales>
<clustering>
<clus scale="   38.904">  3  4 -1 -1</clus>
<clus scale="   41.237">  1  5  2 -1</clus>
<clus scale="  176.806">  1  6  2 -1</clus>
<clus scale="  192.966">  2  3  1 -1</clus>
</clustering>
</event>
<event>
 6    0  0.3695460E+002  0.1433212E+03  0.7546771E-02  0.1208929E+00
          3   -1    0    0  505    0 -0.00000000000E+00  0.00000000000E+00  0.29778619970E+03  0.29778619970E+03  0.00000000000E+00 0.  1.
         21   -1    0    0  504  502  0.00000000000E+00 -0.00000000000E+00 -0.24152596765E+03  0.24152596765E+03  0.00000000000E+00 0.  1.
         21    1    1    2  503  501 -0.55285818683E+02  0.11895917708E+03 -0.35561412642E+02  0.13591328716E+03  0.00000000000E+00 0.  1.
         21    1    1    2  504  503  0.24858573662E+02 -0.19274558958E+02 -0.10288864799E+02  0.33095589531E+02  0.00000000000E+00 0. -1.
         21    1    1    2  505  502  0.44531910655E+02  0.50814276723E+02 -0.98298425532E+02  0.11928018380E+03  0.00000000000E+00 0.  1.
          3    1    1    2  501    0 -0.14104665635E+02 -0.15049889484E+03  0.20040893502E+03  0.25102310686E+03  0.00000000000E+00 0.  1.
<scales pt_clust_3="14000.00000" pt_clust_4="31.45564" pt_clust_5="70.24077" pt_clust_6="143.32117"></scales>
<clustering>
<clus scale="   31.456">  2  4  1 -1</clus>
<clus scale="   70.241">  2  5  1 -1</clus>
<clus scale="  143.321">  1  6  2 -1</clus>
<clus scale="   31.456">  2  3  1 -1</clus>
</clustering>
</event>
<event>
 6    0  0.3695460E+002  0.1404599E+03  0.7546771E-02  0.1212712E+00
         21   -1    0    0  504  502  0.00000000000E+00  0.00000000000E+00  0.46331910075E+02  0.46331910075E+02  0.00000000000E+00 0.  1.
          2   -1    0    0  503    0 -0.00000000000E+00 -0.00000000000E+00 -0.94895446385E+03  0.94895446385E+03  0.00000000000E+00 0.  1.
         21    1    1    2  503  505 -0.65502265856E+02  0.17668148830E+02 -0.52591442201E+02  0.85840375745E+02  0.00000000000E+00 0.  1.
         21    1    1    2  504  501  0.60095205360E+02  0.17160017522E+02 -0.27658943427E+03  0.28356236538E+03  0.00000000000E+00 0. -1.
         21    1    1    2  505  502 -0.60214509857E+02 -0.27975244802E+01 -0.14245442573E+02  0.61939857722E+02  0.00000000000E+00 0.  1.
          2    1    1    2  501    0  0.65621570353E+02 -0.32030641872E+02 -0.55919623473E+03  0.56394377508E+03  0.00000000000E+00 0.  1.
<scales pt_clust_3="131.80223" pt_clust_4="56.29750" pt_clust_5="34.58210" pt_clust_6="56.29750"></scales>
<clustering>
<clus scale="   34.582">  3  5 -1 -1</clus>
<clus scale="   56.298">  4  6 -1 -1</clus>
<clus scale="  131.802">  1  3  2 -1</clus>
<clus scale="  131.802">  1  3  2 -1</clus>
</clustering>
</event>
<event>
 6    0  0.3695460E+002  0.1480371E+03  0.7546771E-02  0.1202906E+00
         21   -1    0    0  505  502  0.00000000000E+00  0.00000000000E+00  0.14573737255E+03  0.14573737255E+03  0.00000000000E+00 0.  1.
          1   -1    0    0  503    0 -0.00000000000E+00 -0.00000000000E+00 -0.45137166840E+03  0.45137166840E+03  0.00000000000E+00 0. -1.
         21    1    1    2  503  502  0.44404761667E+02  0.41900609881E+02 -0.85492861172E+01  0.61648473300E+02  0.00000000000E+00 0. -1.
         21    1    1    2  504  501 -0.79112935752E+02 -0.12066887360E+03 -0.13947100910E+02  0.14496328944E+03  0.00000000000E+00 0.  1.
         21    1    1    2  505  504 -0.97346891245E+01 -0.37090666064E+02  0.33180605670E+02  0.50709311512E+02  0.00000000000E+00 0.  1.
          1    1    1    2  501    0  0.44442863210E+02  0.11585892979E+03 -0.31631851449E+03  0.33978796670E+03  0.00000000000E+00 0. -1.
<scales pt_clust_3="61.05280" pt_clust_4="36.94473" pt_clust_5="36.94473" pt_clust_6="129.53421"></scales>
<clustering>
<clus scale="   36.945">  4  5 -1 -1</clus>
<clus scale="   61.053">  1  3  2 -1</clus>
<clus scale="  129.534">  2  6  1 -1</clus>
<clus scale="   61.053">  1  3  2 -1</clus>
</clustering>
</event>
<event>
 6    0  0.3695460E+002  0.6144182E+03  0.7546771E-02  0.9875936E-01
         21   -1    0    0  504  502  0.00000000000E+00  0.00000000000E+00  0.10022476332E+04  0.10022476332E+04  0.00000000000E+00 0.  1.
          1   -1    0    0  502    0 -0.00000000000E+00 -0.00000000000E+00 -0.10074736785E+04  0.10074736785E+04  0.00000000000E+00 0.  1.
         21    1    1    2  503  505  0.25282005661E+03  0.21052147705E+03  0.45828976619E+03  0.56415138316E+03  0.00000000000E+00 0.  1.
         21    1    1    2  504  503  0.21981051897E+03  0.14194653527E+03  0.34316836676E+03  0.43154375336E+03  0.00000000000E+00 0.  1.
         21    1    1    2  505  501 -0.74201472065E+02 -0.13313723882E+03 -0.27448083226E+03  0.31396036389E+03  0.00000000000E+00 0.  1.
          1    1    1    2  501    0 -0.39842910351E+03 -0.21933077350E+03 -0.53220334596E+03  0.70006581132E+03  0.00000000000E+00 0.  1.
<scales pt_clust_3="590.82456" pt_clust_4="34.07968" pt_clust_5="100.09517" pt_clust_6="100.09517"></scales>
<clustering>
<clus scale="   34.080">  3  4 -1 -1</clus>
<clus scale="  100.095">  5  6 -1 -1</clus>
<clus scale="  590.825">  1  3  2 -1</clus>
<clus scale="  590.825">  1  3  2 -1</clus>
</clustering>
</event>
<event>
 6    0  0.3695460E+002  0.9701074E+02  0.7546771E-02  0.1286711E+00
          2   -1    0    0  504    0 -0.00000000000E+00  0.00000000000E+00  0.25964257326E+04  0.25964257326E+04  0.00000000000E+00 0.  1.
         21   -1    0    0  505  502  0.00000000000E+00 -0.00000000000E+00 -0.17094035266E+03  0.17094035266E+03  0.00000000000E+00 0.  1.
         21    1    1    2  503  502 -0.11203020682E+03 -0.16315462507E+02 -0.99357430480E+02  0.15062821963E+03  0.00000000000E+00 0.  1.
         21    1    1    2  504  503  0.13583732989E+03 -0.20102114488E+02  0.12558711839E+04  0.12633559695E+04  0.00000000000E+00 0.  1.
         21    1    1    2  505  501  0.42905923717E+02  0.84068479413E+02  0.13627047876E+02  0.95363116322E+02  0.00000000000E+00 0. -1.
          2    1    1    2  501    0 -0.66713046786E+02 -0.47650902419E+02  0.12553445787E+04  0.12580187798E+04  0.00000000000E+00 0.  1.
<scales pt_clust_3="97.01074" pt_clust_4="14000.00000" pt_clust_5="91.43741" pt_clust_6="81.98316"></scales>
<clustering>
<clus scale="   81.983">  1  6  2 -1</clus>
<clus scale="   91.437">  2  5  1 -1</clus>
<clus scale="   97.011">  2  3  1 -1</clus>
<clus scale="   91.437">  2  3  1 -1</clus>
</clustering>
</event>
<event>
 6    0  0.3695460E+002  0.1355982E+03  0.7546771E-02  0.1219378E+00
         21   -1    0    0  505  502  0.00000000000E+00  0.00000000000E+00  0.47619128736E+02  0.47619128736E+02  0.00000000000E+00 0.  1.
          2   -1    0    0  503    0 -0.00000000000E+00 -0.00000000000E+00 -0.95725218694E+03  0.95725218694E+03  0.00000000000E+00 0.  1.
         21    1    1    2  503  504  0.41105961625E+02  0.29893775333E+02 -0.45970156446E+02  0.68531694627E+02  0.00000000000E+00 0.  1.
         21    1    1    2  504  502  0.79664843507E+02  0.63108327134E+01 -0.20603518578E+02  0.82527685526E+02  0.00000000000E+00 0.  1.
         21    1    1    2  505  501 -0.47351309644E+02  0.36964945544E+01 -0.21270952298E+03  0.21794758949E+03  0.00000000000E+00 0.  1.
          2    1    1    2  501    0 -0.73419495487E+02 -0.39901102601E+02 -0.63034986020E+03  0.63586434604E+03  0.00000000000E+00 0.  1.
<scales pt_clust_3="39.79952" pt_clust_4="39.79952" pt_clust_5="36.54225" pt_clust_6="135.07664"></scales>
<clustering>
<clus scale="   36.542">  5  6 -1 -1</clus>
<clus scale="   39.800">  3  4 -1 -1</clus>
<clus scale="  135.077">  2  5  1 -1</clus>
<clus scale="  135.598">  1  3  2 -1</clus>
</clustering>
</event>
<event>
 6    0  0.3695460E+002  0.1110173E+03  0.7546771E-02  0.1258697E+00
         21   -1    0    0  503  502  0.00000000000E+00  0.00000000000E+00  0.81206228444E+03  0.81206228444E+03  0.00000000000E+00 0.  1.
          2   -1    0    0  505    0 -0.00000000000E+00 -0.00000000000E+00 -0.36180565797E+04  0.36180565797E+04  0.00000000000E+00 0.  1.
         21    1    1    2  503  501 -0.73870755950E+02  0.54389635089E+02  0.31820940923E+03  0.33116815837E+03  0.00000000000E+00 0.  1.
         21    1    1    2  504  502  0.15017773673E+03 -0.34741068409E+02  0.47363016051E+03  0.49808214522E+03  0.00000000000E+00 0.  1.
         21    1    1    2  505  504 -0.24487495713E+02  0.34634959930E+02 -0.41746628231E+03  0.41961567507E+03  0.00000000000E+00 0.  1.
          2    1    1    2  501    0 -0.51819485063E+02 -0.54283526611E+02 -0.31803675827E+04  0.31812528855E+04  0.00000000000E+00 0.  1.
<scales pt_clust_3="111.01734" pt_clust_4="14000.00000" pt_clust_5="42.41719" pt_clust_6="78.70827"></scales>
<clustering>
<clus scale="   42.417">  2  5  1 -1</clus>
<clus scale="   78.708">  2  6  1 -1</clus>
<clus scale="  111.017">  1  3  2 -1</clus>
<clus scale="  111.017">  1  3  2 -1</clus>
</clustering>
</event>
<event>
 6    0  0.3695460E+002  0.1125164E+03  0.7546771E-02  0.1255980E+00
          2   -1    0    0  504    0 -0.00000000000E+00  0.00000000000E+00  0.14129021316E+04  0.14129021316E+04  0.00000000000E+00 0.  1.
         21   -1    0    0  501  502  0.00000000000E+00 -0.00000000000E+00 -0.58493464884E+02  0.58493464884E+02  0.00000000000E+00 0.  1.
         21    1    1    2  503  505 -0.20742022530E+02  0.59698349316E+02  0.14893433990E+03  0.16178863375E+03  0.00000000000E+00 0.  1.
         21    1    1    2  504  503  0.16587453390E+02  0.31983523230E+02  0.13664784607E+03  0.14131780922E+03  0.00000000000E+00 0.  1.
         21    1    1    2  505  502 -0.62399457492E+02 -0.90183642769E+02  0.13077775111E+02  0.11044369570E+03  0.00000000000E+00 0.  1.
          2    1    1    2  501    0  0.66554026632E+02 -0.14982297764E+01  0.10557487057E+04  0.10578454578E+04  0.00000000000E+00 0.  1.
<scales pt_clust_3="32.85519" pt_clust_4="32.85519" pt_clust_5="103.76141" pt_clust_6="66.57089"></scales>
<clustering>
<clus scale="   32.855">  3  4 -1 -1</clus>
<clus scale="   66.571">  1  6  2 -1</clus>
<clus scale="  103.761">  2  5  1 -1</clus>
<clus scale="  103.761">  2  3  1 -1</clus>
</clustering>
</event>
<event>
 6    0  0.3695460E+002  0.1148970E+03  0.7546771E-02  0.1251761E+00
         21   -1    0    0  504  502  0.00000000000E+00  0.00000000000E+00  0.81543190564E+03  0.81543190564E+03  0.00000000000E+00 0.  1.
          3   -1    0    0  503    0 -0.00000000000E+00 -0.00000000000E+00 -0.22043222679E+03  0.22043222679E+03  0.00000000000E+00 0. -1.
         21    1    1    2  503  502 -0.33204026337E+02  0.70905484747E+02  0.29179862526E+02  0.83555726969E+02  0.00000000000E+00 0. -1.
         21    1    1    2  504  505  0.43678297227E+02 -0.31380583368E+00  0.42201918068E+03  0.42427359214E+03  0.00000000000E+00 0.  1.
         21    1    1    2  505  501  0.65519122383E+02  0.43601208954E+01  0.31746867478E+03  0.32418841052E+03  0.00000000000E+00 0.  1.
          3    1    1    2  501    0 -0.75993393272E+02 -0.74951799809E+02 -0.17366803913E+03  0.20384640279E+03  0.00000000000E+00 0. -1.
<scales pt_clust_3="78.29492" pt_clust_4="30.65414" pt_clust_5="30.65414" pt_clust_6="108.57577"></scales>
<clustering>
<clus scale="   30.654">  4  5 -1 -1</clus>
<clus scale="   78.295">  2  3  1 -1</clus>
<clus scale="  108.576">  2  6  1 -1</clus>
<clus scale="  114.897">  1  3  2 -1</clus>
</clustering>
</event>
<event>
 6    0  0.3695460E+002  0.8073344E+02  0.7546771E-02  0.1326983E+00
         -3   -1    0    0    0  501 -0.00000000000E+00  0.00000000000E+00  0.55136888876E+03  0.55136888876E+03  0.00000000000E+00 0.  1.
         21   -1    0    0  504  502  0.00000000000E+00 -0.00000000000E+00 -0.27848141046E+03  0.27848141046E+03  0.00000000000E+00 0.  1.
         21    1    1    2  503  501 -0.60665624111E+02 -0.19912749595E+02  0.24429600840E+03  0.25250222824E+03  0.00000000000E+00 0.  1.
         21    1    1    2  504  503 -0.42929253434E+02 -0.94254570367E+02 -0.21603208406E+03  0.23957609684E+03  0.00000000000E+00 0.  1.
         21    1    1    2  505  502 -0.17407749750E+02  0.54777593641E+02 -0.11208806046E+01  0.57488006486E+02  0.00000000000E+00 0.  1.
         -3    1    1    2    0  505  0.12100262729E+03  0.59389726321E+02  0.24574443456E+03  0.28028396765E+03  0.00000000000E+00 0.  1.
<scales pt_clust_3="63.84816" pt_clust_4="80.73344" pt_clust_5="57.47708" pt_clust_6="14000.00000"></scales>
<clustering>
<clus scale="   57.477">  2  5  1 -1</clus>
<clus scale="   63.848">  1  3  2 -1</clus>
<clus scale="   80.733">  2  4  1 -1</clus>
<clus scale="   57.477">  2  3  1 -1</clus>
</clustering>
</event>
<event>
 6    0  0.3695460E+002  0.7821586E+02  0.7546771E-02  0.1334192E+00
          2   -1    0    0  503    0 -0.00000000000E+00  0.00000000000E+00  0.14414918223E+04  0.14414918223E+04  0.00000000000E+00 0. -1.
         21   -1    0    0  504  502  0.00000000000E+00 -0.00000000000E+00 -0.18357739390E+03  0.18357739390E+03  0.00000000000E+00 0.  1.
         21    1    1    2  503  502  0.69726763779E+01 -0.59547838614E+02  0.12622774404E+03  0.13974264441E+03  0.00000000000E+00 0. -1.
         21    1    1    2  504  505 -0.35585644546E+02 -0.12725506985E+02 -0.48740025884E+02  0.61675495531E+02  0.00000000000E+00 0.  1.
         21    1    1    2  505  501  0.79918600591E+02  0.65255712234E+01 -0.10689727513E+03  0.13362856442E+03  0.00000000000E+00 0.  1.
          2    1    1    2  501    0 -0.51305632422E+02  0.65747774376E+02  0.12873239854E+04  0.12900225118E+04  0.00000000000E+00 0. -1.
<scales pt_clust_3="14000.00000" pt_clust_4="37.79255" pt_clust_5="46.89177" pt_clust_6="78.21586"></scales>
<clustering>
<clus scale="   37.793">  2  4  1 -1</clus>
<clus scale="   46.892">  2  5  1 -1</clus>
<clus scale="   78.216">  1  6  2 -1</clus>
<clus scale="   37.793">  2  3  1 -1</clus>
</clustering>
</event>
<event>
 6    0  0.3695460E+002  0.9167142E+02  0.7546771E-02  0.1298854E+00
         21   -1    0    0  501  502  0.00000000000E+00  0.00000000000E+00  0.60451564202E+03  0.60451564202E+03  0.00000000000E+00 0.  1.
          2   -1    0    0  503    0 -0.00000000000E+00 -0.00000000000E+00 -0.31109406297E+04  0.31109406297E+04  0.00000000000E+00 0.  1.
         21    1    1    2  503  504 -0.29362227356E+02 -0.24567318526E+02 -0.19040621273E+03  0.19421693897E+03  0.00000000000E+00 0.  1.
         21    1    1    2  504  505  0.50392263031E+02 -0.88307689798E+02  0.14173959274E+03  0.17443549066E+03  0.00000000000E+00 0. -1.
         21    1    1    2  505  502  0.18078965667E+02  0.92674905340E+02  0.43933958391E+03  0.44937151341E+03  0.00000000000E+00 0.  1.
          2    1    1    2  501    0 -0.39109001342E+02  0.20200102985E+02 -0.28970979516E+04  0.28974323287E+04  0.00000000000E+00 0.  1.
<scales pt_clust_3="38.28438" pt_clust_4="14000.00000" pt_clust_5="91.67142" pt_clust_6="68.38462"></scales>
<clustering>
<clus scale="   38.284">  2  3  1 -1</clus>
<clus scale="   68.385">  2  6  1 -1</clus>
<clus scale="   91.671">  1  5  2 -1</clus>
<clus scale="   91.671">  1  3  2 -1</clus>
</clustering>
</event>
<event>
 6    0  0.3695460E+002  0.2009045E+03  0.7546771E-02  0.1148978E+00
          1   -1    0    0  503    0 -0.00000000000E+00  0.00000000000E+00  0.13835490078E+04  0.13835490078E+04  0.00000000000E+00 0. -1.
         21   -1    0    0  501  502  0.00000000000E+00 -0.00000000000E+00 -0.25925572919E+03  0.25925572919E+03  0.00000000000E+00 0.  1.
         21    1    1    2  503  505  0.54516165089E+02  0.93392012583E+02  0.36721626220E+03  0.38280786760E+03  0.00000000000E+00 0. -1.
         21    1    1    2  504  502  0.27775153599E+02 -0.16689538358E+03 -0.16700205600E+03  0.23772928916E+03  0.00000000000E+00 0.  1.
         21    1    1    2  505  504 -0.23085799698E+02 -0.26638365725E+02 -0.38779758939E+02  0.52406358198E+02  0.00000000000E+00 0. -1.
          1    1    1    2  501    0 -0.59205518990E+02  0.10014173672E+03  0.96285883135E+03  0.96986122205E+03  0.00000000000E+00 0. -1.
<scales pt_clust_3="108.13917" pt_clust_4="30.12288" pt_clust_5="30.12288" pt_clust_6="189.75613"></scales>
<clustering>
<clus scale="   30.123">  4  5 -1 -1</clus>
<clus scale="  108.139">  1  3  2 -1</clus>
<clus scale="  189.756">  1  6  2 -1</clus>
<clus scale="  200.905">  2  3  1 -1</clus>
</clustering>
</event>
<event>
 6    0  0.3695460E+002  0.1325589E+03  0.7546771E-02  0.1223708E+00
         21   -1    0    0  501  502  0.00000000000E+00  0.00000000000E+00  0.82371378045E+02  0.82371378045E+02  0.00000000000E+00 0. -1.
          2   -1    0    0  505    0 -0.00000000000E+00 -0.00000000000E+00 -0.76069156080E+03  0.76069156080E+03  0.00000000000E+00 0.  1.
         21    1    1    2  503  504  0.28441150127E+02 -0.38153651894E+02 -0.18336338351E+02  0.50998249749E+02  0.00000000000E+00 0. -1.
         21    1    1    2  504  502  0.46641399779E+02 -0.71219306969E+02  0.21477413565E+02  0.87800279908E+02  0.00000000000E+00 0. -1.
         21    1    1    2  505  503 -0.68644299007E+02  0.22936933173E+02 -0.15945968799E+03  0.17511577537E+03  0.00000000000E+00 0. -1.
          2    1    1    2  501    0 -0.64382508992E+01  0.86436025690E+02 -0.52200156998E+03  0.52914863382E+03  0.00000000000E+00 0.  1.
<scales pt_clust_3="30.41878" pt_clust_4="30.41878" pt_clust_5="72.37501" pt_clust_6="126.16068"></scales>
<clustering>
<clus scale="   30.419">  3  4 -1 -1</clus>
<clus scale="   72.375">  2  5  1 -1</clus>
<clus scale="  126.161">  2  6  1 -1</clus>
<clus scale="  132.559">  1  3  2 -1</clus>
</clustering>
</event>
<event>
 6    0  0.3695460E+002  0.1899385E+03  0.7546771E-02  0.1158517E+00
          1   -1    0    0  503    0 -0.00000000000E+00  0.00000000000E+00  0.58872024122E+03  0.58872024122E+03  0.00000000000E+00 0.  1.
         21   -1    0    0  504  502  0.00000000000E+00 -0.00000000000E+00 -0.55540703880E+03  0.55540703880E+03  0.00000000000E+00 0. -1.
         21    1    1    2  503  505 -0.13495544706E+02 -0.29807747414E+02  0.22048482180E+02  0.39455888018E+02  0.00000000000E+00 0. -1.
         21    1    1    2  504  501 -0.12513713131E+03 -0.76603020992E+02 -0.15854477379E+03  0.21601798480E+03  0.00000000000E+00 0. -1.
         21    1    1    2  505  502  0.23137583708E+02 -0.90505216695E+02 -0.32797437723E+03  0.34101867126E+03  0.00000000000E+00 0. -1.
          1    1    1    2  501    0  0.11549509231E+03  0.19691598510E+03  0.49778387126E+03  0.54763473595E+03  0.00000000000E+00 0.  1.
<scales pt_clust_3="32.72051" pt_clust_4="189.93846" pt_clust_5="93.71476" pt_clust_6="14000.00000"></scales>
<clustering>
<clus scale="   32.721">  1  3  2 -1</clus>
<clus scale="   93.715">  2  5  1 -1</clus>
<clus scale="  189.938">  2  4  1 -1</clus>
<clus scale="   93.715">  2  3  1 -1</clus>
</clustering>
</event>
<event>
 6    0  0.3695460E+002  0.1115527E+03  0.7546771E-02  0.1257721E+00
          1   -1    0    0  504    0 -0.00000000000E+00  0.00000000000E+00  0.61715906797E+02  0.61715906797E+02  0.00000000000E+00 0. -1.
         21   -1    0    0  505  502  0.00000000000E+00 -0.00000000000E+00 -0.10901979084E+04  0.10901979084E+04  0.00000000000E+00 0. -1.
         21    1    1    2  503  502 -0.24853024842E+02  0.28538845590E+02 -0.55278291449E+03  0.55407678990E+03  0.00000000000E+00 0. -1.
         21    1    1    2  504  503  0.16950029481E+02  0.47183531424E+02 -0.29292641641E+03  0.29718592592E+03  0.00000000000E+00 0.  1.
         21    1    1    2  505  501 -0.21203853239E+02  0.64374138861E+02 -0.13278579311E+03  0.14908286285E+03  0.00000000000E+00 0. -1.
          1    1    1    2  501    0  0.29106848599E+02 -0.14009651588E+03 -0.49986877628E+02  0.15156823655E+03  0.00000000000E+00 0. -1.
<scales pt_clust_3="37.84361" pt_clust_4="62.95700" pt_clust_5="14000.00000" pt_clust_6="111.55273"></scales>
<clustering>
<clus scale="   37.844">  2  3  1 -1</clus>
<clus scale="   62.957">  2  4  1 -1</clus>
<clus scale="  111.553">  1  6  2 -1</clus>
<clus scale="   37.844">  2  3  1 -1</clus>
</clustering>
</event>
<event>
 6    0  0.3695460E+002  0.1140453E+03  0.7546771E-02  0.1253257E+00
         21   -1    0    0  503  502  0.00000000000E+00  0.00000000000E+00  0.30486375350E+03  0.30486375350E+03  0.00000000000E+00 0.  1.
          2   -1    0    0  505    0 -0.00000000000E+00 -0.00000000000E+00 -0.80163830191E+03  0.80163830191E+03  0.00000000000E+00 0.  1.
         21    1    1    2  503  501  0.50398357649E+02 -0.24151851160E+02  0.15103457221E+02  0.57891456954E+02  0.00000000000E+00 0. -1.
         21    1    1    2  504  502 -0.49701058052E+02 -0.90444439039E+02  0.24372832615E+03  0.26467695157E+03  0.00000000000E+00 0.  1.
         21    1    1    2  505  504  0.41623654070E+02 -0.14149130208E+02 -0.55355432283E+02  0.70689110527E+02  0.00000000000E+00 0. -1.
          2    1    1    2  501    0 -0.42320953668E+02  0.12874542041E+03 -0.70025089950E+03  0.71324453636E+03  0.00000000000E+00 0.  1.
<scales pt_clust_3="57.15109" pt_clust_4="14000.00000" pt_clust_5="43.96278" pt_clust_6="114.04533"></scales>
<clustering>
<clus scale="   43.963">  2  5  1 -1</clus>
<clus scale="   57.151">  1  3  2 -1</clus>
<clus scale="  114.045">  2  6  1 -1</clus>
<clus scale="   57.151">  1  3  2 -1</clus>
</clustering>
</event>
<event>
 6    0  0.4339426E+002  0.1607755E+03  0.7546771E-02  0.1187824E+00
          2   -1    0    0  503    0 -0.00000000000E+00  0.00000000000E+00  0.18735516163E+03  0.18735516163E+03  0.00000000000E+00 0.  1.
         21   -1    0    0  504  502  0.00000000000E+00 -0.00000000000E+00 -0.23950437601E+03  0.23950437601E+03  0.00000000000E+00 0. -1.
         21    1    1    2  503  502  0.27931471843E+02 -0.19126180364E+02 -0.41258945308E+01  0.34102799010E+02  0.00000000000E+00 0. -1.
         21    1    1    2  504  505 -0.80923501690E+02 -0.44011226891E+01 -0.67195915213E+02  0.10527712965E+03  0.00000000000E+00 0. -1.
         21    1    1    2  505  501 -0.76626014093E+02 -0.35147767803E+02 -0.78266281225E+02  0.11503270141E+03  0.00000000000E+00 0. -1.
          2    1    1    2  501    0  0.12961804394E+03  0.58675070856E+02  0.97438876590E+02  0.17244690756E+03  0.00000000000E+00 0.  1.
<scales pt_clust_3="33.85230" pt_clust_4="30.86881" pt_clust_5="30.86881" pt_clust_6="157.66281"></scales>
<clustering>
<clus scale="   30.869">  4  5 -1 -1</clus>
<clus scale="   33.852">  1  3  2 -1</clus>
<clus scale="  157.663">  1  6  2 -1</clus>
<clus scale="  160.776">  2  3  1 -1</clus>
</clustering>
</event>
<event>
 6    0  0.3695460E+002  0.1289652E+03  0.7546771E-02  0.1228999E+00
         -2   -1    0    0    0  501 -0.00000000000E+00  0.00000000000E+00  0.17455264678E+04  0.17455264678E+04  0.00000000000E+00 0.  1.
         21   -1    0    0  505  502  0.00000000000E+00 -0.00000000000E+00 -0.20929163450E+03  0.20929163450E+03  0.00000000000E+00 0.  1.
         21    1    1    2  503  502  0.13537735764E+03 -0.12594476065E+01 -0.14118977441E+03  0.19560973281E+03  0.00000000000E+00 0.  1.
         21    1    1    2  504  503 -0.33675876423E+02  0.35559462773E+02  0.50918114130E+03  0.51153101050E+03  0.00000000000E+00 0.  1.
         21    1    1    2  505  501 -0.25366283002E+02 -0.49013730655E+02 -0.18639305733E+02  0.58251333240E+02  0.00000000000E+00 0. -1.
         -2    1    1    2    0  504 -0.76335198219E+02  0.14713715488E+02  0.11868827721E+04  0.11894260257E+04  0.00000000000E+00 0.  1.
<scales pt_clust_3="120.99506" pt_clust_4="35.42675" pt_clust_5="55.18871" pt_clust_6="35.42675"></scales>
<clustering>
<clus scale="   35.427">  4  6 -1 -1</clus>
<clus scale="   55.189">  2  5  1 -1</clus>
<clus scale="  120.995">  2  3  1 -1</clus>
<clus scale="   55.189">  2  3  1 -1</clus>
</clustering>
</event>
<event>
 6    0  0.3695460E+002  0.1651719E+03  0.7546771E-02  0.1182978E+00
          2   -1    0    0  504    0 -0.00000000000E+00  0.00000000000E+00  0.19072123046E+04  0.19072123046E+04  0.00000000000E+00 0. -1.
         21   -1    0    0  505  502  0.00000000000E+00 -0.00000000000E+00 -0.54080959868E+02  0.54080959868E+02  0.00000000000E+00 0. -1.
         21    1    1    2  503  501  0.11089734949E+03  0.55254600935E+02  0.10605430211E+03  0.16309141008E+03  0.00000000000E+00 0. -1.
         21    1    1    2  504  502 -0.37519861770E+02 -0.21901344372E+02  0.90877568048E+02  0.10072805611E+03  0.00000000000E+00 0. -1.
         21    1    1    2  505  503  0.78822598781E+02  0.57157612538E+01  0.76540631528E+02  0.11001881785E+03  0.00000000000E+00 0. -1.
          2    1    1    2  501    0 -0.15220008650E+03 -0.39069017817E+02  0.15796588431E+04  0.15874549805E+04  0.00000000000E+00 0. -1.
<scales pt_clust_3="31.31337" pt_clust_4="43.44432" pt_clust_5="31.31337" pt_clust_6="160.45101"></scales>
<clustering>
<clus scale="   31.313">  3  5 -1 -1</clus>
<clus scale="   43.444">  2  4  1 -1</clus>
<clus scale="  160.451">  1  6  2 -1</clus>
<clus scale="   43.444">  2  3  1 -1</clus>
</clustering>
</event>
<event>
 6    0  0.3695460E+002  0.4450837E+03  0.7546771E-02  0.1029198E+00
          2   -1    0    0  505    0 -0.00000000000E+00  0.00000000000E+00  0.74433861911E+03  0.74433861911E+03  0.00000000000E+00 0.  1.
         21   -1    0    0  503  502  0.00000000000E+00 -0.00000000000E+00 -0.34824497414E+03  0.34824497414E+03  0.00000000000E+00 0. -1.
         21    1    1    2  503  501  0.43291851701E+03  0.19158493542E+03  0.25246542374E+03  0.53652774395E+03  0.00000000000E+00 0. -1.
         21    1    1    2  504  502 -0.29545028602E+03 -0.10377473270E+03  0.19627242157E+02  0.31375993258E+03  0.00000000000E+00 0.  1.
         21    1    1    2  505  504 -0.86492920672E+02 -0.72671839692E+02  0.63061135122E+01  0.11314587345E+03  0.00000000000E+00 0. -1.
          2    1    1    2  501    0 -0.50975310310E+02 -0.15138363021E+02  0.11769486557E+03  0.12915004327E+03  0.00000000000E+00 0.  1.
<scales pt_clust_3="439.92893" pt_clust_4="40.56834" pt_clust_5="40.56834" pt_clust_6="53.17567"></scales>
<clustering>
<clus scale="   40.568">  4  5 -1 -1</clus>
<clus scale="   53.176">  1  6  2 -1</clus>
<clus scale="  439.929">  1  3  2 -1</clus>
<clus scale="  445.084">  2  3  1 -1</clus>
</clustering>
</event>
<event>
 6    0  0.3695460E+002  0.1213475E+03  0.7546771E-02  0.1240890E+00
          2   -1    0    0  505    0 -0.00000000000E+00  0.00000000000E+00  0.58461166707E+03  0.58461166707E+03  0.00000000000E+00 0. -1.
         21   -1    0    0  504  502  0.00000000000E+00 -0.00000000000E+00 -0.16920067310E+03  0.16920067310E+03  0.00000000000E+00 0. -1.
         21    1    1    2  503  502 -0.87742873821E+02  0.38156103382E+02 -0.25912597707E+02  0.99127003645E+02  0.00000000000E+00 0. -1.
         21    1    1    2  504  501 -0.26614000755E+02  0.21401629879E+02 -0.93849626206E+02  0.99870351641E+02  0.00000000000E+00 0. -1.
         21    1    1    2  505  503  0.62314845908E+01 -0.33364720932E+02  0.15643450689E+03  0.16007432945E+03  0.00000000000E+00 0. -1.
          2    1    1    2  501    0  0.10812538999E+03 -0.26193012330E+02  0.37873871099E+03  0.39474065544E+03  0.00000000000E+00 0. -1.
<scales pt_clust_3="121.34752" pt_clust_4="33.97009" pt_clust_5="33.94166" pt_clust_6="14000.00000"></scales>
<clustering>
<clus scale="   33.942">  1  5  2 -1</clus>
<clus scale="   33.970">  2  4  1 -1</clus>
<clus scale="  121.348">  2  3  1 -1</clus>
<clus scale="   33.970">  2  3  1 -1</clus>
</clustering>
</event>
<event>
 6    0  0.3695460E+002  0.8580208E+02  0.7546771E-02  0.1313348E+00
         21   -1    0    0  503  502  0.00000000000E+00  0.00000000000E+00  0.91298782891E+02  0.91298782891E+02  0.00000000000E+00 0. -1.
          2   -1    0    0  505    0 -0.00000000000E+00 -0.00000000000E+00 -0.92904556024E+03  0.92904556024E+03  0.00000000000E+00 0.  1.
         21    1    1    2  503  501 -0.20630428013E+00 -0.35927392715E+02 -0.18780590415E+02  0.40540482053E+02  0.00000000000E+00 0. -1.
         21    1    1    2  504  502  0.29212602957E+02  0.11600606909E+03  0.16733762556E+02  0.12079239647E+03  0.00000000000E+00 0. -1.
         21    1    1    2  505  504 -0.90855870178E+02 -0.28418173440E+02 -0.24508429889E+03  0.26292336391E+03  0.00000000000E+00 0.  1.
          2    1    1    2  501    0  0.61849571501E+02 -0.51660502930E+02 -0.59061565060E+03  0.59608810069E+03  0.00000000000E+00 0.  1.
<scales pt_clust_3="35.92799" pt_clust_4="85.80208" pt_clust_5="14000.00000" pt_clust_6="81.37017"></scales>
<clustering>
<clus scale="   35.928">  1  3  2 -1</clus>
<clus scale="   81.370">  2  6  1 -1</clus>
<clus scale="   85.802">  1  4  2 -1</clus>
<clus scale="   35.928">  1  3  2 -1</clus>
</clustering>
</event>
<event>
 6    0  0.3695460E+002  0.8973050E+02  0.7546771E-02  0.1303506E+00
          2   -1    0    0  503    0 -0.00000000000E+00  0.00000000000E+00  0.31114766830E+04  0.31114766830E+04  0.00000000000E+00 0. -1.
         21   -1    0    0  505  502  0.00000000000E+00 -0.00000000000E+00 -0.11231352859E+03  0.11231352859E+03  0.00000000000E+00 0.  1.
         21    1    1    2  503  504  0.38807813513E+02  0.26469011892E+02  0.62910524222E+03  0.63085660873E+03  0.00000000000E+00 0. -1.
         21    1    1    2  504  502  0.24671301221E+01  0.31784219968E+02 -0.40375614353E+01  0.32134487274E+02  0.00000000000E+00 0.  1.
         21    1    1    2  505  501  0.46756430392E+02  0.43396823771E+02 -0.80394127919E+02  0.10262876741E+03  0.00000000000E+00 0.  1.
          2    1    1    2  501    0 -0.88031374027E+02 -0.10165005563E+03  0.24544896015E+04  0.24581703482E+04  0.00000000000E+00 0. -1.
<scales pt_clust_3="47.16099" pt_clust_4="31.87983" pt_clust_5="89.73050" pt_clust_6="14000.00000"></scales>
<clustering>
<clus scale="   31.880">  2  4  1 -1</clus>
<clus scale="   47.161">  1  3  2 -1</clus>
<clus scale="   89.730">  2  5  1 -1</clus>
<clus scale="   31.880">  2  3  1 -1</clus>
</clustering>
</event>
<event>
 6    0  0.3695460E+002  0.1246869E+03  0.7546771E-02  0.1235559E+00
          1   -1    0    0  503    0 -0.00000000000E+00  0.00000000000E+00  0.88690691837E+03  0.88690691837E+03  0.00000000000E+00 0.  1.
         21   -1    0    0  504  502  0.00000000000E+00 -0.00000000000E+00 -0.28346727185E+03  0.28346727185E+03  0.00000000000E+00 0.  1.
         21    1    1    2  503  502 -0.35325366578E+02 -0.48921995833E+02  0.12252261354E+03  0.13657611075E+03  0.00000000000E+00 0.  1.
         21    1    1    2  504  505  0.11562175618E+03  0.67708761812E+02 -0.24033315254E+03  0.27515975567E+03  0.00000000000E+00 0.  1.
         21    1    1    2  505  501 -0.48260538719E+02 -0.26299492020E+02  0.22945326794E+02  0.59558634132E+02  0.00000000000E+00 0.  1.
          1    1    1    2  501    0 -0.32035850882E+02  0.75127260412E+01  0.69830485872E+03  0.69907968967E+03  0.00000000000E+00 0.  1.
<scales pt_clust_3="14000.00000" pt_clust_4="124.68687" pt_clust_5="60.52987" pt_clust_6="32.90497"></scales>
<clustering>
<clus scale="   32.905">  1  6  2 -1</clus>
<clus scale="   60.530">  1  5  2 -1</clus>
<clus scale="  124.687">  2  4  1 -1</clus>
<clus scale="  124.687">  2  3  1 -1</clus>
</clustering>
</event>
<event>
 6    0  0.3695460E+002  0.1585554E+03  0.7546771E-02  0.1190337E+00
         21   -1    0    0  504  502  0.00000000000E+00  0.00000000000E+00  0.16449322250E+03  0.16449322250E+03  0.00000000000E+00 0. -1.
          4   -1    0    0  505    0 -0.00000000000E+00 -0.00000000000E+00 -0.11686835333E+04  0.11686835333E+04  0.00000000000E+00 0.  1.
         21    1    1    2  503  501  0.55844692921E+02 -0.99084845270E+01 -0.34413974402E+03  0.34878212570E+03  0.00000000000E+00 0.  1.
         21    1    1    2  504  503 -0.14136673720E+03  0.54271575570E+02  0.11548526396E+03  0.19043845329E+03  0.00000000000E+00 0. -1.
         21    1    1    2  505  502  0.43477607417E+02 -0.15046740877E+02 -0.55463162646E+02  0.72061565126E+02  0.00000000000E+00 0. -1.
          4    1    1    2  501    0  0.42044436857E+02 -0.29316350166E+02 -0.72007266809E+03  0.72189461169E+03  0.00000000000E+00 0.  1.
<scales pt_clust_3="48.59833" pt_clust_4="149.86681" pt_clust_5="46.00768" pt_clust_6="48.59833"></scales>
<clustering>
<clus scale="   46.008">  2  5  1 -1</clus>
<clus scale="   48.598">  3  6 -1 -1</clus>
<clus scale="  149.867">  1  4  2 -1</clus>
<clus scale="  149.867">  1  3  2 -1</clus>
</clustering>
</event>
<event>
 6    0  0.3695460E+002  0.9858964E+02  0.7546771E-02  0.1283290E+00
          2   -1    0    0  505    0 -0.00000000000E+00  0.00000000000E+00  0.26512925101E+03  0.26512925101E+03  0.00000000000E+00 0.  1.
         21   -1    0    0  503  502  0.00000000000E+00 -0.00000000000E+00 -0.12940649015E+03  0.12940649015E+03  0.00000000000E+00 0. -1.
         21    1    1    2  503  501 -0.12271213213E+02 -0.29571431394E+02  0.55072696504E+01  0.32486647217E+02  0.00000000000E+00 0.  1.
         21    1    1    2  504  502 -0.39241099684E+02 -0.73526149235E+02 -0.77236786611E+02  0.11362869238E+03  0.00000000000E+00 0. -1.
         21    1    1    2  505  504  0.18304358806E+01  0.81184781930E+02  0.10816926264E+03  0.13525867326E+03  0.00000000000E+00 0.  1.
          2    1    1    2  501    0  0.49681877016E+02  0.21912798699E+02  0.99283015179E+02  0.11316172831E+03  0.00000000000E+00 0.  1.
<scales pt_clust_3="32.01644" pt_clust_4="14000.00000" pt_clust_5="98.58964" pt_clust_6="52.92972"></scales>
<clustering>
<clus scale="   32.016">  2  3  1 -1</clus>
<clus scale="   52.930">  1  6  2 -1</clus>
<clus scale="   98.590">  1  5  2 -1</clus>
<clus scale="   32.016">  2  3  1 -1</clus>
</clustering>
</event>
<event>
 6    0  0.3695460E+002  0.9976357E+02  0.7546771E-02  0.1280794E+00
         21   -1    0    0  501  502  0.00000000000E+00  0.00000000000E+00  0.82585205185E+02  0.82585205185E+02  0.00000000000E+00 0. -1.
         -2   -1    0    0    0  501 -0.00000000000E+00 -0.00000000000E+00 -0.45767239981E+03  0.45767239981E+03  0.00000000000E+00 0. -1.
         21    1    1    2  503  505 -0.10177958635E+02 -0.47813291036E+02  0.41056197633E+01  0.49056679008E+02  0.00000000000E+00 0. -1.
         21    1    1    2  504  503 -0.74716065937E+02 -0.66385604266E+02 -0.44573909909E+02  0.10943661365E+03  0.00000000000E+00 0. -1.
         21    1    1    2  505  502  0.23654089573E+02  0.67322010267E+02 -0.50640284194E+02  0.87499756589E+02  0.00000000000E+00 0. -1.
         -2    1    1    2    0  504  0.61239935000E+02  0.46876885035E+02 -0.28397862029E+03  0.29426455575E+03  0.00000000000E+00 0. -1.
<scales pt_clust_3="39.77164" pt_clust_4="39.77164" pt_clust_5="71.35663" pt_clust_6="81.96775"></scales>
<clustering>
<clus scale="   39.772">  3  4 -1 -1</clus>
<clus scale="   71.357">  1  5  2 -1</clus>
<clus scale="   81.968">  2  6  1 -1</clus>
<clus scale="   71.357">  1  3  2 -1</clus>
</clustering>
</event>
<event>
 6    0  0.3695460E+002  0.1293776E+03  0.7546771E-02  0.1228382E+00
         21   -1    0    0  504  502  0.00000000000E+00  0.00000000000E+00  0.99280121389E+03  0.99280121389E+03  0.00000000000E+00 0.  1.
          2   -1    0    0  505    0 -0.00000000000E+00 -0.00000000000E+00 -0.44339833759E+02  0.44339833759E+02  0.00000000000E+00 0.  1.
         21    1    1    2  503  501 -0.24338138518E+02 -0.59129549901E+02  0.42904377381E+03  0.43378244374E+03  0.00000000000E+00 0.  1.
         21    1    1    2  504  503 -0.55295930254E+02 -0.46557427121E+02  0.38103600726E+03  0.38783201615E+03  0.00000000000E+00 0.  1.
         21    1    1    2  505  502  0.11479814811E+02  0.29384753712E+02 -0.11907010795E+02  0.33719828067E+02  0.00000000000E+00 0.  1.
          2    1    1    2  501    0  0.68154253961E+02  0.76302223310E+02  0.15028860986E+03  0.18180675969E+03  0.00000000000E+00 0.  1.
<scales pt_clust_3="34.13970" pt_clust_4="34.13970" pt_clust_5="31.54758" pt_clust_6="124.21278"></scales>
<clustering>
<clus scale="   31.548">  2  5  1 -1</clus>
<clus scale="   34.140">  3  4 -1 -1</clus>
<clus scale="  124.213">  2  6  1 -1</clus>
<clus scale="  129.378">  1  3  2 -1</clus>
</clustering>
</event>
<event>
 6    0  0.3695460E+002  0.1574763E+03  0.7546771E-02  0.1191576E+00
          2   -1    0    0  503    0 -0.00000000000E+00  0.00000000000E+00  0.80618288970E+03  0.80618288970E+03  0.00000000000E+00 0.  1.
         21   -1    0    0  505  502  0.00000000000E+00 -0.00000000000E+00 -0.83041547316E+03  0.83041547316E+03  0.00000000000E+00 0. -1.
         21    1    1    2  503  502 -0.27102969222E+02 -0.10589553139E+03  0.65828366350E+03  0.66729739707E+03  0.00000000000E+00 0.  1.
         21    1    1    2  504  501  0.29159551255E+02  0.14475641912E+03 -0.33445400195E+03  0.36560112107E+03  0.00000000000E+00 0. -1.
         21    1    1    2  505  504  0.34323130252E+02  0.14116465801E+01 -0.46946423386E+03  0.47071938231E+03  0.00000000000E+00 0. -1.
          2    1    1    2  501    0 -0.36379712286E+02 -0.40272534313E+02  0.12140198884E+03  0.13298046240E+03  0.00000000000E+00 0.  1.
<scales pt_clust_3="14000.00000" pt_clust_4="157.47627" pt_clust_5="34.35215" pt_clust_6="53.88612"></scales>
<clustering>
<clus scale="   34.352">  2  5  1 -1</clus>
<clus scale="   53.886">  1  6  2 -1</clus>
<clus scale="  157.476">  2  4  1 -1</clus>
<clus scale="   34.352">  2  3  1 -1</clus>
</clustering>
</event>
<event>
 6    0  0.3695460E+002  0.8655755E+02  0.7546771E-02  0.1311409E+00
         21   -1    0    0  503  502  0.00000000000E+00  0.00000000000E+00  0.16445789980E+04  0.16445789980E+04  0.00000000000E+00 0.  1.
         -1   -1    0    0    0  501 -0.00000000000E+00 -0.00000000000E+00 -0.10444674632E+03  0.10444674632E+03  0.00000000000E+00 0.  1.
         21    1    1    2  503  504 -0.10179768491E+03  0.19610684731E+02  0.10473936249E+04  0.10525116403E+04  0.00000000000E+00 0.  1.
         21    1    1    2  504  501 -0.39280548126E+01  0.55902675545E+02  0.55372352336E+02  0.78782207071E+02  0.00000000000E+00 0. -1.
         21    1    1    2  505  502  0.67413034189E+02 -0.21052142778E+02  0.51249693932E+03  0.51734014218E+03  0.00000000000E+00 0.  1.
         -1    1    1    2    0  505  0.38312705529E+02 -0.54461217498E+02 -0.75130664857E+02  0.10039175473E+03  0.00000000000E+00 0.  1.
<scales pt_clust_3="86.55755" pt_clust_4="56.04051" pt_clust_5="14000.00000" pt_clust_6="34.63079"></scales>
<clustering>
<clus scale="   56.041">  2  4  1 -1</clus>
<clus scale="   34.631">  2  6  1 -1</clus>
<clus scale="   86.558">  2  3  1 -1</clus>
<clus scale="   86.558">  1  3  2 -1</clus>
</clustering>
</event>
<event>
 6    0  0.3695460E+002  0.2221527E+03  0.7546771E-02  0.1132288E+00
         21   -1    0    0  505  502  0.00000000000E+00  0.00000000000E+00  0.33572968604E+03  0.33572968604E+03  0.00000000000E+00 0. -1.
          2   -1    0    0  504    0 -0.00000000000E+00 -0.00000000000E+00 -0.96114331304E+03  0.96114331304E+03  0.00000000000E+00 0.  1.
         21    1    1    2  503  502  0.50050225713E+02  0.10594790978E+03 -0.89376993529E+01  0.11751539112E+03  0.00000000000E+00 0. -1.
         21    1    1    2  504  503 -0.98603326226E+02  0.12743180906E+02 -0.12659460732E+03  0.16096955987E+03  0.00000000000E+00 0.  1.
         21    1    1    2  505  501  0.18027008118E+03 -0.16590642974E+03  0.19888100675E+03  0.31555649327E+03  0.00000000000E+00 0. -1.
          2    1    1    2  501    0 -0.13171698066E+03  0.47215339054E+02 -0.68876232708E+03  0.70283155482E+03  0.00000000000E+00 0.  1.
<scales pt_clust_3="115.04130" pt_clust_4="99.42336" pt_clust_5="222.15273" pt_clust_6="14000.00000"></scales>
<clustering>
<clus scale="   99.423">  2  4  1 -1</clus>
<clus scale="  115.041">  1  3  2 -1</clus>
<clus scale="  222.153">  1  5  2 -1</clus>
<clus scale="  115.041">  1  3  2 -1</clus>
</clustering>
</event>
<event>
 6    0  0.3695460E+002  0.2525159E+03  0.7546771E-02  0.1111725E+00
         -2   -1    0    0    0  501 -0.00000000000E+00  0.00000000000E+00  0.52988441937E+03  0.52988441937E+03  0.00000000000E+00 0.  1.
         21   -1    0    0  504  502  0.00000000000E+00 -0.00000000000E+00 -0.28513832886E+03  0.28513832886E+03  0.00000000000E+00 0. -1.
         21    1    1    2  503  502 -0.23873571134E+03  0.66479806218E+02 -0.89282875953E+02  0.26341172419E+03  0.00000000000E+00 0. -1.
         21    1    1    2  504  505 -0.58248059019E+02 -0.92345817086E+02  0.47837386353E+02  0.11920151780E+03  0.00000000000E+00 0. -1.
         21    1    1    2  505  501  0.24520924569E+02  0.44752100319E+02  0.44450866762E+02  0.67675001149E+02  0.00000000000E+00 0.  1.
         -2    1    1    2    0  503  0.27246284579E+03 -0.18886089451E+02  0.24174071335E+03  0.36473450508E+03  0.00000000000E+00 0.  1.
<scales pt_clust_3="14000.00000" pt_clust_4="100.20507" pt_clust_5="51.02966" pt_clust_6="252.51590"></scales>
<clustering>
<clus scale="   51.030">  1  5  2 -1</clus>
<clus scale="  100.205">  1  4  2 -1</clus>
<clus scale="  252.516">  1  6  2 -1</clus>
<clus scale="  252.516">  2  3  1 -1</clus>
</clustering>
</event>
<event>
 6    0  0.3695460E+002  0.1479588E+03  0.7546771E-02  0.1203004E+00
          2   -1    0    0  505    0 -0.00000000000E+00  0.00000000000E+00  0.13486813058E+04  0.13486813058E+04  0.00000000000E+00 0.  1.
         21   -1    0    0  504  502  0.00000000000E+00 -0.00000000000E+00 -0.22222407347E+03  0.22222407347E+03  0.00000000000E+00 0.  1.
         21    1    1    2  503  502 -0.14178259523E+02 -0.11317307182E+03 -0.17548375944E+03  0.20929337556E+03  0.00000000000E+00 0.  1.
         21    1    1    2  504  501  0.14016295910E+02 -0.37334400066E+02 -0.81645249460E+01  0.40705938718E+02  0.00000000000E+00 0.  1.
         21    1    1    2  505  503 -0.21264335000E+02  0.38670746493E+02  0.19148518489E+03  0.19650489716E+03  0.00000000000E+00 0. -1.
          2    1    1    2  501    0  0.21426298613E+02  0.11183672540E+03  0.11186203318E+04  0.11244011678E+04  0.00000000000E+00 0.  1.
<scales pt_clust_3="147.95878" pt_clust_4="39.87874" pt_clust_5="43.63083" pt_clust_6="14000.00000"></scales>
<clustering>
<clus scale="   39.879">  2  4  1 -1</clus>
<clus scale="   43.631">  1  5  2 -1</clus>
<clus scale="  147.959">  2  3  1 -1</clus>
<clus scale="   39.879">  2  3  1 -1</clus>
</clustering>
</event>
<event>
 6    0  0.3695460E+002  0.1134883E+03  0.7546771E-02  0.1254243E+00
         21   -1    0    0  504  502  0.00000000000E+00  0.00000000000E+00  0.17728467585E+03  0.17728467585E+03  0.00000000000E+00 0. -1.
          1   -1    0    0  503    0 -0.00000000000E+00 -0.00000000000E+00 -0.96142875310E+03  0.96142875310E+03  0.00000000000E+00 0.  1.
         21    1    1    2  503  505  0.57456779414E+02 -0.15799030958E+02 -0.51724919920E+03  0.52067036112E+03  0.00000000000E+00 0.  1.
         21    1    1    2  504  501 -0.10459385512E+02 -0.72117417041E+02  0.45899141354E+01  0.73016353632E+02  0.00000000000E+00 0.  1.
         21    1    1    2  505  502 -0.91101713698E+02  0.47414841209E+01  0.11525730179E+03  0.14699064435E+03  0.00000000000E+00 0. -1.
          1    1    1    2  501    0  0.44104319796E+02  0.83174963878E+02 -0.38674209398E+03  0.39803606984E+03  0.00000000000E+00 0.  1.
<scales pt_clust_3="59.58935" pt_clust_4="73.58544" pt_clust_5="14000.00000" pt_clust_6="113.48827"></scales>
<clustering>
<clus scale="   59.589">  2  3  1 -1</clus>
<clus scale="   73.585">  1  4  2 -1</clus>
<clus scale="  113.488">  2  6  1 -1</clus>
<clus scale="   73.585">  1  3  2 -1</clus>
</clustering>
</event>
<event>
 6    0  0.3695460E+002  0.2009769E+03  0.7546771E-02  0.1148917E+00
         21   -1    0    0  505  502  0.00000000000E+00  0.00000000000E+00  0.60308079918E+02  0.60308079918E+02  0.00000000000E+00 0.  1.
          2   -1    0    0  504    0 -0.00000000000E+00 -0.00000000000E+00 -0.16279486858E+04  0.16279486858E+04  0.00000000000E+00 0. -1.
         21    1    1    2  503  501 -0.89034575718E+02  0.19876685570E+03 -0.24045331542E+03  0.32442751963E+03  0.00000000000E+00 0.  1.
         21    1    1    2  504  502  0.46586653006E+02 -0.17839005091E+02 -0.19167527443E+03  0.19806048866E+03  0.00000000000E+00 0.  1.
         21    1    1    2  505  503  0.41450525800E+02  0.10768663669E+01 -0.49324182722E+02  0.64437417169E+02  0.00000000000E+00 0. -1.
          2    1    1    2  501    0  0.99739691247E+00 -0.18200471697E+03 -0.10861878333E+04  0.11013313402E+04  0.00000000000E+00 0. -1.
<scales pt_clust_3="14000.00000" pt_clust_4="52.21358" pt_clust_5="41.46451" pt_clust_6="200.97695"></scales>
<clustering>
<clus scale="   41.465">  1  5  2 -1</clus>
<clus scale="   52.214">  2  4  1 -1</clus>
<clus scale="  200.977">  2  6  1 -1</clus>
<clus scale="   41.465">  1  3  2 -1</clus>
</clustering>
</event>
<event>
 6    0  0.3695460E+002  0.1023237E+03  0.7546771E-02  0.1275484E+00
         -2   -1    0    0    0  501 -0.00000000000E+00  0.00000000000E+00  0.35712417134E+03  0.35712417134E+03  0.00000000000E+00 0. -1.
         21   -1    0    0  503  502  0.00000000000E+00 -0.00000000000E+00 -0.43156071063E+03  0.43156071063E+03  0.00000000000E+00 0. -1.
         21    1    1    2  503  501  0.86523757372E+02  0.25340773527E+02 -0.23298384211E+03  0.24981990728E+03  0.00000000000E+00 0. -1.
         21    1    1    2  504  502 -0.37341228233E+00 -0.61039301697E+02 -0.17734125180E+03  0.18755227373E+03  0.00000000000E+00 0. -1.
         21    1    1    2  505  504 -0.32434742130E+02  0.33651818319E+02  0.11868343062E+03  0.12755474933E+03  0.00000000000E+00 0. -1.
         -2    1    1    2    0  505 -0.53715602959E+02  0.20467098516E+01  0.21720512400E+03  0.22375795162E+03  0.00000000000E+00 0. -1.
<scales pt_clust_3="92.55762" pt_clust_4="61.04044" pt_clust_5="40.67929" pt_clust_6="40.67929"></scales>
<clustering>
<clus scale="   40.679">  5  6 -1 -1</clus>
<clus scale="   61.040">  2  4  1 -1</clus>
<clus scale="   92.558">  2  3  1 -1</clus>
<clus scale="   61.040">  2  3  1 -1</clus>
</clustering>
</event>
<event>
 6    0  0.3695460E+002  0.1466979E+03  0.7546771E-02  0.1204590E+00
         21   -1    0    0  503  502  0.00000000000E+00  0.00000000000E+00  0.54931898284E+02  0.54931898284E+02  0.00000000000E+00 0.  1.
          2   -1    0    0  504    0 -0.00000000000E+00 -0.00000000000E+00 -0.21822934043E+04  0.21822934043E+04  0.00000000000E+00 0.  1.
         21    1    1    2  503  501  0.50003623080E+02  0.12366184235E+03 -0.54563383664E+02  0.14411723149E+03  0.00000000000E+00 0.  1.
         21    1    1    2  504  505  0.34827456306E+01 -0.62579171598E+02 -0.41988062891E+03  0.42453271343E+03  0.00000000000E+00 0.  1.
         21    1    1    2  505  502 -0.31152994666E+02  0.30920340392E+02 -0.68656291571E+02  0.81487808284E+02  0.00000000000E+00 0. -1.
          2    1    1    2  501    0 -0.22333374044E+02 -0.92003011148E+02 -0.15842612019E+04  0.15870875494E+04  0.00000000000E+00 0.  1.
<scales pt_clust_3="146.69795" pt_clust_4="61.12911" pt_clust_5="43.89278" pt_clust_6="14000.00000"></scales>
<clustering>
<clus scale="   43.893">  1  5  2 -1</clus>
<clus scale="   61.129">  2  4  1 -1</clus>
<clus scale="  146.698">  1  3  2 -1</clus>
<clus scale="   43.893">  1  3  2 -1</clus>
</clustering>
</event>
<event>
 6    0  0.3695460E+002  0.1346555E+03  0.7546771E-02  0.1220707E+00
         21   -1    0    0  504  502  0.00000000000E+00  0.00000000000E+00  0.92218527824E+02  0.92218527824E+02  0.00000000000E+00 0.  1.
         -3   -1    0    0    0  501 -0.00000000000E+00 -0.00000000000E+00 -0.34040240077E+03  0.34040240077E+03  0.00000000000E+00 0.  1.
         21    1    1    2  503  502 -0.49536111131E+02 -0.41919328414E+02 -0.32629817275E+02  0.72634436572E+02  0.00000000000E+00 0.  1.
         21    1    1    2  504  501  0.76541801368E+02  0.47587720521E+02 -0.15872990069E+03  0.18253333908E+03  0.00000000000E+00 0.  1.
         21    1    1    2  505  503 -0.26058026443E+02 -0.71038241862E+02  0.18317209692E+02  0.77852249293E+02  0.00000000000E+00 0.  1.
         -3    1    1    2    0  505 -0.94766379388E+00  0.65369849755E+02 -0.75141364669E+02  0.99600903650E+02  0.00000000000E+00 0.  1.
<scales pt_clust_3="58.33163" pt_clust_4="119.01509" pt_clust_5="58.33163" pt_clust_6="65.37672"></scales>
<clustering>
<clus scale="   58.332">  3  5 -1 -1</clus>
<clus scale="   65.377">  2  6  1 -1</clus>
<clus scale="  119.015">  2  4  1 -1</clus>
<clus scale="  134.655">  1  3  2 -1</clus>
</clustering>
</event>
<event>
 6    0  0.3695460E+002  0.1002107E+03  0.7546771E-02  0.1279853E+00
          2   -1    0    0  504    0 -0.00000000000E+00  0.00000000000E+00  0.12805701003E+04  0.12805701003E+04  0.00000000000E+00 0. -1.
         21   -1    0    0  503  502  0.00000000000E+00 -0.00000000000E+00 -0.33901892583E+02  0.33901892583E+02  0.00000000000E+00 0. -1.
         21    1    1    2  503  501 -0.91350609147E+02  0.51398366103E+02  0.28676673092E+03  0.30532258972E+03  0.00000000000E+00 0. -1.
         21    1    1    2  504  505  0.46344974071E+01 -0.41513272234E+02  0.15573132770E+03  0.16123609014E+03  0.00000000000E+00 0. -1.
         21    1    1    2  505  502  0.31719946772E+02  0.51787430477E+02  0.27167973855E+02  0.66529630857E+02  0.00000000000E+00 0. -1.
          2    1    1    2  501    0  0.54996164969E+02 -0.61672524346E+02  0.77700217520E+03  0.78138368212E+03  0.00000000000E+00 0. -1.
<scales pt_clust_3="100.21075" pt_clust_4="41.77117" pt_clust_5="59.36236" pt_clust_6="14000.00000"></scales>
<clustering>
<clus scale="   41.771">  1  4  2 -1</clus>
<clus scale="   59.362">  2  5  1 -1</clus>
<clus scale="  100.211">  2  3  1 -1</clus>
<clus scale="   59.362">  2  3  1 -1</clus>
</clustering>
</event>
<event>
 6    0  0.3695460E+002  0.1938521E+03  0.7546771E-02  0.1155032E+00
         21   -1    0    0  505  502  0.00000000000E+00  0.00000000000E+00  0.56252469675E+03  0.56252469675E+03  0.00000000000E+00 0. -1.
          2   -1    0    0  504    0 -0.00000000000E+00 -0.00000000000E+00 -0.38323799537E+03  0.38323799537E+03  0.00000000000E+00 0.  1.
         21    1    1    2  503  501  0.44794839439E+02  0.66812500939E+02 -0.13173777036E+03  0.15435455310E+03  0.00000000000E+00 0.  1.
         21    1    1    2  504  502  0.10555102713E+03 -0.38718181660E+02  0.12602427450E+01  0.11243533755E+03  0.00000000000E+00 0.  1.
         21    1    1    2  505  503 -0.15269170946E+03 -0.11560345335E+03  0.46380744700E+03  0.50179304943E+03  0.00000000000E+00 0. -1.
          2    1    1    2  501    0  0.23458428937E+01  0.87509134072E+02 -0.15404321800E+03  0.17717975205E+03  0.00000000000E+00 0.  1.
<scales pt_clust_3="45.03106" pt_clust_4="112.42827" pt_clust_5="188.07400" pt_clust_6="45.03106"></scales>
<clustering>
<clus scale="   45.031">  3  6 -1 -1</clus>
<clus scale="  112.428">  2  4  1 -1</clus>
<clus scale="  188.074">  1  5  2 -1</clus>
<clus scale="  188.074">  1  3  2 -1</clus>
</clustering>
</event>
<event>
 6    0  0.3695460E+002  0.9563829E+02  0.7546771E-02  0.1289745E+00
         21   -1    0    0  503  502  0.00000000000E+00  0.00000000000E+00  0.17617603745E+04  0.17617603745E+04  0.00000000000E+00 0. -1.
         -3   -1    0    0    0  501 -0.00000000000E+00 -0.00000000000E+00 -0.86272552097E+03  0.86272552097E+03  0.00000000000E+00 0. -1.
         21    1    1    2  503  504 -0.55399296189E+01 -0.92736722328E+02  0.15129778241E+04  0.15158273934E+04  0.00000000000E+00 0. -1.
         21    1    1    2  504  505 -0.37324235882E+02  0.13717408997E+03  0.22333004490E+03  0.26473786752E+03  0.00000000000E+00 0. -1.
         21    1    1    2  505  501 -0.81778025638E+00 -0.33084590212E+02 -0.10138309878E+03  0.10664797979E+03  0.00000000000E+00 0. -1.
         -3    1    1    2    0  502  0.43681945757E+02 -0.11352777435E+02 -0.73588991668E+03  0.73727265473E+03  0.00000000000E+00 0. -1.
<scales pt_clust_3="95.63829" pt_clust_4="14000.00000" pt_clust_5="33.09470" pt_clust_6="61.06745"></scales>
<clustering>
<clus scale="   33.095">  2  5  1 -1</clus>
<clus scale="   61.067">  2  6  1 -1</clus>
<clus scale="   95.638">  1  3  2 -1</clus>
<clus scale="   95.638">  1  3  2 -1</clus>
</clustering>
</event>
<event>
 6    0  0.3695460E+002  0.1095306E+03  0.7546771E-02  0.1261442E+00
         21   -1    0    0  505  502  0.00000000000E+00  0.00000000000E+00  0.12016898314E+04  0.12016898314E+04  0.00000000000E+00 0.  1.
          2   -1    0    0  503    0 -0.00000000000E+00 -0.00000000000E+00 -0.18588772096E+04  0.18588772096E+04  0.00000000000E+00 0. -1.
         21    1    1    2  503  502  0.48034423770E+01 -0.41586940859E+02 -0.11700658065E+03  0.12427021616E+03  0.00000000000E+00 0.  1.
         21    1    1    2  504  501  0.96098137020E+02  0.72097230607E+02  0.48576404247E+03  0.50039940803E+03  0.00000000000E+00 0.  1.
         21    1    1    2  505  504 -0.11850628257E+03  0.34316699568E+02  0.69891966177E+03  0.70972534722E+03  0.00000000000E+00 0.  1.
          2    1    1    2  501    0  0.17604703178E+02 -0.64826989316E+02 -0.17248645018E+04  0.17261720696E+04  0.00000000000E+00 0. -1.
<scales pt_clust_3="41.86343" pt_clust_4="14000.00000" pt_clust_5="109.53058" pt_clust_6="108.44260"></scales>
<clustering>
<clus scale="   41.863">  2  3  1 -1</clus>
<clus scale="  108.443">  2  6  1 -1</clus>
<clus scale="  109.531">  1  5  2 -1</clus>
<clus scale="  109.531">  1  3  2 -1</clus>
</clustering>
</event>
<event>
 6    0  0.3695460E+002  0.2482294E+03  0.7546771E-02  0.1114429E+00
         21   -1    0    0  501  502  0.00000000000E+00  0.00000000000E+00  0.56925724089E+03  0.56925724089E+03  0.00000000000E+00 0.  1.
         -4   -1    0    0    0  501 -0.00000000000E+00 -0.00000000000E+00 -0.30329155653E+03  0.30329155653E+03  0.00000000000E+00 0.  1.
         21    1    1    2  503  505 -0.31726490031E+02 -0.10406051849E+02  0.18688079204E+02  0.38263564773E+02  0.00000000000E+00 0. -1.
         21    1    1    2  504  503  0.90831394077E+02  0.13800124378E+03 -0.45922215772E+02  0.17147459093E+03  0.00000000000E+00 0.  1.
         21    1    1    2  505  502 -0.18548772385E+03 -0.13953998433E+03  0.42221564252E+03  0.48181236152E+03  0.00000000000E+00 0.  1.
         -4    1    1    2    0  504  0.12638281981E+03  0.11944792395E+02 -0.12901582160E+03  0.18099828019E+03  0.00000000000E+00 0.  1.
<scales pt_clust_3="30.38235" pt_clust_4="234.94843" pt_clust_5="30.38235" pt_clust_6="126.94603"></scales>
<clustering>
<clus scale="   30.382">  3  5 -1 -1</clus>
<clus scale="  126.946">  2  6  1 -1</clus>
<clus scale="  234.948">  2  4  1 -1</clus>
<clus scale="  248.229">  1  3  2 -1</clus>
</clustering>
</event>
<event>
 6    0  0.3695460E+002  0.7676108E+02  0.7546771E-02  0.1338503E+00
          2   -1    0    0  504    0 -0.00000000000E+00  0.00000000000E+00  0.12889018064E+04  0.12889018064E+04  0.00000000000E+00 0. -1.
         21   -1    0    0  503  502  0.00000000000E+00 -0.00000000000E+00 -0.59619515700E+02  0.59619515700E+02  0.00000000000E+00 0. -1.
         21    1    1    2  503  501  0.10759675597E+03 -0.89807082599E+01  0.94991163977E+02  0.14380902701E+03  0.00000000000E+00 0. -1.
         21    1    1    2  504  505 -0.41019200415E+02 -0.65716093262E+02  0.31104530425E+03  0.32054697162E+03  0.00000000000E+00 0. -1.
         21    1    1    2  505  502 -0.44652279150E+02 -0.69855517399E+01 -0.10288268840E+02  0.46351617470E+02  0.00000000000E+00 0. -1.
          2    1    1    2  501    0 -0.21925276409E+02  0.81682353262E+02  0.83353409128E+03  0.83781370597E+03  0.00000000000E+00 0. -1.
<scales pt_clust_3="74.19124" pt_clust_4="14000.00000" pt_clust_5="45.19540" pt_clust_6="76.76108"></scales>
<clustering>
<clus scale="   45.195">  2  5  1 -1</clus>
<clus scale="   74.191">  2  3  1 -1</clus>
<clus scale="   76.761">  1  6  2 -1</clus>
<clus scale="   45.195">  2  3  1 -1</clus>
</clustering>
</event>
<event>
 6    0  0.3695460E+002  0.2790579E+03  0.7546771E-02  0.1096205E+00
         21   -1    0    0  505  502  0.00000000000E+00  0.00000000000E+00  0.10390302513E+03  0.10390302513E+03  0.00000000000E+00 0. -1.
          2   -1    0    0  502    0 -0.00000000000E+00 -0.00000000000E+00 -0.11223873754E+04  0.11223873754E+04  0.00000000000E+00 0.  1.
         21    1    1    2  503  501  0.17986734318E+03 -0.77107638096E+02 -0.55241130178E+03  0.58605127364E+03  0.00000000000E+00 0.  1.
         21    1    1    2  504  503 -0.54127539735E+02 -0.29813833934E+01 -0.57993059617E+02  0.79384344605E+02  0.00000000000E+00 0. -1.
         21    1    1    2  505  504 -0.15012803704E+03  0.15696612844E+03 -0.94149818779E+02  0.23672976441E+03  0.00000000000E+00 0. -1.
          2    1    1    2  501    0  0.24388233591E+02 -0.76877106955E+02 -0.31393017007E+03  0.32412501784E+03  0.00000000000E+00 0.  1.
<scales pt_clust_3="71.60707" pt_clust_4="53.22128" pt_clust_5="277.09326" pt_clust_6="71.60707"></scales>
<clustering>
<clus scale="   53.221">  4  5 -1 -1</clus>
<clus scale="   71.607">  3  6 -1 -1</clus>
<clus scale="  277.093">  1  4  2 -1</clus>
<clus scale="  277.093">  1  3  2 -1</clus>
</clustering>
</event>
<event>
 6    0  0.3695460E+002  0.8081309E+02  0.7546771E-02  0.1326760E+00
          1   -1    0    0  503    0 -0.00000000000E+00  0.00000000000E+00  0.85796265966E+03  0.85796265966E+03  0.00000000000E+00 0.  1.
         21   -1    0    0  501  502  0.00000000000E+00 -0.00000000000E+00 -0.70972685620E+02  0.70972685620E+02  0.00000000000E+00 0. -1.
         21    1    1    2  503  504 -0.86868710571E+01 -0.35461472517E+02  0.19228805441E+03  0.19572346213E+03  0.00000000000E+00 0.  1.
         21    1    1    2  504  505 -0.98384742760E+02  0.44342070281E+02  0.22810352304E+02  0.11029999536E+03  0.00000000000E+00 0. -1.
         21    1    1    2  505  502  0.35542920195E+02  0.50890171488E+01 -0.93630265801E+01  0.37106111872E+02  0.00000000000E+00 0. -1.
          1    1    1    2  501    0  0.71528693623E+02 -0.13969614913E+02  0.58125459391E+03  0.58580577591E+03  0.00000000000E+00 0.  1.
<scales pt_clust_3="36.04776" pt_clust_4="80.81309" pt_clust_5="35.90539" pt_clust_6="14000.00000"></scales>
<clustering>
<clus scale="   35.905">  2  5  1 -1</clus>
<clus scale="   36.048">  1  3  2 -1</clus>
<clus scale="   80.813">  2  4  1 -1</clus>
<clus scale="   35.905">  2  3  1 -1</clus>
</clustering>
</event>
<event>
 6    0  0.3695460E+002  0.9312021E+02  0.7546771E-02  0.1295467E+00
         21   -1    0    0  504  502  0.00000000000E+00  0.00000000000E+00  0.24152538073E+02  0.24152538073E+02  0.00000000000E+00 0. -1.
         -3   -1    0    0    0  501 -0.00000000000E+00 -0.00000000000E+00 -0.14816047769E+04  0.14816047769E+04  0.00000000000E+00 0. -1.
         21    1    1    2  503  502  0.41330090814E+02 -0.15640469123E+02 -0.35957821744E+02  0.56971621231E+02  0.00000000000E+00 0. -1.
         21    1    1    2  504  501 -0.14161679578E+02 -0.56346986798E+02 -0.41371116709E+03  0.41777082936E+03  0.00000000000E+00 0. -1.
         21    1    1    2  505  503  0.71189219112E+02  0.23667995274E+02 -0.16645489367E+03  0.18257960057E+03  0.00000000000E+00 0. -1.
         -3    1    1    2    0  505 -0.98357630347E+02  0.48319460648E+02 -0.84132835634E+03  0.84843526383E+03  0.00000000000E+00 0. -1.
<scales pt_clust_3="44.19050" pt_clust_4="59.21829" pt_clust_5="93.12021" pt_clust_6="14000.00000"></scales>
<clustering>
<clus scale="   44.191">  1  3  2 -1</clus>
<clus scale="   59.218">  2  4  1 -1</clus>
<clus scale="   93.120">  1  5  2 -1</clus>
<clus scale="   44.191">  1  3  2 -1</clus>
</clustering>
</event>
<event>
 6    0  0.3695460E+002  0.3595024E+03  0.7546771E-02  0.1058781E+00
         -1   -1    0    0    0  501 -0.00000000000E+00  0.00000000000E+00  0.16975884115E+04  0.16975884115E+04  0.00000000000E+00 0.  1.
         21   -1    0    0  504  502  0.00000000000E+00 -0.00000000000E+00 -0.12451427188E+03  0.12451427188E+03  0.00000000000E+00 0. -1.
         21    1    1    2  503  501  0.18207256953E+03 -0.23721044803E+03  0.29915994825E+03  0.42298450546E+03  0.00000000000E+00 0. -1.
         21    1    1    2  504  503 -0.53680443154E+02 -0.99218776699E+02  0.61786202462E+02  0.12862150070E+03  0.00000000000E+00 0. -1.
         21    1    1    2  505  502 -0.72636151769E+02  0.50367319685E+02  0.24798283086E+03  0.26326481314E+03  0.00000000000E+00 0. -1.
         -1    1    1    2    0  505 -0.55755974605E+02  0.28606190504E+03  0.96414515807E+03  0.10072318641E+04  0.00000000000E+00 0.  1.
<scales pt_clust_3="337.64414" pt_clust_4="112.80938" pt_clust_5="67.98200" pt_clust_6="67.98200"></scales>
<clustering>
<clus scale="   67.982">  5  6 -1 -1</clus>
<clus scale="  112.809">  2  4  1 -1</clus>
<clus scale="  337.644">  2  3  1 -1</clus>
<clus scale="  112.809">  2  3  1 -1</clus>
</clustering>
</event>
<event>
 6    0  0.3695460E+002  0.1257828E+03  0.7546771E-02  0.1233851E+00
          1   -1    0    0  504    0 -0.00000000000E+00  0.00000000000E+00  0.57242871011E+03  0.57242871011E+03  0.00000000000E+00 0. -1.
         21   -1    0    0  503  502  0.00000000000E+00 -0.00000000000E+00 -0.14301925212E+03  0.14301925212E+03  0.00000000000E+00 0. -1.
         21    1    1    2  503  505  0.23183414530E+02  0.58186714438E+02 -0.67750165999E+02  0.92267271767E+02  0.00000000000E+00 0. -1.
         21    1    1    2  504  502 -0.25838701629E+02 -0.18750392545E+02  0.24033199545E+02  0.39960110145E+02  0.00000000000E+00 0.  1.
         21    1    1    2  505  501 -0.20071443864E+02  0.57725801035E+02 -0.31546620330E+02  0.68777323430E+02  0.00000000000E+00 0. -1.
          1    1    1    2  501    0  0.22726730963E+02 -0.97162122928E+02  0.50467304478E+03  0.51444325689E+03  0.00000000000E+00 0. -1.
<scales pt_clust_3="50.77891" pt_clust_4="31.92516" pt_clust_5="50.77891" pt_clust_6="114.85299"></scales>
<clustering>
<clus scale="   31.925">  1  4  2 -1</clus>
<clus scale="   50.779">  3  5 -1 -1</clus>
<clus scale="  114.853">  1  6  2 -1</clus>
<clus scale="  125.783">  2  3  1 -1</clus>
</clustering>
</event>
<event>
 6    0  0.3695460E+002  0.2611278E+03  0.7546771E-02  0.1106468E+00
         21   -1    0    0  504  502  0.00000000000E+00  0.00000000000E+00  0.14086790993E+03  0.14086790993E+03  0.00000000000E+00 0.  1.
         -2   -1    0    0    0  501 -0.00000000000E+00 -0.00000000000E+00 -0.15732965305E+04  0.15732965305E+04  0.00000000000E+00 0.  1.
         21    1    1    2  503  502 -0.16327316487E+02 -0.14695125180E+03  0.58657441250E-01  0.14785552107E+03  0.00000000000E+00 0.  1.
         21    1    1    2  504  501 -0.77439408724E+02  0.51963277705E+02 -0.25263515907E+03  0.26929828788E+03  0.00000000000E+00 0.  1.
         21    1    1    2  505  503  0.37169618230E+02 -0.11216982763E+03 -0.22987950981E+02  0.12038312440E+03  0.00000000000E+00 0.  1.
         -2    1    1    2    0  505  0.56597106981E+02  0.20715780172E+03 -0.11568641680E+04  0.11766275071E+04  0.00000000000E+00 0.  1.
<scales pt_clust_3="55.45660" pt_clust_4="93.25794" pt_clust_5="55.45660" pt_clust_6="253.65256"></scales>
<clustering>
<clus scale="   55.457">  3  5 -1 -1</clus>
<clus scale="   93.258">  2  4  1 -1</clus>
<clus scale="  253.653">  2  6  1 -1</clus>
<clus scale="  261.128">  1  3  2 -1</clus>
</clustering>
</event>
<event>
 6    0  0.3695460E+002  0.1554368E+03  0.7546771E-02  0.1193947E+00
         -1   -1    0    0    0  501 -0.00000000000E+00  0.00000000000E+00  0.13843733705E+03  0.13843733705E+03  0.00000000000E+00 0. -1.
         21   -1    0    0  503  502  0.00000000000E+00 -0.00000000000E+00 -0.82105349118E+03  0.82105349118E+03  0.00000000000E+00 0.  1.
         21    1    1    2  503  501  0.47211512830E+02 -0.37492992839E+01 -0.10901280210E+03  0.11885611137E+03  0.00000000000E+00 0. -1.
         21    1    1    2  504  502 -0.25789725315E+02 -0.74879008872E+02 -0.46553988292E+03  0.47222807889E+03  0.00000000000E+00 0.  1.
         21    1    1    2  505  504 -0.88835862151E+01 -0.99461030431E+02 -0.15447717197E+03  0.18394186945E+03  0.00000000000E+00 0.  1.
         -1    1    1    2    0  505 -0.12538201300E+02  0.17808933859E+03  0.46413702854E+02  0.18446476851E+03  0.00000000000E+00 0. -1.
<scales pt_clust_3="47.36015" pt_clust_4="77.56151" pt_clust_5="155.43681" pt_clust_6="14000.00000"></scales>
<clustering>
<clus scale="   47.360">  2  3  1 -1</clus>
<clus scale="   77.562">  2  4  1 -1</clus>
<clus scale="  155.437">  2  5  1 -1</clus>
<clus scale="   47.360">  2  3  1 -1</clus>
</clustering>
</event>
<event>
 6    0  0.3695460E+002  0.2506401E+03  0.7546771E-02  0.1112901E+00
         21   -1    0    0  503  502  0.00000000000E+00  0.00000000000E+00  0.29193822120E+03  0.29193822120E+03  0.00000000000E+00 0. -1.
         -2   -1    0    0    0  501 -0.00000000000E+00 -0.00000000000E+00 -0.86161014923E+03  0.86161014923E+03  0.00000000000E+00 0.  1.
         21    1    1    2  503  501 -0.51288681956E+02  0.67102852837E+02 -0.11180867664E+03  0.14012316699E+03  0.00000000000E+00 0. -1.
         21    1    1    2  504  505  0.15397494330E+03  0.50931948760E+02  0.16901291577E+03  0.23423857979E+03  0.00000000000E+00 0. -1.
         21    1    1    2  505  502  0.10486069842E+03  0.34134043467E+02 -0.99385992835E+01  0.11072341556E+03  0.00000000000E+00 0.  1.
         -2    1    1    2    0  504 -0.20754695976E+03 -0.15216884506E+03 -0.61693756788E+03  0.66846320809E+03  0.00000000000E+00 0.  1.
<scales pt_clust_3="84.45899" pt_clust_4="14000.00000" pt_clust_5="108.17777" pt_clust_6="250.64012"></scales>
<clustering>
<clus scale="   84.459">  2  3  1 -1</clus>
<clus scale="  108.178">  1  5  2 -1</clus>
<clus scale="  250.640">  2  6  1 -1</clus>
<clus scale="  108.178">  1  3  2 -1</clus>
</clustering>
</event>
<event>
 6    0  0.3695460E+002  0.7559626E+02  0.7546771E-02  0.1342034E+00
         21   -1    0    0  504  502  0.00000000000E+00  0.00000000000E+00  0.73037922233E+02  0.73037922233E+02  0.00000000000E+00 0.  1.
          2   -1    0    0  503    0 -0.00000000000E+00 -0.00000000000E+00 -0.22139275181E+04  0.22139275181E+04  0.00000000000E+00 0.  1.
         21    1    1    2  503  502  0.18628156879E+01 -0.76024944497E+02 -0.86640909806E+02  0.11528186987E+03  0.00000000000E+00 0.  1.
         21    1    1    2  504  505  0.38678547687E+02  0.13102149791E+03 -0.28578513062E+02  0.13956860096E+03  0.00000000000E+00 0.  1.
         21    1    1    2  505  501 -0.34640074936E+02 -0.96154079624E+02 -0.91930127863E+03  0.92496507108E+03  0.00000000000E+00 0.  1.
          2    1    1    2  501    0 -0.59012884383E+01  0.41157526215E+02 -0.11063688943E+04  0.11071498984E+04  0.00000000000E+00 0.  1.
<scales pt_clust_3="72.28398" pt_clust_4="75.59626" pt_clust_5="14000.00000" pt_clust_6="41.57845"></scales>
<clustering>
<clus scale="   41.578">  2  6  1 -1</clus>
<clus scale="   72.284">  1  3  2 -1</clus>
<clus scale="   75.596">  1  4  2 -1</clus>
<clus scale="   72.284">  1  3  2 -1</clus>
</clustering>
</event>
<event>
 6    0  0.3695460E+002  0.1541859E+03  0.7546771E-02  0.1195422E+00
         21   -1    0    0  505  502  0.00000000000E+00  0.00000000000E+00  0.33198069293E+04  0.33198069293E+04  0.00000000000E+00 0. -1.
         -2   -1    0    0    0  501 -0.00000000000E+00 -0.00000000000E+00 -0.30504422182E+03  0.30504422182E+03  0.00000000000E+00 0. -1.
         21    1    1    2  503  502  0.18665531233E+02  0.29488928730E+02  0.10898917006E+03  0.11444054423E+03  0.00000000000E+00 0. -1.
         21    1    1    2  504  501 -0.14112266378E+03 -0.14312157317E+03 -0.10555481989E+03  0.22702689475E+03  0.00000000000E+00 0. -1.
         21    1    1    2  505  504 -0.19949156520E+02  0.10473574326E+03  0.31087725982E+04  0.31106003620E+04  0.00000000000E+00 0. -1.
         -2    1    1    2    0  503  0.14240628906E+03  0.88969011824E+01 -0.97444240863E+02  0.17278335016E+03  0.00000000000E+00 0. -1.
<scales pt_clust_3="34.89984" pt_clust_4="14000.00000" pt_clust_5="133.33304" pt_clust_6="154.18585"></scales>
<clustering>
<clus scale="   34.900">  1  3  2 -1</clus>
<clus scale="  133.333">  1  5  2 -1</clus>
<clus scale="  154.186">  2  6  1 -1</clus>
<clus scale="   34.900">  1  3  2 -1</clus>
</clustering>
</event>
<event>
 6    0  0.3695460E+002  0.7815557E+02  0.7546771E-02  0.1334369E+00
          2   -1    0    0  505    0 -0.00000000000E+00  0.00000000000E+00  0.18770955756E+04  0.18770955756E+04  0.00000000000E+00 0. -1.
         21   -1    0    0  503  502  0.00000000000E+00 -0.00000000000E+00 -0.57372351064E+03  0.57372351064E+03  0.00000000000E+00 0. -1.
         21    1    1    2  503  501  0.63994953794E+02 -0.50087741091E+02 -0.32373752693E+03  0.33378154871E+03  0.00000000000E+00 0. -1.
         21    1    1    2  504  502  0.14324862527E+02  0.59443582739E+02 -0.23263816961E+03  0.24053951687E+03  0.00000000000E+00 0. -1.
         21    1    1    2  505  504 -0.29439945162E+02 -0.41811371318E+02  0.74929811486E+02  0.90715918074E+02  0.00000000000E+00 0.  1.
          2    1    1    2  501    0 -0.48879871159E+02  0.32455529670E+02  0.17848179500E+04  0.17857821026E+04  0.00000000000E+00 0. -1.
<scales pt_clust_3="78.15557" pt_clust_4="61.04058" pt_clust_5="51.13610" pt_clust_6="14000.00000"></scales>
<clustering>
<clus scale="   51.136">  1  5  2 -1</clus>
<clus scale="   61.041">  2  4  1 -1</clus>
<clus scale="   78.156">  2  3  1 -1</clus>
<clus scale="   61.041">  2  3  1 -1</clus>
</clustering>
</event>
<event>
 6    0  0.3695460E+002  0.1231994E+03  0.7546771E-02  0.1237910E+00
          2   -1    0    0  505    0 -0.00000000000E+00  0.00000000000E+00  0.18529888320E+04  0.18529888320E+04  0.00000000000E+00 0. -1.
         21   -1    0    0  503  502  0.00000000000E+00 -0.00000000000E+00 -0.42256843472E+02  0.42256843472E+02  0.00000000000E+00 0. -1.
         21    1    1    2  503  501  0.39586410559E+02  0.87807330073E+02  0.40039898197E+02  0.10430917775E+03  0.00000000000E+00 0. -1.
         21    1    1    2  504  502 -0.12554449705E+02  0.43971517332E+02  0.87106707873E+02  0.98380318663E+02  0.00000000000E+00 0. -1.
         21    1    1    2  505  504 -0.15970997090E+02 -0.49800729290E+02  0.20190552007E+03  0.20856899199E+03  0.00000000000E+00 0. -1.
          2    1    1    2  501    0 -0.11060963764E+02 -0.81978118115E+02  0.14816798624E+04  0.14839871871E+04  0.00000000000E+00 0. -1.
<scales pt_clust_3="123.19941" pt_clust_4="45.72864" pt_clust_5="48.89290" pt_clust_6="14000.00000"></scales>
<clustering>
<clus scale="   45.729">  2  4  1 -1</clus>
<clus scale="   48.893">  1  5  2 -1</clus>
<clus scale="  123.199">  2  3  1 -1</clus>
<clus scale="   45.729">  2  3  1 -1</clus>
</clustering>
</event>
<event>
 6    0  0.3695460E+002  0.1203446E+03  0.7546771E-02  0.1242530E+00
         -4   -1    0    0    0  501 -0.00000000000E+00  0.00000000000E+00  0.31937581528E+03  0.31937581528E+03  0.00000000000E+00 0. -1.
         21   -1    0    0  503  502  0.00000000000E+00 -0.00000000000E+00 -0.40414494602E+03  0.40414494602E+03  0.00000000000E+00 0. -1.
         21    1    1    2  503  501  0.11614273963E+02 -0.34536815153E+02  0.18794557633E+02  0.40999004344E+02  0.00000000000E+00 0. -1.
         21    1    1    2  504  505 -0.87105938685E+02 -0.17768401919E+02 -0.16978459603E+03  0.19165064495E+03  0.00000000000E+00 0. -1.
         21    1    1    2  505  502 -0.35566639937E+02 -0.60695144938E+01 -0.19647017520E+03  0.19975573741E+03  0.00000000000E+00 0. -1.
         -4    1    1    2    0  504  0.11105830466E+03  0.58374731566E+02  0.26269108286E+03  0.29111537461E+03  0.00000000000E+00 0. -1.
<scales pt_clust_3="36.18751" pt_clust_4="120.34459" pt_clust_5="36.08081" pt_clust_6="14000.00000"></scales>
<clustering>
<clus scale="   36.081">  2  5  1 -1</clus>
<clus scale="   36.188">  1  3  2 -1</clus>
<clus scale="  120.345">  2  4  1 -1</clus>
<clus scale="   36.081">  2  3  1 -1</clus>
</clustering>
</event>
<event>
 6    0  0.3695460E+002  0.6510759E+02  0.7546771E-02  0.1377567E+00
         21   -1    0    0  504  502  0.00000000000E+00  0.00000000000E+00  0.87252230113E+02  0.87252230113E+02  0.00000000000E+00 0.  1.
          2   -1    0    0  503    0 -0.00000000000E+00 -0.00000000000E+00 -0.19214091897E+04  0.19214091897E+04  0.00000000000E+00 0.  1.
         21    1    1    2  503  502  0.42517684266E+01  0.65383260661E+02 -0.16198185258E+03  0.17473170541E+03  0.00000000000E+00 0.  1.
         21    1    1    2  504  505  0.56912265078E+02 -0.71785370940E+01  0.18114194583E+02  0.60155310293E+02  0.00000000000E+00 0.  1.
         21    1    1    2  505  501 -0.80507784709E+02 -0.86531942342E+01  0.16606228314E+01  0.80988510527E+02  0.00000000000E+00 0.  1.
          2    1    1    2  501    0  0.19343751205E+02 -0.49551529332E+02 -0.16919499244E+04  0.16927858936E+04  0.00000000000E+00 0.  1.
<scales pt_clust_3="34.34910" pt_clust_4="65.10759" pt_clust_5="14000.00000" pt_clust_6="53.19337"></scales>
<clustering>
<clus scale="   53.193">  2  6  1 -1</clus>
<clus scale="   34.349">  2  3  1 -1</clus>
<clus scale="   65.108">  1  4  2 -1</clus>
<clus scale="   65.108">  1  3  2 -1</clus>
</clustering>
</event>
<event>
 6    0  0.3695460E+002  0.1243437E+03  0.7546771E-02  0.1236099E+00
         21   -1    0    0  503  502  0.00000000000E+00  0.00000000000E+00  0.23131737063E+03  0.23131737063E+03  0.00000000000E+00 0.  1.
          2   -1    0    0  505    0 -0.00000000000E+00 -0.00000000000E+00 -0.24691689777E+04  0.24691689777E+04  0.00000000000E+00 0. -1.
         21    1    1    2  503  504 -0.11841346379E+03  0.32726023866E+02  0.19372479121E+03  0.22939493406E+03  0.00000000000E+00 0.  1.
         21    1    1    2  504  501  0.14775464030E+03 -0.25059816841E+02 -0.27770067900E+03  0.31555838647E+03  0.00000000000E+00 0. -1.
         21    1    1    2  505  502 -0.22381308570E+02 -0.39436348278E+02 -0.81350325534E+03  0.81476603696E+03  0.00000000000E+00 0. -1.
          2    1    1    2  501    0 -0.69598679433E+01  0.31770141252E+02 -0.13403724640E+04  0.13407669909E+04  0.00000000000E+00 0. -1.
<scales pt_clust_3="124.34366" pt_clust_4="14000.00000" pt_clust_5="31.99568" pt_clust_6="32.52356"></scales>
<clustering>
<clus scale="   32.524">  2  6  1 -1</clus>
<clus scale="   31.996">  2  5  1 -1</clus>
<clus scale="  124.344">  1  3  2 -1</clus>
<clus scale="  124.344">  1  3  2 -1</clus>
</clustering>
</event>
<event>
 6    0  0.3695460E+002  0.1494159E+03  0.7546771E-02  0.1201193E+00
         21   -1    0    0  505  502  0.00000000000E+00  0.00000000000E+00  0.87019122935E+02  0.87019122935E+02  0.00000000000E+00 0. -1.
          2   -1    0    0  503    0 -0.00000000000E+00 -0.00000000000E+00 -0.21669471430E+04  0.21669471430E+04  0.00000000000E+00 0.  1.
         21    1    1    2  503  504  0.33911673182E+02  0.34591778516E+02 -0.14956230901E+04  0.14964073711E+04  0.00000000000E+00 0.  1.
         21    1    1    2  504  502 -0.48901688575E+02 -0.14719193049E+03 -0.54283099468E+02  0.16432740013E+03  0.00000000000E+00 0. -1.
         21    1    1    2  505  501 -0.32804874440E+02  0.10900062777E+02  0.14316327560E+02  0.37415616931E+02  0.00000000000E+00 0. -1.
          2    1    1    2  501    0  0.47794889834E+02  0.10170008920E+03 -0.54433815808E+03  0.55581587776E+03  0.00000000000E+00 0.  1.
<scales pt_clust_3="48.34470" pt_clust_4="14000.00000" pt_clust_5="34.56835" pt_clust_6="149.41592"></scales>
<clustering>
<clus scale="   34.568">  1  5  2 -1</clus>
<clus scale="   48.345">  2  3  1 -1</clus>
<clus scale="  149.416">  2  6  1 -1</clus>
<clus scale="   34.568">  1  3  2 -1</clus>
</clustering>
</event>
<event>
 6    0  0.3695460E+002  0.1415137E+03  0.7546771E-02  0.1211307E+00
          2   -1    0    0  503    0 -0.00000000000E+00  0.00000000000E+00  0.13229759892E+04  0.13229759892E+04  0.00000000000E+00 0. -1.
         21   -1    0    0  504  502  0.00000000000E+00 -0.00000000000E+00 -0.13490788149E+03  0.13490788149E+03  0.00000000000E+00 0. -1.
         21    1    1    2  503  502  0.21992612573E+01  0.79654553803E+02 -0.94361809306E+02  0.12350641986E+03  0.00000000000E+00 0. -1.
         21    1    1    2  504  505 -0.21406298082E+02  0.36332624203E+02  0.31909839815E+02  0.52882199804E+02  0.00000000000E+00 0.  1.
         21    1    1    2  505  501  0.62250732764E+02  0.21596012052E+02  0.87291929746E+02  0.10936828821E+03  0.00000000000E+00 0. -1.
          2    1    1    2  501    0 -0.43043695939E+02 -0.13758319006E+03  0.11632281475E+04  0.11721269628E+04  0.00000000000E+00 0. -1.
<scales pt_clust_3="14000.00000" pt_clust_4="42.16977" pt_clust_5="65.25580" pt_clust_6="141.51370"></scales>
<clustering>
<clus scale="   42.170">  2  4  1 -1</clus>
<clus scale="   65.256">  2  5  1 -1</clus>
<clus scale="  141.514">  1  6  2 -1</clus>
<clus scale="   42.170">  2  3  1 -1</clus>
</clustering>
</event>
<event>
 6    0  0.3695460E+002  0.1163954E+03  0.7546771E-02  0.1249165E+00
          2   -1    0    0  503    0 -0.00000000000E+00  0.00000000000E+00  0.13385382243E+04  0.13385382243E+04  0.00000000000E+00 0.  1.
         21   -1    0    0  504  502  0.00000000000E+00 -0.00000000000E+00 -0.20521246601E+03  0.20521246601E+03  0.00000000000E+00 0. -1.
         21    1    1    2  503  505  0.93521479230E+00  0.76235088299E+02  0.35342824305E+03  0.36155799853E+03  0.00000000000E+00 0.  1.
         21    1    1    2  504  501  0.13969324746E+02  0.59485925008E+02  0.57524861641E+01  0.61374330179E+02  0.00000000000E+00 0. -1.
         21    1    1    2  505  502 -0.20993498505E+02 -0.18017458356E+03 -0.12516753064E+03  0.22038720078E+03  0.00000000000E+00 0. -1.
          2    1    1    2  501    0  0.60889589675E+01  0.44453570253E+02  0.89931255975E+03  0.90043116086E+03  0.00000000000E+00 0.  1.
<scales pt_clust_3="14000.00000" pt_clust_4="64.52265" pt_clust_5="116.39544" pt_clust_6="44.86865"></scales>
<clustering>
<clus scale="   44.869">  1  6  2 -1</clus>
<clus scale="   64.523">  2  4  1 -1</clus>
<clus scale="  116.395">  2  5  1 -1</clus>
<clus scale="   64.523">  2  3  1 -1</clus>
</clustering>
</event>
<event>
 6    0  0.3695460E+002  0.1217792E+03  0.7546771E-02  0.1240190E+00
         21   -1    0    0  505  502  0.00000000000E+00  0.00000000000E+00  0.72168548835E+03  0.72168548835E+03  0.00000000000E+00 0.  1.
         -4   -1    0    0    0  501 -0.00000000000E+00 -0.00000000000E+00 -0.16620224136E+03  0.16620224136E+03  0.00000000000E+00 0.  1.
         21    1    1    2  503  502  0.11116133437E+02 -0.87419291680E+02  0.41896157522E+03  0.42812907223E+03  0.00000000000E+00 0.  1.
         21    1    1    2  504  501 -0.11921597398E+03  0.41712798664E+02 -0.73879727957E+01  0.12651872655E+03  0.00000000000E+00 0.  1.
         21    1    1    2  505  504  0.59587073000E+02 -0.32394114394E+02  0.20956239180E+03  0.22026437290E+03  0.00000000000E+00 0.  1.
         -4    1    1    2    0  503  0.48512767544E+02  0.78100607411E+02 -0.65652747235E+02  0.11297555803E+03  0.00000000000E+00 0.  1.
<scales pt_clust_3="14000.00000" pt_clust_4="121.77922" pt_clust_5="67.82328" pt_clust_6="92.17867"></scales>
<clustering>
<clus scale="   67.823">  1  5  2 -1</clus>
<clus scale="   92.179">  2  6  1 -1</clus>
<clus scale="  121.779">  2  4  1 -1</clus>
<clus scale="   67.823">  1  3  2 -1</clus>
</clustering>
</event>
<event>
 6    0  0.3695460E+002  0.8524246E+02  0.7546771E-02  0.1314800E+00
         21   -1    0    0  501  502  0.00000000000E+00  0.00000000000E+00  0.84086265838E+03  0.84086265838E+03  0.00000000000E+00 0. -1.
          1   -1    0    0  505    0 -0.00000000000E+00 -0.00000000000E+00 -0.75869151096E+02  0.75869151096E+02  0.00000000000E+00 0.  1.
         21    1    1    2  503  504  0.29151626661E+02  0.76400039847E+02  0.38747792818E+03  0.39601253548E+03  0.00000000000E+00 0. -1.
         21    1    1    2  504  502 -0.19522529220E+02  0.43377912761E+02  0.29073872619E+03  0.29460444560E+03  0.00000000000E+00 0. -1.
         21    1    1    2  505  503  0.18781147267E+02 -0.64958145754E+02 -0.44565140854E+02  0.80983603105E+02  0.00000000000E+00 0.  1.
          1    1    1    2  501    0 -0.28410244709E+02 -0.54819806855E+02  0.13134199376E+03  0.14513122529E+03  0.00000000000E+00 0.  1.
<scales pt_clust_3="38.39747" pt_clust_4="38.39747" pt_clust_5="68.78786" pt_clust_6="61.74426"></scales>
<clustering>
<clus scale="   38.397">  3  4 -1 -1</clus>
<clus scale="   61.744">  1  6  2 -1</clus>
<clus scale="   68.788">  2  5  1 -1</clus>
<clus scale="   61.744">  1  3  2 -1</clus>
</clustering>
</event>
<event>
 6    0  0.3695460E+002  0.6954833E+02  0.7546771E-02  0.1361636E+00
          2   -1    0    0  504    0 -0.00000000000E+00  0.00000000000E+00  0.12037836260E+04  0.12037836260E+04  0.00000000000E+00 0.  1.
         21   -1    0    0  505  502  0.00000000000E+00 -0.00000000000E+00 -0.20396150325E+03  0.20396150325E+03  0.00000000000E+00 0.  1.
         21    1    1    2  503  502 -0.10827872980E+03  0.61950058903E+02 -0.13176865829E+03  0.18145267271E+03  0.00000000000E+00 0.  1.
         21    1    1    2  504  503  0.28546825591E+02  0.19099627416E+02  0.85653154453E+02  0.92283150610E+02  0.00000000000E+00 0. -1.
         21    1    1    2  505  501  0.56529050636E+02 -0.17260994516E+02 -0.22628699951E+02  0.63289284709E+02  0.00000000000E+00 0. -1.
          2    1    1    2  501    0  0.23202853575E+02 -0.63788691803E+02  0.10685663266E+04  0.10707200213E+04  0.00000000000E+00 0.  1.
<scales pt_clust_3="14000.00000" pt_clust_4="34.34701" pt_clust_5="59.50379" pt_clust_6="69.54833"></scales>
<clustering>
<clus scale="   34.347">  1  4  2 -1</clus>
<clus scale="   59.504">  2  5  1 -1</clus>
<clus scale="   69.548">  1  6  2 -1</clus>
<clus scale="   59.504">  2  3  1 -1</clus>
</clustering>
</event>
<event>
 6    0  0.3695460E+002  0.1518813E+03  0.7546771E-02  0.1198180E+00
         21   -1    0    0  501  502  0.00000000000E+00  0.00000000000E+00  0.59774509963E+03  0.59774509963E+03  0.00000000000E+00 0. -1.
          2   -1    0    0  505    0 -0.00000000000E+00 -0.00000000000E+00 -0.89892763630E+02  0.89892763630E+02  0.00000000000E+00 0.  1.
         21    1    1    2  503  502 -0.73188416200E+02 -0.91356391266E+02  0.31428644407E+03  0.33537814988E+03  0.00000000000E+00 0. -1.
         21    1    1    2  504  503  0.67085043399E+01 -0.34949426093E+02  0.59927644535E+02  0.69697840671E+02  0.00000000000E+00 0. -1.
         21    1    1    2  505  504 -0.69623927977E+02  0.59756289577E+02  0.21950224883E+02  0.94340435993E+02  0.00000000000E+00 0. -1.
          2    1    1    2  501    0  0.13610383984E+03  0.66549527782E+02  0.11168802251E+03  0.18822143671E+03  0.00000000000E+00 0.  1.
<scales pt_clust_3="33.43740" pt_clust_4="33.43740" pt_clust_5="91.75132" pt_clust_6="139.24901"></scales>
<clustering>
<clus scale="   33.437">  3  4 -1 -1</clus>
<clus scale="   91.751">  2  5  1 -1</clus>
<clus scale="  139.249">  2  6  1 -1</clus>
<clus scale="  151.881">  1  3  2 -1</clus>
</clustering>
</event>
<event>
 6    0  0.3695460E+002  0.1801742E+03  0.7546771E-02  0.1167635E+00
         21   -1    0    0  504  502  0.00000000000E+00  0.00000000000E+00  0.58088812543E+02  0.58088812543E+02  0.00000000000E+00 0.  1.
          2   -1    0    0  503    0 -0.00000000000E+00 -0.00000000000E+00 -0.16756736338E+04  0.16756736338E+04  0.00000000000E+00 0. -1.
         21    1    1    2  503  502  0.81440413611E+02  0.17791373074E+02 -0.65282464676E+01  0.83616337679E+02  0.00000000000E+00 0.  1.
         21    1    1    2  504  505  0.10324227921E+03 -0.25274807046E+02 -0.22806052593E+03  0.25161356795E+03  0.00000000000E+00 0.  1.
         21    1    1    2  505  501 -0.11974352272E+03 -0.31711979807E+02 -0.65621406183E+03  0.66780315651E+03  0.00000000000E+00 0.  1.
          2    1    1    2  501    0 -0.64939170100E+02  0.39195413779E+02 -0.72678198698E+03  0.73072938416E+03  0.00000000000E+00 0. -1.
<scales pt_clust_3="83.36111" pt_clust_4="153.00729" pt_clust_5="74.44836" pt_clust_6="74.44836"></scales>
<clustering>
<clus scale="   74.448">  5  6 -1 -1</clus>
<clus scale="   83.361">  1  3  2 -1</clus>
<clus scale="  153.007">  1  4  2 -1</clus>
<clus scale="   83.361">  1  3  2 -1</clus>
</clustering>
</event>
<event>
 6    0  0.3695460E+002  0.1698059E+03  0.7546771E-02  0.1178050E+00
         -1   -1    0    0    0  501 -0.00000000000E+00  0.00000000000E+00  0.84949400492E+03  0.84949400492E+03  0.00000000000E+00 0. -1.
         21   -1    0    0  504  502  0.00000000000E+00 -0.00000000000E+00 -0.99715525864E+03  0.99715525864E+03  0.00000000000E+00 0.  1.
         21    1    1    2  503  501 -0.45241409208E+02 -0.17171295495E+02  0.93860916204E+01  0.49292364642E+02  0.00000000000E+00 0.  1.
         21    1    1    2  504  505 -0.47164701748E+02 -0.83130280882E+02 -0.67397310743E+03  0.68071646244E+03  0.00000000000E+00 0.  1.
         21    1    1    2  505  503 -0.48205605530E+02 -0.48487526152E+02 -0.28289270237E+03  0.29103797287E+03  0.00000000000E+00 0.  1.
         -1    1    1    2    0  502  0.14061171649E+03  0.14878910253E+03  0.79981846446E+03  0.82560246362E+03  0.00000000000E+00 0. -1.
<scales pt_clust_3="48.39048" pt_clust_4="40.52525" pt_clust_5="40.52525" pt_clust_6="162.90577"></scales>
<clustering>
<clus scale="   40.525">  4  5 -1 -1</clus>
<clus scale="   48.390">  1  3  2 -1</clus>
<clus scale="  162.906">  1  6  2 -1</clus>
<clus scale="  169.806">  2  3  1 -1</clus>
</clustering>
</event>
<event>
 6    0  0.3695460E+002  0.1003058E+03  0.7546771E-02  0.1279654E+00
          2   -1    0    0  505    0 -0.00000000000E+00  0.00000000000E+00  0.17822795013E+04  0.17822795013E+04  0.00000000000E+00 0. -1.
         21   -1    0    0  504  502  0.00000000000E+00 -0.00000000000E+00 -0.15916872586E+03  0.15916872586E+03  0.00000000000E+00 0. -1.
         21    1    1    2  503  502  0.33243820750E+02 -0.15847952519E+02 -0.35808922729E+02  0.51367189568E+02  0.00000000000E+00 0. -1.
         21    1    1    2  504  501 -0.26676801178E+02  0.10563568178E+03 -0.74070372991E+02  0.13174585057E+03  0.00000000000E+00 0. -1.
         21    1    1    2  505  503  0.39522364250E+02 -0.40240467523E+00  0.23692382069E+02  0.46081538316E+02  0.00000000000E+00 0.  1.
          2    1    1    2  501    0 -0.46089383822E+02 -0.89385324588E+02  0.17092976891E+04  0.17122536487E+04  0.00000000000E+00 0. -1.
<scales pt_clust_3="36.82810" pt_clust_4="100.30575" pt_clust_5="42.78608" pt_clust_6="14000.00000"></scales>
<clustering>
<clus scale="   36.828">  2  3  1 -1</clus>
<clus scale="   42.786">  2  5  1 -1</clus>
<clus scale="  100.306">  2  4  1 -1</clus>
<clus scale="   36.828">  2  3  1 -1</clus>
</clustering>
</event>
<event>
 6    0  0.3695460E+002  0.1056610E+03  0.7546771E-02  0.1268823E+00
          2   -1    0    0  504    0 -0.00000000000E+00  0.00000000000E+00  0.33373136257E+03  0.33373136257E+03  0.00000000000E+00 0.  1.
         21   -1    0    0  503  502  0.00000000000E+00 -0.00000000000E+00 -0.53145835761E+03  0.53145835761E+03  0.00000000000E+00 0. -1.
         21    1    1    2  503  505  0.27116380608E+02  0.52734878069E+02 -0.37494036528E+03  0.37960050445E+03  0.00000000000E+00 0. -1.
         21    1    1    2  504  502 -0.90745131238E+02  0.21026259373E+02 -0.13023629571E+03  0.16011956516E+03  0.00000000000E+00 0.  1.
         21    1    1    2  505  501  0.33175448118E+02 -0.30028511706E+02  0.78106251190E+02  0.90016156039E+02  0.00000000000E+00 0.  1.
          2    1    1    2  501    0  0.30453302512E+02 -0.43732625736E+02  0.22934341476E+03  0.23545349452E+03  0.00000000000E+00 0.  1.
<scales pt_clust_3="59.29811" pt_clust_4="96.16848" pt_clust_5="40.10877" pt_clust_6="40.10877"></scales>
<clustering>
<clus scale="   40.109">  5  6 -1 -1</clus>
<clus scale="   59.298">  2  3  1 -1</clus>
<clus scale="   96.168">  2  4  1 -1</clus>
<clus scale="   59.298">  2  3  1 -1</clus>
</clustering>
</event>
<event>
 6    0  0.3695460E+002  0.6519913E+02  0.7546771E-02  0.1377224E+00
          1   -1    0    0  503    0 -0.00000000000E+00  0.00000000000E+00  0.13994059540E+04  0.13994059540E+04  0.00000000000E+00 0.  1.
         21   -1    0    0  501  502  0.00000000000E+00 -0.00000000000E+00 -0.10795208412E+03  0.10795208412E+03  0.00000000000E+00 0. -1.
         21    1    1    2  503  504 -0.34270889808E+02  0.55001096975E+02  0.10574294195E+03  0.12402090279E+03  0.00000000000E+00 0. -1.
         21    1    1    2  504  505 -0.50747689861E+02 -0.87654049068E+02  0.53137224171E+02  0.11437711719E+03  0.00000000000E+00 0. -1.
         21    1    1    2  505  502  0.19721497397E+02  0.47848194243E+02 -0.57292659371E+02  0.77206450311E+02  0.00000000000E+00 0. -1.
          1    1    1    2  501    0  0.65297082272E+02 -0.15195242150E+02  0.11898663631E+04  0.11917535678E+04  0.00000000000E+00 0.  1.
<scales pt_clust_3="65.19913" pt_clust_4="62.91452" pt_clust_5="51.75314" pt_clust_6="14000.00000"></scales>
<clustering>
<clus scale="   51.753">  2  5  1 -1</clus>
<clus scale="   62.915">  2  4  1 -1</clus>
<clus scale="   65.199">  2  3  1 -1</clus>
<clus scale="   51.753">  2  3  1 -1</clus>
</clustering>
</event>
<event>
 6    0  0.3695460E+002  0.1747428E+03  0.7546771E-02  0.1172990E+00
          1   -1    0    0  504    0 -0.00000000000E+00  0.00000000000E+00  0.10853216509E+04  0.10853216509E+04  0.00000000000E+00 0.  1.
         21   -1    0    0  505  502  0.00000000000E+00 -0.00000000000E+00 -0.42298744415E+03  0.42298744415E+03  0.00000000000E+00 0. -1.
         21    1    1    2  503  502 -0.13321844897E+03 -0.74632373084E+02 -0.33741295948E+03  0.37035746447E+03  0.00000000000E+00 0. -1.
         21    1    1    2  504  503  0.61581398651E+02  0.66053887105E+01  0.35685868980E+03  0.36219335210E+03  0.00000000000E+00 0.  1.
         21    1    1    2  505  501  0.41460011567E+02 -0.79348235471E+02 -0.23533565180E+02  0.92568373225E+02  0.00000000000E+00 0.  1.
          1    1    1    2  501    0  0.30177038754E+02  0.14737521984E+03  0.66642204166E+03  0.68318990529E+03  0.00000000000E+00 0.  1.
<scales pt_clust_3="14000.00000" pt_clust_4="61.93464" pt_clust_5="90.64626" pt_clust_6="174.74280"></scales>
<clustering>
<clus scale="   61.935">  1  4  2 -1</clus>
<clus scale="   90.646">  2  5  1 -1</clus>
<clus scale="  174.743">  1  6  2 -1</clus>
<clus scale="   90.646">  2  3  1 -1</clus>
</clustering>
</event>
<event>
 6    0  0.3695460E+002  0.1196643E+03  0.7546771E-02  0.1243652E+00
          1   -1    0    0  505    0 -0.00000000000E+00  0.00000000000E+00  0.23324296506E+03  0.23324296506E+03  0.00000000000E+00 0. -1.
         21   -1    0    0  503  502  0.00000000000E+00 -0.00000000000E+00 -0.28131872017E+04  0.28131872017E+04  0.00000000000E+00 0.  1.
         21    1    1    2  503  501 -0.16003193863E+02  0.13499232235E+03 -0.21776516752E+04  0.21818904299E+04  0.00000000000E+00 0.  1.
         21    1    1    2  504  502  0.33720132345E+02 -0.16461139111E+02 -0.58884957963E+03  0.59004393384E+03  0.00000000000E+00 0. -1.
         21    1    1    2  505  504  0.17175825326E+02 -0.40238876846E+02 -0.22029258893E+02  0.48984328441E+02  0.00000000000E+00 0. -1.
          1    1    1    2  501    0 -0.34892763808E+02 -0.78292306389E+02  0.20858627709E+03  0.22551147465E+03  0.00000000000E+00 0. -1.
<scales pt_clust_3="119.66435" pt_clust_4="37.52354" pt_clust_5="44.20614" pt_clust_6="14000.00000"></scales>
<clustering>
<clus scale="   37.524">  2  4  1 -1</clus>
<clus scale="   44.206">  1  5  2 -1</clus>
<clus scale="  119.664">  2  3  1 -1</clus>
<clus scale="   37.524">  2  3  1 -1</clus>
</clustering>
</event>
<event>
 6    0  0.3695460E+002  0.1755298E+03  0.7546771E-02  0.1172201E+00
         21   -1    0    0  505  502  0.00000000000E+00  0.00000000000E+00  0.27405816815E+02  0.27405816815E+02  0.00000000000E+00 0. -1.
          1   -1    0    0  502    0 -0.00000000000E+00 -0.00000000000E+00 -0.19081968534E+04  0.19081968534E+04  0.00000000000E+00 0. -1.
         21    1    1    2  503  501  0.20655994583E+02 -0.75088802175E+02 -0.54808854160E+03  0.55359375697E+03  0.00000000000E+00 0. -1.
         21    1    1    2  504  503 -0.34948240097E+02  0.77667246286E+02 -0.19266910878E+03  0.21065366389E+03  0.00000000000E+00 0. -1.
         21    1    1    2  505  504 -0.46450131014E+02  0.68466423572E+02 -0.11286164915E+03  0.13993933570E+03  0.00000000000E+00 0. -1.
          1    1    1    2  501    0  0.60742376527E+02 -0.71044867683E+02 -0.10271717370E+04  0.10314159136E+04  0.00000000000E+00 0. -1.
<scales pt_clust_3="48.55764" pt_clust_4="171.94885" pt_clust_5="39.24776" pt_clust_6="48.55764"></scales>
<clustering>
<clus scale="   39.248">  4  5 -1 -1</clus>
<clus scale="   48.558">  3  6 -1 -1</clus>
<clus scale="  171.949">  1  4  2 -1</clus>
<clus scale="  171.949">  1  3  2 -1</clus>
</clustering>
</event>
<event>
 6    0  0.3695460E+002  0.8829622E+02  0.7546771E-02  0.1307031E+00
         21   -1    0    0  505  502  0.00000000000E+00  0.00000000000E+00  0.94257961812E+03  0.94257961812E+03  0.00000000000E+00 0. -1.
         -2   -1    0    0    0  501 -0.00000000000E+00 -0.00000000000E+00 -0.39351560840E+03  0.39351560840E+03  0.00000000000E+00 0.  1.
         21    1    1    2  503  501  0.14469866449E+03  0.86903729405E+02  0.12903289123E+02  0.16928218028E+03  0.00000000000E+00 0. -1.
         21    1    1    2  504  503 -0.32285136455E+02 -0.63841902921E+02  0.63936952053E+03  0.64335954363E+03  0.00000000000E+00 0. -1.
         21    1    1    2  505  504 -0.41271635200E+02  0.20379898933E+02  0.20194253674E+03  0.20712188754E+03  0.00000000000E+00 0.  1.
         -2    1    1    2    0  502 -0.71141892832E+02 -0.43441725417E+02 -0.30515133667E+03  0.31633161507E+03  0.00000000000E+00 0.  1.
<scales pt_clust_3="14000.00000" pt_clust_4="82.29578" pt_clust_5="46.02921" pt_clust_6="88.29622"></scales>
<clustering>
<clus scale="   46.029">  1  5  2 -1</clus>
<clus scale="   82.296">  1  4  2 -1</clus>
<clus scale="   88.296">  2  6  1 -1</clus>
<clus scale="   46.029">  1  3  2 -1</clus>
</clustering>
</event>
<event>
 6    0  0.3695460E+002  0.9456487E+02  0.7546771E-02  0.1292159E+00
         21   -1    0    0  504  502  0.00000000000E+00  0.00000000000E+00  0.23334296911E+02  0.23334296911E+02  0.00000000000E+00 0.  1.
          2   -1    0    0  503    0 -0.00000000000E+00 -0.00000000000E+00 -0.34156071155E+04  0.34156071155E+04  0.00000000000E+00 0. -1.
         21    1    1    2  503  505  0.54984042085E+02  0.20373116162E+02 -0.83036061959E+03  0.83242841573E+03  0.00000000000E+00 0.  1.
         21    1    1    2  504  501 -0.89295095678E+02 -0.10428678120E+03 -0.28285838321E+03  0.31441725748E+03  0.00000000000E+00 0.  1.
         21    1    1    2  505  502 -0.49003414154E+01  0.56298066106E+02 -0.12139335284E+03  0.13390232151E+03  0.00000000000E+00 0.  1.
          2    1    1    2  501    0  0.39211395009E+02  0.27615598937E+02 -0.21576604630E+04  0.21581934177E+04  0.00000000000E+00 0. -1.
<scales pt_clust_3="14000.00000" pt_clust_4="94.56487" pt_clust_5="59.10807" pt_clust_6="47.95993"></scales>
<clustering>
<clus scale="   47.960">  2  6  1 -1</clus>
<clus scale="   59.108">  1  5  2 -1</clus>
<clus scale="   94.565">  1  4  2 -1</clus>
<clus scale="   59.108">  1  3  2 -1</clus>
</clustering>
</event>
<event>
 6    0  0.3695460E+002  0.1506902E+03  0.7546771E-02  0.1199628E+00
         21   -1    0    0  504  502  0.00000000000E+00  0.00000000000E+00  0.65872165719E+03  0.65872165719E+03  0.00000000000E+00 0. -1.
          1   -1    0    0  503    0 -0.00000000000E+00 -0.00000000000E+00 -0.81261109091E+02  0.81261109091E+02  0.00000000000E+00 0.  1.
         21    1    1    2  503  502  0.58866669709E+02 -0.97117345847E+02  0.42822854362E+03  0.44303131857E+03  0.00000000000E+00 0. -1.
         21    1    1    2  504  505 -0.21439971199E+02 -0.50862651923E+02  0.12564514915E+03  0.13723478142E+03  0.00000000000E+00 0.  1.
         21    1    1    2  505  501 -0.54313932292E+01  0.59317884272E+02  0.26992727495E+02  0.65396626554E+02  0.00000000000E+00 0. -1.
          1    1    1    2  501    0 -0.31995305280E+02  0.88662113498E+02 -0.34058721702E+01  0.94320039732E+02  0.00000000000E+00 0.  1.
<scales pt_clust_3="145.09750" pt_clust_4="55.19675" pt_clust_5="32.33239" pt_clust_6="32.33239"></scales>
<clustering>
<clus scale="   32.332">  5  6 -1 -1</clus>
<clus scale="   55.197">  1  4  2 -1</clus>
<clus scale="  145.098">  1  3  2 -1</clus>
<clus scale="   55.197">  1  3  2 -1</clus>
</clustering>
</event>
<event>
 6    0  0.3695460E+002  0.8598713E+02  0.7546771E-02  0.1312871E+00
         21   -1    0    0  505  502  0.00000000000E+00  0.00000000000E+00  0.37434621383E+02  0.37434621383E+02  0.00000000000E+00 0.  1.
          2   -1    0    0  503    0 -0.00000000000E+00 -0.00000000000E+00 -0.25625020634E+04  0.25625020634E+04  0.00000000000E+00 0.  1.
         21    1    1    2  503  504  0.75554102004E+02  0.21212453582E+02 -0.72319262708E+03  0.72743794676E+03  0.00000000000E+00 0.  1.
         21    1    1    2  504  502 -0.36250656612E+02 -0.52877337136E+01 -0.22885325405E+02  0.43195003779E+02  0.00000000000E+00 0.  1.
         21    1    1    2  505  501  0.20876814578E+02  0.60334598528E+02 -0.18966837549E+02  0.66602147811E+02  0.00000000000E+00 0.  1.
          2    1    1    2  501    0 -0.60180259970E+02 -0.76259318397E+02 -0.17600226519E+04  0.17627015864E+04  0.00000000000E+00 0.  1.
<scales pt_clust_3="85.98713" pt_clust_4="36.63428" pt_clust_5="56.74990" pt_clust_6="14000.00000"></scales>
<clustering>
<clus scale="   36.634">  1  4  2 -1</clus>
<clus scale="   56.750">  1  5  2 -1</clus>
<clus scale="   85.987">  1  3  2 -1</clus>
<clus scale="   36.634">  1  3  2 -1</clus>
</clustering>
</event>
<event>
 6    0  0.3695460E+002  0.1541102E+03  0.7546771E-02  0.1195511E+00
         21   -1    0    0  504  502  0.00000000000E+00  0.00000000000E+00  0.54230991971E+02  0.54230991971E+02  0.00000000000E+00 0. -1.
         -4   -1    0    0    0  501 -0.00000000000E+00 -0.00000000000E+00 -0.74633382521E+03  0.74633382521E+03  0.00000000000E+00 0.  1.
         21    1    1    2  503  501 -0.50778246025E+02  0.23992350022E+02 -0.54860635215E+02  0.78509569004E+02  0.00000000000E+00 0. -1.
         21    1    1    2  504  503 -0.35350876676E+02  0.85641582674E+02 -0.29808312664E+02  0.97327800081E+02  0.00000000000E+00 0. -1.
         21    1    1    2  505  502  0.45202915227E+02 -0.30127101249E+02 -0.17901374517E+03  0.18707449514E+03  0.00000000000E+00 0. -1.
         -4    1    1    2    0  505  0.40926207475E+02 -0.79506831447E+02 -0.42842014019E+03  0.43765295295E+03  0.00000000000E+00 0.  1.
<scales pt_clust_3="51.12564" pt_clust_4="51.12564" pt_clust_5="33.71030" pt_clust_6="145.97417"></scales>
<clustering>
<clus scale="   33.710">  5  6 -1 -1</clus>
<clus scale="   51.126">  3  4 -1 -1</clus>
<clus scale="  145.974">  2  5  1 -1</clus>
<clus scale="  154.110">  1  3  2 -1</clus>
</clustering>
</event>
<event>
 6    0  0.3695460E+002  0.1875124E+03  0.7546771E-02  0.1160724E+00
          2   -1    0    0  504    0 -0.00000000000E+00  0.00000000000E+00  0.60574363250E+03  0.60574363250E+03  0.00000000000E+00 0. -1.
         21   -1    0    0  501  502  0.00000000000E+00 -0.00000000000E+00 -0.37148450975E+03  0.37148450975E+03  0.00000000000E+00 0. -1.
         21    1    1    2  503  505  0.19292817649E+02 -0.53900978824E+02  0.40578445821E+02  0.70172206722E+02  0.00000000000E+00 0.  1.
         21    1    1    2  504  503 -0.41596463513E+02  0.73340186676E+01  0.14924033691E+02  0.44797102453E+02  0.00000000000E+00 0. -1.
         21    1    1    2  505  502  0.18820726616E+03 -0.10866207041E+02 -0.29888551615E+03  0.35337317563E+03  0.00000000000E+00 0. -1.
          2    1    1    2  501    0 -0.16590362029E+03  0.57433167198E+02  0.47764215940E+03  0.50888565744E+03  0.00000000000E+00 0. -1.
<scales pt_clust_3="55.35039" pt_clust_4="42.23806" pt_clust_5="187.51240" pt_clust_6="14000.00000"></scales>
<clustering>
<clus scale="   42.238">  1  4  2 -1</clus>
<clus scale="   55.350">  1  3  2 -1</clus>
<clus scale="  187.512">  2  5  1 -1</clus>
<clus scale="  187.512">  2  3  1 -1</clus>
</clustering>
</event>
<event>
 6    0  0.3695460E+002  0.2153927E+03  0.7546771E-02  0.1137365E+00
         21   -1    0    0  501  502  0.00000000000E+00  0.00000000000E+00  0.15407738390E+04  0.15407738390E+04  0.00000000000E+00 0.  1.
          1   -1    0    0  504    0 -0.00000000000E+00 -0.00000000000E+00 -0.56121277938E+03  0.56121277938E+03  0.00000000000E+00 0.  1.
         21    1    1    2  503  502  0.16446989520E+03 -0.24189264616E+02  0.12669696806E+04  0.12778292681E+04  0.00000000000E+00 0.  1.
         21    1    1    2  504  505 -0.66633239793E+02  0.10591077408E+02 -0.48554759299E+02  0.83124750926E+02  0.00000000000E+00 0.  1.
         21    1    1    2  505  503  0.39892232250E+02  0.25119736509E+02  0.23899374685E+03  0.24359885548E+03  0.00000000000E+00 0. -1.
          1    1    1    2  501    0 -0.13772888766E+03 -0.11521549301E+02 -0.47784760850E+03  0.49743374387E+03  0.00000000000E+00 0.  1.
<scales pt_clust_3="37.85391" pt_clust_4="67.46969" pt_clust_5="37.85391" pt_clust_6="203.32499"></scales>
<clustering>
<clus scale="   37.854">  3  5 -1 -1</clus>
<clus scale="   67.470">  2  4  1 -1</clus>
<clus scale="  203.325">  2  6  1 -1</clus>
<clus scale="  215.393">  1  3  2 -1</clus>
</clustering>
</event>
<event>
 6    0  0.3695460E+002  0.8468976E+02  0.7546771E-02  0.1316246E+00
         21   -1    0    0  503  502  0.00000000000E+00  0.00000000000E+00  0.14659398244E+03  0.14659398244E+03  0.00000000000E+00 0. -1.
          2   -1    0    0  504    0 -0.00000000000E+00 -0.00000000000E+00 -0.18820740831E+03  0.18820740831E+03  0.00000000000E+00 0. -1.
         21    1    1    2  503  505 -0.21274001396E+02 -0.29641076115E+02  0.45688681869E+02  0.58469070281E+02  0.00000000000E+00 0. -1.
         21    1    1    2  504  502  0.65754421217E+02  0.22233997806E+02 -0.14018113433E+02  0.70813149007E+02  0.00000000000E+00 0. -1.
         21    1    1    2  505  501  0.29170157111E+02 -0.53746361577E+02  0.27028277485E+02  0.66858785753E+02  0.00000000000E+00 0. -1.
          2    1    1    2  501    0 -0.73650576932E+02  0.61153439885E+02 -0.10031227179E+03  0.13866038571E+03  0.00000000000E+00 0. -1.
<scales pt_clust_3="36.48529" pt_clust_4="60.84039" pt_clust_5="84.68976" pt_clust_6="14000.00000"></scales>
<clustering>
<clus scale="   36.485">  1  3  2 -1</clus>
<clus scale="   60.840">  1  4  2 -1</clus>
<clus scale="   84.690">  1  5  2 -1</clus>
<clus scale="   36.485">  1  3  2 -1</clus>
</clustering>
</event>
<event>
 6    0  0.3695460E+002  0.2040286E+03  0.7546771E-02  0.1146384E+00
         -3   -1    0    0    0  501 -0.00000000000E+00  0.00000000000E+00  0.11488395912E+04  0.11488395912E+04  0.00000000000E+00 0.  1.
         21   -1    0    0  503  502  0.00000000000E+00 -0.00000000000E+00 -0.21574804842E+03  0.21574804842E+03  0.00000000000E+00 0.  1.
         21    1    1    2  503  501  0.12411724294E+03  0.11996054274E+03 -0.15851946393E+03  0.23435878959E+03  0.00000000000E+00 0.  1.
         21    1    1    2  504  502  0.31324650469E+02  0.50247269489E+01  0.16626346747E+02  0.35817830952E+02  0.00000000000E+00 0. -1.
         21    1    1    2  505  504 -0.41811259466E+02 -0.62663479910E+02  0.36451417368E+03  0.37221697428E+03  0.00000000000E+00 0.  1.
         -3    1    1    2    0  505 -0.11363063395E+03 -0.62321789784E+02  0.71047048633E+03  0.72219404484E+03  0.00000000000E+00 0.  1.
<scales pt_clust_3="198.16084" pt_clust_4="31.72509" pt_clust_5="37.06019" pt_clust_6="37.06019"></scales>
<clustering>
<clus scale="   31.725">  2  4  1 -1</clus>
<clus scale="   37.060">  5  6 -1 -1</clus>
<clus scale="  198.161">  2  3  1 -1</clus>
<clus scale="   31.725">  2  3  1 -1</clus>
</clustering>
</event>
<event>
 6    0  0.3695460E+002  0.1459233E+03  0.7546771E-02  0.1205574E+00
         21   -1    0    0  504  502  0.00000000000E+00  0.00000000000E+00  0.12800523483E+03  0.12800523483E+03  0.00000000000E+00 0.  1.
          2   -1    0    0  505    0 -0.00000000000E+00 -0.00000000000E+00 -0.11641072035E+04  0.11641072035E+04  0.00000000000E+00 0.  1.
         21    1    1    2  503  501 -0.85935461146E+02  0.70525327646E+02 -0.81085946064E+02  0.13759962199E+03  0.00000000000E+00 0. -1.
         21    1    1    2  504  503  0.10087859862E+03 -0.14195648896E+03  0.93420615420E+01  0.17440014488E+03  0.00000000000E+00 0.  1.
         21    1    1    2  505  502  0.10732450330E+01 -0.46094792518E+02 -0.44500014856E+03  0.44738240239E+03  0.00000000000E+00 0.  1.
          2    1    1    2  501    0 -0.16016382510E+02  0.11752595384E+03 -0.51935793562E+03  0.53273026911E+03  0.00000000000E+00 0.  1.
<scales pt_clust_3="145.92328" pt_clust_4="14000.00000" pt_clust_5="46.10729" pt_clust_6="85.12408"></scales>
<clustering>
<clus scale="   46.107">  2  5  1 -1</clus>
<clus scale="   85.124">  2  6  1 -1</clus>
<clus scale="  145.923">  2  3  1 -1</clus>
<clus scale="  145.923">  1  3  2 -1</clus>
</clustering>
</event>
<event>
 6    0  0.3695460E+002  0.2942108E+03  0.7546771E-02  0.1088171E+00
         21   -1    0    0  505  502  0.00000000000E+00  0.00000000000E+00  0.33621383975E+03  0.33621383975E+03  0.00000000000E+00 0. -1.
          1   -1    0    0  502    0 -0.00000000000E+00 -0.00000000000E+00 -0.12789604294E+04  0.12789604294E+04  0.00000000000E+00 0.  1.
         21    1    1    2  503  504 -0.41556412460E+02 -0.69160574044E+02  0.10200353856E+03  0.13005707323E+03  0.00000000000E+00 0. -1.
         21    1    1    2  504  501  0.80569870178E+02  0.69223051779E+02 -0.49397787464E+03  0.50526970571E+03  0.00000000000E+00 0.  1.
         21    1    1    2  505  503 -0.12788817723E+03 -0.16403477566E+03  0.14886291395E+03  0.25577912474E+03  0.00000000000E+00 0. -1.
          1    1    1    2  501    0  0.88874719513E+02  0.16397229793E+03 -0.69963516750E+03  0.72406836546E+03  0.00000000000E+00 0.  1.
<scales pt_clust_3="33.21525" pt_clust_4="44.44549" pt_clust_5="293.14774" pt_clust_6="44.44549"></scales>
<clustering>
<clus scale="   33.215">  3  5 -1 -1</clus>
<clus scale="   44.445">  4  6 -1 -1</clus>
<clus scale="  293.148">  1  3  2 -1</clus>
<clus scale="  293.148">  1  3  2 -1</clus>
</clustering>
</event>
<event>
 6    0  0.3695460E+002  0.1131893E+03  0.7546771E-02  0.1254775E+00
         21   -1    0    0  504  502  0.00000000000E+00  0.00000000000E+00  0.21368164599E+03  0.21368164599E+03  0.00000000000E+00 0.  1.
         -3   -1    0    0    0  501 -0.00000000000E+00 -0.00000000000E+00 -0.42034376115E+03  0.42034376115E+03  0.00000000000E+00 0. -1.
         21    1    1    2  503  501 -0.54923808257E+02  0.50496042193E+02 -0.12492992611E+03  0.14551275349E+03  0.00000000000E+00 0. -1.
         21    1    1    2  504  503  0.12264715898E+03  0.30622885470E+02  0.16277770463E+03  0.20609868473E+03  0.00000000000E+00 0.  1.
         21    1    1    2  505  502 -0.54767513216E+02 -0.48479155099E+02 -0.60031455923E+02  0.94622854973E+02  0.00000000000E+00 0. -1.
         -3    1    1    2    0  505 -0.12955837508E+02 -0.32639772563E+02 -0.18447843776E+03  0.18779111395E+03  0.00000000000E+00 0. -1.
<scales pt_clust_3="69.97182" pt_clust_4="113.18932" pt_clust_5="14000.00000" pt_clust_6="35.11707"></scales>
<clustering>
<clus scale="   35.117">  2  6  1 -1</clus>
<clus scale="   69.972">  2  3  1 -1</clus>
<clus scale="  113.189">  1  4  2 -1</clus>
<clus scale="  113.189">  1  3  2 -1</clus>
</clustering>
</event>
<event>
 6    0  0.3695460E+002  0.6989733E+02  0.7546771E-02  0.1360443E+00
          2   -1    0    0  503    0 -0.00000000000E+00  0.00000000000E+00  0.39124778469E+03  0.39124778469E+03  0.00000000000E+00 0. -1.
         21   -1    0    0  504  502  0.00000000000E+00 -0.00000000000E+00 -0.97792383571E+02  0.97792383571E+02  0.00000000000E+00 0.  1.
         21    1    1    2  503  505 -0.34601817014E+02 -0.45145212586E+02  0.21688814975E+03  0.22422275857E+03  0.00000000000E+00 0.  1.
         21    1    1    2  504  501 -0.66178822878E+02  0.51762892411E+02 -0.17299366166E+02  0.85780543820E+02  0.00000000000E+00 0.  1.
         21    1    1    2  505  502  0.57535440769E+02  0.32320970526E+02 -0.29714687203E+01  0.66059077397E+02  0.00000000000E+00 0.  1.
          2    1    1    2  501    0  0.43245199123E+02 -0.38938650351E+02  0.96838086257E+02  0.11297778847E+03  0.00000000000E+00 0. -1.
<scales pt_clust_3="56.88037" pt_clust_4="69.89733" pt_clust_5="56.48327" pt_clust_6="14000.00000"></scales>
<clustering>
<clus scale="   56.880">  1  3  2 -1</clus>
<clus scale="   56.483">  2  5  1 -1</clus>
<clus scale="   69.897">  2  4  1 -1</clus>
<clus scale="   56.483">  2  3  1 -1</clus>
</clustering>
</event>
<event>
 6    0  0.3717728E+002  0.1893900E+03  0.7546771E-02  0.1159013E+00
          2   -1    0    0  503    0 -0.00000000000E+00  0.00000000000E+00  0.99227890671E+03  0.99227890671E+03  0.00000000000E+00 0. -1.
         21   -1    0    0  504  502  0.00000000000E+00 -0.00000000000E+00 -0.28467682709E+03  0.28467682709E+03  0.00000000000E+00 0.  1.
         21    1    1    2  503  502 -0.31154338944E+02  0.31139310917E+02  0.10993973708E+03  0.11843561673E+03  0.00000000000E+00 0.  1.
         21    1    1    2  504  505  0.76301104800E+02 -0.12639960817E+03 -0.17088822990E+03  0.22583513158E+03  0.00000000000E+00 0.  1.
         21    1    1    2  505  501 -0.14881912315E+02 -0.38758791823E+02 -0.70847792515E+02  0.82116532818E+02  0.00000000000E+00 0.  1.
          2    1    1    2  501    0 -0.30264853542E+02  0.13401908907E+03  0.83939836495E+03  0.85056845267E+03  0.00000000000E+00 0. -1.
<scales pt_clust_3="44.04826" pt_clust_4="38.78081" pt_clust_5="38.78081" pt_clust_6="174.70049"></scales>
<clustering>
<clus scale="   38.781">  4  5 -1 -1</clus>
<clus scale="   44.048">  1  3  2 -1</clus>
<clus scale="  174.700">  1  6  2 -1</clus>
<clus scale="  189.390">  2  3  1 -1</clus>
</clustering>
</event>
<event>
 6    0  0.3695460E+002  0.1328972E+03  0.7546771E-02  0.1223219E+00
          2   -1    0    0  505    0 -0.00000000000E+00  0.00000000000E+00  0.19942347780E+03  0.19942347780E+03  0.00000000000E+00 0.  1.
         21   -1    0    0  503  502  0.00000000000E+00 -0.00000000000E+00 -0.37650219176E+03  0.37650219176E+03  0.00000000000E+00 0.  1.
         21    1    1    2  503  501  0.68970179705E+02 -0.10614962268E+03 -0.22590368420E+03  0.25895386194E+03  0.00000000000E+00 0.  1.
         21    1    1    2  504  502  0.46138022170E+02 -0.41526863186E+02 -0.18039007243E+02  0.64642116597E+02  0.00000000000E+00 0.  1.
         21    1    1    2  505  504 -0.34410391726E+02  0.86886950305E+01  0.83524685140E+02  0.90752088173E+02  0.00000000000E+00 0. -1.
          2    1    1    2  501    0 -0.80697810149E+02  0.13898779083E+03 -0.16660707661E+02  0.16157760285E+03  0.00000000000E+00 0.  1.
<scales pt_clust_3="14000.00000" pt_clust_4="55.66646" pt_clust_5="35.49040" pt_clust_6="132.89719"></scales>
<clustering>
<clus scale="   35.490">  1  5  2 -1</clus>
<clus scale="   55.666">  1  4  2 -1</clus>
<clus scale="  132.897">  1  6  2 -1</clus>
<clus scale="  132.897">  2  3  1 -1</clus>
</clustering>
</event>
<event>
 6    0  0.3695460E+002  0.2176687E+03  0.7546771E-02  0.1135633E+00
          1   -1    0    0  504    0 -0.00000000000E+00  0.00000000000E+00  0.18943917268E+04  0.18943917268E+04  0.00000000000E+00 0.  1.
         21   -1    0    0  503  502  0.00000000000E+00 -0.00000000000E+00 -0.17941185933E+04  0.17941185933E+04  0.00000000000E+00 0. -1.
         21    1    1    2  503  501  0.99627776906E+02 -0.13289147909E+03 -0.15124966533E+04  0.15215886321E+04  0.00000000000E+00 0. -1.
         21    1    1    2  504  505 -0.84968402258E+01 -0.32758389299E+02  0.20654086246E+03  0.20929509365E+03  0.00000000000E+00 0.  1.
         21    1    1    2  505  502 -0.11931073613E+02 -0.66523696363E+02 -0.26245010483E+03  0.27101256469E+03  0.00000000000E+00 0. -1.
          1    1    1    2  501    0 -0.79199863067E+02  0.23217356475E+03  0.16686790292E+04  0.16866140297E+04  0.00000000000E+00 0.  1.
<scales pt_clust_3="14000.00000" pt_clust_4="33.84240" pt_clust_5="67.67081" pt_clust_6="217.66869"></scales>
<clustering>
<clus scale="   33.842">  1  4  2 -1</clus>
<clus scale="   67.671">  2  5  1 -1</clus>
<clus scale="  217.669">  1  6  2 -1</clus>
<clus scale="   67.671">  2  3  1 -1</clus>
</clustering>
</event>
<event>
 6    0  0.3695460E+002  0.1289986E+03  0.7546771E-02  0.1228949E+00
          2   -1    0    0  503    0 -0.00000000000E+00  0.00000000000E+00  0.19826370446E+04  0.19826370446E+04  0.00000000000E+00 0.  1.
         21   -1    0    0  501  502  0.00000000000E+00 -0.00000000000E+00 -0.10909383368E+03  0.10909383368E+03  0.00000000000E+00 0. -1.
         21    1    1    2  503  504 -0.57460677724E+02 -0.34574015917E+02  0.63028310242E+03  0.63384058032E+03  0.00000000000E+00 0.  1.
         21    1    1    2  504  505  0.62926984305E+01  0.52653567286E+02 -0.54260218579E+01  0.53305139665E+02  0.00000000000E+00 0. -1.
         21    1    1    2  505  502  0.45789829211E+02  0.53490357687E+02 -0.60862768497E+02  0.93070959025E+02  0.00000000000E+00 0. -1.
          2    1    1    2  501    0  0.53781500833E+01 -0.71569909057E+02  0.13095488988E+04  0.13115141992E+04  0.00000000000E+00 0.  1.
<scales pt_clust_3="67.06036" pt_clust_4="47.94752" pt_clust_5="47.94752" pt_clust_6="116.56757"></scales>
<clustering>
<clus scale="   47.948">  4  5 -1 -1</clus>
<clus scale="   67.060">  1  3  2 -1</clus>
<clus scale="  116.568">  1  6  2 -1</clus>
<clus scale="  128.999">  2  3  1 -1</clus>
</clustering>
</event>
<event>
 6    0  0.3695460E+002  0.1744892E+03  0.7546771E-02  0.1173246E+00
          2   -1    0    0  505    0 -0.00000000000E+00  0.00000000000E+00  0.44461808350E+03  0.44461808350E+03  0.00000000000E+00 0.  1.
         21   -1    0    0  504  502  0.00000000000E+00 -0.00000000000E+00 -0.34022087976E+03  0.34022087976E+03  0.00000000000E+00 0.  1.
         21    1    1    2  503  501  0.85899435873E+02  0.15702125209E+02 -0.11943343520E+03  0.14795139493E+03  0.00000000000E+00 0.  1.
         21    1    1    2  504  503  0.56452620167E+02 -0.60829192658E+02 -0.15923229074E+03  0.17956060653E+03  0.00000000000E+00 0.  1.
         21    1    1    2  505  502  0.49922461880E+02  0.15282869995E+02  0.54507419782E+02  0.75477659786E+02  0.00000000000E+00 0. -1.
          2    1    1    2  501    0 -0.19227451792E+03  0.29844197453E+02  0.32855550990E+03  0.38184930201E+03  0.00000000000E+00 0.  1.
<scales pt_clust_3="82.73611" pt_clust_4="82.73611" pt_clust_5="52.20937" pt_clust_6="152.11016"></scales>
<clustering>
<clus scale="   52.209">  1  5  2 -1</clus>
<clus scale="   82.736">  3  4 -1 -1</clus>
<clus scale="  152.110">  1  6  2 -1</clus>
<clus scale="  174.489">  2  3  1 -1</clus>
</clustering>
</event>
<event>
 6    0  0.3695460E+002  0.1876535E+03  0.7546771E-02  0.1160595E+00
         21   -1    0    0  505  502  0.00000000000E+00  0.00000000000E+00  0.24942521407E+03  0.24942521407E+03  0.00000000000E+00 0. -1.
          2   -1    0    0  504    0 -0.00000000000E+00 -0.00000000000E+00 -0.26783614790E+04  0.26783614790E+04  0.00000000000E+00 0. -1.
         21    1    1    2  503  502  0.94414239064E+02 -0.54106830721E+02  0.20339883761E+02  0.11070369705E+03  0.00000000000E+00 0. -1.
         21    1    1    2  504  503 -0.27705472332E+02 -0.18569006962E+03 -0.19971765882E+04  0.20059817346E+04  0.00000000000E+00 0. -1.
         21    1    1    2  505  501 -0.52166373142E+01  0.45795927265E+02  0.15976394721E+03  0.16627988179E+03  0.00000000000E+00 0. -1.
          2    1    1    2  501    0 -0.61492129418E+02  0.19400097308E+03 -0.61186350767E+03  0.64482137957E+03  0.00000000000E+00 0. -1.
<scales pt_clust_3="92.51076" pt_clust_4="14000.00000" pt_clust_5="46.09208" pt_clust_6="187.65345"></scales>
<clustering>
<clus scale="   46.092">  1  5  2 -1</clus>
<clus scale="   92.511">  1  3  2 -1</clus>
<clus scale="  187.653">  1  6  2 -1</clus>
<clus scale="   46.092">  1  3  2 -1</clus>
</clustering>
</event>
<event>
 6    0  0.3695460E+002  0.1121848E+03  0.7546771E-02  0.1256577E+00
         21   -1    0    0  503  502  0.00000000000E+00  0.00000000000E+00  0.23769339561E+04  0.23769339561E+04  0.00000000000E+00 0. -1.
          1   -1    0    0  505    0 -0.00000000000E+00 -0.00000000000E+00 -0.61418978570E+03  0.61418978570E+03  0.00000000000E+00 0. -1.
         21    1    1    2  503  501  0.74115050289E+02  0.14664654984E+03  0.21353175115E+04  0.21416300162E+04  0.00000000000E+00 0. -1.
         21    1    1    2  504  502  0.11005884882E+02 -0.66365540316E+02  0.21334892425E+03  0.22370354919E+03  0.00000000000E+00 0. -1.
         21    1    1    2  505  504 -0.36545440299E+02 -0.33390460012E+02 -0.54415063264E+03  0.54639766016E+03  0.00000000000E+00 0. -1.
          1    1    1    2  501    0 -0.48575494873E+02 -0.46890549510E+02 -0.41771632734E+02  0.79392516252E+02  0.00000000000E+00 0. -1.
<scales pt_clust_3="112.18480" pt_clust_4="69.36760" pt_clust_5="49.50244" pt_clust_6="14000.00000"></scales>
<clustering>
<clus scale="   49.502">  2  5  1 -1</clus>
<clus scale="   69.368">  1  4  2 -1</clus>
<clus scale="  112.185">  1  3  2 -1</clus>
<clus scale="   69.368">  1  3  2 -1</clus>
</clustering>
</event>
<event>
 6    0  0.3695460E+002  0.6559140E+02  0.7546771E-02  0.1375761E+00
          2   -1    0    0  504    0 -0.00000000000E+00  0.00000000000E+00  0.79019059006E+03  0.79019059006E+03  0.00000000000E+00 0.  1.
         21   -1    0    0  503  502  0.00000000000E+00 -0.00000000000E+00 -0.12710210454E+03  0.12710210454E+03  0.00000000000E+00 0.  1.
         21    1    1    2  503  505  0.73754399457E+01 -0.48788852951E+02  0.17089344169E+02  0.52218722417E+02  0.00000000000E+00 0.  1.
         21    1    1    2  504  502  0.30254934219E+02  0.13586915501E+02  0.51613331341E+02  0.61350642129E+02  0.00000000000E+00 0. -1.
         21    1    1    2  505  501  0.54932645110E+02  0.59851663507E+02 -0.85022742511E+02  0.11759542452E+03  0.00000000000E+00 0.  1.
          2    1    1    2  501    0 -0.92563019275E+02 -0.24649726057E+02  0.67940855251E+03  0.68612790554E+03  0.00000000000E+00 0.  1.
<scales pt_clust_3="48.94552" pt_clust_4="33.16573" pt_clust_5="65.59140" pt_clust_6="14000.00000"></scales>
<clustering>
<clus scale="   33.166">  1  4  2 -1</clus>
<clus scale="   48.946">  2  3  1 -1</clus>
<clus scale="   65.591">  2  5  1 -1</clus>
<clus scale="   48.946">  2  3  1 -1</clus>
</clustering>
</event>
<event>
 6    0  0.3695460E+002  0.1102654E+03  0.7546771E-02  0.1260079E+00
         21   -1    0    0  505  502  0.00000000000E+00  0.00000000000E+00  0.13592434882E+03  0.13592434882E+03  0.00000000000E+00 0.  1.
          3   -1    0    0  503    0 -0.00000000000E+00 -0.00000000000E+00 -0.13507452928E+04  0.13507452928E+04  0.00000000000E+00 0.  1.
         21    1    1    2  503  504  0.53143737966E+02 -0.35187204885E+01 -0.78226869114E+02  0.94636575013E+02  0.00000000000E+00 0.  1.
         21    1    1    2  504  502  0.24821561699E+02 -0.54975307559E+02  0.79075722498E+02  0.99455337992E+02  0.00000000000E+00 0.  1.
         21    1    1    2  505  501  0.45014890347E+02 -0.37100787047E+02  0.81366968484E+01  0.58898341132E+02  0.00000000000E+00 0.  1.
          3    1    1    2  501    0 -0.12298019001E+03  0.95594815095E+02 -0.12238064942E+04  0.12336793874E+04  0.00000000000E+00 0.  1.
<scales pt_clust_3="53.26010" pt_clust_4="14000.00000" pt_clust_5="59.20508" pt_clust_6="110.26541"></scales>
<clustering>
<clus scale="   53.260">  2  3  1 -1</clus>
<clus scale="   59.205">  1  5  2 -1</clus>
<clus scale="  110.265">  2  6  1 -1</clus>
<clus scale="   59.205">  1  3  2 -1</clus>
</clustering>
</event>
<event>
 6    0  0.3695460E+002  0.1214541E+03  0.7546771E-02  0.1240717E+00
         21   -1    0    0  505  502  0.00000000000E+00  0.00000000000E+00  0.10240996407E+04  0.10240996407E+04  0.00000000000E+00 0. -1.
          2   -1    0    0  503    0 -0.00000000000E+00 -0.00000000000E+00 -0.56347034702E+02  0.56347034702E+02  0.00000000000E+00 0. -1.
         21    1    1    2  503  504  0.10668610119E+03 -0.11979330257E+03  0.25391285948E+03  0.30033997359E+03  0.00000000000E+00 0. -1.
         21    1    1    2  504  502  0.59673977006E+02  0.12351145661E+02  0.31628191036E+03  0.32209902383E+03  0.00000000000E+00 0. -1.
         21    1    1    2  505  501 -0.11755636707E+03  0.17955116677E+02  0.26768649794E+03  0.29291286560E+03  0.00000000000E+00 0. -1.
          2    1    1    2  501    0 -0.48803711118E+02  0.89487040228E+02  0.12987133825E+03  0.16509481242E+03  0.00000000000E+00 0. -1.
<scales pt_clust_3="121.45407" pt_clust_4="60.93878" pt_clust_5="96.57380" pt_clust_6="14000.00000"></scales>
<clustering>
<clus scale="   60.939">  1  4  2 -1</clus>
<clus scale="   96.574">  1  5  2 -1</clus>
<clus scale="  121.454">  1  3  2 -1</clus>
<clus scale="   60.939">  1  3  2 -1</clus>
</clustering>
</event>
<event>
 6    0  0.3695460E+002  0.7971304E+02  0.7546771E-02  0.1329868E+00
         21   -1    0    0  505  502  0.00000000000E+00  0.00000000000E+00  0.19515126686E+02  0.19515126686E+02  0.00000000000E+00 0. -1.
         -4   -1    0    0    0  501 -0.00000000000E+00 -0.00000000000E+00 -0.23175529816E+04  0.23175529816E+04  0.00000000000E+00 0.  1.
         21    1    1    2  503  502 -0.55671807170E+02 -0.15288582240E+02 -0.12869111684E+03  0.14104784441E+03  0.00000000000E+00 0. -1.
         21    1    1    2  504  501 -0.31337638592E+02  0.32798227938E+02 -0.79618719532E+03  0.79747841434E+03  0.00000000000E+00 0. -1.
         21    1    1    2  505  504  0.59124985287E+02 -0.73145285500E+02 -0.17420403529E+03  0.19797232784E+03  0.00000000000E+00 0. -1.
         -4    1    1    2    0  503  0.27884460475E+02  0.55635639801E+02 -0.11989555074E+04  0.12005695217E+04  0.00000000000E+00 0.  1.
<scales pt_clust_3="59.74770" pt_clust_4="45.36266" pt_clust_5="79.71304" pt_clust_6="14000.00000"></scales>
<clustering>
<clus scale="   45.363">  2  4  1 -1</clus>
<clus scale="   59.748">  1  3  2 -1</clus>
<clus scale="   79.713">  1  5  2 -1</clus>
<clus scale="   59.748">  1  3  2 -1</clus>
</clustering>
</event>
<event>
 6    0  0.3695460E+002  0.1141482E+03  0.7546771E-02  0.1253075E+00
         21   -1    0    0  505  502  0.00000000000E+00  0.00000000000E+00  0.27044622084E+04  0.27044622084E+04  0.00000000000E+00 0.  1.
          1   -1    0    0  504    0 -0.00000000000E+00 -0.00000000000E+00 -0.29488894182E+03  0.29488894182E+03  0.00000000000E+00 0. -1.
         21    1    1    2  503  502 -0.40722591216E+02 -0.10713559714E+03  0.26483480329E+04  0.26508269784E+04  0.00000000000E+00 0.  1.
         21    1    1    2  504  503  0.55642906003E+01  0.45142335423E+02  0.32567217043E+02  0.55941178065E+02  0.00000000000E+00 0. -1.
         21    1    1    2  505  501  0.61037692590E+02  0.29186123823E+02 -0.16666980304E+03  0.17987843947E+03  0.00000000000E+00 0. -1.
          1    1    1    2  501    0 -0.25879391974E+02  0.32807137890E+02 -0.10467218036E+03  0.11270455433E+03  0.00000000000E+00 0. -1.
<scales pt_clust_3="14000.00000" pt_clust_4="47.36564" pt_clust_5="114.14822" pt_clust_6="41.78578"></scales>
<clustering>
<clus scale="   41.786">  2  6  1 -1</clus>
<clus scale="   47.366">  2  4  1 -1</clus>
<clus scale="  114.148">  2  5  1 -1</clus>
<clus scale="  114.148">  1  3  2 -1</clus>
</clustering>
</event>
<event>
 6    0  0.3695460E+002  0.1308485E+03  0.7546771E-02  0.1226202E+00
          2   -1    0    0  505    0 -0.00000000000E+00  0.00000000000E+00  0.71750444456E+03  0.71750444456E+03  0.00000000000E+00 0. -1.
         21   -1    0    0  503  502  0.00000000000E+00 -0.00000000000E+00 -0.12087171504E+03  0.12087171504E+03  0.00000000000E+00 0.  1.
         21    1    1    2  503  501  0.91827413656E+02  0.77316041201E+02 -0.53135397989E+02  0.13127610081E+03  0.00000000000E+00 0.  1.
         21    1    1    2  504  502 -0.15423046198E+02  0.39713938545E+02  0.68403638305E+01  0.43149250818E+02  0.00000000000E+00 0.  1.
         21    1    1    2  505  504 -0.31394285544E+02 -0.44027049553E+02  0.94662136414E+02  0.10901789912E+03  0.00000000000E+00 0. -1.
          2    1    1    2  501    0 -0.45010081913E+02 -0.73002930193E+02  0.54826562726E+03  0.55493290885E+03  0.00000000000E+00 0. -1.
<scales pt_clust_3="130.84850" pt_clust_4="42.60361" pt_clust_5="52.49903" pt_clust_6="14000.00000"></scales>
<clustering>
<clus scale="   42.604">  2  4  1 -1</clus>
<clus scale="   52.499">  1  5  2 -1</clus>
<clus scale="  130.848">  2  3  1 -1</clus>
<clus scale="   42.604">  2  3  1 -1</clus>
</clustering>
</event>
<event>
 6    0  0.3695460E+002  0.2651148E+03  0.7546771E-02  0.1104109E+00
          1   -1    0    0  504    0 -0.00000000000E+00  0.00000000000E+00  0.25745695044E+04  0.25745695044E+04  0.00000000000E+00 0. -1.
         21   -1    0    0  505  502  0.00000000000E+00 -0.00000000000E+00 -0.39998070638E+03  0.39998070638E+03  0.00000000000E+00 0.  1.
         21    1    1    2  503  502  0.82236815346E+02 -0.85868218228E+02 -0.31967435346E+03  0.34106881558E+03  0.00000000000E+00 0.  1.
         21    1    1    2  504  503 -0.50477809741E+02 -0.23238964799E+03  0.39790544928E+03  0.46355334573E+03  0.00000000000E+00 0. -1.
         21    1    1    2  505  501  0.29853035928E+02  0.47346860575E+02  0.74369893118E+00  0.55977513776E+02  0.00000000000E+00 0.  1.
          1    1    1    2  501    0 -0.61612041533E+02  0.27091100564E+03  0.20956140032E+04  0.21139505357E+04  0.00000000000E+00 0. -1.
<scales pt_clust_3="117.23700" pt_clust_4="265.11479" pt_clust_5="55.97257" pt_clust_6="14000.00000"></scales>
<clustering>
<clus scale="   55.973">  2  5  1 -1</clus>
<clus scale="  117.237">  2  3  1 -1</clus>
<clus scale="  265.115">  2  4  1 -1</clus>
<clus scale="   55.973">  2  3  1 -1</clus>
</clustering>
</event>
<event>
 6    0  0.3695460E+002  0.1504463E+03  0.7546771E-02  0.1199926E+00
          2   -1    0    0  505    0 -0.00000000000E+00  0.00000000000E+00  0.20859343075E+03  0.20859343075E+03  0.00000000000E+00 0.  1.
         21   -1    0    0  503  502  0.00000000000E+00 -0.00000000000E+00 -0.99712393366E+03  0.99712393366E+03  0.00000000000E+00 0.  1.
         21    1    1    2  503  501 -0.99519617409E+02  0.10261401976E+03  0.54225968427E+02  0.15288638576E+03  0.00000000000E+00 0.  1.
         21    1    1    2  504  502  0.97775442547E+02 -0.25160147942E+01 -0.67382500541E+03  0.68088655840E+03  0.00000000000E+00 0.  1.
         21    1    1    2  505  504  0.40377330921E+02 -0.32326126869E+02 -0.25243008383E+03  0.25767470686E+03  0.00000000000E+00 0.  1.
          2    1    1    2  501    0 -0.38633156059E+02 -0.67771878094E+02  0.83498617903E+02  0.11426971339E+03  0.00000000000E+00 0.  1.
<scales pt_clust_3="141.37005" pt_clust_4="37.42522" pt_clust_5="37.42522" pt_clust_6="78.00992"></scales>
<clustering>
<clus scale="   37.425">  4  5 -1 -1</clus>
<clus scale="   78.010">  1  6  2 -1</clus>
<clus scale="  141.370">  1  3  2 -1</clus>
<clus scale="  150.446">  2  3  1 -1</clus>
</clustering>
</event>
<event>
 6    0  0.3695460E+002  0.1053018E+03  0.7546771E-02  0.1269526E+00
          3   -1    0    0  504    0 -0.00000000000E+00  0.00000000000E+00  0.13427796770E+03  0.13427796770E+03  0.00000000000E+00 0.  1.
         21   -1    0    0  505  502  0.00000000000E+00 -0.00000000000E+00 -0.89352483468E+03  0.89352483468E+03  0.00000000000E+00 0. -1.
         21    1    1    2  503  502  0.46517631483E+02  0.12720773067E+02 -0.75392892778E+02  0.89497465817E+02  0.00000000000E+00 0. -1.
         21    1    1    2  504  503 -0.40344397141E+02 -0.46995263425E+02  0.41156978151E+02  0.74364790160E+02  0.00000000000E+00 0.  1.
         21    1    1    2  505  501 -0.12120309502E+03 -0.65164945465E+02 -0.69558518711E+03  0.70906657860E+03  0.00000000000E+00 0. -1.
          3    1    1    2  501    0  0.11502986068E+03  0.99439435823E+02 -0.29425765242E+02  0.15487396781E+03  0.00000000000E+00 0.  1.
<scales pt_clust_3="48.22560" pt_clust_4="61.12189" pt_clust_5="14000.00000" pt_clust_6="105.30175"></scales>
<clustering>
<clus scale="   48.226">  2  3  1 -1</clus>
<clus scale="   61.122">  1  4  2 -1</clus>
<clus scale="  105.302">  1  6  2 -1</clus>
<clus scale="   48.226">  2  3  1 -1</clus>
</clustering>
</event>
<event>
 6    0  0.3695460E+002  0.1457940E+03  0.7546771E-02  0.1205739E+00
         21   -1    0    0  501  502  0.00000000000E+00  0.00000000000E+00  0.22790165164E+03  0.22790165164E+03  0.00000000000E+00 0.  1.
          1   -1    0    0  505    0 -0.00000000000E+00 -0.00000000000E+00 -0.11755219107E+04  0.11755219107E+04  0.00000000000E+00 0. -1.
         21    1    1    2  503  504 -0.86200959586E+02  0.72872569836E+02 -0.14419753673E+02  0.11379343638E+03  0.00000000000E+00 0. -1.
         21    1    1    2  504  502  0.10135768628E+03 -0.96107184536E+01  0.13003879753E+03  0.16515397465E+03  0.00000000000E+00 0.  1.
         21    1    1    2  505  503  0.71272114285E+02  0.11231919012E+03 -0.69346407680E+03  0.70610745681E+03  0.00000000000E+00 0. -1.
          1    1    1    2  501    0 -0.86428840983E+02 -0.17558104150E+03 -0.36977522615E+03  0.41836869453E+03  0.00000000000E+00 0. -1.
<scales pt_clust_3="70.92829" pt_clust_4="101.81231" pt_clust_5="145.79400" pt_clust_6="14000.00000"></scales>
<clustering>
<clus scale="  101.812">  1  4  2 -1</clus>
<clus scale="   70.928">  1  3  2 -1</clus>
<clus scale="  145.794">  2  5  1 -1</clus>
<clus scale="  101.812">  1  3  2 -1</clus>
</clustering>
</event>
<event>
 6    0  0.3695460E+002  0.1343330E+03  0.7546771E-02  0.1221164E+00
         21   -1    0    0  503  502  0.00000000000E+00  0.00000000000E+00  0.11828080981E+04  0.11828080981E+04  0.00000000000E+00 0.  1.
          1   -1    0    0  505    0 -0.00000000000E+00 -0.00000000000E+00 -0.68628083898E+03  0.68628083898E+03  0.00000000000E+00 0.  1.
         21    1    1    2  503  504 -0.30236607230E+02 -0.44943042834E+02  0.10746540325E+03  0.12034509716E+03  0.00000000000E+00 0. -1.
         21    1    1    2  504  501  0.40604090714E+02 -0.24258037986E+02 -0.16745762589E+03  0.17400919820E+03  0.00000000000E+00 0.  1.
         21    1    1    2  505  502 -0.45350158416E+02  0.14425264244E+03  0.10568426527E+04  0.10676056642E+04  0.00000000000E+00 0.  1.
          1    1    1    2  501    0  0.34982674932E+02 -0.75051561624E+02 -0.50032317093E+03  0.50712897750E+03  0.00000000000E+00 0.  1.
<scales pt_clust_3="54.16761" pt_clust_4="37.35029" pt_clust_5="124.91231" pt_clust_6="37.35029"></scales>
<clustering>
<clus scale="   37.350">  4  6 -1 -1</clus>
<clus scale="   54.168">  1  3  2 -1</clus>
<clus scale="  124.912">  1  5  2 -1</clus>
<clus scale="   54.168">  1  3  2 -1</clus>
</clustering>
</event>
<event>
 6    0  0.3695460E+002  0.1219526E+03  0.7546771E-02  0.1239910E+00
         21   -1    0    0  505  502  0.00000000000E+00  0.00000000000E+00  0.26554009507E+03  0.26554009507E+03  0.00000000000E+00 0. -1.
         -1   -1    0    0    0  501 -0.00000000000E+00 -0.00000000000E+00 -0.37073144237E+03  0.37073144237E+03  0.00000000000E+00 0. -1.
         21    1    1    2  503  504  0.39689551824E+02 -0.67677886220E+02 -0.16007499557E+03  0.17826822772E+03  0.00000000000E+00 0.  1.
         21    1    1    2  504  502 -0.69588431935E+02 -0.17101734730E+02  0.59207539697E+02  0.92954569263E+02  0.00000000000E+00 0. -1.
         21    1    1    2  505  501 -0.55925870019E+01  0.99518577747E+02  0.16426175374E+03  0.19213835662E+03  0.00000000000E+00 0. -1.
         -1    1    1    2    0  503  0.35491467113E+02 -0.14738956797E+02 -0.16858564516E+03  0.17291038384E+03  0.00000000000E+00 0. -1.
<scales pt_clust_3="37.45388" pt_clust_4="71.65905" pt_clust_5="109.58360" pt_clust_6="37.45388"></scales>
<clustering>
<clus scale="   37.454">  3  6 -1 -1</clus>
<clus scale="   71.659">  1  4  2 -1</clus>
<clus scale="  109.584">  1  5  2 -1</clus>
<clus scale="   71.659">  1  3  2 -1</clus>
</clustering>
</event>
<event>
 6    0  0.3695460E+002  0.1590120E+03  0.7546771E-02  0.1189817E+00
         21   -1    0    0  504  502  0.00000000000E+00  0.00000000000E+00  0.45121751937E+03  0.45121751937E+03  0.00000000000E+00 0. -1.
          2   -1    0    0  505    0 -0.00000000000E+00 -0.00000000000E+00 -0.11444961869E+04  0.11444961869E+04  0.00000000000E+00 0. -1.
         21    1    1    2  503  502  0.97071482292E+02  0.72125368349E+02  0.37527632755E+03  0.39428069120E+03  0.00000000000E+00 0. -1.
         21    1    1    2  504  501  0.26577865068E+02  0.33257157571E+02  0.42532958003E+02  0.60178683583E+02  0.00000000000E+00 0.  1.
         21    1    1    2  505  503 -0.10355246012E+03  0.23779044308E+02 -0.27145173044E+03  0.29150402553E+03  0.00000000000E+00 0. -1.
          2    1    1    2  501    0 -0.20096887243E+02 -0.12916157023E+03 -0.83963622268E+03  0.84975030599E+03  0.00000000000E+00 0. -1.
<scales pt_clust_3="159.01197" pt_clust_4="42.57254" pt_clust_5="105.78911" pt_clust_6="14000.00000"></scales>
<clustering>
<clus scale="   42.573">  1  4  2 -1</clus>
<clus scale="  105.789">  2  5  1 -1</clus>
<clus scale="  159.012">  1  3  2 -1</clus>
<clus scale="   42.573">  1  3  2 -1</clus>
</clustering>
</event>
<event>
 6    0  0.3695460E+002  0.1011322E+03  0.7546771E-02  0.1277933E+00
          1   -1    0    0  505    0 -0.00000000000E+00  0.00000000000E+00  0.53135180862E+03  0.53135180862E+03  0.00000000000E+00 0. -1.
         21   -1    0    0  503  502  0.00000000000E+00 -0.00000000000E+00 -0.88749312571E+02  0.88749312571E+02  0.00000000000E+00 0.  1.
         21    1    1    2  503  501  0.64834238872E+02 -0.78487242140E+02  0.10275938491E+02  0.10231969811E+03  0.00000000000E+00 0.  1.
         21    1    1    2  504  502  0.87685250980E+01  0.12564413819E+03  0.23555838814E+03  0.26711624945E+03  0.00000000000E+00 0. -1.
         21    1    1    2  505  504  0.26978450925E+02 -0.34901665389E+02  0.10527987977E+03  0.11414822008E+03  0.00000000000E+00 0.  1.
          1    1    1    2  501    0 -0.10058121489E+03 -0.12255230664E+02  0.91488289648E+02  0.13651695357E+03  0.00000000000E+00 0. -1.
<scales pt_clust_3="14000.00000" pt_clust_4="101.13220" pt_clust_5="44.11307" pt_clust_6="95.77558"></scales>
<clustering>
<clus scale="   44.113">  1  5  2 -1</clus>
<clus scale="   95.776">  1  6  2 -1</clus>
<clus scale="  101.132">  1  4  2 -1</clus>
<clus scale="  101.132">  2  3  1 -1</clus>
</clustering>
</event>
<event>
 6    0  0.3695460E+002  0.2205728E+03  0.7546771E-02  0.1133457E+00
         21   -1    0    0  505  502  0.00000000000E+00  0.00000000000E+00  0.94554371981E+02  0.94554371981E+02  0.00000000000E+00 0. -1.
          2   -1    0    0  503    0 -0.00000000000E+00 -0.00000000000E+00 -0.50236012024E+03  0.50236012024E+03  0.00000000000E+00 0.  1.
         21    1    1    2  503  504 -0.59010302548E+02 -0.90588307667E+02 -0.97450928049E+02  0.14555116169E+03  0.00000000000E+00 0. -1.
         21    1    1    2  504  502 -0.19630245710E+02 -0.10520437456E+03 -0.10761816200E+03  0.15177277676E+03  0.00000000000E+00 0. -1.
         21    1    1    2  505  501  0.48104887940E+02  0.47861289176E+02 -0.80434108559E+02  0.10523511327E+03  0.00000000000E+00 0.  1.
          2    1    1    2  501    0  0.30535660318E+02  0.14793139305E+03 -0.12230254965E+03  0.19435544050E+03  0.00000000000E+00 0.  1.
<scales pt_clust_3="215.28630" pt_clust_4="42.55103" pt_clust_5="43.09104" pt_clust_6="43.09104"></scales>
<clustering>
<clus scale="   42.551">  3  4 -1 -1</clus>
<clus scale="   43.091">  5  6 -1 -1</clus>
<clus scale="  215.286">  2  3  1 -1</clus>
<clus scale="  220.573">  1  3  2 -1</clus>
</clustering>
</event>
<event>
 6    0  0.3695460E+002  0.1036454E+03  0.7546771E-02  0.1272812E+00
          2   -1    0    0  504    0 -0.00000000000E+00  0.00000000000E+00  0.36969450652E+04  0.36969450652E+04  0.00000000000E+00 0.  1.
         21   -1    0    0  505  502  0.00000000000E+00 -0.00000000000E+00 -0.21539224628E+03  0.21539224628E+03  0.00000000000E+00 0. -1.
         21    1    1    2  503  502  0.59175518177E+02  0.95444308248E+02 -0.17431075297E+03  0.20735379555E+03  0.00000000000E+00 0. -1.
         21    1    1    2  504  503 -0.36897420943E+02  0.64719775680E+02  0.14567495962E+03  0.16361926200E+03  0.00000000000E+00 0.  1.
         21    1    1    2  505  501 -0.65884161563E+01 -0.53561215689E+02  0.34596961008E+02  0.64102736014E+02  0.00000000000E+00 0. -1.
          2    1    1    2  501    0 -0.15689681077E+02 -0.10660286824E+03  0.34755916513E+04  0.34772615179E+04  0.00000000000E+00 0.  1.
<scales pt_clust_3="69.13557" pt_clust_4="103.64541" pt_clust_5="53.96491" pt_clust_6="14000.00000"></scales>
<clustering>
<clus scale="   53.965">  2  5  1 -1</clus>
<clus scale="   69.136">  2  3  1 -1</clus>
<clus scale="  103.645">  2  4  1 -1</clus>
<clus scale="   53.965">  2  3  1 -1</clus>
</clustering>
</event>
<event>
 6    0  0.3695460E+002  0.1206719E+03  0.7546771E-02  0.1241993E+00
         21   -1    0    0  504  502  0.00000000000E+00  0.00000000000E+00  0.73370441413E+02  0.73370441413E+02  0.00000000000E+00 0. -1.
          2   -1    0    0  505    0 -0.00000000000E+00 -0.00000000000E+00 -0.36760035659E+04  0.36760035659E+04  0.00000000000E+00 0.  1.
         21    1    1    2  503  501  0.64502714748E+02  0.93487677056E+02 -0.52572578098E+03  0.53785513176E+03  0.00000000000E+00 0. -1.
         21    1    1    2  504  503 -0.53346223150E+01 -0.35623351665E+02  0.18858745950E+02  0.40658746635E+02  0.00000000000E+00 0. -1.
         21    1    1    2  505  502  0.58998494722E+02 -0.88366735838E+02 -0.41361998251E+02  0.11401893387E+03  0.00000000000E+00 0. -1.
          2    1    1    2  501    0 -0.11816658716E+03  0.30502410447E+02 -0.30544040912E+04  0.30568411950E+04  0.00000000000E+00 0.  1.
<scales pt_clust_3="109.10406" pt_clust_4="36.02057" pt_clust_5="120.67187" pt_clust_6="14000.00000"></scales>
<clustering>
<clus scale="   36.021">  1  4  2 -1</clus>
<clus scale="  109.104">  1  3  2 -1</clus>
<clus scale="  120.672">  1  5  2 -1</clus>
<clus scale="   36.021">  1  3  2 -1</clus>
</clustering>
</event>
<event>
 6    0  0.3695460E+002  0.1115942E+03  0.7546771E-02  0.1257646E+00
         21   -1    0    0  505  502  0.00000000000E+00  0.00000000000E+00  0.23515150377E+03  0.23515150377E+03  0.00000000000E+00 0. -1.
          1   -1    0    0  504    0 -0.00000000000E+00 -0.00000000000E+00 -0.47051897834E+03  0.47051897834E+03  0.00000000000E+00 0. -1.
         21    1    1    2  503  502  0.10970840654E+02  0.33965153330E+02 -0.10669083106E+02  0.37253460506E+02  0.00000000000E+00 0.  1.
         21    1    1    2  504  503 -0.34725484527E+02  0.21023705263E+02 -0.15523401194E+03  0.16045389967E+03  0.00000000000E+00 0. -1.
         21    1    1    2  505  501  0.61860005573E+02  0.54225738888E+02  0.19916672299E+03  0.21548659957E+03  0.00000000000E+00 0. -1.
          1    1    1    2  501    0 -0.38105361700E+02 -0.10921459748E+03 -0.26863110251E+03  0.29247652236E+03  0.00000000000E+00 0. -1.
<scales pt_clust_3="35.69301" pt_clust_4="40.69237" pt_clust_5="14000.00000" pt_clust_6="111.59416"></scales>
<clustering>
<clus scale="   35.693">  1  3  2 -1</clus>
<clus scale="   40.692">  2  4  1 -1</clus>
<clus scale="  111.594">  2  6  1 -1</clus>
<clus scale="   35.693">  1  3  2 -1</clus>
</clustering>
</event>
<event>
 6    0  0.3695460E+002  0.1017129E+03  0.7546771E-02  0.1276735E+00
         21   -1    0    0  503  502  0.00000000000E+00  0.00000000000E+00  0.44683069430E+02  0.44683069430E+02  0.00000000000E+00 0.  1.
          2   -1    0    0  504    0 -0.00000000000E+00 -0.00000000000E+00 -0.15475136395E+04  0.15475136395E+04  0.00000000000E+00 0.  1.
         21    1    1    2  503  505 -0.45396270662E+02 -0.51178513425E+01 -0.17234907196E+01  0.45716345137E+02  0.00000000000E+00 0. -1.
         21    1    1    2  504  502  0.52220892889E+01  0.62098966223E+02 -0.58933288614E+03  0.59261859784E+03  0.00000000000E+00 0. -1.
         21    1    1    2  505  501 -0.46879506921E+02  0.25409406864E+02 -0.24768898896E+02  0.58794765744E+02  0.00000000000E+00 0.  1.
          2    1    1    2  501    0  0.87053688294E+02 -0.82390521744E+02 -0.88700529431E+03  0.89506700020E+03  0.00000000000E+00 0.  1.
<scales pt_clust_3="33.29803" pt_clust_4="62.31815" pt_clust_5="33.29803" pt_clust_6="95.13863"></scales>
<clustering>
<clus scale="   33.298">  3  5 -1 -1</clus>
<clus scale="   62.318">  2  4  1 -1</clus>
<clus scale="   95.139">  2  6  1 -1</clus>
<clus scale="  101.713">  1  3  2 -1</clus>
</clustering>
</event>
<event>
 6    0  0.3695460E+002  0.9866156E+02  0.7546771E-02  0.1283136E+00
         21   -1    0    0  503  502  0.00000000000E+00  0.00000000000E+00  0.60425635501E+02  0.60425635501E+02  0.00000000000E+00 0.  1.
          1   -1    0    0  504    0 -0.00000000000E+00 -0.00000000000E+00 -0.10328008146E+04  0.10328008146E+04  0.00000000000E+00 0.  1.
         21    1    1    2  503  501 -0.34542285331E+01 -0.40751355456E+02 -0.41768779392E+01  0.41110229573E+02  0.00000000000E+00 0.  1.
         21    1    1    2  504  505 -0.11461341534E+03  0.10545983695E+02 -0.72796328420E+03  0.73700610302E+03  0.00000000000E+00 0.  1.
         21    1    1    2  505  502  0.48362948266E+02 -0.22630237039E+02  0.60664230557E+01  0.53739221078E+02  0.00000000000E+00 0.  1.
          1    1    1    2  501    0  0.69704695610E+02  0.52835608800E+02 -0.24630144007E+03  0.26137089648E+03  0.00000000000E+00 0.  1.
<scales pt_clust_3="40.89749" pt_clust_4="14000.00000" pt_clust_5="69.11558" pt_clust_6="98.66156"></scales>
<clustering>
<clus scale="   40.897">  1  3  2 -1</clus>
<clus scale="   69.116">  1  5  2 -1</clus>
<clus scale="   98.662">  1  6  2 -1</clus>
<clus scale="   40.897">  1  3  2 -1</clus>
</clustering>
</event>
<event>
 6    0  0.3695460E+002  0.1303089E+03  0.7546771E-02  0.1226998E+00
         21   -1    0    0  504  502  0.00000000000E+00  0.00000000000E+00  0.26999642298E+03  0.26999642298E+03  0.00000000000E+00 0. -1.
         -1   -1    0    0    0  501 -0.00000000000E+00 -0.00000000000E+00 -0.12811938779E+03  0.12811938779E+03  0.00000000000E+00 0. -1.
         21    1    1    2  503  501 -0.13992875673E+03  0.49861185630E+02 -0.12749401243E+02  0.14909306498E+03  0.00000000000E+00 0. -1.
         21    1    1    2  504  505  0.50365845737E+02  0.89201597775E+01  0.81710555792E+02  0.96399702256E+02  0.00000000000E+00 0. -1.
         21    1    1    2  505  503  0.55768661304E+02 -0.45269132749E+02  0.87681204555E+02  0.11334651118E+03  0.00000000000E+00 0. -1.
         -1    1    1    2    0  502  0.33794249694E+02 -0.13512212658E+02 -0.14765323923E+02  0.39276532355E+02  0.00000000000E+00 0. -1.
<scales pt_clust_3="119.44151" pt_clust_4="43.60282" pt_clust_5="43.60282" pt_clust_6="36.39548"></scales>
<clustering>
<clus scale="   36.395">  2  6  1 -1</clus>
<clus scale="   43.603">  4  5 -1 -1</clus>
<clus scale="  119.442">  2  3  1 -1</clus>
<clus scale="  130.309">  1  3  2 -1</clus>
</clustering>
</event>
<event>
 6    0  0.3695460E+002  0.7151880E+02  0.7546771E-02  0.1355003E+00
          1   -1    0    0  504    0 -0.00000000000E+00  0.00000000000E+00  0.70090328093E+03  0.70090328093E+03  0.00000000000E+00 0. -1.
         21   -1    0    0  501  502  0.00000000000E+00 -0.00000000000E+00 -0.24864978422E+03  0.24864978422E+03  0.00000000000E+00 0.  1.
         21    1    1    2  503  505 -0.44637113979E+02  0.67331147079E+01  0.15658146853E+03  0.16295877719E+03  0.00000000000E+00 0.  1.
         21    1    1    2  504  503 -0.52615800321E+01 -0.34725626460E+02  0.29487192621E+02  0.45859000056E+02  0.00000000000E+00 0. -1.
         21    1    1    2  505  502 -0.48021927534E+02  0.52805639392E+02 -0.22666619391E+03  0.23763860069E+03  0.00000000000E+00 0.  1.
          1    1    1    2  501    0  0.97920621545E+02 -0.24813127640E+02  0.49285102947E+03  0.50309668720E+03  0.00000000000E+00 0. -1.
<scales pt_clust_3="45.93362" pt_clust_4="35.12198" pt_clust_5="71.51880" pt_clust_6="14000.00000"></scales>
<clustering>
<clus scale="   35.122">  1  4  2 -1</clus>
<clus scale="   45.934">  1  3  2 -1</clus>
<clus scale="   71.519">  2  5  1 -1</clus>
<clus scale="   71.519">  2  3  1 -1</clus>
</clustering>
</event>
<event>
 6    0  0.3695460E+002  0.1867900E+03  0.7546771E-02  0.1161389E+00
         21   -1    0    0  505  502  0.00000000000E+00  0.00000000000E+00  0.30314507693E+03  0.30314507693E+03  0.00000000000E+00 0. -1.
         -4   -1    0    0    0  501 -0.00000000000E+00 -0.00000000000E+00 -0.38773820382E+04  0.38773820382E+04  0.00000000000E+00 0.  1.
         21    1    1    2  503  501  0.99209309347E+02  0.36862386436E+02 -0.98543707757E+02  0.14461045928E+03  0.00000000000E+00 0.  1.
         21    1    1    2  504  503  0.71689343405E+02 -0.48789426360E+02  0.23326249958E+03  0.24885972714E+03  0.00000000000E+00 0. -1.
         21    1    1    2  505  504  0.18349231547E+02  0.62573508222E+02  0.73227198555E+01  0.65618293605E+02  0.00000000000E+00 0. -1.
         -4    1    1    2    0  502 -0.18924788430E+03 -0.50646468298E+02 -0.37162784729E+04  0.37214386351E+04  0.00000000000E+00 0.  1.
<scales pt_clust_3="186.79004" pt_clust_4="88.61782" pt_clust_5="65.20842" pt_clust_6="14000.00000"></scales>
<clustering>
<clus scale="   65.208">  1  5  2 -1</clus>
<clus scale="   88.618">  1  4  2 -1</clus>
<clus scale="  186.790">  1  3  2 -1</clus>
<clus scale="   65.208">  1  3  2 -1</clus>
</clustering>
</event>
<event>
 6    0  0.3695460E+002  0.9718043E+02  0.7546771E-02  0.1286339E+00
          2   -1    0    0  504    0 -0.00000000000E+00  0.00000000000E+00  0.18517835953E+04  0.18517835953E+04  0.00000000000E+00 0. -1.
         21   -1    0    0  503  502  0.00000000000E+00 -0.00000000000E+00 -0.49500387995E+02  0.49500387995E+02  0.00000000000E+00 0. -1.
         21    1    1    2  503  501  0.89676534051E+02  0.34065242394E+02  0.28016328115E+02  0.99936160322E+02  0.00000000000E+00 0. -1.
         21    1    1    2  504  505  0.39045016130E+02 -0.74105593827E+02  0.94489986973E+03  0.94860524779E+03  0.00000000000E+00 0. -1.
         21    1    1    2  505  502 -0.24777791145E+02  0.46426186613E+02  0.77379708892E+02  0.93578571723E+02  0.00000000000E+00 0. -1.
          2    1    1    2  501    0 -0.10394375904E+03 -0.63858351796E+01  0.75198730061E+03  0.75916400350E+03  0.00000000000E+00 0. -1.
<scales pt_clust_3="14000.00000" pt_clust_4="81.40757" pt_clust_5="52.62442" pt_clust_6="97.18043"></scales>
<clustering>
<clus scale="   52.624">  2  5  1 -1</clus>
<clus scale="   81.408">  1  4  2 -1</clus>
<clus scale="   97.180">  1  6  2 -1</clus>
<clus scale="   52.624">  2  3  1 -1</clus>
</clustering>
</event>
<event>
 6    0  0.3695460E+002  0.8331502E+02  0.7546771E-02  0.1319899E+00
          2   -1    0    0  505    0 -0.00000000000E+00  0.00000000000E+00  0.47385409273E+03  0.47385409273E+03  0.00000000000E+00 0.  1.
         21   -1    0    0  504  502  0.00000000000E+00 -0.00000000000E+00 -0.53858544306E+03  0.53858544306E+03  0.00000000000E+00 0. -1.
         21    1    1    2  503  502  0.23226789767E+02  0.26226073427E+02 -0.12819446889E+03  0.13289511859E+03  0.00000000000E+00 0.  1.
         21    1    1    2  504  501 -0.90567284686E+02  0.20995202980E+02 -0.38516062065E+03  0.39622207827E+03  0.00000000000E+00 0. -1.
         21    1    1    2  505  503 -0.29054599857E+02  0.38530393757E+02  0.88759673848E+02  0.10102990012E+03  0.00000000000E+00 0.  1.
          2    1    1    2  501    0  0.96395094776E+02 -0.85751670164E+02  0.35986406537E+03  0.38229243882E+03  0.00000000000E+00 0.  1.
<scales pt_clust_3="35.03271" pt_clust_4="83.31502" pt_clust_5="48.36457" pt_clust_6="14000.00000"></scales>
<clustering>
<clus scale="   35.033">  2  3  1 -1</clus>
<clus scale="   48.365">  1  5  2 -1</clus>
<clus scale="   83.315">  2  4  1 -1</clus>
<clus scale="   35.033">  2  3  1 -1</clus>
</clustering>
</event>
<event>
 6    0  0.3695460E+002  0.2694803E+03  0.7546771E-02  0.1101577E+00
          1   -1    0    0  504    0 -0.00000000000E+00  0.00000000000E+00  0.70602695413E+03  0.70602695413E+03  0.00000000000E+00 0. -1.
         21   -1    0    0  503  502  0.00000000000E+00 -0.00000000000E+00 -0.43968241607E+03  0.43968241607E+03  0.00000000000E+00 0.  1.
         21    1    1    2  503  501  0.47590073425E+02 -0.89151647411E+02  0.19927662522E+03  0.22343680244E+03  0.00000000000E+00 0. -1.
         21    1    1    2  504  505 -0.71000661667E+02  0.14673537396E+03 -0.11288664611E+03  0.19828201835E+03  0.00000000000E+00 0. -1.
         21    1    1    2  505  502 -0.15082089987E+03  0.17306853621E+02 -0.22811126147E+03  0.27400952288E+03  0.00000000000E+00 0.  1.
          1    1    1    2  501    0  0.17423148811E+03 -0.74890580173E+02  0.40806582042E+03  0.44998102654E+03  0.00000000000E+00 0. -1.
<scales pt_clust_3="67.34936" pt_clust_4="253.19470" pt_clust_5="151.81064" pt_clust_6="67.34936"></scales>
<clustering>
<clus scale="   67.349">  3  6 -1 -1</clus>
<clus scale="  151.811">  2  5  1 -1</clus>
<clus scale="  253.195">  2  4  1 -1</clus>
<clus scale="  151.811">  2  3  1 -1</clus>
</clustering>
</event>
<event>
 6    0  0.3695460E+002  0.8681056E+02  0.7546771E-02  0.1310765E+00
         21   -1    0    0  505  502  0.00000000000E+00  0.00000000000E+00  0.20880390931E+02  0.20880390931E+02  0.00000000000E+00 0.  1.
          2   -1    0    0  504    0 -0.00000000000E+00 -0.00000000000E+00 -0.11756025328E+04  0.11756025328E+04  0.00000000000E+00 0.  1.
         21    1    1    2  503  502  0.22821613086E+01 -0.47085129101E+02 -0.76671301668E+02  0.90003922926E+02  0.00000000000E+00 0.  1.
         21    1    1    2  504  503  0.83008147298E+02 -0.48872121793E+02 -0.42672424039E+03  0.43746132874E+03  0.00000000000E+00 0.  1.
         21    1    1    2  505  501 -0.41914681701E+02  0.22333547428E+02 -0.95465916884E+02  0.10662724403E+03  0.00000000000E+00 0. -1.
          2    1    1    2  501    0 -0.43375626905E+02  0.73623703466E+02 -0.55586068294E+03  0.56239042805E+03  0.00000000000E+00 0.  1.
<scales pt_clust_3="47.14040" pt_clust_4="86.81056" pt_clust_5="41.19869" pt_clust_6="14000.00000"></scales>
<clustering>
<clus scale="   47.140">  1  3  2 -1</clus>
<clus scale="   41.199">  1  5  2 -1</clus>
<clus scale="   86.811">  1  4  2 -1</clus>
<clus scale="   47.140">  1  3  2 -1</clus>
</clustering>
</event>
<event>
 6    0  0.3695460E+002  0.2106010E+03  0.7546771E-02  0.1141091E+00
         21   -1    0    0  504  502  0.00000000000E+00  0.00000000000E+00  0.19631396590E+03  0.19631396590E+03  0.00000000000E+00 0.  1.
          2   -1    0    0  505    0 -0.00000000000E+00 -0.00000000000E+00 -0.12827755690E+04  0.12827755690E+04  0.00000000000E+00 0. -1.
         21    1    1    2  503  502  0.92987145421E+02 -0.46061590031E+01  0.12623883751E+03  0.15685684559E+03  0.00000000000E+00 0.  1.
         21    1    1    2  504  501 -0.57948401858E+02  0.26045177351E+02 -0.27558621711E+03  0.28281465946E+03  0.00000000000E+00 0.  1.
         21    1    1    2  505  503  0.12389485077E+03  0.17490149854E+02 -0.45853263077E+02  0.13326050099E+03  0.00000000000E+00 0. -1.
          2    1    1    2  501    0 -0.15893359433E+03 -0.38929168202E+02 -0.89126096046E+03  0.90615752890E+03  0.00000000000E+00 0. -1.
<scales pt_clust_3="93.10116" pt_clust_4="43.70090" pt_clust_5="198.58011" pt_clust_6="43.70090"></scales>
<clustering>
<clus scale="   43.701">  4  6 -1 -1</clus>
<clus scale="   93.101">  1  3  2 -1</clus>
<clus scale="  198.580">  1  5  2 -1</clus>
<clus scale="   93.101">  1  3  2 -1</clus>
</clustering>
</event>
<event>
 6    0  0.3695460E+002  0.1129114E+03  0.7546771E-02  0.1255271E+00
         -2   -1    0    0    0  501 -0.00000000000E+00  0.00000000000E+00  0.12259084940E+03  0.12259084940E+03  0.00000000000E+00 0.  1.
         21   -1    0    0  503  502  0.00000000000E+00 -0.00000000000E+00 -0.41763590249E+03  0.41763590249E+03  0.00000000000E+00 0.  1.
         21    1    1    2  503  504 -0.31953184798E+02 -0.11137822150E+02 -0.37507701401E+02  0.50516183202E+02  0.00000000000E+00 0.  1.
         21    1    1    2  504  505 -0.23375620314E+02 -0.98601518811E+02 -0.32056652988E+03  0.33620169425E+03  0.00000000000E+00 0.  1.
         21    1    1    2  505  501  0.98667838006E+01  0.45444546027E+02 -0.83276672108E+01  0.47243097140E+02  0.00000000000E+00 0.  1.
         -2    1    1    2    0  502  0.45462021311E+02  0.64294794934E+02  0.71356845410E+02  0.10626577729E+03  0.00000000000E+00 0.  1.
<scales pt_clust_3="33.83869" pt_clust_4="14000.00000" pt_clust_5="45.24067" pt_clust_6="112.91140"></scales>
<clustering>
<clus scale="   33.839">  2  3  1 -1</clus>
<clus scale="   45.241">  1  5  2 -1</clus>
<clus scale="  112.911">  1  6  2 -1</clus>
<clus scale="   33.839">  2  3  1 -1</clus>
</clustering>
</event>
<event>
 6    0  0.3695460E+002  0.1845066E+03  0.7546771E-02  0.1163511E+00
         21   -1    0    0  504  502  0.00000000000E+00  0.00000000000E+00  0.14029527312E+03  0.14029527312E+03  0.00000000000E+00 0. -1.
          1   -1    0    0  503    0 -0.00000000000E+00 -0.00000000000E+00 -0.90914597233E+03  0.90914597233E+03  0.00000000000E+00 0.  1.
         21    1    1    2  503  502  0.16286956979E+03  0.10024409780E+03 -0.31476019239E+03  0.36830606107E+03  0.00000000000E+00 0. -1.
         21    1    1    2  504  505 -0.31800808099E+02 -0.30842409349E+02 -0.60485836426E+00  0.44304756673E+02  0.00000000000E+00 0. -1.
         21    1    1    2  505  501 -0.13725760021E+03 -0.39090445024E+01  0.36793739030E+02  0.14215733775E+03  0.00000000000E+00 0. -1.
          1    1    1    2  501    0  0.61888385225E+01 -0.65492643947E+02 -0.49027938748E+03  0.49467308996E+03  0.00000000000E+00 0.  1.
<scales pt_clust_3="174.27743" pt_clust_4="34.41009" pt_clust_5="34.41009" pt_clust_6="65.78441"></scales>
<clustering>
<clus scale="   34.410">  4  5 -1 -1</clus>
<clus scale="   65.784">  2  6  1 -1</clus>
<clus scale="  174.277">  2  3  1 -1</clus>
<clus scale="  184.507">  1  3  2 -1</clus>
</clustering>
</event>
<event>
 6    0  0.3695460E+002  0.7369480E+02  0.7546771E-02  0.1347961E+00
         21   -1    0    0  503  502  0.00000000000E+00  0.00000000000E+00  0.19794492059E+02  0.19794492059E+02  0.00000000000E+00 0.  1.
          2   -1    0    0  504    0 -0.00000000000E+00 -0.00000000000E+00 -0.21953710712E+04  0.21953710712E+04  0.00000000000E+00 0.  1.
         21    1    1    2  503  501  0.51736289550E+02 -0.82354912913E+02 -0.16318706169E+03  0.18997103053E+03  0.00000000000E+00 0.  1.
         21    1    1    2  504  505  0.24299785806E+02  0.45441829571E+02 -0.37013348156E+03  0.37370340330E+03  0.00000000000E+00 0.  1.
         21    1    1    2  505  502 -0.10159169409E+01  0.31921694652E+02 -0.64788103222E+02  0.72232437283E+02  0.00000000000E+00 0.  1.
          2    1    1    2  501    0 -0.75020158415E+02  0.49913886899E+01 -0.15774679327E+04  0.15792586922E+04  0.00000000000E+00 0.  1.
<scales pt_clust_3="14000.00000" pt_clust_4="54.63272" pt_clust_5="31.93786" pt_clust_6="73.69480"></scales>
<clustering>
<clus scale="   31.938">  1  5  2 -1</clus>
<clus scale="   54.633">  2  4  1 -1</clus>
<clus scale="   73.695">  2  6  1 -1</clus>
<clus scale="   31.938">  1  3  2 -1</clus>
</clustering>
</event>
<event>
 6    0  0.3695460E+002  0.1830709E+03  0.7546771E-02  0.1164864E+00
         21   -1    0    0  504  502  0.00000000000E+00  0.00000000000E+00  0.13430892538E+03  0.13430892538E+03  0.00000000000E+00 0.  1.
          2   -1    0    0  503    0 -0.00000000000E+00 -0.00000000000E+00 -0.43732474277E+04  0.43732474277E+04  0.00000000000E+00 0.  1.
         21    1    1    2  503  502  0.39125596352E+02  0.26513291920E+02  0.63469365565E+01  0.47687006008E+02  0.00000000000E+00 0.  1.
         21    1    1    2  504  505 -0.51492782725E+01  0.80922387244E+02  0.76287552832E+02  0.11133166010E+03  0.00000000000E+00 0.  1.
         21    1    1    2  505  501  0.14751439386E+03 -0.34189755096E+02 -0.51154731560E+03  0.53348860518E+03  0.00000000000E+00 0.  1.
          2    1    1    2  501    0 -0.18149071194E+03 -0.73245924068E+02 -0.38100256761E+04  0.38150490818E+04  0.00000000000E+00 0.  1.
<scales pt_clust_3="47.26274" pt_clust_4="108.08384" pt_clust_5="14000.00000" pt_clust_6="183.07090"></scales>
<clustering>
<clus scale="   47.263">  1  3  2 -1</clus>
<clus scale="  108.084">  1  4  2 -1</clus>
<clus scale="  183.071">  2  6  1 -1</clus>
<clus scale="   47.263">  1  3  2 -1</clus>
</clustering>
</event>
<event>
 6    0  0.3695460E+002  0.8247649E+02  0.7546771E-02  0.1322167E+00
         21   -1    0    0  503  502  0.00000000000E+00  0.00000000000E+00  0.24702905911E+02  0.24702905911E+02  0.00000000000E+00 0.  1.
          2   -1    0    0  504    0 -0.00000000000E+00 -0.00000000000E+00 -0.28707658596E+04  0.28707658596E+04  0.00000000000E+00 0. -1.
         21    1    1    2  503  501 -0.60276319166E+02 -0.10789048795E+02 -0.20629478087E+03  0.21519101942E+03  0.00000000000E+00 0. -1.
         21    1    1    2  504  505  0.10918779581E+02  0.67693977489E+02 -0.97094733048E+03  0.97336550838E+03  0.00000000000E+00 0. -1.
         21    1    1    2  505  502  0.54788548795E+02  0.43757558557E+02 -0.52861189614E+02  0.87811242887E+02  0.00000000000E+00 0.  1.
          2    1    1    2  501    0 -0.54310092090E+01 -0.10066248725E+03 -0.16159596527E+04  0.16191009948E+04  0.00000000000E+00 0. -1.
<scales pt_clust_3="61.23429" pt_clust_4="82.47649" pt_clust_5="34.56155" pt_clust_6="14000.00000"></scales>
<clustering>
<clus scale="   61.234">  1  3  2 -1</clus>
<clus scale="   34.562">  1  5  2 -1</clus>
<clus scale="   82.476">  2  4  1 -1</clus>
<clus scale="   61.234">  1  3  2 -1</clus>
</clustering>
</event>
<event>
 6    0  0.3695460E+002  0.1011981E+03  0.7546771E-02  0.1277796E+00
         21   -1    0    0  503  502  0.00000000000E+00  0.00000000000E+00  0.44574092711E+02  0.44574092711E+02  0.00000000000E+00 0.  1.
          1   -1    0    0  504    0 -0.00000000000E+00 -0.00000000000E+00 -0.10058749018E+04  0.10058749018E+04  0.00000000000E+00 0. -1.
         21    1    1    2  503  501  0.42562227871E+02  0.37101155820E+01 -0.69762709536E+02  0.81805524512E+02  0.00000000000E+00 0. -1.
         21    1    1    2  504  505 -0.42135524427E+02 -0.56645874788E+01 -0.24343915501E+03  0.24712367787E+03  0.00000000000E+00 0. -1.
         21    1    1    2  505  502  0.33361728453E+02  0.77174621612E+02 -0.17915853090E+02  0.85964556291E+02  0.00000000000E+00 0.  1.
          1    1    1    2  501    0 -0.33788431897E+02 -0.75220149715E+02 -0.63018309143E+03  0.63555523582E+03  0.00000000000E+00 0. -1.
<scales pt_clust_3="38.49268" pt_clust_4="42.51459" pt_clust_5="101.19811" pt_clust_6="14000.00000"></scales>
<clustering>
<clus scale="   42.515">  2  4  1 -1</clus>
<clus scale="   38.493">  1  3  2 -1</clus>
<clus scale="  101.198">  1  5  2 -1</clus>
<clus scale="   38.493">  1  3  2 -1</clus>
</clustering>
</event>
<event>
 6    0  0.3695460E+002  0.1745415E+03  0.7546771E-02  0.1173193E+00
         21   -1    0    0  501  502  0.00000000000E+00  0.00000000000E+00  0.88459984937E+02  0.88459984937E+02  0.00000000000E+00 0. -1.
          2   -1    0    0  504    0 -0.00000000000E+00 -0.00000000000E+00 -0.68122457267E+03  0.68122457267E+03  0.00000000000E+00 0. -1.
         21    1    1    2  503  502  0.16649607624E+02 -0.90580829228E+02 -0.10462545907E+01  0.92104238264E+02  0.00000000000E+00 0. -1.
         21    1    1    2  504  505 -0.17132210611E+02  0.28513806236E+02 -0.27687096254E+03  0.27886211590E+03  0.00000000000E+00 0.  1.
         21    1    1    2  505  503  0.91478709081E+01 -0.83258653768E+02 -0.52996738519E+02  0.99117815064E+02  0.00000000000E+00 0.  1.
          2    1    1    2  501    0 -0.86652679205E+01  0.14532567676E+03 -0.26185063208E+03  0.29960038838E+03  0.00000000000E+00 0. -1.
<scales pt_clust_3="49.34693" pt_clust_4="33.26484" pt_clust_5="49.34693" pt_clust_6="166.44873"></scales>
<clustering>
<clus scale="   33.265">  2  4  1 -1</clus>
<clus scale="   49.347">  3  5 -1 -1</clus>
<clus scale="  166.449">  2  6  1 -1</clus>
<clus scale="  174.541">  1  3  2 -1</clus>
</clustering>
</event>
<event>
 6    0  0.3695460E+002  0.7845110E+02  0.7546771E-02  0.1333505E+00
          2   -1    0    0  505    0 -0.00000000000E+00  0.00000000000E+00  0.16392496810E+04  0.16392496810E+04  0.00000000000E+00 0.  1.
         21   -1    0    0  503  502  0.00000000000E+00 -0.00000000000E+00 -0.15030696444E+02  0.15030696444E+02  0.00000000000E+00 0.  1.
         21    1    1    2  503  504 -0.23790950620E+02 -0.29581669315E+02  0.79140359455E+02  0.87774033663E+02  0.00000000000E+00 0.  1.
         21    1    1    2  504  501  0.15694010496E+02 -0.50074573929E+02  0.21468673697E+03  0.22100714910E+03  0.00000000000E+00 0.  1.
         21    1    1    2  505  502  0.83270600320E+02  0.75288930278E+02  0.54103753009E+03  0.55256133131E+03  0.00000000000E+00 0.  1.
          2    1    1    2  501    0 -0.75173660195E+02  0.43673129664E+01  0.78935435804E+03  0.79293786337E+03  0.00000000000E+00 0.  1.
<scales pt_clust_3="37.96162" pt_clust_4="59.43682" pt_clust_5="78.45110" pt_clust_6="14000.00000"></scales>
<clustering>
<clus scale="   37.962">  2  3  1 -1</clus>
<clus scale="   59.437">  2  4  1 -1</clus>
<clus scale="   78.451">  2  5  1 -1</clus>
<clus scale="   37.962">  2  3  1 -1</clus>
</clustering>
</event>
<event>
 6    0  0.3695460E+002  0.1255379E+03  0.7546771E-02  0.1234231E+00
         21   -1    0    0  501  502  0.00000000000E+00  0.00000000000E+00  0.22646052626E+03  0.22646052626E+03  0.00000000000E+00 0.  1.
          3   -1    0    0  503    0 -0.00000000000E+00 -0.00000000000E+00 -0.24105340353E+03  0.24105340353E+03  0.00000000000E+00 0.  1.
         21    1    1    2  503  504  0.33929898081E+02 -0.72433819460E+02 -0.27864368967E+02  0.84701353255E+02  0.00000000000E+00 0.  1.
         21    1    1    2  504  505 -0.60585088683E+02  0.55390831821E+01  0.60081948981E+02  0.85504824463E+02  0.00000000000E+00 0.  1.
         21    1    1    2  505  502 -0.43571320954E+02 -0.46762939427E+02  0.87173622246E+02  0.10809474052E+03  0.00000000000E+00 0.  1.
          3    1    1    2  501    0  0.70226511556E+02  0.11365767571E+03 -0.13398407952E+03  0.18921301154E+03  0.00000000000E+00 0.  1.
<scales pt_clust_3="79.98685" pt_clust_4="55.60735" pt_clust_5="55.60735" pt_clust_6="111.85318"></scales>
<clustering>
<clus scale="   55.607">  4  5 -1 -1</clus>
<clus scale="   79.987">  2  3  1 -1</clus>
<clus scale="  111.853">  2  6  1 -1</clus>
<clus scale="  125.538">  1  3  2 -1</clus>
</clustering>
</event>
<event>
 6    0  0.3695460E+002  0.1268352E+03  0.7546771E-02  0.1232229E+00
         21   -1    0    0  504  502  0.00000000000E+00  0.00000000000E+00  0.16679409537E+04  0.16679409537E+04  0.00000000000E+00 0. -1.
          1   -1    0    0  505    0 -0.00000000000E+00 -0.00000000000E+00 -0.27791646558E+02  0.27791646558E+02  0.00000000000E+00 0. -1.
         21    1    1    2  503  501 -0.70783660696E+02 -0.23114829315E+02  0.60045079936E+03  0.60505023296E+03  0.00000000000E+00 0. -1.
         21    1    1    2  504  503 -0.54969139620E+02  0.12141397635E+02  0.58652369146E+03  0.58921902591E+03  0.00000000000E+00 0. -1.
         21    1    1    2  505  502  0.15247391248E+02  0.50291875660E+02  0.26296897129E+02  0.58764636440E+02  0.00000000000E+00 0. -1.
          1    1    1    2  501    0  0.11050540907E+03 -0.39318443981E+02  0.42687791923E+03  0.44269870499E+03  0.00000000000E+00 0. -1.
<scales pt_clust_3="32.95389" pt_clust_4="32.95389" pt_clust_5="52.55241" pt_clust_6="121.04018"></scales>
<clustering>
<clus scale="   32.954">  3  4 -1 -1</clus>
<clus scale="   52.552">  2  5  1 -1</clus>
<clus scale="  121.040">  2  6  1 -1</clus>
<clus scale="  126.835">  1  3  2 -1</clus>
</clustering>
</event>
<event>
 6    0  0.3695460E+002  0.3249752E+03  0.7546771E-02  0.1073382E+00
          1   -1    0    0  503    0 -0.00000000000E+00  0.00000000000E+00  0.12519414950E+04  0.12519414950E+04  0.00000000000E+00 0.  1.
         21   -1    0    0  501  502  0.00000000000E+00 -0.00000000000E+00 -0.46113000353E+03  0.46113000353E+03  0.00000000000E+00 0.  1.
         21    1    1    2  503  505 -0.66732288028E+02 -0.21345339685E+02  0.45234487009E+03  0.45773868450E+03  0.00000000000E+00 0. -1.
         21    1    1    2  504  502 -0.96018935261E+01  0.20390286451E+03 -0.23869177070E+03  0.31407377464E+03  0.00000000000E+00 0.  1.
         21    1    1    2  505  504 -0.70297758003E+02  0.98106213390E+02 -0.12330657204E+03  0.17254308040E+03  0.00000000000E+00 0.  1.
          1    1    1    2  501    0  0.14663193956E+03 -0.28066373821E+03  0.70046496413E+03  0.76871595900E+03  0.00000000000E+00 0.  1.
<scales pt_clust_3="70.06298" pt_clust_4="69.45847" pt_clust_5="69.45847" pt_clust_6="312.16846"></scales>
<clustering>
<clus scale="   69.458">  4  5 -1 -1</clus>
<clus scale="   70.063">  1  3  2 -1</clus>
<clus scale="  312.168">  1  6  2 -1</clus>
<clus scale="  324.975">  2  3  1 -1</clus>
</clustering>
</event>
<event>
 6    0  0.3695460E+002  0.1176928E+03  0.7546771E-02  0.1246952E+00
         21   -1    0    0  504  502  0.00000000000E+00  0.00000000000E+00  0.99136823248E+03  0.99136823248E+03  0.00000000000E+00 0. -1.
         -2   -1    0    0    0  501 -0.00000000000E+00 -0.00000000000E+00 -0.15342313462E+03  0.15342313462E+03  0.00000000000E+00 0. -1.
         21    1    1    2  503  502 -0.18994440902E+02  0.51582678194E+02  0.32301089484E+03  0.32765469577E+03  0.00000000000E+00 0. -1.
         21    1    1    2  504  505  0.56514001806E+02 -0.11292935570E+02  0.56543123119E+03  0.56836066015E+03  0.00000000000E+00 0. -1.
         21    1    1    2  505  501 -0.13739897471E+03 -0.44153282161E+01 -0.28756947459E+02  0.14044548908E+03  0.00000000000E+00 0. -1.
         -2    1    1    2    0  503  0.99879413806E+02 -0.35874414408E+02 -0.21740080717E+02  0.10833052211E+03  0.00000000000E+00 0. -1.
<scales pt_clust_3="54.96873" pt_clust_4="51.87862" pt_clust_5="14000.00000" pt_clust_6="117.69279"></scales>
<clustering>
<clus scale="   54.969">  1  3  2 -1</clus>
<clus scale="   51.879">  1  4  2 -1</clus>
<clus scale="  117.693">  2  6  1 -1</clus>
<clus scale="   54.969">  1  3  2 -1</clus>
</clustering>
</event>
<event>
 6    0  0.3695460E+002  0.2099298E+03  0.7546771E-02  0.1141622E+00
         21   -1    0    0  501  502  0.00000000000E+00  0.00000000000E+00  0.23963228721E+03  0.23963228721E+03  0.00000000000E+00 0.  1.
          1   -1    0    0  504    0 -0.00000000000E+00 -0.00000000000E+00 -0.54673913047E+03  0.54673913047E+03  0.00000000000E+00 0.  1.
         21    1    1    2  503  505 -0.61128456228E+02  0.48144074968E+02  0.90919059411E+02  0.11966960967E+03  0.00000000000E+00 0.  1.
         21    1    1    2  504  503  0.33188662282E+02  0.19327226551E+02 -0.15039779798E+03  0.15522411741E+03  0.00000000000E+00 0.  1.
         21    1    1    2  505  502 -0.37213024862E+02  0.12029778931E+03  0.64471031268E+02  0.14146689084E+03  0.00000000000E+00 0.  1.
          1    1    1    2  501    0  0.65152818807E+02 -0.18776909083E+03 -0.31209913596E+03  0.37001079975E+03  0.00000000000E+00 0.  1.
<scales pt_clust_3="60.48940" pt_clust_4="38.40611" pt_clust_5="60.48940" pt_clust_6="195.11036"></scales>
<clustering>
<clus scale="   38.406">  2  4  1 -1</clus>
<clus scale="   60.489">  3  5 -1 -1</clus>
<clus scale="  195.110">  2  6  1 -1</clus>
<clus scale="  209.930">  1  3  2 -1</clus>
</clustering>
</event>
<event>
 6    0  0.3695460E+002  0.2369989E+03  0.7546771E-02  0.1121808E+00
          2   -1    0    0  502    0 -0.00000000000E+00  0.00000000000E+00  0.14388056717E+04  0.14388056717E+04  0.00000000000E+00 0.  1.
         21   -1    0    0  504  502  0.00000000000E+00 -0.00000000000E+00 -0.78981790713E+02  0.78981790713E+02  0.00000000000E+00 0. -1.
         21    1    1    2  503  505  0.99864885535E+02 -0.36892616074E+02  0.34061155790E+02  0.11177755954E+03  0.00000000000E+00 0. -1.
         21    1    1    2  504  503  0.99549132355E+02 -0.62662171213E+02  0.91031193148E+02  0.14873888389E+03  0.00000000000E+00 0. -1.
         21    1    1    2  505  501 -0.16010661758E+03  0.75783515355E+02  0.11158646684E+04  0.11298368150E+04  0.00000000000E+00 0.  1.
          2    1    1    2  501    0 -0.39307400306E+02  0.23771271933E+02  0.11886686363E+03  0.12743420403E+03  0.00000000000E+00 0.  1.
<scales pt_clust_3="47.98052" pt_clust_4="228.51854" pt_clust_5="41.02909" pt_clust_6="41.02909"></scales>
<clustering>
<clus scale="   41.029">  5  6 -1 -1</clus>
<clus scale="   47.981">  3  4 -1 -1</clus>
<clus scale="  228.519">  2  3  1 -1</clus>
<clus scale="  228.519">  2  3  1 -1</clus>
</clustering>
</event>
<event>
 6    0  0.3695460E+002  0.1540928E+03  0.7546771E-02  0.1195532E+00
         21   -1    0    0  504  502  0.00000000000E+00  0.00000000000E+00  0.34700089658E+02  0.34700089658E+02  0.00000000000E+00 0. -1.
          2   -1    0    0  502    0 -0.00000000000E+00 -0.00000000000E+00 -0.30843438837E+04  0.30843438837E+04  0.00000000000E+00 0.  1.
         21    1    1    2  503  501 -0.10087521930E+02 -0.32293409666E+02 -0.52721166142E+03  0.52829608966E+03  0.00000000000E+00 0. -1.
         21    1    1    2  504  505 -0.16283899271E+02  0.76996319783E+02 -0.48064362832E+02  0.92215950953E+02  0.00000000000E+00 0. -1.
         21    1    1    2  505  503 -0.48421329578E+02  0.48475468718E+02 -0.10035251594E+03  0.12151182527E+03  0.00000000000E+00 0. -1.
          2    1    1    2  501    0  0.74792750779E+02 -0.93178378835E+02 -0.23740152538E+04  0.23770201075E+04  0.00000000000E+00 0.  1.
<scales pt_clust_3="32.86550" pt_clust_4="153.79204" pt_clust_5="56.92499" pt_clust_6="32.86550"></scales>
<clustering>
<clus scale="   32.866">  3  6 -1 -1</clus>
<clus scale="   56.925">  4  5 -1 -1</clus>
<clus scale="  153.792">  1  4  2 -1</clus>
<clus scale="  153.792">  1  3  2 -1</clus>
</clustering>
</event>
<event>
 6    0  0.3695460E+002  0.1607533E+03  0.7546771E-02  0.1187849E+00
          2   -1    0    0  503    0 -0.00000000000E+00  0.00000000000E+00  0.20013999233E+04  0.20013999233E+04  0.00000000000E+00 0.  1.
         21   -1    0    0  505  502  0.00000000000E+00 -0.00000000000E+00 -0.23807751349E+02  0.23807751349E+02  0.00000000000E+00 0.  1.
         21    1    1    2  503  504  0.60432467833E+02  0.32440027332E+02  0.55909608139E+03  0.56328755247E+03  0.00000000000E+00 0.  1.
         21    1    1    2  504  502  0.89072362413E+02 -0.10942825726E+03  0.33837361847E+03  0.36661305883E+03  0.00000000000E+00 0.  1.
         21    1    1    2  505  501 -0.73884397810E+02  0.15022978087E+01  0.49916557305E+03  0.50460621325E+03  0.00000000000E+00 0. -1.
          2    1    1    2  501    0 -0.75620432436E+02  0.75485932119E+02  0.58095689909E+03  0.59070085014E+03  0.00000000000E+00 0.  1.
<scales pt_clust_3="68.58891" pt_clust_4="145.21537" pt_clust_5="57.34198" pt_clust_6="57.34198"></scales>
<clustering>
<clus scale="   57.342">  5  6 -1 -1</clus>
<clus scale="   68.589">  1  3  2 -1</clus>
<clus scale="  145.215">  2  4  1 -1</clus>
<clus scale="  145.215">  2  3  1 -1</clus>
</clustering>
</event>
<event>
 6    0  0.3695460E+002  0.8335764E+02  0.7546771E-02  0.1319784E+00
          2   -1    0    0  504    0 -0.00000000000E+00  0.00000000000E+00  0.71686250789E+03  0.71686250789E+03  0.00000000000E+00 0. -1.
         21   -1    0    0  505  502  0.00000000000E+00 -0.00000000000E+00 -0.69900198624E+02  0.69900198624E+02  0.00000000000E+00 0. -1.
         21    1    1    2  503  502  0.88392199052E+02  0.22004799292E+02  0.40978025919E+02  0.99882884687E+02  0.00000000000E+00 0. -1.
         21    1    1    2  504  503  0.33411036654E+02  0.10077653784E+02  0.17610238272E+03  0.17952689402E+03  0.00000000000E+00 0. -1.
         21    1    1    2  505  501 -0.73598452254E+02  0.61781298227E+02  0.41111055449E+02  0.10451688794E+03  0.00000000000E+00 0. -1.
          2    1    1    2  501    0 -0.48204783452E+02 -0.93863751303E+02  0.38877084518E+03  0.40283603987E+03  0.00000000000E+00 0. -1.
<scales pt_clust_3="83.35764" pt_clust_4="34.89780" pt_clust_5="14000.00000" pt_clust_6="89.64606"></scales>
<clustering>
<clus scale="   34.898">  1  4  2 -1</clus>
<clus scale="   89.646">  1  6  2 -1</clus>
<clus scale="   83.358">  2  3  1 -1</clus>
<clus scale="   83.358">  2  3  1 -1</clus>
</clustering>
</event>
<event>
 6    0  0.3695460E+002  0.1430942E+03  0.7546771E-02  0.1209225E+00
         21   -1    0    0  503  502  0.00000000000E+00  0.00000000000E+00  0.19970276551E+03  0.19970276551E+03  0.00000000000E+00 0.  1.
          1   -1    0    0  505    0 -0.00000000000E+00 -0.00000000000E+00 -0.53531394464E+03  0.53531394464E+03  0.00000000000E+00 0.  1.
         21    1    1    2  503  501 -0.58784454571E+02 -0.13137758200E+02 -0.14974088629E+03  0.16140181478E+03  0.00000000000E+00 0.  1.
         21    1    1    2  504  502  0.99164482704E+02 -0.25386883435E+02  0.15049273233E+03  0.18200590915E+03  0.00000000000E+00 0.  1.
         21    1    1    2  505  504  0.30889674102E+02  0.85201495814E+01  0.12413009653E+02  0.34363464955E+02  0.00000000000E+00 0.  1.
          1    1    1    2  501    0 -0.71269702236E+02  0.30004492054E+02 -0.34877603482E+03  0.35724552126E+03  0.00000000000E+00 0.  1.
<scales pt_clust_3="50.52625" pt_clust_4="142.39882" pt_clust_5="31.04501" pt_clust_6="50.52625"></scales>
<clustering>
<clus scale="   31.045">  4  5 -1 -1</clus>
<clus scale="   50.526">  3  6 -1 -1</clus>
<clus scale="  142.399">  1  4  2 -1</clus>
<clus scale="  142.399">  1  3  2 -1</clus>
</clustering>
</event>
<event>
 6    0  0.3695460E+002  0.1002163E+03  0.7546771E-02  0.1279842E+00
         21   -1    0    0  504  502  0.00000000000E+00  0.00000000000E+00  0.92628447062E+02  0.92628447062E+02  0.00000000000E+00 0. -1.
          1   -1    0    0  503    0 -0.00000000000E+00 -0.00000000000E+00 -0.24224071408E+04  0.24224071408E+04  0.00000000000E+00 0.  1.
         21    1    1    2  503  502  0.33313214090E+02 -0.33396823634E+01 -0.88153587322E+02  0.94297288768E+02  0.00000000000E+00 0.  1.
         21    1    1    2  504  505  0.25088196080E+02 -0.97946858993E+02  0.57903486300E+02  0.11651531442E+03  0.00000000000E+00 0. -1.
         21    1    1    2  505  501  0.11087230593E+02  0.69478757638E+02 -0.11666592495E+04  0.11687788623E+04  0.00000000000E+00 0.  1.
          1    1    1    2  501    0 -0.69488640763E+02  0.31807783719E+02 -0.11328693432E+04  0.11354441224E+04  0.00000000000E+00 0.  1.
<scales pt_clust_3="33.48020" pt_clust_4="100.21629" pt_clust_5="14000.00000" pt_clust_6="61.23644"></scales>
<clustering>
<clus scale="   33.480">  2  3  1 -1</clus>
<clus scale="   61.236">  2  6  1 -1</clus>
<clus scale="  100.216">  1  4  2 -1</clus>
<clus scale="  100.216">  1  3  2 -1</clus>
</clustering>
</event>
<event>
 6    0  0.3695460E+002  0.1143616E+03  0.7546771E-02  0.1252700E+00
         21   -1    0    0  505  502  0.00000000000E+00  0.00000000000E+00  0.25291373598E+03  0.25291373598E+03  0.00000000000E+00 0. -1.
          1   -1    0    0  503    0 -0.00000000000E+00 -0.00000000000E+00 -0.12238647239E+04  0.12238647239E+04  0.00000000000E+00 0.  1.
         21    1    1    2  503  504  0.35433372653E+02  0.32794802273E+02 -0.41289874698E+03  0.41571191733E+03  0.00000000000E+00 0. -1.
         21    1    1    2  504  502  0.88318424253E+02  0.20140715240E+02  0.30357722188E+02  0.95537342277E+02  0.00000000000E+00 0. -1.
         21    1    1    2  505  501  0.26853011475E+02 -0.18718732722E+02  0.17938907910E+03  0.18235108138E+03  0.00000000000E+00 0. -1.
          1    1    1    2  501    0 -0.15060480838E+03 -0.34216784792E+02 -0.76779904226E+03  0.78317811893E+03  0.00000000000E+00 0.  1.
<scales pt_clust_3="48.42122" pt_clust_4="14000.00000" pt_clust_5="32.73340" pt_clust_6="114.36157"></scales>
<clustering>
<clus scale="   32.733">  1  5  2 -1</clus>
<clus scale="   48.421">  2  3  1 -1</clus>
<clus scale="  114.362">  2  6  1 -1</clus>
<clus scale="   32.733">  1  3  2 -1</clus>
</clustering>
</event>
<event>
 6    0  0.3695460E+002  0.1145519E+03  0.7546771E-02  0.1252365E+00
          2   -1    0    0  505    0 -0.00000000000E+00  0.00000000000E+00  0.41022272697E+04  0.41022272697E+04  0.00000000000E+00 0. -1.
         21   -1    0    0  504  502  0.00000000000E+00 -0.00000000000E+00 -0.40368207059E+02  0.40368207059E+02  0.00000000000E+00 0. -1.
         21    1    1    2  503  502  0.72514824416E+01 -0.63390643370E+02  0.42509456893E+02  0.76668191512E+02  0.00000000000E+00 0. -1.
         21    1    1    2  504  501  0.33525148031E+02 -0.12371058452E+02  0.16637571581E+03  0.17017008389E+03  0.00000000000E+00 0.  1.
         21    1    1    2  505  503 -0.86270057104E+02 -0.31809025414E+02  0.82677916028E+02  0.12365263705E+03  0.00000000000E+00 0. -1.
          2    1    1    2  501    0  0.45493426632E+02  0.10757072724E+03  0.37702959739E+04  0.37721045643E+04  0.00000000000E+00 0. -1.
<scales pt_clust_3="72.35196" pt_clust_4="35.73484" pt_clust_5="114.55195" pt_clust_6="14000.00000"></scales>
<clustering>
<clus scale="   35.735">  2  4  1 -1</clus>
<clus scale="   72.352">  2  3  1 -1</clus>
<clus scale="  114.552">  2  5  1 -1</clus>
<clus scale="   35.735">  2  3  1 -1</clus>
</clustering>
</event>
<event>
 6    0  0.3695460E+002  0.2424769E+03  0.7546771E-02  0.1118154E+00
         21   -1    0    0  504  502  0.00000000000E+00  0.00000000000E+00  0.14595246833E+04  0.14595246833E+04  0.00000000000E+00 0. -1.
         -4   -1    0    0    0  501 -0.00000000000E+00 -0.00000000000E+00 -0.42001388048E+02  0.42001388048E+02  0.00000000000E+00 0.  1.
         21    1    1    2  503  502  0.44973077895E+02  0.47362964128E+02  0.36694480268E+03  0.37271210917E+03  0.00000000000E+00 0. -1.
         21    1    1    2  504  505 -0.79537972664E+02 -0.11101987265E+03  0.34685669602E+03  0.37277509143E+03  0.00000000000E+00 0. -1.
         21    1    1    2  505  501 -0.96062326866E+02 -0.39043631507E+02  0.19483506923E+03  0.22071039850E+03  0.00000000000E+00 0. -1.
         -4    1    1    2    0  503  0.13062722164E+03  0.10270054003E+03  0.50888672731E+03  0.53532847224E+03  0.00000000000E+00 0.  1.
<scales pt_clust_3="40.15549" pt_clust_4="64.27135" pt_clust_5="64.27135" pt_clust_6="239.70154"></scales>
<clustering>
<clus scale="   40.155">  3  6 -1 -1</clus>
<clus scale="   64.271">  4  5 -1 -1</clus>
<clus scale="  239.702">  1  3  2 -1</clus>
<clus scale="  239.702">  1  3  2 -1</clus>
</clustering>
</event>
<event>
 6    0  0.3695460E+002  0.1741589E+03  0.7546771E-02  0.1173579E+00
          2   -1    0    0  505    0 -0.00000000000E+00  0.00000000000E+00  0.21516239123E+04  0.21516239123E+04  0.00000000000E+00 0.  1.
         21   -1    0    0  504  502  0.00000000000E+00 -0.00000000000E+00 -0.30732175676E+02  0.30732175676E+02  0.00000000000E+00 0.  1.
         21    1    1    2  503  501 -0.16980024650E+02 -0.12396688707E+03  0.29941420910E+03  0.32450728642E+03  0.00000000000E+00 0.  1.
         21    1    1    2  504  503  0.30225816414E+02 -0.71266470878E+02  0.18575313638E+03  0.20123801213E+03  0.00000000000E+00 0.  1.
         21    1    1    2  505  502 -0.90150069258E+02  0.88627016650E+02  0.65201772537E+03  0.66416029485E+03  0.00000000000E+00 0.  1.
          2    1    1    2  501    0  0.76904277494E+02  0.10660634129E+03  0.98370666574E+03  0.99245049455E+03  0.00000000000E+00 0.  1.
<scales pt_clust_3="41.09159" pt_clust_4="41.09159" pt_clust_5="126.41908" pt_clust_6="166.13873"></scales>
<clustering>
<clus scale="   41.092">  3  4 -1 -1</clus>
<clus scale="  126.419">  1  5  2 -1</clus>
<clus scale="  166.139">  1  6  2 -1</clus>
<clus scale="  174.159">  2  3  1 -1</clus>
</clustering>
</event>
<event>
 6    0  0.3695460E+002  0.9070052E+02  0.7546771E-02  0.1301164E+00
         21   -1    0    0  504  502  0.00000000000E+00  0.00000000000E+00  0.59419190771E+02  0.59419190771E+02  0.00000000000E+00 0.  1.
         -2   -1    0    0    0  501 -0.00000000000E+00 -0.00000000000E+00 -0.38545960297E+03  0.38545960297E+03  0.00000000000E+00 0.  1.
         21    1    1    2  503  501  0.20960801091E+02  0.39630341822E+02 -0.52716820645E+02  0.69202473613E+02  0.00000000000E+00 0.  1.
         21    1    1    2  504  505  0.37002563742E+02 -0.60049619697E+02 -0.30745298837E+02  0.76944265217E+02  0.00000000000E+00 0.  1.
         21    1    1    2  505  503  0.20032067897E+02  0.53861823503E+02 -0.20536165632E+02  0.61025518221E+02  0.00000000000E+00 0.  1.
         -2    1    1    2    0  502 -0.77995432730E+02 -0.33442545627E+02 -0.22204212708E+03  0.23770653669E+03  0.00000000000E+00 0.  1.
<scales pt_clust_3="30.23958" pt_clust_4="70.53472" pt_clust_5="30.23958" pt_clust_6="83.99081"></scales>
<clustering>
<clus scale="   30.240">  3  5 -1 -1</clus>
<clus scale="   70.535">  1  4  2 -1</clus>
<clus scale="   83.991">  2  6  1 -1</clus>
<clus scale="   70.535">  1  3  2 -1</clus>
</clustering>
</event>
<event>
 6    0  0.3695460E+002  0.8102344E+02  0.7546771E-02  0.1326172E+00
          2   -1    0    0  504    0 -0.00000000000E+00  0.00000000000E+00  0.16026962301E+03  0.16026962301E+03  0.00000000000E+00 0. -1.
         21   -1    0    0  505  502  0.00000000000E+00 -0.00000000000E+00 -0.47702340604E+03  0.47702340604E+03  0.00000000000E+00 0. -1.
         21    1    1    2  503  501 -0.65986997481E+02  0.14438847246E+02 -0.23583479220E+03  0.24531778035E+03  0.00000000000E+00 0. -1.
         21    1    1    2  504  502  0.82068110328E+02 -0.82720633502E+02 -0.25400108553E+01  0.11655183222E+03  0.00000000000E+00 0. -1.
         21    1    1    2  505  503  0.68318155995E+00  0.31972119175E+02 -0.17130101021E+03  0.17426049248E+03  0.00000000000E+00 0. -1.
          2    1    1    2  501    0 -0.16764294408E+02  0.36309667080E+02  0.92922030223E+02  0.10116292400E+03  0.00000000000E+00 0. -1.
<scales pt_clust_3="81.02344" pt_clust_4="14000.00000" pt_clust_5="31.97942" pt_clust_6="40.38261"></scales>
<clustering>
<clus scale="   31.979">  2  5  1 -1</clus>
<clus scale="   40.383">  1  6  2 -1</clus>
<clus scale="   81.023">  2  3  1 -1</clus>
<clus scale="   31.979">  2  3  1 -1</clus>
</clustering>
</event>
<event>
 6    0  0.3695460E+002  0.1613453E+03  0.7546771E-02  0.1187186E+00
         21   -1    0    0  505  502  0.00000000000E+00  0.00000000000E+00  0.80941264240E+02  0.80941264240E+02  0.00000000000E+00 0.  1.
          1   -1    0    0  504    0 -0.00000000000E+00 -0.00000000000E+00 -0.92070877747E+03  0.92070877747E+03  0.00000000000E+00 0.  1.
         21    1    1    2  503  502 -0.91095171502E+02  0.28578066832E+02  0.80309691871E+00  0.95476076268E+02  0.00000000000E+00 0.  1.
         21    1    1    2  504  503 -0.44995081399E+02  0.48954124390E+02 -0.22687137146E+02  0.70255034245E+02  0.00000000000E+00 0.  1.
         21    1    1    2  505  501  0.10084873277E+03 -0.90099604906E+02 -0.63177694696E+03  0.64608862891E+03  0.00000000000E+00 0.  1.
          1    1    1    2  501    0  0.35241520130E+02  0.12567413684E+02 -0.18610652605E+03  0.18983030228E+03  0.00000000000E+00 0.  1.
<scales pt_clust_3="41.49992" pt_clust_4="41.49992" pt_clust_5="153.54551" pt_clust_6="37.41530"></scales>
<clustering>
<clus scale="   37.415">  2  6  1 -1</clus>
<clus scale="   41.500">  3  4 -1 -1</clus>
<clus scale="  153.546">  2  5  1 -1</clus>
<clus scale="  161.345">  1  3  2 -1</clus>
</clustering>
</event>
<event>
 6    0  0.3695460E+002  0.2343116E+03  0.7546771E-02  0.1123641E+00
         21   -1    0    0  503  502  0.00000000000E+00  0.00000000000E+00  0.10663280678E+04  0.10663280678E+04  0.00000000000E+00 0.  1.
          2   -1    0    0  504    0 -0.00000000000E+00 -0.00000000000E+00 -0.70512682522E+03  0.70512682522E+03  0.00000000000E+00 0. -1.
         21    1    1    2  503  501  0.10206431093E+03 -0.10159562801E+02  0.61395547096E+03  0.62246418419E+03  0.00000000000E+00 0.  1.
         21    1    1    2  504  505  0.18630750504E+02  0.29240975320E+02 -0.14703610755E+03  0.15106871425E+03  0.00000000000E+00 0.  1.
         21    1    1    2  505  502  0.39132217053E+02  0.19912888827E+03  0.38635453806E+03  0.43640975429E+03  0.00000000000E+00 0.  1.
          2    1    1    2  501    0 -0.15982727849E+03 -0.21821030079E+03 -0.49207265892E+03  0.56151224027E+03  0.00000000000E+00 0. -1.
<scales pt_clust_3="102.68866" pt_clust_4="34.67188" pt_clust_5="234.31162" pt_clust_6="14000.00000"></scales>
<clustering>
<clus scale="   34.672">  2  4  1 -1</clus>
<clus scale="  102.689">  1  3  2 -1</clus>
<clus scale="  234.312">  1  5  2 -1</clus>
<clus scale="  102.689">  1  3  2 -1</clus>
</clustering>
</event>
<event>
 6    0  0.3695460E+002  0.1198724E+03  0.7546771E-02  0.1243308E+00
         21   -1    0    0  504  502  0.00000000000E+00  0.00000000000E+00  0.31597495956E+02  0.31597495956E+02  0.00000000000E+00 0.  1.
         -2   -1    0    0    0  501 -0.00000000000E+00 -0.00000000000E+00 -0.66611200764E+03  0.66611200764E+03  0.00000000000E+00 0.  1.
         21    1    1    2  503  505 -0.26639558163E+02 -0.66400733478E+02 -0.11984692687E+03  0.13957796870E+03  0.00000000000E+00 0.  1.
         21    1    1    2  504  503 -0.47666486473E+02 -0.31689051087E+02 -0.61798894172E+02  0.84234157041E+02  0.00000000000E+00 0.  1.
         21    1    1    2  505  501 -0.21009614282E+01  0.37395952141E+02 -0.18635555044E+03  0.19008225181E+03  0.00000000000E+00 0. -1.
         -2    1    1    2    0  502  0.76407006065E+02  0.60693832423E+02 -0.26651314020E+03  0.28381512604E+03  0.00000000000E+00 0.  1.
<scales pt_clust_3="41.30456" pt_clust_4="41.30456" pt_clust_5="37.45492" pt_clust_6="111.42590"></scales>
<clustering>
<clus scale="   37.455">  2  5  1 -1</clus>
<clus scale="   41.305">  3  4 -1 -1</clus>
<clus scale="  111.426">  2  6  1 -1</clus>
<clus scale="  119.872">  1  3  2 -1</clus>
</clustering>
</event>
<event>
 6    0  0.3695460E+002  0.1874071E+03  0.7546771E-02  0.1160821E+00
         21   -1    0    0  503  502  0.00000000000E+00  0.00000000000E+00  0.10385161677E+04  0.10385161677E+04  0.00000000000E+00 0.  1.
          1   -1    0    0  505    0 -0.00000000000E+00 -0.00000000000E+00 -0.38174769251E+04  0.38174769251E+04  0.00000000000E+00 0.  1.
         21    1    1    2  503  501  0.20833287450E+03 -0.19624965595E+03  0.28872668891E+03  0.40654595675E+03  0.00000000000E+00 0.  1.
         21    1    1    2  504  502 -0.11811696285E+03  0.12201796796E+03  0.67558347389E+03  0.69660105628E+03  0.00000000000E+00 0.  1.
         21    1    1    2  505  504 -0.55564526019E+02  0.18743716135E+02 -0.18711898639E+03  0.19609247439E+03  0.00000000000E+00 0.  1.
          1    1    1    2  501    0 -0.34651385625E+02  0.55487971856E+02 -0.35561519338E+04  0.35567536054E+04  0.00000000000E+00 0.  1.
<scales pt_clust_3="187.40712" pt_clust_4="14000.00000" pt_clust_5="58.64080" pt_clust_6="115.78124"></scales>
<clustering>
<clus scale="   58.641">  2  5  1 -1</clus>
<clus scale="  115.781">  2  6  1 -1</clus>
<clus scale="  187.407">  2  3  1 -1</clus>
<clus scale="  187.407">  1  3  2 -1</clus>
</clustering>
</event>
<event>
 6    0  0.3695460E+002  0.8129988E+02  0.7546771E-02  0.1325403E+00
         21   -1    0    0  501  502  0.00000000000E+00  0.00000000000E+00  0.23736623498E+02  0.23736623498E+02  0.00000000000E+00 0.  1.
          1   -1    0    0  504    0 -0.00000000000E+00 -0.00000000000E+00 -0.30748845097E+04  0.30748845097E+04  0.00000000000E+00 0.  1.
         21    1    1    2  503  502 -0.55518252567E+01  0.34588192326E+02 -0.11890315330E+02  0.36993856392E+02  0.00000000000E+00 0.  1.
         21    1    1    2  504  505 -0.28291926901E+02  0.39588698879E+02 -0.57508935710E+03  0.57714423402E+03  0.00000000000E+00 0.  1.
         21    1    1    2  505  503 -0.71050922117E+02 -0.68115885752E+01 -0.14160722624E+03  0.15857880626E+03  0.00000000000E+00 0.  1.
          1    1    1    2  501    0  0.10489467427E+03 -0.67365302630E+02 -0.23225609875E+04  0.23259042365E+04  0.00000000000E+00 0.  1.
<scales pt_clust_3="35.03093" pt_clust_4="51.56043" pt_clust_5="14000.00000" pt_clust_6="81.29988"></scales>
<clustering>
<clus scale="   35.031">  1  3  2 -1</clus>
<clus scale="   51.560">  2  4  1 -1</clus>
<clus scale="   81.300">  2  6  1 -1</clus>
<clus scale="   35.031">  1  3  2 -1</clus>
</clustering>
</event>
<event>
 6    0  0.3695460E+002  0.1332631E+03  0.7546771E-02  0.1222693E+00
          1   -1    0    0  503    0 -0.00000000000E+00  0.00000000000E+00  0.49960421377E+03  0.49960421377E+03  0.00000000000E+00 0.  1.
         21   -1    0    0  504  502  0.00000000000E+00 -0.00000000000E+00 -0.38116666163E+03  0.38116666163E+03  0.00000000000E+00 0.  1.
         21    1    1    2  503  502 -0.33487331955E+02  0.37142325522E+02 -0.54132839016E+02  0.73697476257E+02  0.00000000000E+00 0.  1.
         21    1    1    2  504  505 -0.94126120626E+02 -0.46822300170E+02 -0.29892571462E+03  0.31687321950E+03  0.00000000000E+00 0.  1.
         21    1    1    2  505  501  0.50392307486E+02 -0.15390255212E+02  0.20003863136E+03  0.20686154463E+03  0.00000000000E+00 0.  1.
          1    1    1    2  501    0  0.77221145095E+02  0.25070229860E+02  0.27145747441E+03  0.28333863501E+03  0.00000000000E+00 0.  1.
<scales pt_clust_3="50.00954" pt_clust_4="127.08390" pt_clust_5="32.31169" pt_clust_6="32.31169"></scales>
<clustering>
<clus scale="   32.312">  5  6 -1 -1</clus>
<clus scale="   50.010">  2  3  1 -1</clus>
<clus scale="  127.084">  2  4  1 -1</clus>
<clus scale="   50.010">  2  3  1 -1</clus>
</clustering>
</event>
<event>
 6    0  0.3695460E+002  0.1862054E+03  0.7546771E-02  0.1161929E+00
          2   -1    0    0  504    0 -0.00000000000E+00  0.00000000000E+00  0.10237826585E+04  0.10237826585E+04  0.00000000000E+00 0.  1.
         21   -1    0    0  503  502  0.00000000000E+00 -0.00000000000E+00 -0.25884495763E+03  0.25884495763E+03  0.00000000000E+00 0. -1.
         21    1    1    2  503  501 -0.98530470902E+02 -0.10542865877E+03  0.27434977471E+03  0.30998589431E+03  0.00000000000E+00 0. -1.
         21    1    1    2  504  505  0.13190253520E+03  0.31892947492E+02 -0.13614390425E+03  0.19222539259E+03  0.00000000000E+00 0. -1.
         21    1    1    2  505  502  0.34685973901E+02  0.43535184478E+02 -0.64498077301E+02  0.85196426266E+02  0.00000000000E+00 0. -1.
          2    1    1    2  501    0 -0.68058038200E+02  0.30000526798E+02  0.69122990773E+03  0.69521990299E+03  0.00000000000E+00 0.  1.
<scales pt_clust_3="177.22277" pt_clust_4="36.59316" pt_clust_5="36.59316" pt_clust_6="74.37693"></scales>
<clustering>
<clus scale="   36.593">  4  5 -1 -1</clus>
<clus scale="   74.377">  1  6  2 -1</clus>
<clus scale="  177.223">  1  3  2 -1</clus>
<clus scale="  186.205">  2  3  1 -1</clus>
</clustering>
</event>
<event>
 6    0  0.3695460E+002  0.9920995E+02  0.7546771E-02  0.1281966E+00
          2   -1    0    0  504    0 -0.00000000000E+00  0.00000000000E+00  0.40327140295E+03  0.40327140295E+03  0.00000000000E+00 0.  1.
         21   -1    0    0  505  502  0.00000000000E+00 -0.00000000000E+00 -0.17890356396E+03  0.17890356396E+03  0.00000000000E+00 0. -1.
         21    1    1    2  503  502  0.11679294693E+03 -0.56347162565E+02 -0.94092077465E+02  0.16021521221E+03  0.00000000000E+00 0. -1.
         21    1    1    2  504  503 -0.16133910155E+02  0.37366238291E+02  0.29020619928E+02  0.49987350419E+02  0.00000000000E+00 0.  1.
         21    1    1    2  505  501 -0.40796502247E+02 -0.89142240653E+01 -0.26332486576E+02  0.49368186472E+02  0.00000000000E+00 0.  1.
          2    1    1    2  501    0 -0.59862534530E+02  0.27895148339E+02  0.31577178311E+03  0.32260421781E+03  0.00000000000E+00 0.  1.
<scales pt_clust_3="99.20995" pt_clust_4="40.70060" pt_clust_5="42.02460" pt_clust_6="14000.00000"></scales>
<clustering>
<clus scale="   40.701">  1  4  2 -1</clus>
<clus scale="   42.025">  2  5  1 -1</clus>
<clus scale="   99.210">  2  3  1 -1</clus>
<clus scale="   42.025">  2  3  1 -1</clus>
</clustering>
</event>
<event>
 6    0  0.3695460E+002  0.1301510E+03  0.7546771E-02  0.1227232E+00
          2   -1    0    0  504    0 -0.00000000000E+00  0.00000000000E+00  0.55750255891E+02  0.55750255891E+02  0.00000000000E+00 0. -1.
         21   -1    0    0  501  502  0.00000000000E+00 -0.00000000000E+00 -0.27825510266E+04  0.27825510266E+04  0.00000000000E+00 0. -1.
         21    1    1    2  503  502 -0.27532137773E+02  0.22920319425E+02 -0.39228955275E+03  0.39392188673E+03  0.00000000000E+00 0. -1.
         21    1    1    2  504  505  0.38341520340E+02 -0.53356769547E+02 -0.41713052479E+02  0.77826703551E+02  0.00000000000E+00 0. -1.
         21    1    1    2  505  503 -0.76781520818E+02  0.40028797724E+02 -0.22980495836E+04  0.22996803246E+04  0.00000000000E+00 0. -1.
          2    1    1    2  501    0  0.65972138251E+02 -0.95923476018E+01  0.52514181272E+01  0.66872367614E+02  0.00000000000E+00 0. -1.
<scales pt_clust_3="33.57224" pt_clust_4="65.70401" pt_clust_5="33.57224" pt_clust_6="119.22676"></scales>
<clustering>
<clus scale="   33.572">  3  5 -1 -1</clus>
<clus scale="   65.704">  1  4  2 -1</clus>
<clus scale="  119.227">  1  6  2 -1</clus>
<clus scale="  130.151">  2  3  1 -1</clus>
</clustering>
</event>
<event>
 6    0  0.3695460E+002  0.3184688E+03  0.7546771E-02  0.1076356E+00
          2   -1    0    0  505    0 -0.00000000000E+00  0.00000000000E+00  0.17468263989E+04  0.17468263989E+04  0.00000000000E+00 0.  1.
         21   -1    0    0  501  502  0.00000000000E+00 -0.00000000000E+00 -0.94270976104E+02  0.94270976104E+02  0.00000000000E+00 0.  1.
         21    1    1    2  503  502  0.15028595926E+03 -0.50786834544E+02  0.10610751745E+03  0.19085066773E+03  0.00000000000E+00 0.  1.
         21    1    1    2  504  503  0.14769684724E+03 -0.23766847975E+02  0.27421465466E+03  0.31236660925E+03  0.00000000000E+00 0.  1.
         21    1    1    2  505  504 -0.16905256732E+02  0.12101914236E+03  0.27877049378E+03  0.30437544041E+03  0.00000000000E+00 0.  1.
          2    1    1    2  501    0 -0.28107754977E+03 -0.46465459840E+02  0.99346275695E+03  0.10335046577E+04  0.00000000000E+00 0.  1.
<scales pt_clust_3="115.84410" pt_clust_4="115.84410" pt_clust_5="122.19419" pt_clust_6="295.28241"></scales>
<clustering>
<clus scale="  115.844">  3  4 -1 -1</clus>
<clus scale="  122.194">  1  5  2 -1</clus>
<clus scale="  295.282">  1  6  2 -1</clus>
<clus scale="  318.469">  2  3  1 -1</clus>
</clustering>
</event>
<event>
 6    0  0.3695460E+002  0.1310248E+03  0.7546771E-02  0.1225943E+00
          1   -1    0    0  505    0 -0.00000000000E+00  0.00000000000E+00  0.17591925942E+04  0.17591925942E+04  0.00000000000E+00 0. -1.
         21   -1    0    0  501  502  0.00000000000E+00 -0.00000000000E+00 -0.18084281621E+03  0.18084281621E+03  0.00000000000E+00 0.  1.
         21    1    1    2  503  502  0.38302341125E+02 -0.65668049538E+02 -0.14282893513E+03  0.16180070079E+03  0.00000000000E+00 0.  1.
         21    1    1    2  504  503 -0.15431051938E+02 -0.78347566713E+02  0.40649858001E+02  0.89603959339E+02  0.00000000000E+00 0.  1.
         21    1    1    2  505  504 -0.36372198798E+02  0.29421983777E+02  0.35093326363E+03  0.35403777411E+03  0.00000000000E+00 0. -1.
          1    1    1    2  501    0  0.13500909611E+02  0.11459363247E+03  0.13295955914E+04  0.13345929761E+04  0.00000000000E+00 0. -1.
<scales pt_clust_3="75.72724" pt_clust_4="14000.00000" pt_clust_5="46.78237" pt_clust_6="131.02478"></scales>
<clustering>
<clus scale="   46.782">  1  5  2 -1</clus>
<clus scale="   75.727">  2  3  1 -1</clus>
<clus scale="  131.025">  1  6  2 -1</clus>
<clus scale="   75.727">  2  3  1 -1</clus>
</clustering>
</event>
<event>
 6    0  0.3695460E+002  0.1191231E+03  0.7546771E-02  0.1244551E+00
          2   -1    0    0  504    0 -0.00000000000E+00  0.00000000000E+00  0.18371075137E+04  0.18371075137E+04  0.00000000000E+00 0.  1.
         21   -1    0    0  505  502  0.00000000000E+00 -0.00000000000E+00 -0.11782912330E+04  0.11782912330E+04  0.00000000000E+00 0.  1.
         21    1    1    2  503  502  0.65168256874E+02  0.10388347737E+02 -0.22532126697E+03  0.23478605755E+03  0.00000000000E+00 0.  1.
         21    1    1    2  504  503  0.78382468005E+02 -0.84499329657E+02  0.85744991719E+03  0.86516143493E+03  0.00000000000E+00 0.  1.
         21    1    1    2  505  501 -0.58585108062E+02  0.10907067929E+03 -0.93813221912E+03  0.94626671109E+03  0.00000000000E+00 0.  1.
          2    1    1    2  501    0 -0.84965616816E+02 -0.34959697367E+02  0.96481984959E+03  0.96918454313E+03  0.00000000000E+00 0.  1.
<scales pt_clust_3="65.99106" pt_clust_4="14000.00000" pt_clust_5="119.12306" pt_clust_6="91.72895"></scales>
<clustering>
<clus scale="   65.991">  2  3  1 -1</clus>
<clus scale="   91.729">  1  6  2 -1</clus>
<clus scale="  119.123">  2  5  1 -1</clus>
<clus scale="   65.991">  2  3  1 -1</clus>
</clustering>
</event>
<event>
 6    0  0.3695460E+002  0.2796698E+03  0.7546771E-02  0.1095869E+00
         21   -1    0    0  504  502  0.00000000000E+00  0.00000000000E+00  0.57879094673E+03  0.57879094673E+03  0.00000000000E+00 0.  1.
          2   -1    0    0  503    0 -0.00000000000E+00 -0.00000000000E+00 -0.59491812784E+03  0.59491812784E+03  0.00000000000E+00 0. -1.
         21    1    1    2  503  505 -0.88317164661E+02  0.11262644171E+03  0.27866319517E+03  0.31326955372E+03  0.00000000000E+00 0.  1.
         21    1    1    2  504  501  0.27167655737E+02 -0.74524583466E+02 -0.19106516928E+03  0.20687651865E+03  0.00000000000E+00 0. -1.
         21    1    1    2  505  502 -0.11430993139E+03  0.52735850677E+02  0.23203397623E+03  0.26398408377E+03  0.00000000000E+00 0.  1.
          2    1    1    2  501    0  0.17545944031E+03 -0.90837708918E+02 -0.33575918323E+03  0.38957891842E+03  0.00000000000E+00 0. -1.
<scales pt_clust_3="269.09136" pt_clust_4="62.76568" pt_clust_5="59.37243" pt_clust_6="62.76568"></scales>
<clustering>
<clus scale="   59.372">  3  5 -1 -1</clus>
<clus scale="   62.766">  4  6 -1 -1</clus>
<clus scale="  269.091">  1  3  2 -1</clus>
<clus scale="  269.091">  1  3  2 -1</clus>
</clustering>
</event>
<event>
 6    0  0.3695460E+002  0.2085496E+03  0.7546771E-02  0.1142720E+00
         21   -1    0    0  503  502  0.00000000000E+00  0.00000000000E+00  0.51225002857E+02  0.51225002857E+02  0.00000000000E+00 0. -1.
          2   -1    0    0  505    0 -0.00000000000E+00 -0.00000000000E+00 -0.22815120681E+04  0.22815120681E+04  0.00000000000E+00 0. -1.
         21    1    1    2  503  501  0.11388019752E+03  0.82002205341E+02 -0.61059683132E+03  0.62651540402E+03  0.00000000000E+00 0. -1.
         21    1    1    2  504  502 -0.72197461824E+02 -0.50571547138E+02 -0.96703933920E+02  0.13084955372E+03  0.00000000000E+00 0. -1.
         21    1    1    2  505  504 -0.14761001825E+03 -0.55573462668E+02 -0.23627779001E+03  0.28408505996E+03  0.00000000000E+00 0. -1.
          2    1    1    2  501    0  0.10592728255E+03  0.24142804464E+02 -0.12867085100E+04  0.12912870532E+04  0.00000000000E+00 0. -1.
<scales pt_clust_3="204.40428" pt_clust_4="30.93021" pt_clust_5="30.93021" pt_clust_6="108.64375"></scales>
<clustering>
<clus scale="   30.930">  4  5 -1 -1</clus>
<clus scale="  108.644">  2  6  1 -1</clus>
<clus scale="  204.404">  2  3  1 -1</clus>
<clus scale="  208.550">  1  3  2 -1</clus>
</clustering>
</event>
<event>
 6    0  0.3695460E+002  0.2744864E+03  0.7546771E-02  0.1098739E+00
         21   -1    0    0  501  502  0.00000000000E+00  0.00000000000E+00  0.22684048223E+03  0.22684048223E+03  0.00000000000E+00 0.  1.
          2   -1    0    0  505    0 -0.00000000000E+00 -0.00000000000E+00 -0.55469847665E+03  0.55469847665E+03  0.00000000000E+00 0. -1.
         21    1    1    2  503  502 -0.17771333789E+03  0.10418123466E+02 -0.70206102180E+01  0.17815683183E+03  0.00000000000E+00 0.  1.
         21    1    1    2  504  503 -0.97603244095E+02 -0.18206716082E+02  0.51753945506E+02  0.11196583695E+03  0.00000000000E+00 0. -1.
         21    1    1    2  505  504  0.49467902904E+02  0.64244546554E+02 -0.56401524517E+02  0.98770274615E+02  0.00000000000E+00 0.  1.
          2    1    1    2  501    0  0.22584867908E+03 -0.56455953938E+02 -0.31618980519E+03  0.39264601549E+03  0.00000000000E+00 0. -1.
<scales pt_clust_3="59.32466" pt_clust_4="59.32466" pt_clust_5="81.08289" pt_clust_6="262.74054"></scales>
<clustering>
<clus scale="   59.325">  3  4 -1 -1</clus>
<clus scale="   81.083">  2  5  1 -1</clus>
<clus scale="  262.741">  2  6  1 -1</clus>
<clus scale="  274.486">  1  3  2 -1</clus>
</clustering>
</event>
<event>
 6    0  0.3695460E+002  0.1380824E+03  0.7546771E-02  0.1215933E+00
         21   -1    0    0  505  502  0.00000000000E+00  0.00000000000E+00  0.40092081804E+02  0.40092081804E+02  0.00000000000E+00 0.  1.
          2   -1    0    0  504    0 -0.00000000000E+00 -0.00000000000E+00 -0.15668676532E+04  0.15668676532E+04  0.00000000000E+00 0.  1.
         21    1    1    2  503  501 -0.53205749629E+01  0.30680450842E+02 -0.27545229425E+03  0.27720671887E+03  0.00000000000E+00 0. -1.
         21    1    1    2  504  502 -0.72548082640E+02 -0.71419676864E+02 -0.11232488517E+03  0.15159444042E+03  0.00000000000E+00 0.  1.
         21    1    1    2  505  503 -0.56537244269E+01 -0.31852799739E+02  0.14219691645E+01  0.32381899997E+02  0.00000000000E+00 0.  1.
          2    1    1    2  501    0  0.83522382030E+02  0.72592025761E+02 -0.11404203611E+04  0.11457766757E+04  0.00000000000E+00 0.  1.
<scales pt_clust_3="30.95653" pt_clust_4="125.14432" pt_clust_5="32.35066" pt_clust_6="30.95653"></scales>
<clustering>
<clus scale="   30.957">  3  6 -1 -1</clus>
<clus scale="   32.351">  1  5  2 -1</clus>
<clus scale="  125.144">  1  4  2 -1</clus>
<clus scale="   32.351">  1  3  2 -1</clus>
</clustering>
</event>
<event>
 6    0  0.3695460E+002  0.1299700E+03  0.7546771E-02  0.1227500E+00
         21   -1    0    0  501  502  0.00000000000E+00  0.00000000000E+00  0.47561451956E+03  0.47561451956E+03  0.00000000000E+00 0.  1.
          2   -1    0    0  504    0 -0.00000000000E+00 -0.00000000000E+00 -0.38346123749E+03  0.38346123749E+03  0.00000000000E+00 0.  1.
         21    1    1    2  503  502  0.14652071402E+02  0.49942284896E+02  0.25369515570E+03  0.25897904749E+03  0.00000000000E+00 0.  1.
         21    1    1    2  504  505 -0.28533629732E+02 -0.15681503817E+02 -0.59541701505E+02  0.67862300328E+02  0.00000000000E+00 0.  1.
         21    1    1    2  505  503 -0.10706219437E+02  0.72671337533E+02  0.19885888492E+03  0.21199198698E+03  0.00000000000E+00 0.  1.
          2    1    1    2  501    0  0.24587777767E+02 -0.10693211861E+03 -0.30085905704E+03  0.32024242225E+03  0.00000000000E+00 0.  1.
<scales pt_clust_3="37.24581" pt_clust_4="32.55883" pt_clust_5="37.24581" pt_clust_6="122.20196"></scales>
<clustering>
<clus scale="   32.559">  2  4  1 -1</clus>
<clus scale="   37.246">  3  5 -1 -1</clus>
<clus scale="  122.202">  2  6  1 -1</clus>
<clus scale="  129.970">  1  3  2 -1</clus>
</clustering>
</event>
<event>
 6    0  0.3695460E+002  0.9920059E+02  0.7546771E-02  0.1281986E+00
         21   -1    0    0  503  502  0.00000000000E+00  0.00000000000E+00  0.67087569066E+02  0.67087569066E+02  0.00000000000E+00 0.  1.
          2   -1    0    0  504    0 -0.00000000000E+00 -0.00000000000E+00 -0.16295665296E+04  0.16295665296E+04  0.00000000000E+00 0.  1.
         21    1    1    2  503  501 -0.28985144248E+02  0.20461813509E+02 -0.28763839519E+02  0.45674750826E+02  0.00000000000E+00 0.  1.
         21    1    1    2  504  505  0.10776523914E+03  0.95476098142E+02 -0.10475463790E+04  0.10573941782E+04  0.00000000000E+00 0.  1.
         21    1    1    2  505  502 -0.52999385107E+02 -0.72580443450E+02  0.13933798876E+02  0.90945073227E+02  0.00000000000E+00 0.  1.
          2    1    1    2  501    0 -0.25780709789E+02 -0.43357468202E+02 -0.50010254092E+03  0.50264009638E+03  0.00000000000E+00 0.  1.
<scales pt_clust_3="35.47992" pt_clust_4="99.20059" pt_clust_5="14000.00000" pt_clust_6="50.38898"></scales>
<clustering>
<clus scale="   35.480">  1  3  2 -1</clus>
<clus scale="   50.389">  2  6  1 -1</clus>
<clus scale="   99.201">  2  4  1 -1</clus>
<clus scale="   35.480">  1  3  2 -1</clus>
</clustering>
</event>
<event>
 6    0  0.3695460E+002  0.3031361E+03  0.7546771E-02  0.1083683E+00
          2   -1    0    0  505    0 -0.00000000000E+00  0.00000000000E+00  0.18983399768E+04  0.18983399768E+04  0.00000000000E+00 0. -1.
         21   -1    0    0  504  502  0.00000000000E+00 -0.00000000000E+00 -0.27209105861E+03  0.27209105861E+03  0.00000000000E+00 0. -1.
         21    1    1    2  503  502 -0.40180359301E+02 -0.13343960304E+01  0.13079037784E+02  0.42276507846E+02  0.00000000000E+00 0. -1.
         21    1    1    2  504  501 -0.20541858774E+03 -0.57094938362E+02 -0.15176130261E+03  0.26170235219E+03  0.00000000000E+00 0. -1.
         21    1    1    2  505  503  0.17720422671E+02 -0.15340929127E+03  0.12906717026E+03  0.20126290882E+03  0.00000000000E+00 0.  1.
          2    1    1    2  501    0  0.22787852437E+03  0.21183862566E+03  0.16358640128E+04  0.16651892665E+04  0.00000000000E+00 0. -1.
<scales pt_clust_3="40.20251" pt_clust_4="303.13611" pt_clust_5="154.07125" pt_clust_6="14000.00000"></scales>
<clustering>
<clus scale="   40.203">  2  3  1 -1</clus>
<clus scale="  154.071">  2  5  1 -1</clus>
<clus scale="  303.136">  2  4  1 -1</clus>
<clus scale="   40.203">  2  3  1 -1</clus>
</clustering>
</event>
<event>
 6    0  0.3695460E+002  0.1100246E+03  0.7546771E-02  0.1260524E+00
         21   -1    0    0  504  502  0.00000000000E+00  0.00000000000E+00  0.63769411439E+02  0.63769411439E+02  0.00000000000E+00 0.  1.
          1   -1    0    0  503    0 -0.00000000000E+00 -0.00000000000E+00 -0.26711119510E+04  0.26711119510E+04  0.00000000000E+00 0.  1.
         21    1    1    2  503  505  0.11187085174E+02  0.32415359384E+02 -0.19985743743E+03  0.20277796156E+03  0.00000000000E+00 0.  1.
         21    1    1    2  504  501  0.60562997846E+01  0.38126996445E+02  0.19726528348E+02  0.43352999269E+02  0.00000000000E+00 0.  1.
         21    1    1    2  505  502 -0.11259906490E+03 -0.64914133034E+02 -0.11200374279E+03  0.17157281977E+03  0.00000000000E+00 0.  1.
          1    1    1    2  501    0  0.95355679940E+02 -0.56282227942E+01 -0.23152078877E+04  0.23171775819E+04  0.00000000000E+00 0.  1.
<scales pt_clust_3="34.29149" pt_clust_4="38.76654" pt_clust_5="110.02457" pt_clust_6="14000.00000"></scales>
<clustering>
<clus scale="   34.291">  2  3  1 -1</clus>
<clus scale="   38.767">  1  4  2 -1</clus>
<clus scale="  110.025">  1  5  2 -1</clus>
<clus scale="   38.767">  1  3  2 -1</clus>
</clustering>
</event>
<event>
 6    0  0.3695460E+002  0.1114300E+03  0.7546771E-02  0.1257944E+00
         21   -1    0    0  501  502  0.00000000000E+00  0.00000000000E+00  0.11134616995E+03  0.11134616995E+03  0.00000000000E+00 0.  1.
          2   -1    0    0  503    0 -0.00000000000E+00 -0.00000000000E+00 -0.15132338360E+04  0.15132338360E+04  0.00000000000E+00 0. -1.
         21    1    1    2  503  504  0.14732714339E+02 -0.43118542894E+02 -0.22021324467E+03  0.22487804415E+03  0.00000000000E+00 0. -1.
         21    1    1    2  504  505  0.56815819568E+02  0.69634317807E+02  0.10560764432E+02  0.90490360343E+02  0.00000000000E+00 0.  1.
         21    1    1    2  505  502 -0.31539676842E+02  0.43866423121E+02  0.44398749805E+02  0.69930417394E+02  0.00000000000E+00 0.  1.
          2    1    1    2  501    0 -0.40008857064E+02 -0.70382198035E+02 -0.12366339356E+04  0.12392811841E+04  0.00000000000E+00 0. -1.
<scales pt_clust_3="45.56601" pt_clust_4="111.42999" pt_clust_5="53.59673" pt_clust_6="14000.00000"></scales>
<clustering>
<clus scale="   45.566">  2  3  1 -1</clus>
<clus scale="   53.597">  1  5  2 -1</clus>
<clus scale="  111.430">  1  4  2 -1</clus>
<clus scale="   53.597">  1  3  2 -1</clus>
</clustering>
</event>
<event>
 6    0  0.3695460E+002  0.1292638E+03  0.7546771E-02  0.1228552E+00
          4   -1    0    0  503    0 -0.00000000000E+00  0.00000000000E+00  0.29015781780E+03  0.29015781780E+03  0.00000000000E+00 0. -1.
         21   -1    0    0  501  502  0.00000000000E+00 -0.00000000000E+00 -0.51284823158E+03  0.51284823158E+03  0.00000000000E+00 0. -1.
         21    1    1    2  503  504 -0.83297406342E+01  0.29231671875E+02 -0.55713483151E+00  0.30400421359E+02  0.00000000000E+00 0. -1.
         21    1    1    2  504  505 -0.24427029590E+02 -0.43586252875E+02 -0.12877805072E+03  0.13813119692E+03  0.00000000000E+00 0. -1.
         21    1    1    2  505  502 -0.48813653281E+02 -0.56970784027E+02 -0.34891647213E+03  0.35689094623E+03  0.00000000000E+00 0. -1.
          4    1    1    2  501    0  0.81570423506E+02  0.71325365027E+02  0.25556124391E+03  0.27758348487E+03  0.00000000000E+00 0. -1.
<scales pt_clust_3="30.39532" pt_clust_4="30.30453" pt_clust_5="30.30453" pt_clust_6="123.81512"></scales>
<clustering>
<clus scale="   30.305">  4  5 -1 -1</clus>
<clus scale="   30.395">  1  3  2 -1</clus>
<clus scale="  123.815">  1  6  2 -1</clus>
<clus scale="  129.264">  2  3  1 -1</clus>
</clustering>
</event>
<event>
 6    0  0.3695460E+002  0.1289892E+03  0.7546771E-02  0.1228963E+00
          1   -1    0    0  504    0 -0.00000000000E+00  0.00000000000E+00  0.62579619612E+03  0.62579619612E+03  0.00000000000E+00 0. -1.
         21   -1    0    0  503  502  0.00000000000E+00 -0.00000000000E+00 -0.90806634715E+02  0.90806634715E+02  0.00000000000E+00 0.  1.
         21    1    1    2  503  505 -0.49850830802E+02 -0.18704643557E+02 -0.27019647772E+02  0.59707875426E+02  0.00000000000E+00 0.  1.
         21    1    1    2  504  502  0.26450067821E+02 -0.20931199134E+02  0.34034260399E+02  0.47917137496E+02  0.00000000000E+00 0.  1.
         21    1    1    2  505  501 -0.77107712511E+02 -0.25526840155E+02  0.15498514523E+02  0.82688710532E+02  0.00000000000E+00 0. -1.
          1    1    1    2  501    0  0.10050847549E+03  0.65162682846E+02  0.51247643425E+03  0.52628910738E+03  0.00000000000E+00 0. -1.
<scales pt_clust_3="35.97446" pt_clust_4="33.73012" pt_clust_5="35.97446" pt_clust_6="120.70233"></scales>
<clustering>
<clus scale="   33.730">  2  4  1 -1</clus>
<clus scale="   35.974">  3  5 -1 -1</clus>
<clus scale="  120.702">  1  6  2 -1</clus>
<clus scale="   33.730">  2  3  1 -1</clus>
</clustering>
</event>
<event>
 6    0  0.3695460E+002  0.2035871E+03  0.7546771E-02  0.1146747E+00
         21   -1    0    0  501  502  0.00000000000E+00  0.00000000000E+00  0.12103039417E+03  0.12103039417E+03  0.00000000000E+00 0.  1.
          4   -1    0    0  505    0 -0.00000000000E+00 -0.00000000000E+00 -0.42251768524E+03  0.42251768524E+03  0.00000000000E+00 0.  1.
         21    1    1    2  503  502 -0.83660358523E+02 -0.32162080339E+01 -0.10360943053E+03  0.13320778385E+03  0.00000000000E+00 0.  1.
         21    1    1    2  504  503 -0.10420158031E+03 -0.41230249376E+02 -0.95077483377E+02  0.14696132365E+03  0.00000000000E+00 0.  1.
         21    1    1    2  505  504 -0.15585976900E+02  0.30639423074E+02 -0.33525346204E+02  0.48017140276E+02  0.00000000000E+00 0.  1.
          4    1    1    2  501    0  0.20344791573E+03  0.13807034336E+02 -0.69275030953E+02  0.21536183164E+03  0.00000000000E+00 0.  1.
<scales pt_clust_3="36.97526" pt_clust_4="36.97526" pt_clust_5="34.37582" pt_clust_6="199.24118"></scales>
<clustering>
<clus scale="   34.376">  2  5  1 -1</clus>
<clus scale="   36.975">  3  4 -1 -1</clus>
<clus scale="  199.241">  1  6  2 -1</clus>
<clus scale="  199.241">  1  3  2 -1</clus>
</clustering>
</event>
<event>
 6    0  0.3695460E+002  0.1248699E+03  0.7546771E-02  0.1235273E+00
         21   -1    0    0  501  502  0.00000000000E+00  0.00000000000E+00  0.15215352437E+03  0.15215352437E+03  0.00000000000E+00 0.  1.
          2   -1    0    0  503    0 -0.00000000000E+00 -0.00000000000E+00 -0.23922913284E+04  0.23922913284E+04  0.00000000000E+00 0.  1.
         21    1    1    2  503  504 -0.11737176661E+03 -0.49926296392E+02 -0.14008337841E+04  0.14066286139E+04  0.00000000000E+00 0. -1.
         21    1    1    2  504  505  0.85518339301E+02 -0.15734416313E+02  0.17842802473E+02  0.88765555333E+02  0.00000000000E+00 0.  1.
         21    1    1    2  505  502 -0.13895331971E+02 -0.84206592887E+02  0.68995603734E+02  0.10974617930E+03  0.00000000000E+00 0.  1.
          2    1    1    2  501    0  0.45748759283E+02  0.14986730559E+03 -0.92614242614E+03  0.93930450428E+03  0.00000000000E+00 0.  1.
<scales pt_clust_3="124.86992" pt_clust_4="114.20817" pt_clust_5="85.34536" pt_clust_6="14000.00000"></scales>
<clustering>
<clus scale="   85.345">  1  5  2 -1</clus>
<clus scale="  114.208">  1  4  2 -1</clus>
<clus scale="  124.870">  2  3  1 -1</clus>
<clus scale="   85.345">  1  3  2 -1</clus>
</clustering>
</event>
<event>
 6    0  0.3695460E+002  0.1537628E+03  0.7546771E-02  0.1195924E+00
          1   -1    0    0  505    0 -0.00000000000E+00  0.00000000000E+00  0.17550374557E+04  0.17550374557E+04  0.00000000000E+00 0.  1.
         21   -1    0    0  504  502  0.00000000000E+00 -0.00000000000E+00 -0.36877030278E+02  0.36877030278E+02  0.00000000000E+00 0. -1.
         21    1    1    2  503  502  0.24915701679E+02 -0.54061044418E+02  0.88722022157E+02  0.10684093752E+03  0.00000000000E+00 0. -1.
         21    1    1    2  504  501 -0.38148279821E+02  0.76441075122E+02  0.63484292748E+03  0.64056543131E+03  0.00000000000E+00 0. -1.
         21    1    1    2  505  503  0.51526200443E+02 -0.65015452361E+02  0.47327811695E+02  0.95508534371E+02  0.00000000000E+00 0. -1.
          1    1    1    2  501    0 -0.38293622301E+02  0.42635421656E+02  0.94726766406E+03  0.94899958275E+03  0.00000000000E+00 0.  1.
<scales pt_clust_3="41.61224" pt_clust_4="49.28085" pt_clust_5="149.78569" pt_clust_6="49.28085"></scales>
<clustering>
<clus scale="   41.612">  3  5 -1 -1</clus>
<clus scale="   49.281">  4  6 -1 -1</clus>
<clus scale="  149.786">  2  3  1 -1</clus>
<clus scale="  149.786">  2  3  1 -1</clus>
</clustering>
</event>
<event>
 6    0  0.3788854E+002  0.1410394E+03  0.7546771E-02  0.1211937E+00
         21   -1    0    0  504  502  0.00000000000E+00  0.00000000000E+00  0.17157497820E+03  0.17157497820E+03  0.00000000000E+00 0. -1.
          2   -1    0    0  503    0 -0.00000000000E+00 -0.00000000000E+00 -0.45099663638E+03  0.45099663638E+03  0.00000000000E+00 0.  1.
         21    1    1    2  503  502  0.27673408913E+02 -0.17090651781E+02 -0.35930070777E+02  0.48465223875E+02  0.00000000000E+00 0.  1.
         21    1    1    2  504  505 -0.68282457683E+02  0.53779431535E+02  0.11409447038E+03  0.14343036448E+03  0.00000000000E+00 0. -1.
         21    1    1    2  505  501 -0.42837352282E+02  0.17052626335E+02  0.12288052755E+02  0.47716108977E+02  0.00000000000E+00 0. -1.
          2    1    1    2  501    0  0.83446401052E+02 -0.53741406089E+02 -0.36987411053E+03  0.38295991725E+03  0.00000000000E+00 0.  1.
<scales pt_clust_3="32.52550" pt_clust_4="40.84697" pt_clust_5="40.84697" pt_clust_6="129.19938"></scales>
<clustering>
<clus scale="   32.525">  2  3  1 -1</clus>
<clus scale="   40.847">  4  5 -1 -1</clus>
<clus scale="  129.199">  2  6  1 -1</clus>
<clus scale="  141.039">  1  3  2 -1</clus>
</clustering>
</event>
<event>
 6    0  0.3695460E+002  0.1184709E+03  0.7546771E-02  0.1245641E+00
         21   -1    0    0  503  502  0.00000000000E+00  0.00000000000E+00  0.49666880374E+03  0.49666880374E+03  0.00000000000E+00 0.  1.
          2   -1    0    0  504    0 -0.00000000000E+00 -0.00000000000E+00 -0.25511628008E+03  0.25511628008E+03  0.00000000000E+00 0.  1.
         21    1    1    2  503  501  0.36589367915E+02  0.57299736710E+01  0.10748542684E+03  0.11368698881E+03  0.00000000000E+00 0.  1.
         21    1    1    2  504  505  0.20134786340E+02  0.37948250918E+02 -0.20826580970E+02  0.47741238396E+02  0.00000000000E+00 0. -1.
         21    1    1    2  505  502  0.24824773210E+02 -0.10973008970E+03  0.35064414952E+03  0.36825029741E+03  0.00000000000E+00 0.  1.
          2    1    1    2  501    0 -0.81548927464E+02  0.66051865113E+02 -0.19575047174E+03  0.22210655920E+03  0.00000000000E+00 0.  1.
<scales pt_clust_3="37.03531" pt_clust_4="43.74543" pt_clust_5="118.47087" pt_clust_6="14000.00000"></scales>
<clustering>
<clus scale="   37.035">  1  3  2 -1</clus>
<clus scale="   43.745">  2  4  1 -1</clus>
<clus scale="  118.471">  1  5  2 -1</clus>
<clus scale="   37.035">  1  3  2 -1</clus>
</clustering>
</event>
<event>
 6    0  0.3695460E+002  0.1136705E+03  0.7546771E-02  0.1253920E+00
         21   -1    0    0  503  502  0.00000000000E+00  0.00000000000E+00  0.10974322954E+04  0.10974322954E+04  0.00000000000E+00 0.  1.
          4   -1    0    0  504    0 -0.00000000000E+00 -0.00000000000E+00 -0.28055206373E+03  0.28055206373E+03  0.00000000000E+00 0.  1.
         21    1    1    2  503  505 -0.62557377789E+02  0.50373366175E+01  0.22202918468E+03  0.23072875661E+03  0.00000000000E+00 0.  1.
         21    1    1    2  504  502  0.19194113732E+02 -0.43005456217E+02 -0.77358463464E+01  0.47725533890E+02  0.00000000000E+00 0. -1.
         21    1    1    2  505  501 -0.29407167760E+02  0.66821148987E+02  0.84327621477E+03  0.84643051804E+03  0.00000000000E+00 0.  1.
          4    1    1    2  501    0  0.72770431817E+02 -0.28853029387E+02 -0.24068932144E+03  0.25309955058E+03  0.00000000000E+00 0.  1.
<scales pt_clust_3="62.37536" pt_clust_4="47.09441" pt_clust_5="113.67047" pt_clust_6="14000.00000"></scales>
<clustering>
<clus scale="   47.094">  2  4  1 -1</clus>
<clus scale="   62.375">  1  3  2 -1</clus>
<clus scale="  113.670">  1  5  2 -1</clus>
<clus scale="   62.375">  1  3  2 -1</clus>
</clustering>
</event>
<event>
 6    0  0.3695460E+002  0.2157209E+03  0.7546771E-02  0.1137114E+00
          2   -1    0    0  503    0 -0.00000000000E+00  0.00000000000E+00  0.31337055795E+04  0.31337055795E+04  0.00000000000E+00 0.  1.
         21   -1    0    0  505  502  0.00000000000E+00 -0.00000000000E+00 -0.12035017925E+03  0.12035017925E+03  0.00000000000E+00 0. -1.
         21    1    1    2  503  502 -0.87584182762E+02 -0.15962264593E+03  0.21655918234E+04  0.21732322296E+04  0.00000000000E+00 0.  1.
         21    1    1    2  504  501  0.57097518618E+02  0.98313066672E+02 -0.32568003346E+02  0.11826352165E+03  0.00000000000E+00 0. -1.
         21    1    1    2  505  504  0.66506392055E+02  0.71453300957E+02  0.17809155649E+02  0.99226208367E+02  0.00000000000E+00 0. -1.
          2    1    1    2  501    0 -0.36019727912E+02 -0.10143721702E+02  0.86252242450E+03  0.86333379909E+03  0.00000000000E+00 0.  1.
<scales pt_clust_3="208.68663" pt_clust_4="50.52759" pt_clust_5="50.52759" pt_clust_6="37.42079"></scales>
<clustering>
<clus scale="   37.421">  1  6  2 -1</clus>
<clus scale="   50.528">  4  5 -1 -1</clus>
<clus scale="  208.687">  1  3  2 -1</clus>
<clus scale="  215.721">  2  3  1 -1</clus>
</clustering>
</event>
<event>
 6    0  0.3695460E+002  0.1590349E+03  0.7546771E-02  0.1189791E+00
         21   -1    0    0  501  502  0.00000000000E+00  0.00000000000E+00  0.10926430489E+04  0.10926430489E+04  0.00000000000E+00 0.  1.
         -4   -1    0    0    0  501 -0.00000000000E+00 -0.00000000000E+00 -0.40064538019E+02  0.40064538019E+02  0.00000000000E+00 0.  1.
         21    1    1    2  503  505  0.99134667851E+02 -0.84704433903E+02  0.66147179816E+03  0.67420135216E+03  0.00000000000E+00 0.  1.
         21    1    1    2  504  503 -0.87977426435E+02  0.29986375988E+02  0.15428718582E+03  0.18012147572E+03  0.00000000000E+00 0. -1.
         21    1    1    2  505  502  0.36362217282E+02  0.20695670077E+02  0.20991858352E+03  0.21404750247E+03  0.00000000000E+00 0. -1.
         -4    1    1    2    0  504 -0.47519458697E+02  0.34022387838E+02  0.26900943390E+02  0.64337256581E+02  0.00000000000E+00 0.  1.
<scales pt_clust_3="144.28336" pt_clust_4="54.13955" pt_clust_5="41.83924" pt_clust_6="54.13955"></scales>
<clustering>
<clus scale="   41.839">  1  5  2 -1</clus>
<clus scale="   54.140">  4  6 -1 -1</clus>
<clus scale="  144.283">  1  3  2 -1</clus>
<clus scale="   41.839">  1  3  2 -1</clus>
</clustering>
</event>
<event>
 6    0  0.3695460E+002  0.8776572E+02  0.7546771E-02  0.1308354E+00
          2   -1    0    0  504    0 -0.00000000000E+00  0.00000000000E+00  0.31249720403E+04  0.31249720403E+04  0.00000000000E+00 0.  1.
         21   -1    0    0  505  502  0.00000000000E+00 -0.00000000000E+00 -0.61331582077E+02  0.61331582077E+02  0.00000000000E+00 0. -1.
         21    1    1    2  503  501 -0.65648092134E+02  0.17589966306E+02  0.25201764739E+02  0.72485914917E+02  0.00000000000E+00 0. -1.
         21    1    1    2  504  502  0.53680958257E+02  0.47170552072E+02  0.10039040234E+04  0.10064442331E+04  0.00000000000E+00 0. -1.
         21    1    1    2  505  503 -0.14000053287E+02  0.26595184358E+02 -0.28934709778E+02  0.41719572781E+02  0.00000000000E+00 0.  1.
          2    1    1    2  501    0  0.25967187164E+02 -0.91355702737E+02  0.20634693799E+04  0.20656539015E+04  0.00000000000E+00 0.  1.
<scales pt_clust_3="14000.00000" pt_clust_4="71.81917" pt_clust_5="30.05504" pt_clust_6="87.76572"></scales>
<clustering>
<clus scale="   30.055">  2  5  1 -1</clus>
<clus scale="   71.819">  1  4  2 -1</clus>
<clus scale="   87.766">  1  6  2 -1</clus>
<clus scale="   30.055">  2  3  1 -1</clus>
</clustering>
</event>
<event>
 6    0  0.3695460E+002  0.1373071E+03  0.7546771E-02  0.1216999E+00
         21   -1    0    0  501  502  0.00000000000E+00  0.00000000000E+00  0.40045599111E+02  0.40045599111E+02  0.00000000000E+00 0. -1.
          2   -1    0    0  504    0 -0.00000000000E+00 -0.00000000000E+00 -0.31935595618E+04  0.31935595618E+04  0.00000000000E+00 0. -1.
         21    1    1    2  503  505  0.20867868843E+02 -0.80076590745E+02 -0.54818862756E+02  0.99261452988E+02  0.00000000000E+00 0. -1.
         21    1    1    2  504  503 -0.20321390145E+02 -0.51167470693E+02 -0.92010251466E+03  0.92174817952E+03  0.00000000000E+00 0. -1.
         21    1    1    2  505  502  0.50082511196E+02 -0.17546830412E+02 -0.35725379051E+02  0.63972274413E+02  0.00000000000E+00 0. -1.
          2    1    1    2  501    0 -0.50628989894E+02  0.14879089185E+03 -0.21428672062E+04  0.21486232540E+04  0.00000000000E+00 0. -1.
<scales pt_clust_3="49.89928" pt_clust_4="55.05514" pt_clust_5="49.89928" pt_clust_6="122.35411"></scales>
<clustering>
<clus scale="   49.899">  3  5 -1 -1</clus>
<clus scale="   55.055">  2  4  1 -1</clus>
<clus scale="  122.354">  2  6  1 -1</clus>
<clus scale="  137.307">  1  3  2 -1</clus>
</clustering>
</event>
<event>
 6    0  0.3695460E+002  0.7715406E+02  0.7546771E-02  0.1337327E+00
         21   -1    0    0  503  502  0.00000000000E+00  0.00000000000E+00  0.67981217027E+02  0.67981217027E+02  0.00000000000E+00 0. -1.
          1   -1    0    0  504    0 -0.00000000000E+00 -0.00000000000E+00 -0.14019558929E+04  0.14019558929E+04  0.00000000000E+00 0. -1.
         21    1    1    2  503  501 -0.19359000367E+02 -0.41635501249E+02 -0.38340339662E+02  0.59818621724E+02  0.00000000000E+00 0. -1.
         21    1    1    2  504  505 -0.26880762259E+02 -0.47791411079E+02 -0.38680626039E+03  0.39067336412E+03  0.00000000000E+00 0. -1.
         21    1    1    2  505  502 -0.31115081757E+02 -0.25796704220E+02  0.42148002501E+02  0.58395824989E+02  0.00000000000E+00 0. -1.
          1    1    1    2  501    0  0.77354844383E+02  0.11522361655E+03 -0.95097607836E+03  0.96104929914E+03  0.00000000000E+00 0. -1.
<scales pt_clust_3="14000.00000" pt_clust_4="58.97392" pt_clust_5="40.41804" pt_clust_6="77.15406"></scales>
<clustering>
<clus scale="   40.418">  1  5  2 -1</clus>
<clus scale="   58.974">  2  4  1 -1</clus>
<clus scale="   77.154">  2  6  1 -1</clus>
<clus scale="   40.418">  1  3  2 -1</clus>
</clustering>
</event>
<event>
 6    0  0.3695460E+002  0.7080410E+02  0.7546771E-02  0.1357380E+00
         21   -1    0    0  501  502  0.00000000000E+00  0.00000000000E+00  0.14404009909E+03  0.14404009909E+03  0.00000000000E+00 0. -1.
          2   -1    0    0  504    0 -0.00000000000E+00 -0.00000000000E+00 -0.33056612985E+03  0.33056612985E+03  0.00000000000E+00 0. -1.
         21    1    1    2  503  502  0.64132133079E+02  0.18398346707E+02  0.82322374894E+02  0.10596415933E+03  0.00000000000E+00 0. -1.
         21    1    1    2  504  505  0.50945908056E+02  0.76758772779E+00 -0.32799276233E+02  0.60595934352E+02  0.00000000000E+00 0. -1.
         21    1    1    2  505  503  0.13840510202E+02  0.49466026355E+02 -0.52029584583E+02  0.73113098402E+02  0.00000000000E+00 0. -1.
          2    1    1    2  501    0 -0.12891855134E+03 -0.68631960790E+02 -0.18401954484E+03  0.23493303685E+03  0.00000000000E+00 0. -1.
<scales pt_clust_3="14000.00000" pt_clust_4="50.95169" pt_clust_5="55.60728" pt_clust_6="70.80410"></scales>
<clustering>
<clus scale="   50.952">  2  4  1 -1</clus>
<clus scale="   55.607">  2  5  1 -1</clus>
<clus scale="   70.804">  2  6  1 -1</clus>
<clus scale="   70.804">  1  3  2 -1</clus>
</clustering>
</event>
<event>
 6    0  0.3695460E+002  0.1035530E+03  0.7546771E-02  0.1272997E+00
          1   -1    0    0  503    0 -0.00000000000E+00  0.00000000000E+00  0.12426128754E+04  0.12426128754E+04  0.00000000000E+00 0. -1.
         21   -1    0    0  504  502  0.00000000000E+00 -0.00000000000E+00 -0.90276070448E+02  0.90276070448E+02  0.00000000000E+00 0. -1.
         21    1    1    2  503  505 -0.28214771605E+02 -0.87281006783E+02  0.40577906129E+03  0.41601766076E+03  0.00000000000E+00 0. -1.
         21    1    1    2  504  501  0.15305908570E+01  0.74118805457E+02 -0.26329580375E+02  0.78671385100E+02  0.00000000000E+00 0. -1.
         21    1    1    2  505  502 -0.51513100340E+02  0.32781166587E+02 -0.60395039825E-01  0.61059053686E+02  0.00000000000E+00 0. -1.
          1    1    1    2  501    0  0.78197281088E+02 -0.19618965262E+02  0.77294771910E+03  0.77714084633E+03  0.00000000000E+00 0. -1.
<scales pt_clust_3="103.55299" pt_clust_4="14000.00000" pt_clust_5="61.05902" pt_clust_6="78.58948"></scales>
<clustering>
<clus scale="   61.059">  2  5  1 -1</clus>
<clus scale="   78.589">  1  6  2 -1</clus>
<clus scale="  103.553">  1  3  2 -1</clus>
<clus scale="   61.059">  2  3  1 -1</clus>
</clustering>
</event>
<event>
 6    0  0.3695460E+002  0.1992002E+03  0.7546771E-02  0.1150416E+00
         21   -1    0    0  505  502  0.00000000000E+00  0.00000000000E+00  0.67563698593E+03  0.67563698593E+03  0.00000000000E+00 0. -1.
          2   -1    0    0  504    0 -0.00000000000E+00 -0.00000000000E+00 -0.13050374800E+04  0.13050374800E+04  0.00000000000E+00 0.  1.
         21    1    1    2  503  501 -0.11622351134E+03  0.40926527732E+02 -0.69891935971E+03  0.70969793337E+03  0.00000000000E+00 0. -1.
         21    1    1    2  504  502  0.84436504676E+02 -0.12066410135E+03  0.50526120318E+03  0.52628721447E+03  0.00000000000E+00 0. -1.
         21    1    1    2  505  503  0.86730637676E+02  0.28971900254E+02  0.13829829003E+03  0.16579502870E+03  0.00000000000E+00 0. -1.
          2    1    1    2  501    0 -0.54943631014E+02  0.50765673359E+02 -0.57404062756E+03  0.57889428938E+03  0.00000000000E+00 0.  1.
<scales pt_clust_3="37.66796" pt_clust_4="193.24493" pt_clust_5="91.44165" pt_clust_6="37.66796"></scales>
<clustering>
<clus scale="   37.668">  3  6 -1 -1</clus>
<clus scale="   91.442">  1  5  2 -1</clus>
<clus scale="  193.245">  1  4  2 -1</clus>
<clus scale="   91.442">  1  3  2 -1</clus>
</clustering>
</event>
<event>
 6    0  0.3695460E+002  0.9424242E+02  0.7546771E-02  0.1292892E+00
          2   -1    0    0  505    0 -0.00000000000E+00  0.00000000000E+00  0.23809944158E+04  0.23809944158E+04  0.00000000000E+00 0. -1.
         21   -1    0    0  503  502  0.00000000000E+00 -0.00000000000E+00 -0.60365040120E+02  0.60365040120E+02  0.00000000000E+00 0.  1.
         21    1    1    2  503  501  0.26829047971E+02  0.27197436710E+02  0.15426605153E+02  0.41200467535E+02  0.00000000000E+00 0.  1.
         21    1    1    2  504  502 -0.60801685220E+02 -0.11070881480E+02 -0.21477660284E+02  0.65427052765E+02  0.00000000000E+00 0.  1.
         21    1    1    2  505  504 -0.18647923783E+02 -0.95421147463E+02  0.10386718047E+04  0.10432123745E+04  0.00000000000E+00 0. -1.
          2    1    1    2  501    0  0.52620561032E+02  0.79294592233E+02  0.12880086261E+04  0.12915195611E+04  0.00000000000E+00 0. -1.
<scales pt_clust_3="38.20338" pt_clust_4="38.79287" pt_clust_5="14000.00000" pt_clust_6="94.24242"></scales>
<clustering>
<clus scale="   38.203">  2  3  1 -1</clus>
<clus scale="   38.793">  2  4  1 -1</clus>
<clus scale="   94.242">  1  6  2 -1</clus>
<clus scale="   38.203">  2  3  1 -1</clus>
</clustering>
</event>
<event>
 6    0  0.3695460E+002  0.1464334E+03  0.7546771E-02  0.1204925E+00
         21   -1    0    0  504  502  0.00000000000E+00  0.00000000000E+00  0.14428555095E+04  0.14428555095E+04  0.00000000000E+00 0.  1.
          3   -1    0    0  503    0 -0.00000000000E+00 -0.00000000000E+00 -0.63706302333E+02  0.63706302333E+02  0.00000000000E+00 0. -1.
         21    1    1    2  503  502 -0.86064634428E+02  0.29786091017E+02  0.77939061840E+01  0.91406112984E+02  0.00000000000E+00 0. -1.
         21    1    1    2  504  505 -0.13981576295E+02 -0.44861071538E+02  0.23701854603E+03  0.24163151984E+03  0.00000000000E+00 0.  1.
         21    1    1    2  505  501  0.30427643437E+02 -0.97547896291E+02  0.88799495346E+03  0.89385483773E+03  0.00000000000E+00 0.  1.
          3    1    1    2  501    0  0.69618567286E+02  0.11262287681E+03  0.24634180148E+03  0.27966934127E+03  0.00000000000E+00 0. -1.
<scales pt_clust_3="91.07323" pt_clust_4="37.89686" pt_clust_5="37.89686" pt_clust_6="135.35009"></scales>
<clustering>
<clus scale="   37.897">  4  5 -1 -1</clus>
<clus scale="   91.073">  2  3  1 -1</clus>
<clus scale="  135.350">  2  6  1 -1</clus>
<clus scale="  146.433">  1  3  2 -1</clus>
</clustering>
</event>
<event>
 6    0  0.3695460E+002  0.1379105E+03  0.7546771E-02  0.1216169E+00
         -3   -1    0    0    0  501 -0.00000000000E+00  0.00000000000E+00  0.13946661925E+03  0.13946661925E+03  0.00000000000E+00 0. -1.
         21   -1    0    0  504  502  0.00000000000E+00 -0.00000000000E+00 -0.20205992258E+04  0.20205992258E+04  0.00000000000E+00 0.  1.
         21    1    1    2  503  501 -0.50769118416E+02  0.33171579082E+01 -0.46435310811E+03  0.46713201125E+03  0.00000000000E+00 0.  1.
         21    1    1    2  504  503 -0.36701123081E+02  0.11837537418E+02 -0.13069721759E+04  0.13075409623E+04  0.00000000000E+00 0.  1.
         21    1    1    2  505  502  0.32767530535E+02  0.11988631147E+03 -0.18388223158E+03  0.22194394298E+03  0.00000000000E+00 0.  1.
         -3    1    1    2    0  505  0.54702710961E+02 -0.13504100679E+03  0.74074908952E+02  0.16344892853E+03  0.00000000000E+00 0. -1.
<scales pt_clust_3="75.54327" pt_clust_4="38.56293" pt_clust_5="137.91049" pt_clust_6="14000.00000"></scales>
<clustering>
<clus scale="   38.563">  2  4  1 -1</clus>
<clus scale="   75.543">  2  3  1 -1</clus>
<clus scale="  137.910">  2  5  1 -1</clus>
<clus scale="   38.563">  2  3  1 -1</clus>
</clustering>
</event>
<event>
 6    0  0.3695460E+002  0.1357363E+03  0.7546771E-02  0.1219184E+00
          1   -1    0    0  505    0 -0.00000000000E+00  0.00000000000E+00  0.10513291511E+03  0.10513291511E+03  0.00000000000E+00 0. -1.
         21   -1    0    0  503  502  0.00000000000E+00 -0.00000000000E+00 -0.17998431682E+04  0.17998431682E+04  0.00000000000E+00 0.  1.
         21    1    1    2  503  501  0.34818540805E+02  0.55533555524E+02 -0.43045352567E+03  0.43541536989E+03  0.00000000000E+00 0.  1.
         21    1    1    2  504  502 -0.36288958112E+02  0.88017998127E+02 -0.12486629863E+04  0.12522872313E+04  0.00000000000E+00 0.  1.
         21    1    1    2  505  504  0.25512785527E+01 -0.49870172713E+02 -0.86431682812E+02  0.99819732230E+02  0.00000000000E+00 0.  1.
          1    1    1    2  501    0 -0.10808612460E+01 -0.93681380937E+02  0.70837941609E+02  0.11745374991E+03  0.00000000000E+00 0. -1.
<scales pt_clust_3="64.51955" pt_clust_4="14000.00000" pt_clust_5="49.93539" pt_clust_6="135.73631"></scales>
<clustering>
<clus scale="   49.935">  1  5  2 -1</clus>
<clus scale="   64.520">  2  3  1 -1</clus>
<clus scale="  135.736">  1  6  2 -1</clus>
<clus scale="   64.520">  2  3  1 -1</clus>
</clustering>
</event>
<event>
 6    0  0.3695460E+002  0.1316985E+03  0.7546771E-02  0.1224957E+00
         21   -1    0    0  505  502  0.00000000000E+00  0.00000000000E+00  0.87401249677E+03  0.87401249677E+03  0.00000000000E+00 0. -1.
         -3   -1    0    0    0  501 -0.00000000000E+00 -0.00000000000E+00 -0.49674195036E+03  0.49674195036E+03  0.00000000000E+00 0. -1.
         21    1    1    2  503  502  0.84429019470E+02  0.91741997198E+01  0.25056715242E+03  0.26456818241E+03  0.00000000000E+00 0. -1.
         21    1    1    2  504  503 -0.23043831334E+01 -0.15138609239E+03 -0.26090923213E+03  0.30165657056E+03  0.00000000000E+00 0. -1.
         21    1    1    2  505  501 -0.17938620843E+02  0.36174347580E+02  0.57687738965E+03  0.57828876889E+03  0.00000000000E+00 0. -1.
         -3    1    1    2    0  504 -0.64186015494E+02  0.10603754509E+03 -0.18926476353E+03  0.22624092527E+03  0.00000000000E+00 0. -1.
<scales pt_clust_3="79.92557" pt_clust_4="14000.00000" pt_clust_5="40.37793" pt_clust_6="131.69848"></scales>
<clustering>
<clus scale="   40.378">  1  5  2 -1</clus>
<clus scale="   79.926">  1  3  2 -1</clus>
<clus scale="  131.698">  2  6  1 -1</clus>
<clus scale="   40.378">  1  3  2 -1</clus>
</clustering>
</event>
<event>
 6    0  0.3695460E+002  0.5195381E+02  0.7546771E-02  0.1435079E+00
          2   -1    0    0  503    0 -0.00000000000E+00  0.00000000000E+00  0.22712058187E+04  0.22712058187E+04  0.00000000000E+00 0.  1.
         21   -1    0    0  505  502  0.00000000000E+00 -0.00000000000E+00 -0.10915012426E+03  0.10915012426E+03  0.00000000000E+00 0.  1.
         21    1    1    2  503  504 -0.23064103503E+02 -0.31063066214E+02  0.60362471516E+03  0.60486334300E+03  0.00000000000E+00 0.  1.
         21    1    1    2  504  502  0.46486148136E+02 -0.71892374125E+01 -0.77600790617E+02  0.90744310055E+02  0.00000000000E+00 0.  1.
         21    1    1    2  505  501 -0.92949247492E+02  0.22436206185E+02  0.73533392958E+02  0.12062381953E+03  0.00000000000E+00 0.  1.
          2    1    1    2  501    0  0.69527202859E+02  0.15816097441E+02  0.15624983769E+04  0.15641244704E+04  0.00000000000E+00 0.  1.
<scales pt_clust_3="38.68936" pt_clust_4="46.96783" pt_clust_5="14000.00000" pt_clust_6="51.95381"></scales>
<clustering>
<clus scale="   38.689">  1  3  2 -1</clus>
<clus scale="   46.968">  2  4  1 -1</clus>
<clus scale="   51.954">  1  6  2 -1</clus>
<clus scale="   46.968">  2  3  1 -1</clus>
</clustering>
</event>
<event>
 6    0  0.3695460E+002  0.9917083E+02  0.7546771E-02  0.1282049E+00
          2   -1    0    0  504    0 -0.00000000000E+00  0.00000000000E+00  0.12264588705E+04  0.12264588705E+04  0.00000000000E+00 0.  1.
         21   -1    0    0  503  502  0.00000000000E+00 -0.00000000000E+00 -0.41163439856E+03  0.41163439856E+03  0.00000000000E+00 0.  1.
         21    1    1    2  503  505  0.26442054419E+02  0.24141734669E+02 -0.17464159954E+03  0.17827420981E+03  0.00000000000E+00 0.  1.
         21    1    1    2  504  502 -0.11871020662E+02  0.34599183255E+02 -0.22159532774E+03  0.22459410920E+03  0.00000000000E+00 0.  1.
         21    1    1    2  505  501  0.82184859131E+02 -0.11857327451E+02  0.17611263811E+03  0.19470646776E+03  0.00000000000E+00 0. -1.
          2    1    1    2  501    0 -0.96755892888E+02 -0.46883590474E+02  0.10349487611E+04  0.10405184823E+04  0.00000000000E+00 0.  1.
<scales pt_clust_3="35.80511" pt_clust_4="58.99916" pt_clust_5="99.17083" pt_clust_6="14000.00000"></scales>
<clustering>
<clus scale="   35.805">  2  3  1 -1</clus>
<clus scale="   58.999">  2  4  1 -1</clus>
<clus scale="   99.171">  2  5  1 -1</clus>
<clus scale="   35.805">  2  3  1 -1</clus>
</clustering>
</event>
<event>
 6    0  0.3695460E+002  0.9811578E+02  0.7546771E-02  0.1284309E+00
         21   -1    0    0  504  502  0.00000000000E+00  0.00000000000E+00  0.24682220697E+03  0.24682220697E+03  0.00000000000E+00 0.  1.
          2   -1    0    0  505    0 -0.00000000000E+00 -0.00000000000E+00 -0.23584492840E+04  0.23584492840E+04  0.00000000000E+00 0. -1.
         21    1    1    2  503  502 -0.37656362892E+02 -0.58917842962E+02  0.21742870297E+03  0.22839561020E+03  0.00000000000E+00 0.  1.
         21    1    1    2  504  501  0.57392946232E+02 -0.42731816811E+02 -0.34839618217E+02  0.79584907129E+02  0.00000000000E+00 0.  1.
         21    1    1    2  505  503  0.99487752004E+01  0.82663673232E+02 -0.16867094948E+04  0.16887632104E+04  0.00000000000E+00 0. -1.
          2    1    1    2  501    0 -0.29685358541E+02  0.18985986541E+02 -0.60750666700E+03  0.60852776325E+03  0.00000000000E+00 0. -1.
<scales pt_clust_3="69.92368" pt_clust_4="98.11578" pt_clust_5="14000.00000" pt_clust_6="35.23760"></scales>
<clustering>
<clus scale="   35.238">  2  6  1 -1</clus>
<clus scale="   69.924">  1  3  2 -1</clus>
<clus scale="   98.116">  1  4  2 -1</clus>
<clus scale="   69.924">  1  3  2 -1</clus>
</clustering>
</event>
<event>
 6    0  0.3695460E+002  0.1198723E+03  0.7546771E-02  0.1243308E+00
         21   -1    0    0  501  502  0.00000000000E+00  0.00000000000E+00  0.96459347607E+02  0.96459347607E+02  0.00000000000E+00 0. -1.
          2   -1    0    0  505    0 -0.00000000000E+00 -0.00000000000E+00 -0.10788122740E+04  0.10788122740E+04  0.00000000000E+00 0.  1.
         21    1    1    2  503  504  0.80388901309E+02 -0.19711588020E+02 -0.33539839165E+02  0.89307575082E+02  0.00000000000E+00 0. -1.
         21    1    1    2  504  502  0.21386517843E+02 -0.70350933986E+02  0.39413032663E+02  0.83426759507E+02  0.00000000000E+00 0. -1.
         21    1    1    2  505  503 -0.37147972808E+02 -0.71253570002E+01 -0.10445658304E+03  0.11109419578E+03  0.00000000000E+00 0. -1.
          2    1    1    2  501    0 -0.64627446344E+02  0.97187879006E+02 -0.88376953687E+03  0.89144309126E+03  0.00000000000E+00 0.  1.
<scales pt_clust_3="14000.00000" pt_clust_4="73.44442" pt_clust_5="37.82516" pt_clust_6="119.87233"></scales>
<clustering>
<clus scale="   37.825">  2  5  1 -1</clus>
<clus scale="   73.444">  1  4  2 -1</clus>
<clus scale="  119.872">  2  6  1 -1</clus>
<clus scale="   73.444">  1  3  2 -1</clus>
</clustering>
</event>
<event>
 6    0  0.3695460E+002  0.8356373E+02  0.7546771E-02  0.1319232E+00
          1   -1    0    0  503    0 -0.00000000000E+00  0.00000000000E+00  0.23815959033E+04  0.23815959033E+04  0.00000000000E+00 0. -1.
         21   -1    0    0  504  502  0.00000000000E+00 -0.00000000000E+00 -0.29970103934E+03  0.29970103934E+03  0.00000000000E+00 0. -1.
         21    1    1    2  503  505 -0.38840339620E+02 -0.25446183518E+02  0.35796723947E+03  0.36096623772E+03  0.00000000000E+00 0.  1.
         21    1    1    2  504  501  0.28747267033E+02 -0.24959609096E+02 -0.21138966612E+02  0.43545876469E+02  0.00000000000E+00 0.  1.
         21    1    1    2  505  502 -0.10703714503E+02  0.10673594146E+03 -0.25456936157E+03  0.27624751683E+03  0.00000000000E+00 0. -1.
          1    1    1    2  501    0  0.20796787090E+02 -0.56330148842E+02  0.19996359527E+04  0.20005373117E+04  0.00000000000E+00 0. -1.
<scales pt_clust_3="46.37592" pt_clust_4="38.07082" pt_clust_5="83.56373" pt_clust_6="14000.00000"></scales>
<clustering>
<clus scale="   38.071">  2  4  1 -1</clus>
<clus scale="   46.376">  1  3  2 -1</clus>
<clus scale="   83.564">  2  5  1 -1</clus>
<clus scale="   38.071">  2  3  1 -1</clus>
</clustering>
</event>
<event>
 6    0  0.3695460E+002  0.2211281E+03  0.7546771E-02  0.1133045E+00
         -1   -1    0    0    0  501 -0.00000000000E+00  0.00000000000E+00  0.11703009251E+03  0.11703009251E+03  0.00000000000E+00 0. -1.
         21   -1    0    0  505  502  0.00000000000E+00 -0.00000000000E+00 -0.11677998973E+04  0.11677998973E+04  0.00000000000E+00 0. -1.
         21    1    1    2  503  504 -0.33383415934E+02 -0.52151330642E+02 -0.15505242818E+03  0.16695948380E+03  0.00000000000E+00 0.  1.
         21    1    1    2  504  502 -0.12970330465E+03 -0.62665480369E+02 -0.81724820256E+03  0.82984609071E+03  0.00000000000E+00 0. -1.
         21    1    1    2  505  501  0.20067569038E+03  0.84812305618E+02 -0.30307294894E+02  0.21995997822E+03  0.00000000000E+00 0. -1.
         -1    1    1    2    0  503 -0.37588969798E+02  0.30004505392E+02 -0.48161879178E+02  0.68064437119E+02  0.00000000000E+00 0. -1.
<scales pt_clust_3="59.98313" pt_clust_4="59.98313" pt_clust_5="201.05965" pt_clust_6="48.09575"></scales>
<clustering>
<clus scale="   48.096">  1  6  2 -1</clus>
<clus scale="   59.983">  3  4 -1 -1</clus>
<clus scale="  201.060">  1  5  2 -1</clus>
<clus scale="  221.128">  2  3  1 -1</clus>
</clustering>
</event>
<event>
 6    0  0.3695460E+002  0.1132702E+03  0.7546771E-02  0.1254631E+00
         21   -1    0    0  505  502  0.00000000000E+00  0.00000000000E+00  0.16452232026E+03  0.16452232026E+03  0.00000000000E+00 0.  1.
          1   -1    0    0  503    0 -0.00000000000E+00 -0.00000000000E+00 -0.11923884211E+04  0.11923884211E+04  0.00000000000E+00 0. -1.
         21    1    1    2  503  504  0.43986496350E+02  0.85291490935E+02 -0.37449629440E+03  0.38659659182E+03  0.00000000000E+00 0. -1.
         21    1    1    2  504  502 -0.42933031769E+02  0.42309935736E+01  0.81531990932E+02  0.92242138249E+02  0.00000000000E+00 0.  1.
         21    1    1    2  505  501  0.44596272431E+02 -0.12147851140E+03  0.11202474117E+02  0.12988976739E+03  0.00000000000E+00 0.  1.
          1    1    1    2  501    0 -0.45649737011E+02  0.31956026893E+02 -0.74610427144E+03  0.74818224385E+03  0.00000000000E+00 0. -1.
<scales pt_clust_3="14000.00000" pt_clust_4="43.14101" pt_clust_5="113.27021" pt_clust_6="56.22718"></scales>
<clustering>
<clus scale="   43.141">  1  4  2 -1</clus>
<clus scale="   56.227">  2  6  1 -1</clus>
<clus scale="  113.270">  1  5  2 -1</clus>
<clus scale="   43.141">  1  3  2 -1</clus>
</clustering>
</event>
<event>
 6    0  0.3695460E+002  0.1151908E+03  0.7546771E-02  0.1251248E+00
         21   -1    0    0  503  502  0.00000000000E+00  0.00000000000E+00  0.67630575812E+02  0.67630575812E+02  0.00000000000E+00 0.  1.
          2   -1    0    0  502    0 -0.00000000000E+00 -0.00000000000E+00 -0.74640974327E+03  0.74640974327E+03  0.00000000000E+00 0.  1.
         21    1    1    2  503  505 -0.33265011972E+02  0.40123183579E+02  0.28899362093E+02  0.59595335484E+02  0.00000000000E+00 0.  1.
         21    1    1    2  504  501  0.64194020291E+02  0.19454559226E+02 -0.24360200617E+03  0.25266833899E+03  0.00000000000E+00 0.  1.
         21    1    1    2  505  504 -0.78563730070E+02 -0.65830111469E+02 -0.13651641342E+03  0.17071202181E+03  0.00000000000E+00 0.  1.
          2    1    1    2  501    0  0.47634721752E+02  0.62523686634E+01 -0.32756010996E+03  0.33106462280E+03  0.00000000000E+00 0.  1.
<scales pt_clust_3="52.11939" pt_clust_4="31.11258" pt_clust_5="109.16695" pt_clust_6="31.11258"></scales>
<clustering>
<clus scale="   31.113">  4  6 -1 -1</clus>
<clus scale="   52.119">  1  3  2 -1</clus>
<clus scale="  109.167">  1  5  2 -1</clus>
<clus scale="   52.119">  1  3  2 -1</clus>
</clustering>
</event>
<event>
 6    0  0.3695460E+002  0.1209722E+03  0.7546771E-02  0.1241502E+00
         21   -1    0    0  504  502  0.00000000000E+00  0.00000000000E+00  0.11618762442E+03  0.11618762442E+03  0.00000000000E+00 0.  1.
          2   -1    0    0  503    0 -0.00000000000E+00 -0.00000000000E+00 -0.85856582053E+03  0.85856582053E+03  0.00000000000E+00 0. -1.
         21    1    1    2  503  505 -0.62897185248E+02  0.99444805133E+02 -0.42429429034E+03  0.44030781278E+03  0.00000000000E+00 0.  1.
         21    1    1    2  504  501  0.39208256242E+02  0.57445177206E+02  0.42037827584E+02  0.81267550041E+02  0.00000000000E+00 0.  1.
         21    1    1    2  505  502 -0.49407957770E+01 -0.30737087312E+02  0.29349696603E+02  0.42785332650E+02  0.00000000000E+00 0. -1.
          2    1    1    2  501    0  0.28629724784E+02 -0.12615289503E+03 -0.38947142996E+03  0.41039274948E+03  0.00000000000E+00 0. -1.
<scales pt_clust_3="14000.00000" pt_clust_4="48.94451" pt_clust_5="31.13166" pt_clust_6="120.97220"></scales>
<clustering>
<clus scale="   31.132">  1  5  2 -1</clus>
<clus scale="   48.945">  1  4  2 -1</clus>
<clus scale="  120.972">  1  6  2 -1</clus>
<clus scale="   31.132">  1  3  2 -1</clus>
</clustering>
</event>
<event>
 6    0  0.5701479E+002  0.9438229E+02  0.7546771E-02  0.1292573E+00
         21   -1    0    0  503  502  0.00000000000E+00  0.00000000000E+00  0.12567898639E+04  0.12567898639E+04  0.00000000000E+00 0. -1.
          2   -1    0    0  505    0 -0.00000000000E+00 -0.00000000000E+00 -0.39765249774E+03  0.39765249774E+03  0.00000000000E+00 0. -1.
         21    1    1    2  503  504 -0.36180903652E+02  0.82273798460E+00  0.66398987854E+02  0.75621162877E+02  0.00000000000E+00 0. -1.
         21    1    1    2  504  501  0.55826983771E+02  0.34426047907E+02 -0.32789980381E+02  0.73327946275E+02  0.00000000000E+00 0.  1.
         21    1    1    2  505  502  0.63456297249E+02  0.31209305551E+02  0.11560779427E+04  0.11582387198E+04  0.00000000000E+00 0. -1.
          2    1    1    2  501    0 -0.83102377368E+02 -0.66458091442E+02 -0.33054958397E+03  0.34725453274E+03  0.00000000000E+00 0. -1.
<scales pt_clust_3="36.19026" pt_clust_4="14000.00000" pt_clust_5="42.62780" pt_clust_6="94.38229"></scales>
<clustering>
<clus scale="   36.190">  1  3  2 -1</clus>
<clus scale="   42.628">  1  5  2 -1</clus>
<clus scale="   94.382">  2  6  1 -1</clus>
<clus scale="   36.190">  1  3  2 -1</clus>
</clustering>
</event>
<event>
 6    0  0.3695460E+002  0.1975352E+03  0.7546771E-02  0.1151835E+00
         21   -1    0    0  504  502  0.00000000000E+00  0.00000000000E+00  0.19315837278E+02  0.19315837278E+02  0.00000000000E+00 0.  1.
          2   -1    0    0  505    0 -0.00000000000E+00 -0.00000000000E+00 -0.45417270899E+04  0.45417270899E+04  0.00000000000E+00 0. -1.
         21    1    1    2  503  502  0.25859812734E+02  0.86212758639E+02 -0.18483060318E+03  0.20558142314E+03  0.00000000000E+00 0.  1.
         21    1    1    2  504  501  0.52891089083E+02 -0.47467886127E+02 -0.81510116770E+03  0.81819348635E+03  0.00000000000E+00 0. -1.
         21    1    1    2  505  503 -0.98871141888E+02  0.12430074207E+03 -0.17215078746E+04  0.17288191170E+04  0.00000000000E+00 0.  1.
          2    1    1    2  501    0  0.20120240072E+02 -0.16304561459E+03 -0.18009716072E+04  0.18084489007E+04  0.00000000000E+00 0. -1.
<scales pt_clust_3="90.00761" pt_clust_4="49.94731" pt_clust_5="182.35479" pt_clust_6="49.94731"></scales>
<clustering>
<clus scale="   49.947">  4  6 -1 -1</clus>
<clus scale="   90.008">  1  3  2 -1</clus>
<clus scale="  182.355">  2  5  1 -1</clus>
<clus scale="   90.008">  1  3  2 -1</clus>
</clustering>
</event>
<event>
 6    0  0.3695460E+002  0.2102291E+03  0.7546771E-02  0.1141385E+00
          1   -1    0    0  505    0 -0.00000000000E+00  0.00000000000E+00  0.91454703998E+02  0.91454703998E+02  0.00000000000E+00 0.  1.
         21   -1    0    0  504  502  0.00000000000E+00 -0.00000000000E+00 -0.21574762614E+04  0.21574762614E+04  0.00000000000E+00 0.  1.
         21    1    1    2  503  501 -0.45397882390E+00  0.64713310264E+02 -0.38290446484E+03  0.38833471106E+03  0.00000000000E+00 0.  1.
         21    1    1    2  504  503  0.80475442513E+02  0.11131831451E+03 -0.16172687581E+04  0.16230915870E+04  0.00000000000E+00 0.  1.
         21    1    1    2  505  502 -0.12616217790E+02 -0.35984376501E+02 -0.72523446879E+02  0.81937138410E+02  0.00000000000E+00 0. -1.
          1    1    1    2  501    0 -0.67405245899E+02 -0.14004724827E+03  0.66751123990E+01  0.15556752890E+03  0.00000000000E+00 0.  1.
<scales pt_clust_3="60.17739" pt_clust_4="60.17739" pt_clust_5="38.13193" pt_clust_6="190.90315"></scales>
<clustering>
<clus scale="   38.132">  1  5  2 -1</clus>
<clus scale="   60.177">  3  4 -1 -1</clus>
<clus scale="  190.903">  1  6  2 -1</clus>
<clus scale="  210.229">  2  3  1 -1</clus>
</clustering>
</event>
<event>
 6    0  0.3695460E+002  0.7609503E+02  0.7546771E-02  0.1340513E+00
         21   -1    0    0  503  502  0.00000000000E+00  0.00000000000E+00  0.78080732628E+02  0.78080732628E+02  0.00000000000E+00 0. -1.
          2   -1    0    0  504    0 -0.00000000000E+00 -0.00000000000E+00 -0.14091797495E+04  0.14091797495E+04  0.00000000000E+00 0.  1.
         21    1    1    2  503  505 -0.40261138542E+02  0.27301331759E+01  0.42835754019E+02  0.58849933953E+02  0.00000000000E+00 0. -1.
         21    1    1    2  504  502 -0.61832998704E+02  0.65298983101E+02 -0.82731405915E+03  0.83218737637E+03  0.00000000000E+00 0.  1.
         21    1    1    2  505  501  0.45033344966E+02 -0.34874159240E+02 -0.12851541070E+02  0.58389821453E+02  0.00000000000E+00 0.  1.
          2    1    1    2  501    0  0.57060792280E+02 -0.33154957037E+02 -0.53376917071E+03  0.53783335039E+03  0.00000000000E+00 0.  1.
<scales pt_clust_3="40.35360" pt_clust_4="76.09503" pt_clust_5="34.52078" pt_clust_6="14000.00000"></scales>
<clustering>
<clus scale="   40.354">  1  3  2 -1</clus>
<clus scale="   34.521">  1  5  2 -1</clus>
<clus scale="   76.095">  1  4  2 -1</clus>
<clus scale="   40.354">  1  3  2 -1</clus>
</clustering>
</event>
<event>
 6    0  0.3695460E+002  0.1134104E+03  0.7546771E-02  0.1254382E+00
          2   -1    0    0  504    0 -0.00000000000E+00  0.00000000000E+00  0.33064875192E+03  0.33064875192E+03  0.00000000000E+00 0.  1.
         21   -1    0    0  503  502  0.00000000000E+00 -0.00000000000E+00 -0.48115821250E+03  0.48115821250E+03  0.00000000000E+00 0. -1.
         21    1    1    2  503  501 -0.37082330855E+02  0.19987977400E+02 -0.72037256852E+02  0.83450493569E+02  0.00000000000E+00 0. -1.
         21    1    1    2  504  505  0.27467144170E+02  0.46311372691E+02  0.20771300279E+02  0.57711646699E+02  0.00000000000E+00 0. -1.
         21    1    1    2  505  502 -0.35972920947E+02 -0.11081859141E+03 -0.37237615395E+03  0.39017792259E+03  0.00000000000E+00 0. -1.
          2    1    1    2  501    0  0.45588107632E+02  0.44519241318E+02  0.27313264995E+03  0.28046690156E+03  0.00000000000E+00 0.  1.
<scales pt_clust_3="42.12622" pt_clust_4="53.79965" pt_clust_5="14000.00000" pt_clust_6="113.41043"></scales>
<clustering>
<clus scale="   42.126">  2  3  1 -1</clus>
<clus scale="   53.800">  1  4  2 -1</clus>
<clus scale="  113.410">  1  6  2 -1</clus>
<clus scale="   42.126">  2  3  1 -1</clus>
</clustering>
</event>
<event>
 6    0  0.3695460E+002  0.1485287E+03  0.7546771E-02  0.1202293E+00
         21   -1    0    0  501  502  0.00000000000E+00  0.00000000000E+00  0.72407646061E+03  0.72407646061E+03  0.00000000000E+00 0.  1.
          3   -1    0    0  503    0 -0.00000000000E+00 -0.00000000000E+00 -0.15577130532E+03  0.15577130532E+03  0.00000000000E+00 0. -1.
         21    1    1    2  503  504 -0.10562269439E+02  0.77022932179E+02 -0.27030878684E+02  0.82308942525E+02  0.00000000000E+00 0. -1.
         21    1    1    2  504  505  0.65314387962E+02 -0.56734869259E+02  0.31901030670E+03  0.33053349369E+03  0.00000000000E+00 0.  1.
         21    1    1    2  505  502  0.29412551849E+02 -0.58198702957E+02  0.34553407317E+03  0.35163330751E+03  0.00000000000E+00 0.  1.
          3    1    1    2  501    0 -0.84164670371E+02  0.37910640037E+02 -0.69208345900E+02  0.11537202221E+03  0.00000000000E+00 0. -1.
<scales pt_clust_3="77.74377" pt_clust_4="34.17343" pt_clust_5="34.17343" pt_clust_6="143.21800"></scales>
<clustering>
<clus scale="   34.173">  4  5 -1 -1</clus>
<clus scale="   77.744">  2  3  1 -1</clus>
<clus scale="  143.218">  2  6  1 -1</clus>
<clus scale="  148.529">  1  3  2 -1</clus>
</clustering>
</event>
<event>
 6    0  0.3695460E+002  0.1262413E+03  0.7546771E-02  0.1233142E+00
          1   -1    0    0  503    0 -0.00000000000E+00  0.00000000000E+00  0.87960615085E+03  0.87960615085E+03  0.00000000000E+00 0.  1.
         21   -1    0    0  504  502  0.00000000000E+00 -0.00000000000E+00 -0.29200895938E+03  0.29200895938E+03  0.00000000000E+00 0. -1.
         21    1    1    2  503  505 -0.19219258516E+02  0.13633330154E+03  0.31192847065E+02  0.14117061562E+03  0.00000000000E+00 0. -1.
         21    1    1    2  504  501  0.45700616768E+02  0.16190251092E+02  0.23098599838E+02  0.53704896592E+02  0.00000000000E+00 0.  1.
         21    1    1    2  505  502 -0.11819474733E+03 -0.63591016182E+02 -0.19532573198E+03  0.23699358052E+03  0.00000000000E+00 0. -1.
          1    1    1    2  501    0  0.91713389081E+02 -0.88932536448E+02  0.72863147655E+03  0.73974601749E+03  0.00000000000E+00 0.  1.
<scales pt_clust_3="14000.00000" pt_clust_4="48.48371" pt_clust_5="96.95603" pt_clust_6="126.24134"></scales>
<clustering>
<clus scale="   48.484">  2  4  1 -1</clus>
<clus scale="   96.956">  2  5  1 -1</clus>
<clus scale="  126.241">  1  6  2 -1</clus>
<clus scale="   48.484">  2  3  1 -1</clus>
</clustering>
</event>
<event>
 6    0  0.3695460E+002  0.1164342E+03  0.7546771E-02  0.1249098E+00
          2   -1    0    0  505    0 -0.00000000000E+00  0.00000000000E+00  0.11979018580E+04  0.11979018580E+04  0.00000000000E+00 0. -1.
         21   -1    0    0  504  502  0.00000000000E+00 -0.00000000000E+00 -0.36882591274E+03  0.36882591274E+03  0.00000000000E+00 0. -1.
         21    1    1    2  503  502  0.35135813785E+02 -0.28954232709E+02 -0.31295156948E+03  0.31624604004E+03  0.00000000000E+00 0. -1.
         21    1    1    2  504  501  0.29372335823E+02  0.74918499619E+01 -0.29043074244E+02  0.41980496533E+02  0.00000000000E+00 0. -1.
         21    1    1    2  505  503 -0.59084037073E+01 -0.89965630928E+02  0.12092675285E+03  0.15083767281E+03  0.00000000000E+00 0. -1.
          2    1    1    2  501    0 -0.58599745901E+02  0.11142801368E+03  0.10501438362E+04  0.10576635614E+04  0.00000000000E+00 0. -1.
<scales pt_clust_3="66.55908" pt_clust_4="30.31274" pt_clust_5="14000.00000" pt_clust_6="116.43421"></scales>
<clustering>
<clus scale="   30.313">  2  4  1 -1</clus>
<clus scale="   66.559">  2  3  1 -1</clus>
<clus scale="  116.434">  1  6  2 -1</clus>
<clus scale="   30.313">  2  3  1 -1</clus>
</clustering>
</event>
<event>
 6    0  0.3695460E+002  0.1742847E+03  0.7546771E-02  0.1173452E+00
         21   -1    0    0  503  502  0.00000000000E+00  0.00000000000E+00  0.28067204112E+03  0.28067204112E+03  0.00000000000E+00 0.  1.
          2   -1    0    0  505    0 -0.00000000000E+00 -0.00000000000E+00 -0.81654990426E+03  0.81654990426E+03  0.00000000000E+00 0.  1.
         21    1    1    2  503  504  0.80347691641E+02 -0.80145982473E+01  0.69825237491E+02  0.10674993737E+03  0.00000000000E+00 0.  1.
         21    1    1    2  504  501  0.83586881601E+02  0.25123118415E+02  0.16331545958E+03  0.18517526075E+03  0.00000000000E+00 0.  1.
         21    1    1    2  505  502 -0.25698271557E+02 -0.74987079612E+02 -0.16629727438E+03  0.18422336100E+03  0.00000000000E+00 0.  1.
          2    1    1    2  501    0 -0.13823630168E+03  0.57878559444E+02 -0.60272128583E+03  0.62107338627E+03  0.00000000000E+00 0.  1.
<scales pt_clust_3="58.49444" pt_clust_4="58.49444" pt_clust_5="79.26830" pt_clust_6="163.32995"></scales>
<clustering>
<clus scale="   58.494">  3  4 -1 -1</clus>
<clus scale="   79.268">  2  5  1 -1</clus>
<clus scale="  163.330">  2  6  1 -1</clus>
<clus scale="  174.285">  1  3  2 -1</clus>
</clustering>
</event>
<event>
 6    0  0.3695460E+002  0.4705977E+03  0.7546771E-02  0.1021752E+00
         21   -1    0    0  505  502  0.00000000000E+00  0.00000000000E+00  0.42209307451E+03  0.42209307451E+03  0.00000000000E+00 0. -1.
          2   -1    0    0  503    0 -0.00000000000E+00 -0.00000000000E+00 -0.61011637003E+03  0.61011637003E+03  0.00000000000E+00 0.  1.
         21    1    1    2  503  504 -0.37399340480E+02  0.54738854296E+02 -0.12966178294E+02  0.67551273989E+02  0.00000000000E+00 0. -1.
         21    1    1    2  504  502 -0.33008549797E+03  0.19888001693E+03  0.12665364308E+03  0.40564866869E+03  0.00000000000E+00 0. -1.
         21    1    1    2  505  501  0.25315591949E+03 -0.96620639182E+02 -0.13346357338E+03  0.30205296374E+03  0.00000000000E+00 0.  1.
          2    1    1    2  501    0  0.11432891896E+03 -0.15699823204E+03 -0.16824718693E+03  0.25695653812E+03  0.00000000000E+00 0.  1.
<scales pt_clust_3="44.72105" pt_clust_4="459.34012" pt_clust_5="125.84211" pt_clust_6="125.84211"></scales>
<clustering>
<clus scale="   44.721">  3  4 -1 -1</clus>
<clus scale="  125.842">  5  6 -1 -1</clus>
<clus scale="  459.340">  1  3  2 -1</clus>
<clus scale="  459.340">  1  3  2 -1</clus>
</clustering>
</event>
<event>
 6    0  0.3695460E+002  0.2538954E+03  0.7546771E-02  0.1110867E+00
         21   -1    0    0  505  502  0.00000000000E+00  0.00000000000E+00  0.35893109973E+03  0.35893109973E+03  0.00000000000E+00 0. -1.
          4   -1    0    0  503    0 -0.00000000000E+00 -0.00000000000E+00 -0.11727724361E+04  0.11727724361E+04  0.00000000000E+00 0. -1.
         21    1    1    2  503  502 -0.12540958869E+03  0.20811013786E+03 -0.44011886050E+03  0.50273452814E+03  0.00000000000E+00 0. -1.
         21    1    1    2  504  501  0.58249764757E+02  0.18672429108E+02  0.15562081679E+03  0.16721104425E+03  0.00000000000E+00 0. -1.
         21    1    1    2  505  504  0.53528626818E+02  0.51530144671E+02  0.12788357515E+03  0.14790158380E+03  0.00000000000E+00 0.  1.
          4    1    1    2  501    0  0.13631197119E+02 -0.27831271164E+03 -0.65722686784E+03  0.71385637967E+03  0.00000000000E+00 0. -1.
<scales pt_clust_3="253.89542" pt_clust_4="35.12252" pt_clust_5="137.55446" pt_clust_6="14000.00000"></scales>
<clustering>
<clus scale="   35.123">  4  5 -1 -1</clus>
<clus scale="  137.554">  1  4  2 -1</clus>
<clus scale="  253.895">  1  3  2 -1</clus>
<clus scale="  137.554">  1  3  2 -1</clus>
</clustering>
</event>
<event>
 6    0  0.3695460E+002  0.1494112E+03  0.7546771E-02  0.1201198E+00
         21   -1    0    0  504  502  0.00000000000E+00  0.00000000000E+00  0.49829409750E+03  0.49829409750E+03  0.00000000000E+00 0.  1.
         -2   -1    0    0    0  501 -0.00000000000E+00 -0.00000000000E+00 -0.18954447256E+03  0.18954447256E+03  0.00000000000E+00 0.  1.
         21    1    1    2  503  502 -0.59556553274E+02  0.45988471061E+01 -0.34694786716E+02  0.69078655588E+02  0.00000000000E+00 0.  1.
         21    1    1    2  504  505  0.49278070294E+02 -0.27018306239E+02  0.30759455760E+03  0.31268631078E+03  0.00000000000E+00 0.  1.
         21    1    1    2  505  501  0.66979113237E+02 -0.55751830941E+02  0.13945257902E+03  0.16444296901E+03  0.00000000000E+00 0.  1.
         -2    1    1    2    0  503 -0.56700630258E+02  0.78171290074E+02 -0.10360272496E+03  0.14163063469E+03  0.00000000000E+00 0.  1.
<scales pt_clust_3="55.08517" pt_clust_4="56.19891" pt_clust_5="131.97772" pt_clust_6="55.08517"></scales>
<clustering>
<clus scale="   55.085">  3  6 -1 -1</clus>
<clus scale="   56.199">  1  4  2 -1</clus>
<clus scale="  131.978">  1  5  2 -1</clus>
<clus scale="   56.199">  1  3  2 -1</clus>
</clustering>
</event>
<event>
 6    0  0.3695460E+002  0.1828728E+03  0.7546771E-02  0.1165051E+00
         21   -1    0    0  505  502  0.00000000000E+00  0.00000000000E+00  0.13527556311E+03  0.13527556311E+03  0.00000000000E+00 0. -1.
          2   -1    0    0  504    0 -0.00000000000E+00 -0.00000000000E+00 -0.26846164814E+04  0.26846164814E+04  0.00000000000E+00 0. -1.
         21    1    1    2  503  501  0.10345335655E+03 -0.64873351565E+02 -0.31446893574E+02  0.12609542355E+03  0.00000000000E+00 0. -1.
         21    1    1    2  504  502 -0.21943744887E+03 -0.48479599004E+01 -0.21370686223E+04  0.21483106370E+04  0.00000000000E+00 0. -1.
         21    1    1    2  505  503  0.76177160371E+02 -0.10517331178E+02  0.58815584720E+02  0.96813465093E+02  0.00000000000E+00 0. -1.
          2    1    1    2  501    0  0.39806931953E+02  0.80238642643E+02 -0.43964098718E+03  0.44867251890E+03  0.00000000000E+00 0. -1.
<scales pt_clust_3="182.87278" pt_clust_4="14000.00000" pt_clust_5="76.89977" pt_clust_6="91.66969"></scales>
<clustering>
<clus scale="   76.900">  1  5  2 -1</clus>
<clus scale="   91.670">  2  6  1 -1</clus>
<clus scale="  182.873">  1  3  2 -1</clus>
<clus scale="   76.900">  1  3  2 -1</clus>
</clustering>
</event>
<event>
 6    0  0.3695460E+002  0.1274170E+03  0.7546771E-02  0.1231340E+00
         21   -1    0    0  505  502  0.00000000000E+00  0.00000000000E+00  0.20478163693E+03  0.20478163693E+03  0.00000000000E+00 0.  1.
          2   -1    0    0  503    0 -0.00000000000E+00 -0.00000000000E+00 -0.69372709376E+03  0.69372709376E+03  0.00000000000E+00 0.  1.
         21    1    1    2  503  502 -0.43179650336E+02 -0.26820421289E+02 -0.35107164112E+02  0.61776453227E+02  0.00000000000E+00 0. -1.
         21    1    1    2  504  501 -0.61727117232E+02 -0.13971721141E+02 -0.20043338964E+03  0.21018798651E+03  0.00000000000E+00 0. -1.
         21    1    1    2  505  504  0.13366740522E+03  0.19688684517E+02  0.16124219335E+03  0.21036554954E+03  0.00000000000E+00 0.  1.
          2    1    1    2  501    0 -0.28760637651E+02  0.21103457913E+02 -0.41464709644E+03  0.41617874141E+03  0.00000000000E+00 0.  1.
<scales pt_clust_3="53.45694" pt_clust_4="127.41698" pt_clust_5="14000.00000" pt_clust_6="35.67254"></scales>
<clustering>
<clus scale="   35.673">  2  6  1 -1</clus>
<clus scale="   53.457">  2  3  1 -1</clus>
<clus scale="  127.417">  2  4  1 -1</clus>
<clus scale="  127.417">  1  3  2 -1</clus>
</clustering>
</event>
<event>
 6    0  0.3695460E+002  0.1559345E+03  0.7546771E-02  0.1193365E+00
          1   -1    0    0  505    0 -0.00000000000E+00  0.00000000000E+00  0.22483315457E+03  0.22483315457E+03  0.00000000000E+00 0.  1.
         21   -1    0    0  501  502  0.00000000000E+00 -0.00000000000E+00 -0.17508068446E+03  0.17508068446E+03  0.00000000000E+00 0.  1.
         21    1    1    2  503  502  0.53542130859E+02 -0.47124167722E+02 -0.30570101690E+02  0.77601405128E+02  0.00000000000E+00 0.  1.
         21    1    1    2  504  503 -0.83557146604E+00 -0.10353161014E+03 -0.25395666321E+02  0.10660409160E+03  0.00000000000E+00 0.  1.
         21    1    1    2  505  504 -0.64398803450E+02  0.41586366648E+02  0.29524871825E+02  0.82148340415E+02  0.00000000000E+00 0.  1.
          1    1    1    2  501    0  0.11692244056E+02  0.10906941122E+03  0.76193366293E+02  0.13356000188E+03  0.00000000000E+00 0.  1.
<scales pt_clust_3="60.56404" pt_clust_4="60.56404" pt_clust_5="76.65919" pt_clust_6="137.80865"></scales>
<clustering>
<clus scale="   60.564">  3  4 -1 -1</clus>
<clus scale="   76.659">  1  5  2 -1</clus>
<clus scale="  137.809">  1  6  2 -1</clus>
<clus scale="  155.935">  2  3  1 -1</clus>
</clustering>
</event>
<event>
 6    0  0.3695460E+002  0.8642642E+02  0.7546771E-02  0.1311744E+00
         21   -1    0    0  505  502  0.00000000000E+00  0.00000000000E+00  0.10335999762E+04  0.10335999762E+04  0.00000000000E+00 0.  1.
          2   -1    0    0  504    0 -0.00000000000E+00 -0.00000000000E+00 -0.47098170984E+02  0.47098170984E+02  0.00000000000E+00 0. -1.
         21    1    1    2  503  501 -0.10584707740E+03  0.32046537972E+02  0.12141837401E+03  0.16423460639E+03  0.00000000000E+00 0.  1.
         21    1    1    2  504  502  0.91997001579E+02 -0.34262795923E+02  0.64900263681E+03  0.65638541275E+03  0.00000000000E+00 0.  1.
         21    1    1    2  505  503 -0.13292940230E+02  0.40074710691E+02  0.20868253390E+03  0.21291097824E+03  0.00000000000E+00 0.  1.
          2    1    1    2  501    0  0.27143016049E+02 -0.37858452740E+02  0.73982605140E+01  0.47167149826E+02  0.00000000000E+00 0. -1.
<scales pt_clust_3="86.42642" pt_clust_4="14000.00000" pt_clust_5="42.22185" pt_clust_6="45.24848"></scales>
<clustering>
<clus scale="   42.222">  1  5  2 -1</clus>
<clus scale="   45.248">  2  6  1 -1</clus>
<clus scale="   86.426">  2  3  1 -1</clus>
<clus scale="   42.222">  1  3  2 -1</clus>
</clustering>
</event>
<event>
 6    0  0.3695460E+002  0.8073101E+02  0.7546771E-02  0.1326990E+00
          1   -1    0    0  503    0 -0.00000000000E+00  0.00000000000E+00  0.11293474680E+04  0.11293474680E+04  0.00000000000E+00 0.  1.
         21   -1    0    0  505  502  0.00000000000E+00 -0.00000000000E+00 -0.21563962315E+04  0.21563962315E+04  0.00000000000E+00 0. -1.
         21    1    1    2  503  504 -0.34676971327E+02  0.48391566190E+02  0.21347178524E+02  0.63245063441E+02  0.00000000000E+00 0. -1.
         21    1    1    2  504  502  0.88745744769E+02 -0.50419079814E+02 -0.19548987292E+04  0.19575614760E+04  0.00000000000E+00 0. -1.
         21    1    1    2  505  501 -0.82561134010E+01  0.58233135542E+02 -0.17314257212E+03  0.18285954108E+03  0.00000000000E+00 0. -1.
          1    1    1    2  501    0 -0.45812660041E+02 -0.56205621918E+02  0.10796453593E+04  0.10820776190E+04  0.00000000000E+00 0.  1.
<scales pt_clust_3="60.08632" pt_clust_4="80.73101" pt_clust_5="58.81549" pt_clust_6="14000.00000"></scales>
<clustering>
<clus scale="   58.815">  2  5  1 -1</clus>
<clus scale="   60.086">  1  3  2 -1</clus>
<clus scale="   80.731">  2  4  1 -1</clus>
<clus scale="   58.815">  2  3  1 -1</clus>
</clustering>
</event>
<event>
 6    0  0.3695460E+002  0.1183686E+03  0.7546771E-02  0.1245813E+00
         21   -1    0    0  504  502  0.00000000000E+00  0.00000000000E+00  0.19911250996E+03  0.19911250996E+03  0.00000000000E+00 0.  1.
         -1   -1    0    0    0  501 -0.00000000000E+00 -0.00000000000E+00 -0.76312568023E+03  0.76312568023E+03  0.00000000000E+00 0.  1.
         21    1    1    2  503  505 -0.68149224206E+02 -0.85273907579E+02 -0.24235807644E+02  0.11181829209E+03  0.00000000000E+00 0.  1.
         21    1    1    2  504  501  0.94112141807E+00  0.35013815351E+02 -0.14570284445E+03  0.14985383497E+03  0.00000000000E+00 0. -1.
         21    1    1    2  505  502  0.12328792661E+03  0.35063005912E+02  0.12453444143E+03  0.17871249071E+03  0.00000000000E+00 0.  1.
         -1    1    1    2    0  503 -0.56079823827E+02  0.15197086317E+02 -0.51860895961E+03  0.52185357243E+03  0.00000000000E+00 0.  1.
<scales pt_clust_3="14000.00000" pt_clust_4="35.02646" pt_clust_5="118.36859" pt_clust_6="71.15662"></scales>
<clustering>
<clus scale="   35.026">  2  4  1 -1</clus>
<clus scale="   71.157">  2  6  1 -1</clus>
<clus scale="  118.369">  1  5  2 -1</clus>
<clus scale="  118.369">  1  3  2 -1</clus>
</clustering>
</event>
<event>
 6    0  0.3695460E+002  0.1269145E+03  0.7546771E-02  0.1232107E+00
         21   -1    0    0  503  502  0.00000000000E+00  0.00000000000E+00  0.32639479337E+02  0.32639479337E+02  0.00000000000E+00 0.  1.
          2   -1    0    0  504    0 -0.00000000000E+00 -0.00000000000E+00 -0.15569721220E+04  0.15569721220E+04  0.00000000000E+00 0.  1.
         21    1    1    2  503  501 -0.52100599219E+02  0.18202240849E+02 -0.41466554733E+03  0.41832201729E+03  0.00000000000E+00 0. -1.
         21    1    1    2  504  505  0.10435573561E+03 -0.92668241659E+01 -0.13316646114E+03  0.16943818919E+03  0.00000000000E+00 0.  1.
         21    1    1    2  505  502  0.13784420525E+02 -0.27055304477E+02 -0.86380760871E+01  0.31569227232E+02  0.00000000000E+00 0. -1.
          2    1    1    2  501    0 -0.66039556915E+02  0.18119887794E+02 -0.96786255813E+03  0.97028216764E+03  0.00000000000E+00 0.  1.
<scales pt_clust_3="35.16539" pt_clust_4="120.60706" pt_clust_5="30.36445" pt_clust_6="35.16539"></scales>
<clustering>
<clus scale="   30.364">  1  5  2 -1</clus>
<clus scale="   35.165">  3  6 -1 -1</clus>
<clus scale="  120.607">  1  4  2 -1</clus>
<clus scale="   30.364">  1  3  2 -1</clus>
</clustering>
</event>
<event>
 6    0  0.3695460E+002  0.3357072E+03  0.7546771E-02  0.1068639E+00
         21   -1    0    0  504  502  0.00000000000E+00  0.00000000000E+00  0.11049318266E+04  0.11049318266E+04  0.00000000000E+00 0. -1.
          1   -1    0    0  503    0 -0.00000000000E+00 -0.00000000000E+00 -0.45948629149E+03  0.45948629149E+03  0.00000000000E+00 0. -1.
         21    1    1    2  503  505  0.37617574607E+02  0.18314315517E+02  0.69391185077E+02  0.81028591488E+02  0.00000000000E+00 0. -1.
         21    1    1    2  504  501 -0.10036392428E+03 -0.16115056423E+03 -0.19471298792E+03  0.27194773268E+03  0.00000000000E+00 0. -1.
         21    1    1    2  505  502  0.19000942222E+03  0.21309884929E+03  0.94345704209E+03  0.98571085536E+03  0.00000000000E+00 0. -1.
          1    1    1    2  501    0 -0.12726307255E+03 -0.70262600581E+02 -0.17268970418E+03  0.22573093852E+03  0.00000000000E+00 0. -1.
<scales pt_clust_3="31.34686" pt_clust_4="74.93465" pt_clust_5="334.77084" pt_clust_6="74.93465"></scales>
<clustering>
<clus scale="   31.347">  3  5 -1 -1</clus>
<clus scale="   74.935">  4  6 -1 -1</clus>
<clus scale="  334.771">  1  3  2 -1</clus>
<clus scale="  334.771">  1  3  2 -1</clus>
</clustering>
</event>
<event>
 6    0  0.3695460E+002  0.9345222E+02  0.7546771E-02  0.1294701E+00
         21   -1    0    0  503  502  0.00000000000E+00  0.00000000000E+00  0.27123041574E+03  0.27123041574E+03  0.00000000000E+00 0. -1.
          2   -1    0    0  504    0 -0.00000000000E+00 -0.00000000000E+00 -0.60626649441E+03  0.60626649441E+03  0.00000000000E+00 0. -1.
         21    1    1    2  503  501  0.29879678452E+02  0.22702491798E+02  0.16565844334E+03  0.16985558033E+03  0.00000000000E+00 0. -1.
         21    1    1    2  504  505  0.79551753495E+02  0.25402014135E+02 -0.63880778102E+02  0.10514037101E+03  0.00000000000E+00 0.  1.
         21    1    1    2  505  502 -0.13078875517E+02 -0.47742998709E+02  0.70485941695E+02  0.86131985274E+02  0.00000000000E+00 0.  1.
          2    1    1    2  501    0 -0.96352556430E+02 -0.36150722379E+00 -0.50729968560E+03  0.51636897353E+03  0.00000000000E+00 0. -1.
<scales pt_clust_3="37.52597" pt_clust_4="93.45222" pt_clust_5="32.01432" pt_clust_6="14000.00000"></scales>
<clustering>
<clus scale="   37.526">  1  3  2 -1</clus>
<clus scale="   32.014">  1  5  2 -1</clus>
<clus scale="   93.452">  1  4  2 -1</clus>
<clus scale="   37.526">  1  3  2 -1</clus>
</clustering>
</event>
<event>
 6    0  0.3695460E+002  0.3202556E+03  0.7546771E-02  0.1075532E+00
          1   -1    0    0  504    0 -0.00000000000E+00  0.00000000000E+00  0.96683221078E+03  0.96683221078E+03  0.00000000000E+00 0.  1.
         21   -1    0    0  505  502  0.00000000000E+00 -0.00000000000E+00 -0.32855793109E+03  0.32855793109E+03  0.00000000000E+00 0.  1.
         21    1    1    2  503  501 -0.20356362350E+02  0.30087875229E+02  0.11069548634E+03  0.11650387299E+03  0.00000000000E+00 0.  1.
         21    1    1    2  504  502 -0.50804732243E+02 -0.26289663354E+03 -0.21280644334E+03  0.34202681630E+03  0.00000000000E+00 0.  1.
         21    1    1    2  505  503 -0.34380246362E+02 -0.34564712199E+02  0.71251866868E+01  0.49269554033E+02  0.00000000000E+00 0. -1.
          1    1    1    2  501    0  0.10554134096E+03  0.26737347051E+03  0.73326004999E+03  0.78758989855E+03  0.00000000000E+00 0.  1.
<scales pt_clust_3="34.43884" pt_clust_4="305.25198" pt_clust_5="48.75162" pt_clust_6="34.43884"></scales>
<clustering>
<clus scale="   34.439">  3  6 -1 -1</clus>
<clus scale="   48.752">  2  5  1 -1</clus>
<clus scale="  305.252">  2  4  1 -1</clus>
<clus scale="   48.752">  2  3  1 -1</clus>
</clustering>
</event>
<event>
 6    0  0.3695460E+002  0.7387389E+02  0.7546771E-02  0.1347394E+00
          2   -1    0    0  505    0 -0.00000000000E+00  0.00000000000E+00  0.40407543687E+03  0.40407543687E+03  0.00000000000E+00 0. -1.
         21   -1    0    0  503  502  0.00000000000E+00 -0.00000000000E+00 -0.23975005391E+03  0.23975005391E+03  0.00000000000E+00 0.  1.
         21    1    1    2  503  501 -0.46314104203E+02  0.86361823300E+01 -0.68865820050E+02  0.83439085952E+02  0.00000000000E+00 0.  1.
         21    1    1    2  504  502  0.40321895541E+02 -0.82499771541E+02 -0.13849279653E+03  0.16616955875E+03  0.00000000000E+00 0.  1.
         21    1    1    2  505  504  0.51580532325E+02  0.63648762630E+02  0.19613122408E+03  0.21255393047E+03  0.00000000000E+00 0. -1.
          2    1    1    2  501    0 -0.45588323663E+02  0.10214826580E+02  0.17555277546E+03  0.18166291561E+03  0.00000000000E+00 0. -1.
<scales pt_clust_3="48.62132" pt_clust_4="73.87389" pt_clust_5="14000.00000" pt_clust_6="46.71871"></scales>
<clustering>
<clus scale="   46.719">  1  6  2 -1</clus>
<clus scale="   48.621">  2  3  1 -1</clus>
<clus scale="   73.874">  2  4  1 -1</clus>
<clus scale="   48.621">  2  3  1 -1</clus>
</clustering>
</event>
<event>
 6    0  0.3695460E+002  0.1024609E+03  0.7546771E-02  0.1275205E+00
         21   -1    0    0  505  502  0.00000000000E+00  0.00000000000E+00  0.59428767353E+02  0.59428767353E+02  0.00000000000E+00 0. -1.
          2   -1    0    0  503    0 -0.00000000000E+00 -0.00000000000E+00 -0.13087949025E+04  0.13087949025E+04  0.00000000000E+00 0.  1.
         21    1    1    2  503  504  0.68633023620E+02 -0.46109006036E+02 -0.23245900397E+03  0.24672600368E+03  0.00000000000E+00 0. -1.
         21    1    1    2  504  502  0.38324169187E+02  0.11963945256E+02 -0.61903952553E+02  0.73783312962E+02  0.00000000000E+00 0. -1.
         21    1    1    2  505  501  0.19274237317E+02  0.80531821164E+02  0.48562177546E+00  0.82807646221E+02  0.00000000000E+00 0. -1.
          2    1    1    2  501    0 -0.12623143012E+03 -0.46386760384E+02 -0.95548880039E+03  0.96490670697E+03  0.00000000000E+00 0.  1.
<scales pt_clust_3="86.13731" pt_clust_4="40.14820" pt_clust_5="14000.00000" pt_clust_6="102.46088"></scales>
<clustering>
<clus scale="   40.148">  1  4  2 -1</clus>
<clus scale="   86.137">  2  3  1 -1</clus>
<clus scale="  102.461">  2  6  1 -1</clus>
<clus scale="   40.148">  1  3  2 -1</clus>
</clustering>
</event>
<event>
 6    0  0.3695460E+002  0.1228548E+03  0.7546771E-02  0.1238460E+00
         21   -1    0    0  505  502  0.00000000000E+00  0.00000000000E+00  0.70448830953E+02  0.70448830953E+02  0.00000000000E+00 0.  1.
          2   -1    0    0  504    0 -0.00000000000E+00 -0.00000000000E+00 -0.27466724533E+04  0.27466724533E+04  0.00000000000E+00 0. -1.
         21    1    1    2  503  501  0.49136080630E+02 -0.56015455810E+01 -0.12905497995E+03  0.13820607651E+03  0.00000000000E+00 0.  1.
         21    1    1    2  504  502 -0.11419572783E+03 -0.50558392670E+02 -0.93068549389E+02  0.15575162988E+03  0.00000000000E+00 0. -1.
         21    1    1    2  505  503  0.91191246782E+02  0.84356183399E+02 -0.77850935269E+02  0.14660346957E+03  0.00000000000E+00 0.  1.
          2    1    1    2  501    0 -0.26131599584E+02 -0.28196245149E+02 -0.23762491578E+04  0.23765601083E+04  0.00000000000E+00 0. -1.
<scales pt_clust_3="42.72506" pt_clust_4="14000.00000" pt_clust_5="122.85478" pt_clust_6="38.44332"></scales>
<clustering>
<clus scale="   38.443">  2  6  1 -1</clus>
<clus scale="   42.725">  2  3  1 -1</clus>
<clus scale="  122.855">  1  5  2 -1</clus>
<clus scale="  122.855">  1  3  2 -1</clus>
</clustering>
</event>
<event>
 6    0  0.3695460E+002  0.8066057E+02  0.7546771E-02  0.1327187E+00
          4   -1    0    0  503    0 -0.00000000000E+00  0.00000000000E+00  0.38065177034E+02  0.38065177034E+02  0.00000000000E+00 0. -1.
         21   -1    0    0  505  502  0.00000000000E+00 -0.00000000000E+00 -0.90660899377E+03  0.90660899377E+03  0.00000000000E+00 0. -1.
         21    1    1    2  503  502  0.23203906743E+02 -0.59865797541E+02 -0.18769421597E+03  0.19837200839E+03  0.00000000000E+00 0. -1.
         21    1    1    2  504  501  0.11125242678E+02  0.96580809988E+02 -0.14733596205E+03  0.17652056423E+03  0.00000000000E+00 0. -1.
         21    1    1    2  505  504 -0.18289621088E+02  0.34468891789E+02 -0.47404718053E+03  0.47565044319E+03  0.00000000000E+00 0. -1.
          4    1    1    2  501    0 -0.16039528333E+02 -0.71183904235E+02 -0.59466458185E+02  0.94131154993E+02  0.00000000000E+00 0. -1.
<scales pt_clust_3="46.92635" pt_clust_4="80.66057" pt_clust_5="39.02070" pt_clust_6="14000.00000"></scales>
<clustering>
<clus scale="   39.021">  2  5  1 -1</clus>
<clus scale="   46.926">  2  3  1 -1</clus>
<clus scale="   80.661">  2  4  1 -1</clus>
<clus scale="   39.021">  2  3  1 -1</clus>
</clustering>
</event>
<event>
 6    0  0.3695460E+002  0.9094228E+02  0.7546771E-02  0.1300586E+00
          2   -1    0    0  505    0 -0.00000000000E+00  0.00000000000E+00  0.19515023077E+04  0.19515023077E+04  0.00000000000E+00 0.  1.
         21   -1    0    0  501  502  0.00000000000E+00 -0.00000000000E+00 -0.45001683406E+02  0.45001683406E+02  0.00000000000E+00 0.  1.
         21    1    1    2  503  504  0.39793319142E+02  0.46304079558E+02  0.63753906638E+02  0.88273079949E+02  0.00000000000E+00 0.  1.
         21    1    1    2  504  502 -0.14318041300E+02  0.52359489140E+02  0.10622508528E+01  0.54292271886E+02  0.00000000000E+00 0.  1.
         21    1    1    2  505  503 -0.32294518381E+02  0.39566014798E+02  0.19953500180E+03  0.20596752750E+03  0.00000000000E+00 0. -1.
          2    1    1    2  501    0  0.68192405386E+01 -0.13822958350E+03  0.16421494650E+04  0.16479711117E+04  0.00000000000E+00 0.  1.
<scales pt_clust_3="90.94228" pt_clust_4="55.02170" pt_clust_5="51.07255" pt_clust_6="14000.00000"></scales>
<clustering>
<clus scale="   51.073">  1  5  2 -1</clus>
<clus scale="   55.022">  2  4  1 -1</clus>
<clus scale="   90.942">  2  3  1 -1</clus>
<clus scale="   55.022">  2  3  1 -1</clus>
</clustering>
</event>
<event>
 6    0  0.3695460E+002  0.7961274E+02  0.7546771E-02  0.1330154E+00
          1   -1    0    0  504    0 -0.00000000000E+00  0.00000000000E+00  0.25745115038E+04  0.25745115038E+04  0.00000000000E+00 0.  1.
         21   -1    0    0  505  502  0.00000000000E+00 -0.00000000000E+00 -0.12432320918E+02  0.12432320918E+02  0.00000000000E+00 0. -1.
         21    1    1    2  503  502 -0.27177618965E+02 -0.69306541640E+02  0.25189342281E+03  0.26266388435E+03  0.00000000000E+00 0. -1.
         21    1    1    2  504  503 -0.60621114407E+02 -0.28085085325E+02  0.26844093808E+03  0.27663012990E+03  0.00000000000E+00 0. -1.
         21    1    1    2  505  501  0.25831872865E+02  0.41657257824E+02  0.30563004618E+03  0.30953568116E+03  0.00000000000E+00 0.  1.
          1    1    1    2  501    0  0.61966860507E+02  0.55734369141E+02  0.17361147758E+04  0.17381141293E+04  0.00000000000E+00 0.  1.
<scales pt_clust_3="49.87654" pt_clust_4="79.61274" pt_clust_5="49.01645" pt_clust_6="14000.00000"></scales>
<clustering>
<clus scale="   49.016">  2  5  1 -1</clus>
<clus scale="   49.877">  2  3  1 -1</clus>
<clus scale="   79.613">  2  4  1 -1</clus>
<clus scale="   49.016">  2  3  1 -1</clus>
</clustering>
</event>
<event>
 6    0  0.3695460E+002  0.1003231E+03  0.7546771E-02  0.1279618E+00
          2   -1    0    0  503    0 -0.00000000000E+00  0.00000000000E+00  0.70841158189E+03  0.70841158189E+03  0.00000000000E+00 0. -1.
         21   -1    0    0  504  502  0.00000000000E+00 -0.00000000000E+00 -0.33093691312E+03  0.33093691312E+03  0.00000000000E+00 0.  1.
         21    1    1    2  503  505  0.49170879614E+02 -0.26005211828E+02  0.15716026900E+03  0.16671351653E+03  0.00000000000E+00 0.  1.
         21    1    1    2  504  501 -0.34289423737E+02  0.84547112572E+02 -0.13199315893E+03  0.16045613989E+03  0.00000000000E+00 0.  1.
         21    1    1    2  505  502 -0.70634608995E+02 -0.79710306434E+02 -0.16230157097E+03  0.19412568320E+03  0.00000000000E+00 0.  1.
          2    1    1    2  501    0  0.55753153117E+02  0.21168405690E+02  0.51460912966E+03  0.51805315539E+03  0.00000000000E+00 0. -1.
<scales pt_clust_3="55.62415" pt_clust_4="90.13181" pt_clust_5="100.32307" pt_clust_6="14000.00000"></scales>
<clustering>
<clus scale="   55.624">  1  3  2 -1</clus>
<clus scale="   90.132">  2  4  1 -1</clus>
<clus scale="  100.323">  2  5  1 -1</clus>
<clus scale="   90.132">  2  3  1 -1</clus>
</clustering>
</event>
<event>
 6    0  0.3695460E+002  0.1714493E+03  0.7546771E-02  0.1176345E+00
         21   -1    0    0  503  502  0.00000000000E+00  0.00000000000E+00  0.51631092760E+03  0.51631092760E+03  0.00000000000E+00 0. -1.
          2   -1    0    0  504    0 -0.00000000000E+00 -0.00000000000E+00 -0.15563360710E+04  0.15563360710E+04  0.00000000000E+00 0. -1.
         21    1    1    2  503  501  0.87134284554E+02  0.97236367041E+02  0.23962224883E+03  0.27288480492E+03  0.00000000000E+00 0. -1.
         21    1    1    2  504  505 -0.39962040605E+02  0.59674634312E+01 -0.10265743181E+03  0.11032281548E+03  0.00000000000E+00 0. -1.
         21    1    1    2  505  502  0.69021079291E+02 -0.20977354739E+02  0.24752877609E+03  0.25782640244E+03  0.00000000000E+00 0. -1.
          2    1    1    2  501    0 -0.11619332324E+03 -0.82226475733E+02 -0.14245187365E+04  0.14316129757E+04  0.00000000000E+00 0. -1.
<scales pt_clust_3="171.44926" pt_clust_4="40.40514" pt_clust_5="71.99653" pt_clust_6="14000.00000"></scales>
<clustering>
<clus scale="   40.405">  2  4  1 -1</clus>
<clus scale="   71.997">  1  5  2 -1</clus>
<clus scale="  171.449">  1  3  2 -1</clus>
<clus scale="   71.997">  1  3  2 -1</clus>
</clustering>
</event>
<event>
 6    0  0.3695460E+002  0.1275134E+03  0.7546771E-02  0.1231193E+00
          2   -1    0    0  503    0 -0.00000000000E+00  0.00000000000E+00  0.79534721830E+03  0.79534721830E+03  0.00000000000E+00 0.  1.
         21   -1    0    0  504  502  0.00000000000E+00 -0.00000000000E+00 -0.48128754427E+03  0.48128754427E+03  0.00000000000E+00 0. -1.
         21    1    1    2  503  502  0.19827086925E+01  0.36065536132E+02 -0.28949917029E+02  0.46289866345E+02  0.00000000000E+00 0.  1.
         21    1    1    2  504  505 -0.11743083056E+03 -0.16016337409E+02 -0.43043431517E+03  0.44645293448E+03  0.00000000000E+00 0. -1.
         21    1    1    2  505  501  0.76243016198E+02 -0.32165579728E+02  0.42002842184E+03  0.42810220414E+03  0.00000000000E+00 0.  1.
          2    1    1    2  501    0  0.39205105665E+02  0.12116381005E+02  0.35341548440E+03  0.35578975760E+03  0.00000000000E+00 0.  1.
<scales pt_clust_3="36.11999" pt_clust_4="117.12721" pt_clust_5="35.49636" pt_clust_6="35.49636"></scales>
<clustering>
<clus scale="   35.496">  5  6 -1 -1</clus>
<clus scale="   36.120">  2  3  1 -1</clus>
<clus scale="  117.127">  2  4  1 -1</clus>
<clus scale="   36.120">  2  3  1 -1</clus>
</clustering>
</event>
<event>
 6    0  0.3911195E+002  0.1564964E+03  0.7546771E-02  0.1192710E+00
         21   -1    0    0  501  502  0.00000000000E+00  0.00000000000E+00  0.65199955955E+03  0.65199955955E+03  0.00000000000E+00 0. -1.
          1   -1    0    0  503    0 -0.00000000000E+00 -0.00000000000E+00 -0.93056881551E+03  0.93056881551E+03  0.00000000000E+00 0.  1.
         21    1    1    2  503  505 -0.37946782111E+02 -0.12706252979E+02 -0.38107906252E+02  0.55259566197E+02  0.00000000000E+00 0. -1.
         21    1    1    2  504  502 -0.99056329680E+02  0.26073637672E+02  0.43531169380E+03  0.44720047159E+03  0.00000000000E+00 0. -1.
         21    1    1    2  505  504 -0.49745893859E+02 -0.18694995072E+02  0.18851312310E+03  0.19586054829E+03  0.00000000000E+00 0.  1.
          1    1    1    2  501    0  0.18674900565E+03  0.53276103797E+01 -0.86428616661E+03  0.88424778899E+03  0.00000000000E+00 0.  1.
<scales pt_clust_3="40.01759" pt_clust_4="33.58074" pt_clust_5="33.58074" pt_clust_6="149.39071"></scales>
<clustering>
<clus scale="   33.581">  4  5 -1 -1</clus>
<clus scale="   40.018">  2  3  1 -1</clus>
<clus scale="  149.391">  2  6  1 -1</clus>
<clus scale="  156.496">  1  3  2 -1</clus>
</clustering>
</event>
<event>
 6    0  0.3695460E+002  0.1021792E+03  0.7546771E-02  0.1275779E+00
         21   -1    0    0  504  502  0.00000000000E+00  0.00000000000E+00  0.14998976906E+02  0.14998976906E+02  0.00000000000E+00 0. -1.
          2   -1    0    0  503    0 -0.00000000000E+00 -0.00000000000E+00 -0.24685556013E+04  0.24685556013E+04  0.00000000000E+00 0. -1.
         21    1    1    2  503  505  0.26520449459E+02  0.23893732492E+02 -0.66629853987E+03  0.66725406625E+03  0.00000000000E+00 0. -1.
         21    1    1    2  504  501  0.20155959660E+02 -0.47249030441E+02 -0.22521508929E+03  0.23099906933E+03  0.00000000000E+00 0. -1.
         21    1    1    2  505  502  0.63480979609E+02 -0.25454882018E+02 -0.11913366625E+03  0.13737036152E+03  0.00000000000E+00 0. -1.
          2    1    1    2  501    0 -0.11015738873E+03  0.48810179968E+02 -0.14429093290E+04  0.14479310811E+04  0.00000000000E+00 0. -1.
<scales pt_clust_3="35.69656" pt_clust_4="50.08644" pt_clust_5="102.17916" pt_clust_6="14000.00000"></scales>
<clustering>
<clus scale="   35.697">  2  3  1 -1</clus>
<clus scale="   50.086">  1  4  2 -1</clus>
<clus scale="  102.179">  1  5  2 -1</clus>
<clus scale="   50.086">  1  3  2 -1</clus>
</clustering>
</event>
<event>
 6    0  0.3695460E+002  0.8147490E+02  0.7546771E-02  0.1324917E+00
          1   -1    0    0  504    0 -0.00000000000E+00  0.00000000000E+00  0.40666913356E+03  0.40666913356E+03  0.00000000000E+00 0.  1.
         21   -1    0    0  505  502  0.00000000000E+00 -0.00000000000E+00 -0.14296072282E+03  0.14296072282E+03  0.00000000000E+00 0.  1.
         21    1    1    2  503  502  0.53526774104E+02  0.38213627896E+01  0.18437077006E+02  0.56741908393E+02  0.00000000000E+00 0.  1.
         21    1    1    2  504  503 -0.95113816923E+01  0.35094026007E+02  0.19379267328E+03  0.19717418001E+03  0.00000000000E+00 0.  1.
         21    1    1    2  505  501  0.20046774645E+02 -0.81350627020E+02 -0.97215449316E+02  0.12833799623E+03  0.00000000000E+00 0.  1.
          1    1    1    2  501    0 -0.64062167057E+02  0.42435238223E+02  0.14869410976E+03  0.16737577175E+03  0.00000000000E+00 0.  1.
<scales pt_clust_3="52.80252" pt_clust_4="36.36010" pt_clust_5="81.47490" pt_clust_6="14000.00000"></scales>
<clustering>
<clus scale="   36.360">  1  4  2 -1</clus>
<clus scale="   52.803">  1  3  2 -1</clus>
<clus scale="   81.475">  2  5  1 -1</clus>
<clus scale="   81.475">  2  3  1 -1</clus>
</clustering>
</event>
<event>
 6    0  0.3695460E+002  0.2228743E+03  0.7546771E-02  0.1131758E+00
         21   -1    0    0  504  502  0.00000000000E+00  0.00000000000E+00  0.40333918537E+02  0.40333918537E+02  0.00000000000E+00 0. -1.
          1   -1    0    0  502    0 -0.00000000000E+00 -0.00000000000E+00 -0.19631104982E+04  0.19631104982E+04  0.00000000000E+00 0.  1.
         21    1    1    2  503  505 -0.15990532011E+03 -0.66167207776E+02 -0.32119013346E+03  0.36484368244E+03  0.00000000000E+00 0. -1.
         21    1    1    2  504  503 -0.23657939044E+02 -0.32580462978E+02 -0.26688830181E+02  0.48306089721E+02  0.00000000000E+00 0. -1.
         21    1    1    2  505  501  0.22996070338E+02  0.46147499623E+02 -0.40024250104E+03  0.40354983659E+03  0.00000000000E+00 0. -1.
          1    1    1    2  501    0  0.16056718882E+03  0.52600171132E+02 -0.11746551150E+04  0.11867448080E+04  0.00000000000E+00 0.  1.
<scales pt_clust_3="38.06142" pt_clust_4="38.06142" pt_clust_5="40.17023" pt_clust_6="220.75904"></scales>
<clustering>
<clus scale="   38.061">  3  4 -1 -1</clus>
<clus scale="   40.170">  5  6 -1 -1</clus>
<clus scale="  220.759">  2  5  1 -1</clus>
<clus scale="  222.874">  1  3  2 -1</clus>
</clustering>
</event>
<event>
 6    0  0.3695460E+002  0.2118955E+03  0.7546771E-02  0.1140074E+00
          2   -1    0    0  503    0 -0.00000000000E+00  0.00000000000E+00  0.94190180236E+03  0.94190180236E+03  0.00000000000E+00 0.  1.
         21   -1    0    0  501  502  0.00000000000E+00 -0.00000000000E+00 -0.26482435481E+03  0.26482435481E+03  0.00000000000E+00 0.  1.
         21    1    1    2  503  505  0.72465641416E+02  0.26839474947E+02  0.10067132003E+03  0.12691076108E+03  0.00000000000E+00 0. -1.
         21    1    1    2  504  502 -0.82953169450E+01 -0.20017549735E+03 -0.93360126582E+02  0.22103202315E+03  0.00000000000E+00 0.  1.
         21    1    1    2  505  504 -0.17880919210E+03  0.25725289421E+03  0.20898842817E+03  0.37660050700E+03  0.00000000000E+00 0.  1.
          2    1    1    2  501    0  0.11463886763E+03 -0.83916871814E+02  0.46077782593E+03  0.48218286595E+03  0.00000000000E+00 0.  1.
<scales pt_clust_3="77.27630" pt_clust_4="211.89553" pt_clust_5="14000.00000" pt_clust_6="170.33703"></scales>
<clustering>
<clus scale="   77.276">  1  3  2 -1</clus>
<clus scale="  170.337">  1  6  2 -1</clus>
<clus scale="  211.896">  2  4  1 -1</clus>
<clus scale="  211.896">  2  3  1 -1</clus>
</clustering>
</event>
<event>
 6    0  0.3695460E+002  0.1337988E+03  0.7546771E-02  0.1221925E+00
         21   -1    0    0  504  502  0.00000000000E+00  0.00000000000E+00  0.40469964540E+03  0.40469964540E+03  0.00000000000E+00 0. -1.
          4   -1    0    0  503    0 -0.00000000000E+00 -0.00000000000E+00 -0.28853420046E+03  0.28853420046E+03  0.00000000000E+00 0.  1.
         21    1    1    2  503  505 -0.23322882229E+02  0.23252999136E+02 -0.99620667280E+00  0.32949222025E+02  0.00000000000E+00 0.  1.
         21    1    1    2  504  501 -0.27142045540E+02  0.42344970203E+02  0.93345972378E+02  0.10603422889E+03  0.00000000000E+00 0.  1.
         21    1    1    2  505  502  0.14253279091E+03  0.26442200416E+02  0.25247259737E+03  0.29113089645E+03  0.00000000000E+00 0. -1.
          4    1    1    2  501    0 -0.92067863139E+02 -0.92040169755E+02 -0.22865691814E+03  0.26311949849E+03  0.00000000000E+00 0.  1.
<scales pt_clust_3="32.93416" pt_clust_4="51.04863" pt_clust_5="133.79875" pt_clust_6="14000.00000"></scales>
<clustering>
<clus scale="   32.934">  2  3  1 -1</clus>
<clus scale="   51.049">  1  4  2 -1</clus>
<clus scale="  133.799">  1  5  2 -1</clus>
<clus scale="   51.049">  1  3  2 -1</clus>
</clustering>
</event>
<event>
 6    0  0.3695460E+002  0.3214824E+03  0.7546771E-02  0.1074969E+00
         21   -1    0    0  505  502  0.00000000000E+00  0.00000000000E+00  0.86052155015E+03  0.86052155015E+03  0.00000000000E+00 0.  1.
          2   -1    0    0  503    0 -0.00000000000E+00 -0.00000000000E+00 -0.41615806393E+03  0.41615806393E+03  0.00000000000E+00 0. -1.
         21    1    1    2  503  504 -0.52315898781E+02 -0.94419470476E+02  0.22167562654E+03  0.24656048562E+03  0.00000000000E+00 0.  1.
         21    1    1    2  504  502  0.13497505827E+02 -0.21174152689E+03  0.53933958566E+03  0.57957212281E+03  0.00000000000E+00 0.  1.
         21    1    1    2  505  501  0.17863067313E+02  0.33126440143E+02 -0.90379662847E+01  0.38705749508E+02  0.00000000000E+00 0.  1.
          2    1    1    2  501    0  0.20955325641E+02  0.27303455723E+03 -0.30761375969E+03  0.41184125614E+03  0.00000000000E+00 0. -1.
<scales pt_clust_3="64.23238" pt_clust_4="64.23238" pt_clust_5="32.06918" pt_clust_6="320.50630"></scales>
<clustering>
<clus scale="   32.069">  5  6 -1 -1</clus>
<clus scale="   64.232">  3  4 -1 -1</clus>
<clus scale="  320.506">  2  5  1 -1</clus>
<clus scale="  321.482">  1  3  2 -1</clus>
</clustering>
</event>
<event>
 6    0  0.3695460E+002  0.1928420E+03  0.7546771E-02  0.1155923E+00
          2   -1    0    0  505    0 -0.00000000000E+00  0.00000000000E+00  0.26455210408E+04  0.26455210408E+04  0.00000000000E+00 0. -1.
         21   -1    0    0  504  502  0.00000000000E+00 -0.00000000000E+00 -0.42248923108E+02  0.42248923108E+02  0.00000000000E+00 0. -1.
         21    1    1    2  503  502  0.18779068935E+02  0.12454849231E+03  0.10476223692E+03  0.16382950482E+03  0.00000000000E+00 0. -1.
         21    1    1    2  504  501 -0.16754493697E+02 -0.98297435782E+02  0.10564999095E+04  0.10611951554E+04  0.00000000000E+00 0. -1.
         21    1    1    2  505  503  0.29991301317E+01  0.61852777969E+02  0.98555626361E+02  0.11639575770E+03  0.00000000000E+00 0. -1.
          2    1    1    2  501    0 -0.50237053692E+01 -0.88103834495E+02  0.13434543448E+04  0.13463495460E+04  0.00000000000E+00 0. -1.
<scales pt_clust_3="31.10804" pt_clust_4="33.54290" pt_clust_5="31.10804" pt_clust_6="191.02635"></scales>
<clustering>
<clus scale="   31.108">  3  5 -1 -1</clus>
<clus scale="   33.543">  4  6 -1 -1</clus>
<clus scale="  191.026">  1  4  2 -1</clus>
<clus scale="  192.842">  2  3  1 -1</clus>
</clustering>
</event>
<event>
 6    0  0.3695460E+002  0.1018610E+03  0.7546771E-02  0.1276430E+00
         21   -1    0    0  504  502  0.00000000000E+00  0.00000000000E+00  0.28175079023E+04  0.28175079023E+04  0.00000000000E+00 0.  1.
          2   -1    0    0  503    0 -0.00000000000E+00 -0.00000000000E+00 -0.17845829027E+04  0.17845829027E+04  0.00000000000E+00 0. -1.
         21    1    1    2  503  505 -0.85649466035E+02 -0.13323117866E+02  0.10229843250E+04  0.10266500210E+04  0.00000000000E+00 0.  1.
         21    1    1    2  504  501 -0.20035188291E+02 -0.57051435463E+02 -0.14371048897E+02  0.62151444912E+02  0.00000000000E+00 0.  1.
         21    1    1    2  505  502  0.10446013083E+02  0.34176287621E+02  0.17671320722E+04  0.17674933942E+04  0.00000000000E+00 0.  1.
          2    1    1    2  501    0  0.95238641243E+02  0.36198265708E+02 -0.17428203487E+04  0.17457959449E+04  0.00000000000E+00 0. -1.
<scales pt_clust_3="14000.00000" pt_clust_4="59.65488" pt_clust_5="35.73707" pt_clust_6="101.86101"></scales>
<clustering>
<clus scale="   35.737">  1  5  2 -1</clus>
<clus scale="   59.655">  1  4  2 -1</clus>
<clus scale="  101.861">  2  6  1 -1</clus>
<clus scale="   35.737">  1  3  2 -1</clus>
</clustering>
</event>
<event>
 6    0  0.4086118E+002  0.1525031E+03  0.7546771E-02  0.1197430E+00
          1   -1    0    0  505    0 -0.00000000000E+00  0.00000000000E+00  0.11910280294E+04  0.11910280294E+04  0.00000000000E+00 0. -1.
         21   -1    0    0  503  502  0.00000000000E+00 -0.00000000000E+00 -0.63013642455E+02  0.63013642455E+02  0.00000000000E+00 0. -1.
         21    1    1    2  503  501 -0.32600798878E+02 -0.27390592689E+02  0.58509040757E+02  0.72362728705E+02  0.00000000000E+00 0.  1.
         21    1    1    2  504  502 -0.30155542298E+02 -0.12330964484E+03  0.34565902624E+02  0.13156529507E+03  0.00000000000E+00 0. -1.
         21    1    1    2  505  504  0.69754157594E+01  0.34799740519E+02  0.94984778329E+02  0.10139914437E+03  0.00000000000E+00 0. -1.
          1    1    1    2  501    0  0.55780925416E+02  0.11590049701E+03  0.93995466523E+03  0.94871450370E+03  0.00000000000E+00 0. -1.
<scales pt_clust_3="40.94133" pt_clust_4="152.50314" pt_clust_5="35.49195" pt_clust_6="14000.00000"></scales>
<clustering>
<clus scale="   35.492">  1  5  2 -1</clus>
<clus scale="   40.941">  2  3  1 -1</clus>
<clus scale="  152.503">  2  4  1 -1</clus>
<clus scale="   40.941">  2  3  1 -1</clus>
</clustering>
</event>
<event>
 6    0  0.3695460E+002  0.1643322E+03  0.7546771E-02  0.1183891E+00
         21   -1    0    0  505  502  0.00000000000E+00  0.00000000000E+00  0.33853779037E+03  0.33853779037E+03  0.00000000000E+00 0.  1.
         -1   -1    0    0    0  501 -0.00000000000E+00 -0.00000000000E+00 -0.13089008045E+03  0.13089008045E+03  0.00000000000E+00 0. -1.
         21    1    1    2  503  504  0.96816932981E+00 -0.75426868930E+02  0.64490872330E+02  0.99243249253E+02  0.00000000000E+00 0. -1.
         21    1    1    2  504  502  0.77640727903E+01 -0.81230375036E+02  0.16131456133E+03  0.18077898758E+03  0.00000000000E+00 0.  1.
         21    1    1    2  505  501  0.33285321081E+02  0.82717101602E+01 -0.42491504039E+01  0.34559934427E+02  0.00000000000E+00 0. -1.
         -1    1    1    2    0  503 -0.42017563202E+02  0.14838553381E+03 -0.13908573334E+02  0.15484569956E+03  0.00000000000E+00 0. -1.
<scales pt_clust_3="50.70445" pt_clust_4="50.70445" pt_clust_5="34.29772" pt_clust_6="155.55857"></scales>
<clustering>
<clus scale="   34.298">  2  5  1 -1</clus>
<clus scale="   50.704">  3  4 -1 -1</clus>
<clus scale="  155.559">  2  6  1 -1</clus>
<clus scale="  164.332">  1  3  2 -1</clus>
</clustering>
</event>
<event>
 6    0  0.3695460E+002  0.2299392E+03  0.7546771E-02  0.1126683E+00
         21   -1    0    0  504  502  0.00000000000E+00  0.00000000000E+00  0.38542518429E+03  0.38542518429E+03  0.00000000000E+00 0. -1.
          2   -1    0    0  505    0 -0.00000000000E+00 -0.00000000000E+00 -0.13842083636E+04  0.13842083636E+04  0.00000000000E+00 0. -1.
         21    1    1    2  503  502  0.71511415915E+02  0.62838030920E+02  0.21273228726E+03  0.23306120822E+03  0.00000000000E+00 0. -1.
         21    1    1    2  504  501 -0.95374971413E+02 -0.10684090072E+02 -0.42422863440E+03  0.43494881215E+03  0.00000000000E+00 0. -1.
         21    1    1    2  505  503  0.10309218919E+03  0.47897144435E+02  0.13161026535E+03  0.17390629046E+03  0.00000000000E+00 0. -1.
          2    1    1    2  501    0 -0.79228633696E+02 -0.10005108528E+03 -0.91889709752E+03  0.92771723703E+03  0.00000000000E+00 0. -1.
<scales pt_clust_3="60.02281" pt_clust_4="87.25092" pt_clust_5="216.91185" pt_clust_6="87.25092"></scales>
<clustering>
<clus scale="   60.023">  3  5 -1 -1</clus>
<clus scale="   87.251">  4  6 -1 -1</clus>
<clus scale="  216.912">  1  3  2 -1</clus>
<clus scale="  216.912">  1  3  2 -1</clus>
</clustering>
</event>
<event>
 6    0  0.3695460E+002  0.8611866E+02  0.7546771E-02  0.1312533E+00
          2   -1    0    0  504    0 -0.00000000000E+00  0.00000000000E+00  0.27938657760E+03  0.27938657760E+03  0.00000000000E+00 0.  1.
         21   -1    0    0  505  502  0.00000000000E+00 -0.00000000000E+00 -0.99253133416E+03  0.99253133416E+03  0.00000000000E+00 0.  1.
         21    1    1    2  503  501  0.28395036034E+01 -0.44226713034E+02 -0.76259214639E+03  0.76387881674E+03  0.00000000000E+00 0.  1.
         21    1    1    2  504  502 -0.51925848373E+02 -0.56117182054E+02  0.46794006317E+02  0.89638779990E+02  0.00000000000E+00 0.  1.
         21    1    1    2  505  503  0.77559643945E+01 -0.42492234834E+02 -0.17871980047E+03  0.18386547279E+03  0.00000000000E+00 0.  1.
          2    1    1    2  501    0  0.41330380375E+02  0.14283612992E+03  0.18137318399E+03  0.23453484224E+03  0.00000000000E+00 0.  1.
<scales pt_clust_3="86.11866" pt_clust_4="77.14532" pt_clust_5="43.19427" pt_clust_6="14000.00000"></scales>
<clustering>
<clus scale="   43.194">  2  5  1 -1</clus>
<clus scale="   77.145">  1  4  2 -1</clus>
<clus scale="   86.119">  2  3  1 -1</clus>
<clus scale="   43.194">  2  3  1 -1</clus>
</clustering>
</event>
<event>
 6    0  0.3695460E+002  0.1213569E+03  0.7546771E-02  0.1240875E+00
         -3   -1    0    0    0  501 -0.00000000000E+00  0.00000000000E+00  0.14661215131E+04  0.14661215131E+04  0.00000000000E+00 0. -1.
         21   -1    0    0  504  502  0.00000000000E+00 -0.00000000000E+00 -0.43596983307E+02  0.43596983307E+02  0.00000000000E+00 0. -1.
         21    1    1    2  503  502 -0.19510247141E+02 -0.26360034669E+02  0.34829295761E+02  0.47839115946E+02  0.00000000000E+00 0.  1.
         21    1    1    2  504  501  0.12707044457E+03  0.12599193636E+02  0.84440131511E+02  0.15308746968E+03  0.00000000000E+00 0. -1.
         21    1    1    2  505  503 -0.44598278215E+02  0.28490812300E+00  0.82730309318E+03  0.82850437270E+03  0.00000000000E+00 0.  1.
         -3    1    1    2    0  505 -0.62961919218E+02  0.13475932911E+02  0.47595200935E+03  0.48028753809E+03  0.00000000000E+00 0. -1.
<scales pt_clust_3="32.79483" pt_clust_4="109.65242" pt_clust_5="43.15662" pt_clust_6="43.15662"></scales>
<clustering>
<clus scale="   32.795">  2  3  1 -1</clus>
<clus scale="   43.157">  5  6 -1 -1</clus>
<clus scale="  109.652">  2  4  1 -1</clus>
<clus scale="   32.795">  2  3  1 -1</clus>
</clustering>
</event>
<event>
 6    0  0.6246108E+002  0.9577054E+02  0.7546771E-02  0.1289450E+00
          1   -1    0    0  504    0 -0.00000000000E+00  0.00000000000E+00  0.15752344800E+04  0.15752344800E+04  0.00000000000E+00 0. -1.
         21   -1    0    0  503  502  0.00000000000E+00 -0.00000000000E+00 -0.27528473073E+03  0.27528473073E+03  0.00000000000E+00 0.  1.
         21    1    1    2  503  501  0.60589779006E+02  0.33870538140E+02  0.16735003977E+03  0.18117497202E+03  0.00000000000E+00 0.  1.
         21    1    1    2  504  505 -0.18155502677E+02 -0.52492475471E+02  0.76951378689E+01  0.56074035037E+02  0.00000000000E+00 0.  1.
         21    1    1    2  505  502 -0.94244197921E+02  0.28446092502E+02 -0.23372847170E+03  0.25361417055E+03  0.00000000000E+00 0.  1.
          1    1    1    2  501    0  0.51809921592E+02 -0.98241551711E+01  0.13586330434E+04  0.13596560332E+04  0.00000000000E+00 0. -1.
<scales pt_clust_3="95.77054" pt_clust_4="54.95655" pt_clust_5="14000.00000" pt_clust_6="52.73312"></scales>
<clustering>
<clus scale="   52.733">  1  6  2 -1</clus>
<clus scale="   54.957">  1  4  2 -1</clus>
<clus scale="   95.771">  1  3  2 -1</clus>
<clus scale="   95.771">  2  3  1 -1</clus>
</clustering>
</event>
<event>
 6    0  0.3695460E+002  0.8737745E+02  0.7546771E-02  0.1309330E+00
          2   -1    0    0  503    0 -0.00000000000E+00  0.00000000000E+00  0.44783493030E+03  0.44783493030E+03  0.00000000000E+00 0. -1.
         21   -1    0    0  504  502  0.00000000000E+00 -0.00000000000E+00 -0.59487129672E+02  0.59487129672E+02  0.00000000000E+00 0. -1.
         21    1    1    2  503  502  0.31692747946E+02  0.25807534863E+02  0.53421593325E+02  0.67263108473E+02  0.00000000000E+00 0. -1.
         21    1    1    2  504  505 -0.10831963571E+02 -0.28645165273E+02  0.37990574889E+01  0.30859516622E+02  0.00000000000E+00 0.  1.
         21    1    1    2  505  501 -0.51598460533E+02  0.82864840042E+02  0.39623950910E+02  0.10535198304E+03  0.00000000000E+00 0. -1.
          2    1    1    2  501    0  0.30737676157E+02 -0.80027209631E+02  0.29150319891E+03  0.30384745184E+03  0.00000000000E+00 0. -1.
<scales pt_clust_3="36.95510" pt_clust_4="30.62478" pt_clust_5="14000.00000" pt_clust_6="87.37745"></scales>
<clustering>
<clus scale="   30.625">  2  4  1 -1</clus>
<clus scale="   36.955">  2  3  1 -1</clus>
<clus scale="   87.377">  1  6  2 -1</clus>
<clus scale="   30.625">  2  3  1 -1</clus>
</clustering>
</event>
<event>
 6    0  0.8609424E+002  0.1757657E+03  0.7546771E-02  0.1171965E+00
          1   -1    0    0  505    0 -0.00000000000E+00  0.00000000000E+00  0.85990754024E+03  0.85990754024E+03  0.00000000000E+00 0.  1.
         21   -1    0    0  501  502  0.00000000000E+00 -0.00000000000E+00 -0.67889875399E+03  0.67889875399E+03  0.00000000000E+00 0.  1.
         21    1    1    2  503  504 -0.33204444402E+02  0.25636747876E+02 -0.78983473389E+02  0.89432471946E+02  0.00000000000E+00 0.  1.
         21    1    1    2  504  502 -0.98212307216E+02  0.72239463070E+02 -0.56699678894E+03  0.57995651214E+03  0.00000000000E+00 0.  1.
         21    1    1    2  505  503 -0.36731299881E+01  0.32330300947E+02  0.14636023973E+02  0.35678473075E+02  0.00000000000E+00 0. -1.
          1    1    1    2  501    0  0.13508988161E+03 -0.13020651189E+03  0.81235302460E+03  0.83373883706E+03  0.00000000000E+00 0.  1.
<scales pt_clust_3="36.86046" pt_clust_4="36.86046" pt_clust_5="32.53829" pt_clust_6="164.17246"></scales>
<clustering>
<clus scale="   32.538">  1  5  2 -1</clus>
<clus scale="   36.860">  3  4 -1 -1</clus>
<clus scale="  164.172">  1  6  2 -1</clus>
<clus scale="  175.766">  2  3  1 -1</clus>
</clustering>
</event>
<event>
 6    0  0.3695460E+002  0.1371337E+03  0.7546771E-02  0.1217239E+00
         21   -1    0    0  503  502  0.00000000000E+00  0.00000000000E+00  0.14665625393E+03  0.14665625393E+03  0.00000000000E+00 0.  1.
         -1   -1    0    0    0  501 -0.00000000000E+00 -0.00000000000E+00 -0.47731447376E+03  0.47731447376E+03  0.00000000000E+00 0. -1.
         21    1    1    2  503  504  0.32196469977E+02  0.15374330987E+02 -0.76648565297E+01  0.36492913804E+02  0.00000000000E+00 0.  1.
         21    1    1    2  504  501  0.11031144778E+03 -0.46133817877E+02 -0.33669968666E+03  0.35730046692E+03  0.00000000000E+00 0. -1.
         21    1    1    2  505  502 -0.13928521693E+03  0.72366088264E+02  0.59828390598E+02  0.16797814950E+03  0.00000000000E+00 0.  1.
         -1    1    1    2    0  505 -0.32227008232E+01 -0.41606601374E+02 -0.46122067242E+02  0.62199197464E+02  0.00000000000E+00 0. -1.
<scales pt_clust_3="35.67888" pt_clust_4="137.13375" pt_clust_5="14000.00000" pt_clust_6="40.69173"></scales>
<clustering>
<clus scale="   35.679">  1  3  2 -1</clus>
<clus scale="   40.692">  2  6  1 -1</clus>
<clus scale="  137.134">  2  4  1 -1</clus>
<clus scale="   35.679">  1  3  2 -1</clus>
</clustering>
</event>
<event>
 6    0  0.3695460E+002  0.1152323E+03  0.7546771E-02  0.1251176E+00
         21   -1    0    0  505  502  0.00000000000E+00  0.00000000000E+00  0.55005065922E+03  0.55005065922E+03  0.00000000000E+00 0.  1.
          2   -1    0    0  503    0 -0.00000000000E+00 -0.00000000000E+00 -0.39150825238E+04  0.39150825238E+04  0.00000000000E+00 0. -1.
         21    1    1    2  503  504  0.51503417299E+02 -0.43976124843E+02 -0.26222807482E+03  0.27083217087E+03  0.00000000000E+00 0.  1.
         21    1    1    2  504  502 -0.41912395913E+02 -0.32725452843E+02 -0.47887433032E+02  0.71559838159E+02  0.00000000000E+00 0. -1.
         21    1    1    2  505  501  0.12619788103E+03 -0.43865754572E+02  0.52321559320E+03  0.54000432088E+03  0.00000000000E+00 0.  1.
          2    1    1    2  501    0 -0.13578890242E+03  0.12056733226E+03 -0.35781319499E+04  0.35827368531E+04  0.00000000000E+00 0. -1.
<scales pt_clust_3="67.64008" pt_clust_4="53.17522" pt_clust_5="115.23235" pt_clust_6="14000.00000"></scales>
<clustering>
<clus scale="   53.175">  1  4  2 -1</clus>
<clus scale="   67.640">  2  3  1 -1</clus>
<clus scale="  115.232">  1  5  2 -1</clus>
<clus scale="   53.175">  1  3  2 -1</clus>
</clustering>
</event>
<event>
 6    0  0.3695460E+002  0.1007546E+03  0.7546771E-02  0.1278717E+00
          1   -1    0    0  505    0 -0.00000000000E+00  0.00000000000E+00  0.46196422008E+03  0.46196422008E+03  0.00000000000E+00 0. -1.
         21   -1    0    0  503  502  0.00000000000E+00 -0.00000000000E+00 -0.21580799745E+03  0.21580799745E+03  0.00000000000E+00 0.  1.
         21    1    1    2  503  501  0.30655069473E+02  0.25205881349E+02 -0.26015311410E+02  0.47453831949E+02  0.00000000000E+00 0. -1.
         21    1    1    2  504  502 -0.61117525089E+02  0.73155070550E+02 -0.15303007065E+03  0.18029203738E+03  0.00000000000E+00 0.  1.
         21    1    1    2  505  504 -0.38179969031E+02 -0.30457318574E+02  0.10970072442E+03  0.12008166900E+03  0.00000000000E+00 0. -1.
          1    1    1    2  501    0  0.68642424647E+02 -0.67903633324E+02  0.31550088027E+03  0.32994467920E+03  0.00000000000E+00 0. -1.
<scales pt_clust_3="39.68715" pt_clust_4="100.75459" pt_clust_5="47.68992" pt_clust_6="14000.00000"></scales>
<clustering>
<clus scale="   39.687">  2  3  1 -1</clus>
<clus scale="   47.690">  1  5  2 -1</clus>
<clus scale="  100.755">  2  4  1 -1</clus>
<clus scale="   39.687">  2  3  1 -1</clus>
</clustering>
</event>
<event>
 6    0  0.6309998E+002  0.1023978E+03  0.7546771E-02  0.1275333E+00
         21   -1    0    0  504  502  0.00000000000E+00  0.00000000000E+00  0.63891603631E+03  0.63891603631E+03  0.00000000000E+00 0.  1.
          2   -1    0    0  505    0 -0.00000000000E+00 -0.00000000000E+00 -0.80705410314E+03  0.80705410314E+03  0.00000000000E+00 0. -1.
         21    1    1    2  503  502 -0.94333645649E+02  0.25462441738E+02  0.44357783847E+03  0.45421192347E+03  0.00000000000E+00 0.  1.
         21    1    1    2  504  501  0.10976219847E+03 -0.56386360417E+02  0.15601542977E+03  0.19891700827E+03  0.00000000000E+00 0.  1.
         21    1    1    2  505  503 -0.17673366944E+02 -0.25013518552E+02 -0.88255859145E+01  0.31873421157E+02  0.00000000000E+00 0. -1.
          2    1    1    2  501    0  0.22448141241E+01  0.55937437231E+02 -0.75890574916E+03  0.76096778656E+03  0.00000000000E+00 0. -1.
<scales pt_clust_3="14000.00000" pt_clust_4="102.39779" pt_clust_5="30.62718" pt_clust_6="35.06419"></scales>
<clustering>
<clus scale="   30.627">  2  5  1 -1</clus>
<clus scale="   35.064">  2  6  1 -1</clus>
<clus scale="  102.398">  2  4  1 -1</clus>
<clus scale="  102.398">  1  3  2 -1</clus>
</clustering>
</event>
<event>
 6    0  0.3695460E+002  0.1982876E+03  0.7546771E-02  0.1151192E+00
          2   -1    0    0  504    0 -0.00000000000E+00  0.00000000000E+00  0.10500379621E+04  0.10500379621E+04  0.00000000000E+00 0. -1.
         21   -1    0    0  503  502  0.00000000000E+00 -0.00000000000E+00 -0.17762706140E+03  0.17762706140E+03  0.00000000000E+00 0.  1.
         21    1    1    2  503  505  0.88183189183E+02  0.34517178528E+02 -0.51481392179E+02  0.10778703173E+03  0.00000000000E+00 0.  1.
         21    1    1    2  504  502 -0.35225924199E+02 -0.29367376952E+02  0.49783652703E+02  0.67688408470E+02  0.00000000000E+00 0.  1.
         21    1    1    2  505  501  0.10588303160E+03  0.22405396337E+00 -0.48164131226E+02  0.11632304207E+03  0.00000000000E+00 0.  1.
          2    1    1    2  501    0 -0.15884029658E+03 -0.53738555398E+01  0.92227277142E+03  0.93586654126E+03  0.00000000000E+00 0. -1.
<scales pt_clust_3="35.73026" pt_clust_4="45.86184" pt_clust_5="35.73026" pt_clust_6="194.65486"></scales>
<clustering>
<clus scale="   35.730">  3  5 -1 -1</clus>
<clus scale="   45.862">  1  4  2 -1</clus>
<clus scale="  194.655">  1  6  2 -1</clus>
<clus scale="  198.288">  2  3  1 -1</clus>
</clustering>
</event>
<event>
 6    0  0.3695460E+002  0.1283572E+03  0.7546771E-02  0.1229914E+00
          2   -1    0    0  503    0 -0.00000000000E+00  0.00000000000E+00  0.11381015079E+04  0.11381015079E+04  0.00000000000E+00 0.  1.
         21   -1    0    0  504  502  0.00000000000E+00 -0.00000000000E+00 -0.31104001378E+03  0.31104001378E+03  0.00000000000E+00 0. -1.
         21    1    1    2  503  505 -0.14237361768E+02  0.36026432405E+02  0.12670761599E+03  0.13249689148E+03  0.00000000000E+00 0. -1.
         21    1    1    2  504  501 -0.67284422037E+02 -0.82771574805E+02 -0.23420981135E+03  0.25735687824E+03  0.00000000000E+00 0. -1.
         21    1    1    2  505  502  0.80365390615E+02 -0.48304260401E+02 -0.23382730158E+02  0.96636688950E+02  0.00000000000E+00 0.  1.
          2    1    1    2  501    0  0.11563931895E+01  0.95049402802E+02  0.95794641965E+03  0.96265106302E+03  0.00000000000E+00 0.  1.
<scales pt_clust_3="38.73766" pt_clust_4="14000.00000" pt_clust_5="92.65183" pt_clust_6="128.35721"></scales>
<clustering>
<clus scale="   38.738">  1  3  2 -1</clus>
<clus scale="   92.652">  2  5  1 -1</clus>
<clus scale="  128.357">  1  6  2 -1</clus>
<clus scale="   92.652">  2  3  1 -1</clus>
</clustering>
</event>
<event>
 6    0  0.3695460E+002  0.1208955E+03  0.7546771E-02  0.1241627E+00
          2   -1    0    0  504    0 -0.00000000000E+00  0.00000000000E+00  0.18859591704E+03  0.18859591704E+03  0.00000000000E+00 0. -1.
         21   -1    0    0  501  502  0.00000000000E+00 -0.00000000000E+00 -0.70762617039E+03  0.70762617039E+03  0.00000000000E+00 0. -1.
         21    1    1    2  503  502  0.28169277998E+02 -0.26286329631E+02 -0.36227165625E+03  0.36431474341E+03  0.00000000000E+00 0. -1.
         21    1    1    2  504  505 -0.58788265070E+02  0.13040022203E+02  0.19237870526E+02  0.63215488224E+02  0.00000000000E+00 0.  1.
         21    1    1    2  505  503  0.94710209386E+02  0.61086509671E+02 -0.30037332372E+03  0.32082038437E+03  0.00000000000E+00 0. -1.
          2    1    1    2  501    0 -0.64091222313E+02 -0.47840202243E+02  0.12437685609E+03  0.14787147142E+03  0.00000000000E+00 0. -1.
<scales pt_clust_3="38.52894" pt_clust_4="58.11087" pt_clust_5="14000.00000" pt_clust_6="120.89553"></scales>
<clustering>
<clus scale="   38.529">  2  3  1 -1</clus>
<clus scale="   58.111">  1  4  2 -1</clus>
<clus scale="  120.896">  1  6  2 -1</clus>
<clus scale="   38.529">  2  3  1 -1</clus>
</clustering>
</event>
<event>
 6    0  0.4169941E+002  0.7953773E+02  0.7546771E-02  0.1330368E+00
          2   -1    0    0  503    0 -0.00000000000E+00  0.00000000000E+00  0.12648769567E+04  0.12648769567E+04  0.00000000000E+00 0. -1.
         21   -1    0    0  505  502  0.00000000000E+00 -0.00000000000E+00 -0.21891979677E+03  0.21891979677E+03  0.00000000000E+00 0.  1.
         21    1    1    2  503  504 -0.32464428492E+02 -0.16964511109E+02  0.27408027968E+02  0.45748592892E+02  0.00000000000E+00 0.  1.
         21    1    1    2  504  502  0.10369569967E+02 -0.29587771736E+02 -0.20302201593E+02  0.37351621211E+02  0.00000000000E+00 0.  1.
         21    1    1    2  505  501  0.98829402427E+02  0.66549474416E+02 -0.15985329411E+03  0.19937191118E+03  0.00000000000E+00 0.  1.
          2    1    1    2  501    0 -0.76734543901E+02 -0.19997191571E+02  0.11987046276E+04  0.12013246281E+04  0.00000000000E+00 0. -1.
<scales pt_clust_3="36.87777" pt_clust_4="31.35226" pt_clust_5="14000.00000" pt_clust_6="79.53773"></scales>
<clustering>
<clus scale="   31.352">  2  4  1 -1</clus>
<clus scale="   36.878">  2  3  1 -1</clus>
<clus scale="   79.538">  1  6  2 -1</clus>
<clus scale="   31.352">  2  3  1 -1</clus>
</clustering>
</event>
<event>
 6    0  0.3695460E+002  0.1273559E+03  0.7546771E-02  0.1231433E+00
         21   -1    0    0  505  502  0.00000000000E+00  0.00000000000E+00  0.13818039149E+03  0.13818039149E+03  0.00000000000E+00 0.  1.
          2   -1    0    0  504    0 -0.00000000000E+00 -0.00000000000E+00 -0.21863600220E+04  0.21863600220E+04  0.00000000000E+00 0.  1.
         21    1    1    2  503  502 -0.51121525052E+02 -0.36100162565E+01  0.25448618384E+02  0.57219530920E+02  0.00000000000E+00 0.  1.
         21    1    1    2  504  503 -0.51054039483E+02 -0.53399491809E+02  0.79312017346E+02  0.10839011379E+03  0.00000000000E+00 0.  1.
         21    1    1    2  505  501  0.89320126127E+02  0.25768379079E+02 -0.77195989863E+03  0.77753725273E+03  0.00000000000E+00 0. -1.
          2    1    1    2  501    0  0.12855438408E+02  0.31241128986E+02 -0.13809803676E+04  0.13813935160E+04  0.00000000000E+00 0.  1.
<scales pt_clust_3="43.81398" pt_clust_4="43.81398" pt_clust_5="116.00731" pt_clust_6="33.78269"></scales>
<clustering>
<clus scale="   33.783">  2  6  1 -1</clus>
<clus scale="   43.814">  3  4 -1 -1</clus>
<clus scale="  116.007">  2  5  1 -1</clus>
<clus scale="  127.356">  1  3  2 -1</clus>
</clustering>
</event>
<event>
 6    0  0.3695460E+002  0.6571501E+02  0.7546771E-02  0.1375302E+00
         21   -1    0    0  504  502  0.00000000000E+00  0.00000000000E+00  0.48048651427E+02  0.48048651427E+02  0.00000000000E+00 0.  1.
          1   -1    0    0  503    0 -0.00000000000E+00 -0.00000000000E+00 -0.10232617501E+04  0.10232617501E+04  0.00000000000E+00 0.  1.
         21    1    1    2  503  505  0.23789396497E+02  0.98733943343E+02 -0.55130208653E+03  0.56057855611E+03  0.00000000000E+00 0.  1.
         21    1    1    2  504  501 -0.57120665128E+02 -0.46215432332E+02 -0.13625712813E+02  0.74728151456E+02  0.00000000000E+00 0.  1.
         21    1    1    2  505  502  0.30156453186E+02 -0.88552241956E+01 -0.94994348179E+01  0.32833914268E+02  0.00000000000E+00 0. -1.
          1    1    1    2  501    0  0.31748154455E+01 -0.43663286816E+02 -0.40078586450E+03  0.40316977968E+03  0.00000000000E+00 0.  1.
<scales pt_clust_3="14000.00000" pt_clust_4="65.71501" pt_clust_5="31.42971" pt_clust_6="44.15010"></scales>
<clustering>
<clus scale="   31.430">  1  5  2 -1</clus>
<clus scale="   44.150">  2  6  1 -1</clus>
<clus scale="   65.715">  1  4  2 -1</clus>
<clus scale="   31.430">  1  3  2 -1</clus>
</clustering>
</event>
<event>
 6    0  0.5141094E+002  0.1563558E+03  0.7546771E-02  0.1192874E+00
         21   -1    0    0  505  502  0.00000000000E+00  0.00000000000E+00  0.28098349262E+03  0.28098349262E+03  0.00000000000E+00 0.  1.
          2   -1    0    0  504    0 -0.00000000000E+00 -0.00000000000E+00 -0.16585607305E+04  0.16585607305E+04  0.00000000000E+00 0. -1.
         21    1    1    2  503  501 -0.86830449396E+02  0.32469825159E+02 -0.43544967629E+02  0.10242060678E+03  0.00000000000E+00 0. -1.
         21    1    1    2  504  502  0.13899108641E+02  0.34226827229E+02 -0.23828693569E+02  0.43959840314E+02  0.00000000000E+00 0.  1.
         21    1    1    2  505  503 -0.53273363594E+02  0.42536403578E+02  0.23207449485E+03  0.24188006958E+03  0.00000000000E+00 0.  1.
          2    1    1    2  501    0  0.12620470435E+03 -0.10923305597E+03 -0.15422780715E+04  0.15512837064E+04  0.00000000000E+00 0. -1.
<scales pt_clust_3="156.35577" pt_clust_4="36.94132" pt_clust_5="83.32560" pt_clust_6="14000.00000"></scales>
<clustering>
<clus scale="   36.941">  1  4  2 -1</clus>
<clus scale="   83.326">  1  5  2 -1</clus>
<clus scale="  156.356">  1  3  2 -1</clus>
<clus scale="   36.941">  1  3  2 -1</clus>
</clustering>
</event>
<event>
 6    0  0.3695460E+002  0.9991765E+02  0.7546771E-02  0.1280469E+00
         21   -1    0    0  505  502  0.00000000000E+00  0.00000000000E+00  0.60234117299E+03  0.60234117299E+03  0.00000000000E+00 0. -1.
          1   -1    0    0  504    0 -0.00000000000E+00 -0.00000000000E+00 -0.50621811480E+02  0.50621811480E+02  0.00000000000E+00 0. -1.
         21    1    1    2  503  501 -0.25306350137E+02  0.77518726936E+02  0.72908832557E+02  0.10938584117E+03  0.00000000000E+00 0. -1.
         21    1    1    2  504  502  0.16956057515E+02 -0.13145136211E+03  0.32909735925E+03  0.35478449846E+03  0.00000000000E+00 0. -1.
         21    1    1    2  505  503  0.42102120468E+02  0.46042990703E+02  0.13924697852E+03  0.15258527638E+03  0.00000000000E+00 0. -1.
          1    1    1    2  501    0 -0.33751827847E+02  0.78896444702E+01  0.10466191185E+02  0.36207368460E+02  0.00000000000E+00 0. -1.
<scales pt_clust_3="99.91765" pt_clust_4="14000.00000" pt_clust_5="59.63482" pt_clust_6="34.66168"></scales>
<clustering>
<clus scale="   34.662">  2  6  1 -1</clus>
<clus scale="   59.635">  1  5  2 -1</clus>
<clus scale="   99.918">  2  3  1 -1</clus>
<clus scale="   59.635">  1  3  2 -1</clus>
</clustering>
</event>
<event>
 6    0  0.3695460E+002  0.3754037E+03  0.7546771E-02  0.1052646E+00
          2   -1    0    0  503    0 -0.00000000000E+00  0.00000000000E+00  0.13462885696E+04  0.13462885696E+04  0.00000000000E+00 0.  1.
         21   -1    0    0  505  502  0.00000000000E+00 -0.00000000000E+00 -0.26951173384E+04  0.26951173384E+04  0.00000000000E+00 0.  1.
         21    1    1    2  503  504  0.37121260330E+02  0.18999403135E+02  0.62014089689E+03  0.62154138823E+03  0.00000000000E+00 0.  1.
         21    1    1    2  504  502 -0.17265905158E+03  0.79445096479E+02 -0.33161776395E+03  0.38222115694E+03  0.00000000000E+00 0.  1.
         21    1    1    2  505  501 -0.12003289555E+03  0.16323282708E+03 -0.22849341917E+04  0.22938999787E+04  0.00000000000E+00 0.  1.
          2    1    1    2  501    0  0.25557068680E+03 -0.26167732669E+03  0.64758228996E+03  0.74374338420E+03  0.00000000000E+00 0.  1.
<scales pt_clust_3="41.70090" pt_clust_4="189.16394" pt_clust_5="375.40367" pt_clust_6="14000.00000"></scales>
<clustering>
<clus scale="   41.701">  1  3  2 -1</clus>
<clus scale="  189.164">  2  4  1 -1</clus>
<clus scale="  375.404">  2  5  1 -1</clus>
<clus scale="  189.164">  2  3  1 -1</clus>
</clustering>
</event>
<event>
 6    0  0.3695460E+002  0.1138166E+03  0.7546771E-02  0.1253661E+00
          2   -1    0    0  503    0 -0.00000000000E+00  0.00000000000E+00  0.25816230288E+04  0.25816230288E+04  0.00000000000E+00 0. -1.
         21   -1    0    0  505  502  0.00000000000E+00 -0.00000000000E+00 -0.21430921710E+02  0.21430921710E+02  0.00000000000E+00 0.  1.
         21    1    1    2  503  504 -0.21834886112E+02 -0.43129156534E+02  0.26732355254E+03  0.27165928686E+03  0.00000000000E+00 0. -1.
         21    1    1    2  504  502 -0.84748379307E+02 -0.57746222372E+02  0.14231310991E+03  0.17541361192E+03  0.00000000000E+00 0.  1.
         21    1    1    2  505  501  0.45864235608E+02  0.22049734192E+02  0.55591260982E+03  0.55823700042E+03  0.00000000000E+00 0. -1.
          2    1    1    2  501    0  0.60719029811E+02  0.78825644714E+02  0.15946428349E+04  0.15977440514E+04  0.00000000000E+00 0. -1.
<scales pt_clust_3="48.34135" pt_clust_4="105.47263" pt_clust_5="30.59116" pt_clust_6="30.59116"></scales>
<clustering>
<clus scale="   30.591">  5  6 -1 -1</clus>
<clus scale="   48.341">  1  3  2 -1</clus>
<clus scale="  105.473">  2  4  1 -1</clus>
<clus scale="  105.473">  2  3  1 -1</clus>
</clustering>
</event>
<event>
 6    0  0.3695460E+002  0.1230990E+03  0.7546771E-02  0.1238070E+00
         21   -1    0    0  503  502  0.00000000000E+00  0.00000000000E+00  0.18515344847E+03  0.18515344847E+03  0.00000000000E+00 0.  1.
          2   -1    0    0  504    0 -0.00000000000E+00 -0.00000000000E+00 -0.25886383977E+04  0.25886383977E+04  0.00000000000E+00 0.  1.
         21    1    1    2  503  501 -0.34448845783E+02  0.15392010326E+02  0.21635431875E+01  0.37793092977E+02  0.00000000000E+00 0. -1.
         21    1    1    2  504  505  0.87753507834E+00  0.46700309530E+02 -0.11687294946E+03  0.12586093633E+03  0.00000000000E+00 0.  1.
         21    1    1    2  505  502 -0.73556599977E+02 -0.76867212400E+02  0.14173487042E+03  0.17722278418E+03  0.00000000000E+00 0.  1.
          2    1    1    2  501    0  0.10712791068E+03  0.14774892544E+02 -0.24305104134E+04  0.24329150327E+04  0.00000000000E+00 0.  1.
<scales pt_clust_3="37.73111" pt_clust_4="47.11912" pt_clust_5="123.09902" pt_clust_6="14000.00000"></scales>
<clustering>
<clus scale="   37.731">  1  3  2 -1</clus>
<clus scale="   47.119">  2  4  1 -1</clus>
<clus scale="  123.099">  1  5  2 -1</clus>
<clus scale="   37.731">  1  3  2 -1</clus>
</clustering>
</event>
<event>
 6    0  0.3695460E+002  0.1360074E+03  0.7546771E-02  0.1218805E+00
         -4   -1    0    0    0  501 -0.00000000000E+00  0.00000000000E+00  0.64312446446E+03  0.64312446446E+03  0.00000000000E+00 0. -1.
         21   -1    0    0  505  502  0.00000000000E+00 -0.00000000000E+00 -0.30172599313E+03  0.30172599313E+03  0.00000000000E+00 0.  1.
         21    1    1    2  503  502 -0.49834106988E+02  0.11110473196E+03 -0.25477549092E+03  0.28237962118E+03  0.00000000000E+00 0.  1.
         21    1    1    2  504  503  0.59660997852E+02 -0.11188290752E+02  0.18292952088E+03  0.19273770291E+03  0.00000000000E+00 0. -1.
         21    1    1    2  505  501 -0.65147803324E+02 -0.23040509994E+02  0.30657928805E+02  0.75597685000E+02  0.00000000000E+00 0.  1.
         -4    1    1    2    0  504  0.55320912461E+02 -0.76875931211E+02  0.38258651257E+03  0.39413544849E+03  0.00000000000E+00 0. -1.
<scales pt_clust_3="121.91161" pt_clust_4="48.27052" pt_clust_5="69.10211" pt_clust_6="48.27052"></scales>
<clustering>
<clus scale="   48.271">  4  6 -1 -1</clus>
<clus scale="   69.102">  1  5  2 -1</clus>
<clus scale="  121.912">  2  3  1 -1</clus>
<clus scale="  121.912">  2  3  1 -1</clus>
</clustering>
</event>
<event>
 6    0  0.3695460E+002  0.1131547E+03  0.7546771E-02  0.1254837E+00
         21   -1    0    0  505  502  0.00000000000E+00  0.00000000000E+00  0.72559834318E+03  0.72559834318E+03  0.00000000000E+00 0. -1.
          2   -1    0    0  504    0 -0.00000000000E+00 -0.00000000000E+00 -0.21946033018E+03  0.21946033018E+03  0.00000000000E+00 0.  1.
         21    1    1    2  503  502 -0.60054258727E+02  0.70046244823E+02  0.21347824404E+03  0.23256386453E+03  0.00000000000E+00 0. -1.
         21    1    1    2  504  503  0.14292216420E+01 -0.35021930286E+02 -0.11261296448E+03  0.11794175700E+03  0.00000000000E+00 0.  1.
         21    1    1    2  505  501 -0.27572895093E+02  0.12249680101E+02  0.47377221960E+03  0.47473196150E+03  0.00000000000E+00 0. -1.
          2    1    1    2  501    0  0.86197932178E+02 -0.47273994638E+02 -0.68499486172E+02  0.11982109032E+03  0.00000000000E+00 0.  1.
<scales pt_clust_3="113.15466" pt_clust_4="34.91060" pt_clust_5="30.17150" pt_clust_6="14000.00000"></scales>
<clustering>
<clus scale="   30.171">  1  5  2 -1</clus>
<clus scale="   34.911">  2  4  1 -1</clus>
<clus scale="  113.155">  1  3  2 -1</clus>
<clus scale="   30.171">  1  3  2 -1</clus>
</clustering>
</event>
<event>
 6    0  0.3695460E+002  0.1399810E+03  0.7546771E-02  0.1213355E+00
          2   -1    0    0  504    0 -0.00000000000E+00  0.00000000000E+00  0.72590898745E+03  0.72590898745E+03  0.00000000000E+00 0. -1.
         21   -1    0    0  505  502  0.00000000000E+00 -0.00000000000E+00 -0.97210349158E+02  0.97210349158E+02  0.00000000000E+00 0. -1.
         21    1    1    2  503  502 -0.17844569103E+03  0.15658346790E+02  0.37162331290E+02  0.18294558573E+03  0.00000000000E+00 0. -1.
         21    1    1    2  504  503  0.20533125886E+02 -0.22037835593E+02  0.49335906532E+02  0.57804040772E+02  0.00000000000E+00 0. -1.
         21    1    1    2  505  501  0.93673362673E+02  0.22622088803E+02  0.11489643857E+03  0.14995882559E+03  0.00000000000E+00 0. -1.
          2    1    1    2  501    0  0.64239202475E+02 -0.16242600000E+02  0.42730396190E+03  0.43241088451E+03  0.00000000000E+00 0. -1.
<scales pt_clust_3="14000.00000" pt_clust_4="30.12101" pt_clust_5="139.98100" pt_clust_6="83.10057"></scales>
<clustering>
<clus scale="   30.121">  1  4  2 -1</clus>
<clus scale="   83.101">  1  6  2 -1</clus>
<clus scale="  139.981">  1  5  2 -1</clus>
<clus scale="  139.981">  2  3  1 -1</clus>
</clustering>
</event>
<event>
 6    0  0.3695460E+002  0.1018989E+03  0.7546771E-02  0.1276353E+00
         21   -1    0    0  501  502  0.00000000000E+00  0.00000000000E+00  0.36059563684E+02  0.36059563684E+02  0.00000000000E+00 0.  1.
          2   -1    0    0  505    0 -0.00000000000E+00 -0.00000000000E+00 -0.82954275044E+03  0.82954275044E+03  0.00000000000E+00 0.  1.
         21    1    1    2  503  502 -0.23410869501E+02  0.25492431241E+02 -0.57470942706E+02  0.67088315800E+02  0.00000000000E+00 0.  1.
         21    1    1    2  504  503 -0.78481213288E+02  0.16658362193E+02 -0.41535724256E+02  0.90343888889E+02  0.00000000000E+00 0.  1.
         21    1    1    2  505  504 -0.28786104745E+01 -0.33324269850E+02 -0.16728195222E+03  0.17059321469E+03  0.00000000000E+00 0.  1.
          2    1    1    2  501    0  0.10477069326E+03 -0.88265235843E+01 -0.52719456758E+03  0.53757689475E+03  0.00000000000E+00 0.  1.
<scales pt_clust_3="32.56385" pt_clust_4="14000.00000" pt_clust_5="33.44837" pt_clust_6="101.89891"></scales>
<clustering>
<clus scale="   33.448">  2  5  1 -1</clus>
<clus scale="   32.564">  1  3  2 -1</clus>
<clus scale="  101.899">  2  6  1 -1</clus>
<clus scale="   32.564">  1  3  2 -1</clus>
</clustering>
</event>
<event>
 6    0  0.3695460E+002  0.1755052E+03  0.7546771E-02  0.1172225E+00
          2   -1    0    0  505    0 -0.00000000000E+00  0.00000000000E+00  0.20256161503E+04  0.20256161503E+04  0.00000000000E+00 0.  1.
         21   -1    0    0  503  502  0.00000000000E+00 -0.00000000000E+00 -0.48538327839E+03  0.48538327839E+03  0.00000000000E+00 0.  1.
         21    1    1    2  503  501 -0.90187507350E+02 -0.11036524529E+03 -0.42374225203E+03  0.44707020702E+03  0.00000000000E+00 0.  1.
         21    1    1    2  504  502 -0.52181730040E+02 -0.69814471870E+01 -0.78587002682E+01  0.53229998354E+02  0.00000000000E+00 0.  1.
         21    1    1    2  505  504  0.58931831649E+02  0.13035493182E+03  0.25979053925E+03  0.29657459992E+03  0.00000000000E+00 0.  1.
          2    1    1    2  501    0  0.83437405741E+02 -0.13008239344E+02  0.17120432849E+04  0.17141246234E+04  0.00000000000E+00 0.  1.
<scales pt_clust_3="175.50518" pt_clust_4="52.64669" pt_clust_5="14000.00000" pt_clust_6="84.32984"></scales>
<clustering>
<clus scale="   52.647">  2  4  1 -1</clus>
<clus scale="   84.330">  1  6  2 -1</clus>
<clus scale="  175.505">  2  3  1 -1</clus>
<clus scale="   52.647">  2  3  1 -1</clus>
</clustering>
</event>
<event>
 6    0  0.3695460E+002  0.1405348E+03  0.7546771E-02  0.1212611E+00
         -2   -1    0    0    0  501 -0.00000000000E+00  0.00000000000E+00  0.13965408253E+03  0.13965408253E+03  0.00000000000E+00 0.  1.
         21   -1    0    0  504  502  0.00000000000E+00 -0.00000000000E+00 -0.16922655948E+03  0.16922655948E+03  0.00000000000E+00 0.  1.
         21    1    1    2  503  501 -0.79158975547E+02 -0.32956235087E+01 -0.58449491750E+02  0.98454799933E+02  0.00000000000E+00 0.  1.
         21    1    1    2  504  503 -0.48913965620E+02  0.28249526021E+02 -0.22489292682E+02  0.60797862121E+02  0.00000000000E+00 0.  1.
         21    1    1    2  505  502  0.40100096617E+02  0.16089096425E+02  0.19987839314E+02  0.47606622364E+02  0.00000000000E+00 0.  1.
         -2    1    1    2    0  505  0.87972844550E+02 -0.41042998937E+02  0.31378468165E+02  0.10202135759E+03  0.00000000000E+00 0.  1.
<scales pt_clust_3="137.15073" pt_clust_4="35.67329" pt_clust_5="34.82403" pt_clust_6="34.82403"></scales>
<clustering>
<clus scale="   34.824">  5  6 -1 -1</clus>
<clus scale="   35.673">  3  4 -1 -1</clus>
<clus scale="  137.151">  2  3  1 -1</clus>
<clus scale="  137.151">  2  3  1 -1</clus>
</clustering>
</event>
<event>
 6    0  0.3695460E+002  0.1561531E+03  0.7546771E-02  0.1193110E+00
         21   -1    0    0  505  502  0.00000000000E+00  0.00000000000E+00  0.13137574540E+03  0.13137574540E+03  0.00000000000E+00 0.  1.
          1   -1    0    0  503    0 -0.00000000000E+00 -0.00000000000E+00 -0.14617202228E+04  0.14617202228E+04  0.00000000000E+00 0.  1.
         21    1    1    2  503  502  0.12728142374E+02  0.57831856508E+02  0.84029404666E+02  0.10279820078E+03  0.00000000000E+00 0.  1.
         21    1    1    2  504  501  0.11831014417E+03  0.56984886477E+02 -0.44565182880E+03  0.46459672837E+03  0.00000000000E+00 0.  1.
         21    1    1    2  505  504  0.28414595925E+02 -0.37037813131E+02 -0.63485785973E+01  0.47111498738E+02  0.00000000000E+00 0. -1.
          1    1    1    2  501    0 -0.15945288247E+03 -0.77778929854E+02 -0.96237347463E+03  0.97858954027E+03  0.00000000000E+00 0.  1.
<scales pt_clust_3="45.31476" pt_clust_4="156.15312" pt_clust_5="46.68178" pt_clust_6="14000.00000"></scales>
<clustering>
<clus scale="   46.682">  1  5  2 -1</clus>
<clus scale="   45.315">  1  3  2 -1</clus>
<clus scale="  156.153">  1  4  2 -1</clus>
<clus scale="   46.682">  1  3  2 -1</clus>
</clustering>
</event>
<event>
 6    0  0.3695460E+002  0.1272322E+03  0.7546771E-02  0.1231621E+00
          2   -1    0    0  505    0 -0.00000000000E+00  0.00000000000E+00  0.12293256931E+04  0.12293256931E+04  0.00000000000E+00 0.  1.
         21   -1    0    0  503  502  0.00000000000E+00 -0.00000000000E+00 -0.72676124840E+02  0.72676124840E+02  0.00000000000E+00 0.  1.
         21    1    1    2  503  501  0.24725437058E+02  0.24111830570E+02  0.20922402891E+02  0.40379135130E+02  0.00000000000E+00 0. -1.
         21    1    1    2  504  502 -0.37875219984E+02 -0.67351922893E+02 -0.14667954054E+02  0.78650891174E+02  0.00000000000E+00 0.  1.
         21    1    1    2  505  504 -0.55038565206E+02 -0.98584260533E+02  0.59958365782E+03  0.61012184260E+03  0.00000000000E+00 0.  1.
          2    1    1    2  501    0  0.68188348132E+02  0.14182435286E+03  0.55081146156E+03  0.57284994900E+03  0.00000000000E+00 0.  1.
<scales pt_clust_3="34.53589" pt_clust_4="53.20067" pt_clust_5="127.23218" pt_clust_6="14000.00000"></scales>
<clustering>
<clus scale="   34.536">  2  3  1 -1</clus>
<clus scale="   53.201">  2  4  1 -1</clus>
<clus scale="  127.232">  1  5  2 -1</clus>
<clus scale="   34.536">  2  3  1 -1</clus>
</clustering>
</event>
<event>
 6    0  0.3695460E+002  0.1895443E+03  0.7546771E-02  0.1158873E+00
         -4   -1    0    0    0  501 -0.00000000000E+00  0.00000000000E+00  0.15152303330E+04  0.15152303330E+04  0.00000000000E+00 0.  1.
         21   -1    0    0  505  502  0.00000000000E+00 -0.00000000000E+00 -0.14922380075E+03  0.14922380075E+03  0.00000000000E+00 0.  1.
         21    1    1    2  503  501  0.20995765607E+02 -0.75419789047E+02 -0.41399818092E+02  0.88560215059E+02  0.00000000000E+00 0.  1.
         21    1    1    2  504  502  0.17110535002E+02  0.97983911029E+02  0.60272457515E+03  0.61087685397E+03  0.00000000000E+00 0.  1.
         21    1    1    2  505  503 -0.27066730629E+02 -0.10625126469E+03 -0.39562082911E+02  0.11656370601E+03  0.00000000000E+00 0.  1.
         -4    1    1    2    0  504 -0.11039569981E+02  0.83687142707E+02  0.84424385808E+03  0.84845335869E+03  0.00000000000E+00 0.  1.
<scales pt_clust_3="42.07833" pt_clust_4="49.48760" pt_clust_5="188.47014" pt_clust_6="49.48760"></scales>
<clustering>
<clus scale="   42.078">  3  5 -1 -1</clus>
<clus scale="   49.488">  4  6 -1 -1</clus>
<clus scale="  188.470">  2  3  1 -1</clus>
<clus scale="  188.470">  2  3  1 -1</clus>
</clustering>
</event>
<event>
 6    0  0.3695460E+002  0.1168821E+03  0.7546771E-02  0.1248331E+00
         21   -1    0    0  501  502  0.00000000000E+00  0.00000000000E+00  0.64685248710E+03  0.64685248710E+03  0.00000000000E+00 0.  1.
          2   -1    0    0  504    0 -0.00000000000E+00 -0.00000000000E+00 -0.19067203330E+03  0.19067203330E+03  0.00000000000E+00 0. -1.
         21    1    1    2  503  502  0.18838038016E+02 -0.54147483127E+02  0.39569870330E+03  0.39983032076E+03  0.00000000000E+00 0.  1.
         21    1    1    2  504  505  0.25615020751E+02  0.10139257079E+03 -0.57587561280E+02  0.11938555153E+03  0.00000000000E+00 0. -1.
         21    1    1    2  505  503  0.13429494136E+02 -0.53901231577E+02  0.20570438053E+03  0.21307272526E+03  0.00000000000E+00 0.  1.
          2    1    1    2  501    0 -0.57882552903E+02  0.66561439137E+01 -0.87635068752E+02  0.10523592285E+03  0.00000000000E+00 0. -1.
<scales pt_clust_3="34.78428" pt_clust_4="111.41215" pt_clust_5="34.78428" pt_clust_6="58.26400"></scales>
<clustering>
<clus scale="   34.784">  3  5 -1 -1</clus>
<clus scale="   58.264">  2  6  1 -1</clus>
<clus scale="  111.412">  2  4  1 -1</clus>
<clus scale="  116.882">  1  3  2 -1</clus>
</clustering>
</event>
<event>
 6    0  0.3695460E+002  0.2644692E+03  0.7546771E-02  0.1104487E+00
         -1   -1    0    0    0  501 -0.00000000000E+00  0.00000000000E+00  0.88935160993E+03  0.88935160993E+03  0.00000000000E+00 0. -1.
         21   -1    0    0  503  502  0.00000000000E+00 -0.00000000000E+00 -0.18577157463E+03  0.18577157463E+03  0.00000000000E+00 0. -1.
         21    1    1    2  503  501  0.83781536792E+01  0.39429814330E+02  0.36452114570E+02  0.54347588482E+02  0.00000000000E+00 0. -1.
         21    1    1    2  504  505  0.18872945424E+03  0.41671523170E+02 -0.30182337457E+02  0.19561772986E+03  0.00000000000E+00 0. -1.
         21    1    1    2  505  502  0.67097301126E+02 -0.18129522163E+02 -0.74215723810E+01  0.69898548832E+02  0.00000000000E+00 0. -1.
         -1    1    1    2    0  504 -0.26420490904E+03 -0.62971815337E+02  0.70473183057E+03  0.75525931739E+03  0.00000000000E+00 0. -1.
<scales pt_clust_3="40.31009" pt_clust_4="33.29829" pt_clust_5="33.29829" pt_clust_6="258.57432"></scales>
<clustering>
<clus scale="   33.298">  4  5 -1 -1</clus>
<clus scale="   40.310">  1  3  2 -1</clus>
<clus scale="  258.574">  1  6  2 -1</clus>
<clus scale="  264.469">  2  3  1 -1</clus>
</clustering>
</event>
<event>
 6    0  0.3695460E+002  0.1139144E+03  0.7546771E-02  0.1253488E+00
          2   -1    0    0  504    0 -0.00000000000E+00  0.00000000000E+00  0.36667963522E+04  0.36667963522E+04  0.00000000000E+00 0. -1.
         21   -1    0    0  505  502  0.00000000000E+00 -0.00000000000E+00 -0.72183870581E+03  0.72183870581E+03  0.00000000000E+00 0.  1.
         21    1    1    2  503  502  0.98840998051E+02  0.51165232274E+02 -0.63713225132E+03  0.64678043381E+03  0.00000000000E+00 0.  1.
         21    1    1    2  504  503  0.47815783709E+02  0.45229396792E+02  0.24051099621E+04  0.24060103860E+04  0.00000000000E+00 0. -1.
         21    1    1    2  505  501 -0.12112291137E+03 -0.13976440219E+03  0.29526528354E+02  0.18728764949E+03  0.00000000000E+00 0.  1.
          2    1    1    2  501    0 -0.25533870394E+02  0.43369773121E+02  0.11474534073E+04  0.11485565888E+04  0.00000000000E+00 0. -1.
<scales pt_clust_3="14000.00000" pt_clust_4="89.76130" pt_clust_5="113.91442" pt_clust_6="50.32808"></scales>
<clustering>
<clus scale="   50.328">  1  6  2 -1</clus>
<clus scale="   89.761">  1  4  2 -1</clus>
<clus scale="  113.914">  1  5  2 -1</clus>
<clus scale="  113.914">  2  3  1 -1</clus>
</clustering>
</event>
<event>
 6    0  0.3695460E+002  0.1331746E+03  0.7546771E-02  0.1222820E+00
         21   -1    0    0  505  502  0.00000000000E+00  0.00000000000E+00  0.24740962309E+02  0.24740962309E+02  0.00000000000E+00 0. -1.
          1   -1    0    0  503    0 -0.00000000000E+00 -0.00000000000E+00 -0.19889097191E+04  0.19889097191E+04  0.00000000000E+00 0.  1.
         21    1    1    2  503  502 -0.25799817759E+01  0.33954271458E+02 -0.10660232313E+03  0.11190891007E+03  0.00000000000E+00 0. -1.
         21    1    1    2  504  501  0.64529883143E+02 -0.33152722277E+02 -0.78097175605E+03  0.78433417148E+03  0.00000000000E+00 0. -1.
         21    1    1    2  505  504 -0.12199793723E+03 -0.66601880093E-01 -0.17228254332E+03  0.21110370877E+03  0.00000000000E+00 0. -1.
          1    1    1    2  501    0  0.60048035866E+02 -0.73494730077E+00 -0.90431213426E+03  0.90630389105E+03  0.00000000000E+00 0.  1.
<scales pt_clust_3="34.05215" pt_clust_4="34.41200" pt_clust_5="127.78198" pt_clust_6="34.41200"></scales>
<clustering>
<clus scale="   34.052">  1  3  2 -1</clus>
<clus scale="   34.412">  4  6 -1 -1</clus>
<clus scale="  127.782">  1  5  2 -1</clus>
<clus scale="   34.052">  1  3  2 -1</clus>
</clustering>
</event>
<event>
 6    0  0.3874566E+002  0.9611226E+02  0.7546771E-02  0.1288690E+00
          2   -1    0    0  504    0 -0.00000000000E+00  0.00000000000E+00  0.18595384831E+04  0.18595384831E+04  0.00000000000E+00 0. -1.
         21   -1    0    0  505  502  0.00000000000E+00 -0.00000000000E+00 -0.14989782473E+03  0.14989782473E+03  0.00000000000E+00 0. -1.
         21    1    1    2  503  501  0.26846710491E+01 -0.53069104174E+02  0.67327669155E+02  0.85770346334E+02  0.00000000000E+00 0. -1.
         21    1    1    2  504  502 -0.51285772337E+02 -0.40219939393E+02  0.23097081174E+03  0.23999039531E+03  0.00000000000E+00 0.  1.
         21    1    1    2  505  503  0.30047982928E+01  0.10822683516E+03 -0.11420818513E+03  0.15737085566E+03  0.00000000000E+00 0. -1.
          2    1    1    2  501    0  0.45596302995E+02 -0.14937791596E+02  0.15255503626E+04  0.15263047105E+04  0.00000000000E+00 0. -1.
<scales pt_clust_3="14000.00000" pt_clust_4="54.23866" pt_clust_5="96.11226" pt_clust_6="47.98083"></scales>
<clustering>
<clus scale="   47.981">  1  6  2 -1</clus>
<clus scale="   54.239">  1  4  2 -1</clus>
<clus scale="   96.112">  2  5  1 -1</clus>
<clus scale="   96.112">  2  3  1 -1</clus>
</clustering>
</event>
<event>
 6    0  0.3695460E+002  0.7889455E+02  0.7546771E-02  0.1332218E+00
         21   -1    0    0  501  502  0.00000000000E+00  0.00000000000E+00  0.13261557845E+03  0.13261557845E+03  0.00000000000E+00 0.  1.
          2   -1    0    0  503    0 -0.00000000000E+00 -0.00000000000E+00 -0.35217806648E+03  0.35217806648E+03  0.00000000000E+00 0.  1.
         21    1    1    2  503  505  0.32689443997E+02 -0.26560950030E+01 -0.36643390159E+02  0.49177155590E+02  0.00000000000E+00 0.  1.
         21    1    1    2  504  502  0.50176596389E+02 -0.58479220624E+01  0.64095352103E+02  0.81609455205E+02  0.00000000000E+00 0.  1.
         21    1    1    2  505  504 -0.12662312404E+03 -0.10298325531E+02 -0.28283981115E+02  0.13015166014E+03  0.00000000000E+00 0.  1.
          2    1    1    2  501    0  0.43757083652E+02  0.18802342597E+02 -0.21873046886E+03  0.22385537399E+03  0.00000000000E+00 0.  1.
<scales pt_clust_3="32.79717" pt_clust_4="51.44433" pt_clust_5="78.89455" pt_clust_6="14000.00000"></scales>
<clustering>
<clus scale="   32.797">  2  3  1 -1</clus>
<clus scale="   51.444">  1  4  2 -1</clus>
<clus scale="   78.895">  1  5  2 -1</clus>
<clus scale="   51.444">  1  3  2 -1</clus>
</clustering>
</event>
<event>
 6    0  0.3695460E+002  0.1284225E+03  0.7546771E-02  0.1229815E+00
          2   -1    0    0  505    0 -0.00000000000E+00  0.00000000000E+00  0.18481399732E+04  0.18481399732E+04  0.00000000000E+00 0.  1.
         21   -1    0    0  504  502  0.00000000000E+00 -0.00000000000E+00 -0.12180827633E+03  0.12180827633E+03  0.00000000000E+00 0. -1.
         21    1    1    2  503  501  0.11028402953E+03 -0.39628368154E+02 -0.58208575943E+02  0.13084805327E+03  0.00000000000E+00 0. -1.
         21    1    1    2  504  503  0.27464683925E+02  0.46054053760E+02  0.29103049065E+02  0.61010426943E+02  0.00000000000E+00 0. -1.
         21    1    1    2  505  502 -0.55259134701E+02  0.10812587185E+03  0.11510150336E+04  0.11574024294E+04  0.00000000000E+00 0.  1.
          2    1    1    2  501    0 -0.82489578754E+02 -0.11455155746E+03  0.60442219020E+03  0.62068733991E+03  0.00000000000E+00 0.  1.
<scales pt_clust_3="128.42248" pt_clust_4="53.62168" pt_clust_5="122.29592" pt_clust_6="14000.00000"></scales>
<clustering>
<clus scale="   53.622">  2  4  1 -1</clus>
<clus scale="  122.296">  1  5  2 -1</clus>
<clus scale="  128.422">  2  3  1 -1</clus>
<clus scale="   53.622">  2  3  1 -1</clus>
</clustering>
</event>
<event>
 6    0  0.3695460E+002  0.1116631E+03  0.7546771E-02  0.1257521E+00
          2   -1    0    0  504    0 -0.00000000000E+00  0.00000000000E+00  0.40005411846E+03  0.40005411846E+03  0.00000000000E+00 0.  1.
         21   -1    0    0  503  502  0.00000000000E+00 -0.00000000000E+00 -0.13903535187E+03  0.13903535187E+03  0.00000000000E+00 0.  1.
         21    1    1    2  503  501 -0.42490920668E+02  0.10521438868E+02 -0.16792993056E+02  0.46884791040E+02  0.00000000000E+00 0.  1.
         21    1    1    2  504  505  0.52148941061E+02 -0.41512957522E+02  0.80099712543E+02  0.10420557397E+03  0.00000000000E+00 0.  1.
         21    1    1    2  505  502  0.14066803178E+02  0.10921741772E+03 -0.54501860754E+02  0.12286892248E+03  0.00000000000E+00 0.  1.
          2    1    1    2  501    0 -0.23724823571E+02 -0.78225899064E+02  0.25221390786E+03  0.26513018284E+03  0.00000000000E+00 0.  1.
<scales pt_clust_3="43.77418" pt_clust_4="62.21375" pt_clust_5="111.66307" pt_clust_6="14000.00000"></scales>
<clustering>
<clus scale="   43.774">  2  3  1 -1</clus>
<clus scale="   62.214">  1  4  2 -1</clus>
<clus scale="  111.663">  2  5  1 -1</clus>
<clus scale="   43.774">  2  3  1 -1</clus>
</clustering>
</event>
<event>
 6    0  0.3695460E+002  0.8411666E+02  0.7546771E-02  0.1317759E+00
         21   -1    0    0  505  502  0.00000000000E+00  0.00000000000E+00  0.12396635532E+03  0.12396635532E+03  0.00000000000E+00 0. -1.
          2   -1    0    0  503    0 -0.00000000000E+00 -0.00000000000E+00 -0.15389645117E+04  0.15389645117E+04  0.00000000000E+00 0. -1.
         21    1    1    2  503  502  0.70809763660E+02  0.73440611979E+02  0.74845395017E+02  0.12652817581E+03  0.00000000000E+00 0. -1.
         21    1    1    2  504  501 -0.29698168631E+02 -0.42880155672E+02 -0.29066716194E+02  0.59712335081E+02  0.00000000000E+00 0. -1.
         21    1    1    2  505  504  0.26506146260E+02  0.19134864263E+02 -0.33005563104E+02  0.46455204399E+02  0.00000000000E+00 0. -1.
          2    1    1    2  501    0 -0.67617741289E+02 -0.49695320571E+02 -0.14277712720E+04  0.14302351517E+04  0.00000000000E+00 0. -1.
<scales pt_clust_3="84.11666" pt_clust_4="48.15300" pt_clust_5="32.69127" pt_clust_6="14000.00000"></scales>
<clustering>
<clus scale="   32.691">  1  5  2 -1</clus>
<clus scale="   48.153">  1  4  2 -1</clus>
<clus scale="   84.117">  1  3  2 -1</clus>
<clus scale="   32.691">  1  3  2 -1</clus>
</clustering>
</event>
<event>
 6    0  0.3695460E+002  0.1335204E+03  0.7546771E-02  0.1222324E+00
         21   -1    0    0  504  502  0.00000000000E+00  0.00000000000E+00  0.23610563420E+03  0.23610563420E+03  0.00000000000E+00 0.  1.
          2   -1    0    0  503    0 -0.00000000000E+00 -0.00000000000E+00 -0.37095071098E+04  0.37095071098E+04  0.00000000000E+00 0.  1.
         21    1    1    2  503  502  0.31451822210E+02  0.48689544323E+02 -0.20687230280E+03  0.21483956459E+03  0.00000000000E+00 0.  1.
         21    1    1    2  504  505 -0.21127979852E+01 -0.71872786754E+02  0.16589739340E+03  0.18080958638E+03  0.00000000000E+00 0.  1.
         21    1    1    2  505  501 -0.11546108619E+02 -0.51320101934E+02  0.46490840559E+02  0.70203018045E+02  0.00000000000E+00 0. -1.
          2    1    1    2  501    0 -0.17792915606E+02  0.74503344364E+02 -0.34789174068E+04  0.34797605750E+04  0.00000000000E+00 0.  1.
<scales pt_clust_3="57.96455" pt_clust_4="43.06869" pt_clust_5="43.06869" pt_clust_6="123.66161"></scales>
<clustering>
<clus scale="   43.069">  4  5 -1 -1</clus>
<clus scale="   57.965">  2  3  1 -1</clus>
<clus scale="  123.662">  2  6  1 -1</clus>
<clus scale="  133.520">  1  3  2 -1</clus>
</clustering>
</event>
<event>
 6    0  0.3695460E+002  0.1163276E+03  0.7546771E-02  0.1249281E+00
         21   -1    0    0  505  502  0.00000000000E+00  0.00000000000E+00  0.30530293593E+03  0.30530293593E+03  0.00000000000E+00 0.  1.
          2   -1    0    0  504    0 -0.00000000000E+00 -0.00000000000E+00 -0.50173699484E+03  0.50173699484E+03  0.00000000000E+00 0.  1.
         21    1    1    2  503  501 -0.43295915831E+02  0.32183360837E+02  0.20113248428E+03  0.20824164155E+03  0.00000000000E+00 0.  1.
         21    1    1    2  504  502  0.10086365307E+03 -0.16239923040E+02 -0.36014306832E+03  0.37435309704E+03  0.00000000000E+00 0.  1.
         21    1    1    2  505  503 -0.47712225785E+02  0.24534674203E+02  0.81984166516E+02  0.97978621581E+02  0.00000000000E+00 0.  1.
          2    1    1    2  501    0 -0.98555114490E+01 -0.40478112001E+02 -0.11940764139E+03  0.12646657060E+03  0.00000000000E+00 0.  1.
<scales pt_clust_3="45.85687" pt_clust_4="106.84433" pt_clust_5="45.85687" pt_clust_6="41.66064"></scales>
<clustering>
<clus scale="   41.661">  2  6  1 -1</clus>
<clus scale="   45.857">  3  5 -1 -1</clus>
<clus scale="  106.844">  2  4  1 -1</clus>
<clus scale="  116.328">  1  3  2 -1</clus>
</clustering>
</event>
<event>
 6    0  0.3695460E+002  0.1078795E+03  0.7546771E-02  0.1264548E+00
         21   -1    0    0  504  502  0.00000000000E+00  0.00000000000E+00  0.29426831756E+03  0.29426831756E+03  0.00000000000E+00 0. -1.
          2   -1    0    0  503    0 -0.00000000000E+00 -0.00000000000E+00 -0.61964097227E+03  0.61964097227E+03  0.00000000000E+00 0. -1.
         21    1    1    2  503  505 -0.59641051268E+02 -0.56981837941E+02 -0.11712046073E+03  0.14325218035E+03  0.00000000000E+00 0.  1.
         21    1    1    2  504  501  0.35687670968E+02  0.17169918637E+02  0.13734039024E+02  0.41917058497E+02  0.00000000000E+00 0. -1.
         21    1    1    2  505  502 -0.34273937529E+02 -0.72513155467E+02  0.23827205359E+03  0.25140889410E+03  0.00000000000E+00 0. -1.
          2    1    1    2  501    0  0.58227317829E+02  0.11232507477E+03 -0.46025828659E+03  0.47733115689E+03  0.00000000000E+00 0. -1.
<scales pt_clust_3="107.87947" pt_clust_4="39.60323" pt_clust_5="56.75461" pt_clust_6="14000.00000"></scales>
<clustering>
<clus scale="   39.603">  1  4  2 -1</clus>
<clus scale="   56.755">  1  5  2 -1</clus>
<clus scale="  107.879">  1  3  2 -1</clus>
<clus scale="   39.603">  1  3  2 -1</clus>
</clustering>
</event>
<event>
 6    0  0.3695460E+002  0.6728216E+02  0.7546771E-02  0.1369587E+00
          1   -1    0    0  503    0 -0.00000000000E+00  0.00000000000E+00  0.14117577349E+04  0.14117577349E+04  0.00000000000E+00 0. -1.
         21   -1    0    0  504  502  0.00000000000E+00 -0.00000000000E+00 -0.50100667595E+02  0.50100667595E+02  0.00000000000E+00 0. -1.
         21    1    1    2  503  502  0.14073708907E+02  0.55772510786E+02  0.26286581863E+03  0.26908563850E+03  0.00000000000E+00 0. -1.
         21    1    1    2  504  505  0.95662661318E+01  0.70331496844E+02  0.71503506559E+01  0.71338351611E+02  0.00000000000E+00 0. -1.
         21    1    1    2  505  501 -0.49273504618E+02 -0.48521350215E+02  0.76944645799E+02  0.10345374909E+03  0.00000000000E+00 0.  1.
          1    1    1    2  501    0  0.25633529579E+02 -0.77582657415E+02  0.10146962522E+04  0.10179806633E+04  0.00000000000E+00 0. -1.
<scales pt_clust_3="57.52080" pt_clust_4="67.28216" pt_clust_5="14000.00000" pt_clust_6="47.36195"></scales>
<clustering>
<clus scale="   57.521">  1  3  2 -1</clus>
<clus scale="   47.362">  1  6  2 -1</clus>
<clus scale="   67.282">  2  4  1 -1</clus>
<clus scale="   67.282">  2  3  1 -1</clus>
</clustering>
</event>
<event>
 6    0  0.3695460E+002  0.9193682E+02  0.7546771E-02  0.1298228E+00
         21   -1    0    0  501  502  0.00000000000E+00  0.00000000000E+00  0.12146060330E+04  0.12146060330E+04  0.00000000000E+00 0. -1.
          4   -1    0    0  505    0 -0.00000000000E+00 -0.00000000000E+00 -0.21717667151E+03  0.21717667151E+03  0.00000000000E+00 0. -1.
         21    1    1    2  503  502 -0.11102692530E+02 -0.91028811724E+02  0.11036136503E+04  0.11074170865E+04  0.00000000000E+00 0. -1.
         21    1    1    2  504  503 -0.49152395357E+02 -0.52284681239E+02  0.13888690117E+02  0.73092691665E+02  0.00000000000E+00 0. -1.
         21    1    1    2  505  504 -0.22852255354E+02  0.39790758357E+02  0.26924548482E+02  0.53202080188E+02  0.00000000000E+00 0. -1.
          4    1    1    2  501    0  0.83107343242E+02  0.10352273461E+03 -0.14699752734E+03  0.19807084623E+03  0.00000000000E+00 0. -1.
<scales pt_clust_3="14000.00000" pt_clust_4="70.11576" pt_clust_5="45.88605" pt_clust_6="91.93682"></scales>
<clustering>
<clus scale="   45.886">  2  5  1 -1</clus>
<clus scale="   70.116">  2  4  1 -1</clus>
<clus scale="   91.937">  2  6  1 -1</clus>
<clus scale="   91.937">  1  3  2 -1</clus>
</clustering>
</event>
<event>
 6    0  0.3695460E+002  0.3676494E+03  0.7546771E-02  0.1055595E+00
          2   -1    0    0  503    0 -0.00000000000E+00  0.00000000000E+00  0.30728090578E+03  0.30728090578E+03  0.00000000000E+00 0. -1.
         21   -1    0    0  505  502  0.00000000000E+00 -0.00000000000E+00 -0.12889895292E+04  0.12889895292E+04  0.00000000000E+00 0. -1.
         21    1    1    2  503  504 -0.78730288639E+01  0.39654638222E+02 -0.30972506009E+02  0.50929078575E+02  0.00000000000E+00 0. -1.
         21    1    1    2  504  502 -0.34075419493E+03  0.46031559101E+02 -0.10876341695E+04  0.11406929528E+04  0.00000000000E+00 0. -1.
         21    1    1    2  505  501  0.17385272282E+03 -0.10780069091E+03  0.77051786051E+02  0.21859262551E+03  0.00000000000E+00 0. -1.
          2    1    1    2  501    0  0.17477450097E+03  0.22114493589E+02  0.59846266048E+02  0.18605577813E+03  0.00000000000E+00 0. -1.
<scales pt_clust_3="40.42864" pt_clust_4="345.03608" pt_clust_5="121.65931" pt_clust_6="121.65931"></scales>
<clustering>
<clus scale="   40.429">  1  3  2 -1</clus>
<clus scale="  121.659">  5  6 -1 -1</clus>
<clus scale="  345.036">  2  4  1 -1</clus>
<clus scale="  345.036">  2  3  1 -1</clus>
</clustering>
</event>
<event>
 6    0  0.3695460E+002  0.1340343E+03  0.7546771E-02  0.1221589E+00
          2   -1    0    0  503    0 -0.00000000000E+00  0.00000000000E+00  0.48726980078E+03  0.48726980078E+03  0.00000000000E+00 0.  1.
         21   -1    0    0  504  502  0.00000000000E+00 -0.00000000000E+00 -0.16730173420E+03  0.16730173420E+03  0.00000000000E+00 0.  1.
         21    1    1    2  503  502 -0.15968553661E+02  0.39628676850E+02  0.56445244598E+02  0.70791894823E+02  0.00000000000E+00 0. -1.
         21    1    1    2  504  505  0.36647638400E+02  0.18916086771E+01 -0.12484057627E+02  0.38761827595E+02  0.00000000000E+00 0.  1.
         21    1    1    2  505  501  0.57153230252E+02 -0.10714430462E+03 -0.98850670383E+02  0.15658176386E+03  0.00000000000E+00 0.  1.
          2    1    1    2  501    0 -0.77832314990E+02  0.65624019088E+02  0.37485754999E+03  0.38843604869E+03  0.00000000000E+00 0.  1.
<scales pt_clust_3="42.15697" pt_clust_4="36.69642" pt_clust_5="134.03428" pt_clust_6="14000.00000"></scales>
<clustering>
<clus scale="   36.696">  2  4  1 -1</clus>
<clus scale="   42.157">  1  3  2 -1</clus>
<clus scale="  134.034">  2  5  1 -1</clus>
<clus scale="   36.696">  2  3  1 -1</clus>
</clustering>
</event>
<event>
 6    0  0.3695460E+002  0.7602486E+02  0.7546771E-02  0.1340726E+00
         21   -1    0    0  503  502  0.00000000000E+00  0.00000000000E+00  0.14441703191E+03  0.14441703191E+03  0.00000000000E+00 0.  1.
          2   -1    0    0  505    0 -0.00000000000E+00 -0.00000000000E+00 -0.41419802028E+03  0.41419802028E+03  0.00000000000E+00 0.  1.
         21    1    1    2  503  504  0.70690869121E+02 -0.43133110829E+02  0.23189457413E+02  0.85996599712E+02  0.00000000000E+00 0.  1.
         21    1    1    2  504  501 -0.24133324494E+02 -0.62836794045E+02  0.44643958958E+02  0.80771053654E+02  0.00000000000E+00 0.  1.
         21    1    1    2  505  502 -0.33671750434E+02  0.29805541181E+02  0.55071168756E+00  0.44971772766E+02  0.00000000000E+00 0.  1.
          2    1    1    2  501    0 -0.12885794192E+02  0.76164363693E+02 -0.33816511642E+03  0.34687562606E+03  0.00000000000E+00 0.  1.
<scales pt_clust_3="63.04556" pt_clust_4="76.02486" pt_clust_5="44.96840" pt_clust_6="14000.00000"></scales>
<clustering>
<clus scale="   44.968">  1  5  2 -1</clus>
<clus scale="   63.046">  1  3  2 -1</clus>
<clus scale="   76.025">  1  4  2 -1</clus>
<clus scale="   44.968">  1  3  2 -1</clus>
</clustering>
</event>
<event>
 6    0  0.3695460E+002  0.5201748E+03  0.7546771E-02  0.1008643E+00
         21   -1    0    0  505  502  0.00000000000E+00  0.00000000000E+00  0.10045335725E+04  0.10045335725E+04  0.00000000000E+00 0.  1.
         -4   -1    0    0    0  501 -0.00000000000E+00 -0.00000000000E+00 -0.56313748514E+03  0.56313748514E+03  0.00000000000E+00 0.  1.
         21    1    1    2  503  502 -0.72830487746E+02  0.18939469010E+03 -0.11773391752E+03  0.23459732291E+03  0.00000000000E+00 0. -1.
         21    1    1    2  504  501  0.13300083045E+03 -0.28169099266E+03  0.54341085235E+03  0.62636601975E+03  0.00000000000E+00 0.  1.
         21    1    1    2  505  504  0.82832892811E+02 -0.18542917212E+03  0.24572248898E+03  0.31878646081E+03  0.00000000000E+00 0.  1.
         -4    1    1    2    0  503 -0.14300323552E+03  0.27772547468E+03 -0.23000333646E+03  0.38792125417E+03  0.00000000000E+00 0.  1.
<scales pt_clust_3="34.40944" pt_clust_4="61.47290" pt_clust_5="61.47290" pt_clust_6="516.34115"></scales>
<clustering>
<clus scale="   34.409">  3  6 -1 -1</clus>
<clus scale="   61.473">  4  5 -1 -1</clus>
<clus scale="  516.341">  2  3  1 -1</clus>
<clus scale="  520.175">  1  3  2 -1</clus>
</clustering>
</event>
<event>
 6    0  0.3695460E+002  0.1823638E+03  0.7546771E-02  0.1165535E+00
          2   -1    0    0  503    0 -0.00000000000E+00  0.00000000000E+00  0.14304303242E+04  0.14304303242E+04  0.00000000000E+00 0. -1.
         21   -1    0    0  505  502  0.00000000000E+00 -0.00000000000E+00 -0.11017806581E+03  0.11017806581E+03  0.00000000000E+00 0.  1.
         21    1    1    2  503  504 -0.53048908547E+02 -0.12547050214E+03  0.56800499789E+02  0.14759176935E+03  0.00000000000E+00 0.  1.
         21    1    1    2  504  502  0.67729522379E+01 -0.52103241931E+02 -0.46143912636E+02  0.69927686756E+02  0.00000000000E+00 0.  1.
         21    1    1    2  505  501  0.37195398582E+02  0.78565146377E+02  0.51296451557E+03  0.52027740113E+03  0.00000000000E+00 0. -1.
          2    1    1    2  501    0  0.90805577273E+01  0.99008597690E+02  0.79663115566E+03  0.80281153275E+03  0.00000000000E+00 0. -1.
<scales pt_clust_3="177.22011" pt_clust_4="52.54161" pt_clust_5="40.21299" pt_clust_6="40.21299"></scales>
<clustering>
<clus scale="   40.213">  5  6 -1 -1</clus>
<clus scale="   52.542">  2  4  1 -1</clus>
<clus scale="  177.220">  2  3  1 -1</clus>
<clus scale="   52.542">  2  3  1 -1</clus>
</clustering>
</event>
<event>
 6    0  0.3695460E+002  0.1373955E+03  0.7546771E-02  0.1216877E+00
         21   -1    0    0  503  502  0.00000000000E+00  0.00000000000E+00  0.32924052668E+03  0.32924052668E+03  0.00000000000E+00 0. -1.
         -2   -1    0    0    0  501 -0.00000000000E+00 -0.00000000000E+00 -0.44023960038E+03  0.44023960038E+03  0.00000000000E+00 0. -1.
         21    1    1    2  503  504  0.38278902510E+02 -0.35108610475E+02  0.10852382861E+03  0.12031338364E+03  0.00000000000E+00 0. -1.
         21    1    1    2  504  501 -0.10273049391E+03  0.14604966212E+03  0.16410913284E+03  0.24251982530E+03  0.00000000000E+00 0. -1.
         21    1    1    2  505  502  0.17123953205E+02 -0.68935171698E+02 -0.18442932545E+03  0.19763467245E+03  0.00000000000E+00 0. -1.
         -2    1    1    2    0  505  0.47327638196E+02 -0.42005879946E+02 -0.19920270969E+03  0.20901224566E+03  0.00000000000E+00 0. -1.
<scales pt_clust_3="51.94121" pt_clust_4="130.96286" pt_clust_5="39.21616" pt_clust_6="39.21616"></scales>
<clustering>
<clus scale="   39.216">  5  6 -1 -1</clus>
<clus scale="   51.941">  1  3  2 -1</clus>
<clus scale="  130.963">  1  4  2 -1</clus>
<clus scale="   51.941">  1  3  2 -1</clus>
</clustering>
</event>
<event>
 6    0  0.3695460E+002  0.1048416E+03  0.7546771E-02  0.1270432E+00
         21   -1    0    0  501  502  0.00000000000E+00  0.00000000000E+00  0.16748268020E+03  0.16748268020E+03  0.00000000000E+00 0. -1.
          2   -1    0    0  504    0 -0.00000000000E+00 -0.00000000000E+00 -0.29527472157E+03  0.29527472157E+03  0.00000000000E+00 0. -1.
         21    1    1    2  503  505  0.10138842534E+03  0.62209153518E+02  0.78776750362E+02  0.14267223967E+03  0.00000000000E+00 0. -1.
         21    1    1    2  504  503 -0.87516783054E+02  0.12352564467E+02 -0.15751184364E+03  0.18061493308E+03  0.00000000000E+00 0. -1.
         21    1    1    2  505  502  0.54923253078E+01 -0.39172648039E+02  0.30713441858E+02  0.50079711485E+02  0.00000000000E+00 0. -1.
          2    1    1    2  501    0 -0.19363967594E+02 -0.35389069946E+02 -0.79770389945E+02  0.89390517532E+02  0.00000000000E+00 0. -1.
<scales pt_clust_3="14000.00000" pt_clust_4="104.84158" pt_clust_5="39.55581" pt_clust_6="41.55092"></scales>
<clustering>
<clus scale="   39.556">  1  5  2 -1</clus>
<clus scale="   41.551">  2  6  1 -1</clus>
<clus scale="  104.842">  2  4  1 -1</clus>
<clus scale="   39.556">  1  3  2 -1</clus>
</clustering>
</event>
<event>
 6    0  0.3695460E+002  0.1229990E+03  0.7546771E-02  0.1238230E+00
          2   -1    0    0  504    0 -0.00000000000E+00  0.00000000000E+00  0.12279815564E+04  0.12279815564E+04  0.00000000000E+00 0. -1.
         21   -1    0    0  501  502  0.00000000000E+00 -0.00000000000E+00 -0.15212859473E+03  0.15212859473E+03  0.00000000000E+00 0. -1.
         21    1    1    2  503  502 -0.13384902597E+01 -0.35480710216E+02 -0.68697634909E+02  0.77330701508E+02  0.00000000000E+00 0. -1.
         21    1    1    2  504  505  0.28262197888E+02  0.29984989023E+02  0.14426034750E+03  0.15002966126E+03  0.00000000000E+00 0.  1.
         21    1    1    2  505  503 -0.27138176176E+02 -0.88381043331E+02 -0.45298922861E+02  0.10295475627E+03  0.00000000000E+00 0. -1.
          2    1    1    2  501    0  0.21446854698E+00  0.93876764524E+02  0.10455891719E+04  0.10497950321E+04  0.00000000000E+00 0. -1.
<scales pt_clust_3="35.50595" pt_clust_4="40.23911" pt_clust_5="122.99902" pt_clust_6="14000.00000"></scales>
<clustering>
<clus scale="   35.506">  2  3  1 -1</clus>
<clus scale="   40.239">  1  4  2 -1</clus>
<clus scale="  122.999">  2  5  1 -1</clus>
<clus scale="   35.506">  2  3  1 -1</clus>
</clustering>
</event>
<event>
 6    0  0.3695460E+002  0.1127749E+03  0.7546771E-02  0.1255516E+00
          2   -1    0    0  505    0 -0.00000000000E+00  0.00000000000E+00  0.15772427368E+04  0.15772427368E+04  0.00000000000E+00 0. -1.
         21   -1    0    0  503  502  0.00000000000E+00 -0.00000000000E+00 -0.12225011150E+02  0.12225011150E+02  0.00000000000E+00 0. -1.
         21    1    1    2  503  504  0.14372219630E+02  0.96619264984E+02  0.39627856338E+03  0.40814034701E+03  0.00000000000E+00 0. -1.
         21    1    1    2  504  501 -0.41629822215E+02 -0.65972546744E+02  0.38661683566E+03  0.39440841350E+03  0.00000000000E+00 0. -1.
         21    1    1    2  505  502  0.31541643456E+02  0.17897209010E+02  0.41393174878E+03  0.41551736186E+03  0.00000000000E+00 0. -1.
          2    1    1    2  501    0 -0.42840408707E+01 -0.48543927250E+02  0.36819057779E+03  0.37140162554E+03  0.00000000000E+00 0. -1.
<scales pt_clust_3="105.87497" pt_clust_4="30.69980" pt_clust_5="36.26548" pt_clust_6="30.69980"></scales>
<clustering>
<clus scale="   30.700">  4  6 -1 -1</clus>
<clus scale="   36.265">  1  5  2 -1</clus>
<clus scale="  105.875">  2  3  1 -1</clus>
<clus scale="  105.875">  2  3  1 -1</clus>
</clustering>
</event>
<event>
 6    0  0.3695460E+002  0.7688858E+02  0.7546771E-02  0.1338120E+00
          2   -1    0    0  503    0 -0.00000000000E+00  0.00000000000E+00  0.20939457146E+04  0.20939457146E+04  0.00000000000E+00 0.  1.
         21   -1    0    0  505  502  0.00000000000E+00 -0.00000000000E+00 -0.23629231088E+02  0.23629231088E+02  0.00000000000E+00 0. -1.
         21    1    1    2  503  504  0.41600172495E+02 -0.72220068284E+01  0.66618872837E+03  0.66752539543E+03  0.00000000000E+00 0. -1.
         21    1    1    2  504  502  0.49566973708E+02  0.61545770021E+02  0.18538965909E+03  0.20152938344E+03  0.00000000000E+00 0.  1.
         21    1    1    2  505  501 -0.92572096591E+02  0.84098164947E+01  0.14054627820E+03  0.16850392991E+03  0.00000000000E+00 0. -1.
          2    1    1    2  501    0  0.14049503876E+01 -0.62733579687E+02  0.10781918178E+04  0.10800162369E+04  0.00000000000E+00 0.  1.
<scales pt_clust_3="42.22241" pt_clust_4="76.88858" pt_clust_5="14000.00000" pt_clust_6="75.69913"></scales>
<clustering>
<clus scale="   42.222">  1  3  2 -1</clus>
<clus scale="   75.699">  1  6  2 -1</clus>
<clus scale="   76.889">  1  4  2 -1</clus>
<clus scale="   76.889">  2  3  1 -1</clus>
</clustering>
</event>
<event>
 6    0  0.3695460E+002  0.1017575E+03  0.7546771E-02  0.1276643E+00
         21   -1    0    0  501  502  0.00000000000E+00  0.00000000000E+00  0.93426010319E+02  0.93426010319E+02  0.00000000000E+00 0. -1.
          2   -1    0    0  504    0 -0.00000000000E+00 -0.00000000000E+00 -0.34936154028E+04  0.34936154028E+04  0.00000000000E+00 0. -1.
         21    1    1    2  503  502  0.12943464530E+01 -0.64586522525E+02  0.56329118898E+02  0.85709181891E+02  0.00000000000E+00 0. -1.
         21    1    1    2  504  505  0.59036229786E+01  0.97397238468E+02 -0.12623028042E+03  0.15954672833E+03  0.00000000000E+00 0.  1.
         21    1    1    2  505  503  0.69045880413E+01  0.55030882333E+02 -0.14484951905E+03  0.15510465666E+03  0.00000000000E+00 0.  1.
          2    1    1    2  501    0 -0.14102557473E+02 -0.87841598276E+02 -0.31854387119E+04  0.31866808462E+04  0.00000000000E+00 0. -1.
<scales pt_clust_3="64.59949" pt_clust_4="34.73663" pt_clust_5="34.73663" pt_clust_6="90.72888"></scales>
<clustering>
<clus scale="   34.737">  4  5 -1 -1</clus>
<clus scale="   64.599">  1  3  2 -1</clus>
<clus scale="   90.729">  2  6  1 -1</clus>
<clus scale="   64.599">  1  3  2 -1</clus>
</clustering>
</event>
<event>
 6    0  0.3695460E+002  0.1346087E+03  0.7546771E-02  0.1220773E+00
          2   -1    0    0  505    0 -0.00000000000E+00  0.00000000000E+00  0.41898848775E+04  0.41898848775E+04  0.00000000000E+00 0. -1.
         21   -1    0    0  503  502  0.00000000000E+00 -0.00000000000E+00 -0.15899485062E+03  0.15899485062E+03  0.00000000000E+00 0.  1.
         21    1    1    2  503  504  0.46027532467E+02 -0.37638269687E+02 -0.12422622379E+03  0.13772192188E+03  0.00000000000E+00 0.  1.
         21    1    1    2  504  501  0.95306122413E+02  0.89598199844E+02  0.19503651675E+03  0.23484108936E+03  0.00000000000E+00 0.  1.
         21    1    1    2  505  502 -0.82999498370E+01 -0.92338772580E+02  0.30942626142E+03  0.32301694901E+03  0.00000000000E+00 0.  1.
          2    1    1    2  501    0 -0.13303370504E+03  0.40378842423E+02  0.36506534725E+04  0.36532997679E+04  0.00000000000E+00 0. -1.
<scales pt_clust_3="59.45732" pt_clust_4="134.60872" pt_clust_5="101.50682" pt_clust_6="14000.00000"></scales>
<clustering>
<clus scale="   59.457">  2  3  1 -1</clus>
<clus scale="  101.507">  2  5  1 -1</clus>
<clus scale="  134.609">  2  4  1 -1</clus>
<clus scale="   59.457">  2  3  1 -1</clus>
</clustering>
</event>
<event>
 6    0  0.3695460E+002  0.2192120E+03  0.7546771E-02  0.1134472E+00
          4   -1    0    0  504    0 -0.00000000000E+00  0.00000000000E+00  0.27181930161E+04  0.27181930161E+04  0.00000000000E+00 0. -1.
         21   -1    0    0  503  502  0.00000000000E+00 -0.00000000000E+00 -0.31673383145E+03  0.31673383145E+03  0.00000000000E+00 0. -1.
         21    1    1    2  503  505 -0.41852180409E+02  0.27798592181E+02  0.24104325454E+01  0.50300863981E+02  0.00000000000E+00 0. -1.
         21    1    1    2  504  502 -0.48350731020E+02  0.16595365851E+03 -0.26234265653E+03  0.31416887083E+03  0.00000000000E+00 0. -1.
         21    1    1    2  505  501  0.68898087792E+02 -0.14382030909E+03  0.16754447000E+04  0.16830169846E+04  0.00000000000E+00 0. -1.
          4    1    1    2  501    0  0.21304823637E+02 -0.49931941600E+02  0.98594670862E+03  0.98744012808E+03  0.00000000000E+00 0. -1.
<scales pt_clust_3="50.24308" pt_clust_4="213.05737" pt_clust_5="30.09436" pt_clust_6="30.09436"></scales>
<clustering>
<clus scale="   30.094">  5  6 -1 -1</clus>
<clus scale="   50.243">  2  3  1 -1</clus>
<clus scale="  213.057">  2  4  1 -1</clus>
<clus scale="   50.243">  2  3  1 -1</clus>
</clustering>
</event>
<event>
 6    0  0.3695460E+002  0.1254925E+03  0.7546771E-02  0.1234302E+00
          1   -1    0    0  505    0 -0.00000000000E+00  0.00000000000E+00  0.17710564300E+03  0.17710564300E+03  0.00000000000E+00 0.  1.
         21   -1    0    0  503  502  0.00000000000E+00 -0.00000000000E+00 -0.60069015043E+03  0.60069015043E+03  0.00000000000E+00 0.  1.
         21    1    1    2  503  501  0.99067719524E+02 -0.35997579046E+02 -0.36889220551E+02  0.11167387045E+03  0.00000000000E+00 0. -1.
         21    1    1    2  504  502 -0.30861577292E+02  0.12426333102E+02 -0.21444365819E+03  0.21700906259E+03  0.00000000000E+00 0.  1.
         21    1    1    2  505  504 -0.86704383121E+02  0.77666789544E+02 -0.29312992057E+03  0.31539646571E+03  0.00000000000E+00 0.  1.
          1    1    1    2  501    0  0.18498240889E+02 -0.54095543600E+02  0.12087829189E+03  0.13371639467E+03  0.00000000000E+00 0.  1.
<scales pt_clust_3="125.49254" pt_clust_4="33.26937" pt_clust_5="14000.00000" pt_clust_6="56.80990"></scales>
<clustering>
<clus scale="   33.269">  2  4  1 -1</clus>
<clus scale="   56.810">  1  6  2 -1</clus>
<clus scale="  125.493">  1  3  2 -1</clus>
<clus scale="   33.269">  2  3  1 -1</clus>
</clustering>
</event>
<event>
 6    0  0.3695460E+002  0.3350369E+03  0.7546771E-02  0.1068930E+00
         -1   -1    0    0    0  501 -0.00000000000E+00  0.00000000000E+00  0.43139495642E+03  0.43139495642E+03  0.00000000000E+00 0.  1.
         21   -1    0    0  501  502  0.00000000000E+00 -0.00000000000E+00 -0.34250158104E+03  0.34250158104E+03  0.00000000000E+00 0. -1.
         21    1    1    2  503  504 -0.23182614649E+02  0.35918105386E+02  0.71119326454E+02  0.82978928119E+02  0.00000000000E+00 0.  1.
         21    1    1    2  504  505  0.41136585075E+02 -0.25125156205E+03 -0.12223455310E+03  0.28241963819E+03  0.00000000000E+00 0. -1.
         21    1    1    2  505  502  0.50089361745E+02 -0.58598937246E+02 -0.25618532126E+02  0.81234775772E+02  0.00000000000E+00 0. -1.
         -1    1    1    2    0  503 -0.68043332172E+02  0.27393239391E+03  0.16562713415E+03  0.32726319539E+03  0.00000000000E+00 0.  1.
<scales pt_clust_3="34.63483" pt_clust_4="332.24087" pt_clust_5="42.81636" pt_clust_6="34.63483"></scales>
<clustering>
<clus scale="   34.635">  3  6 -1 -1</clus>
<clus scale="   42.816">  4  5 -1 -1</clus>
<clus scale="  332.241">  2  4  1 -1</clus>
<clus scale="  332.241">  2  3  1 -1</clus>
</clustering>
</event>
<event>
 6    0  0.3695460E+002  0.1074203E+03  0.7546771E-02  0.1265423E+00
         21   -1    0    0  503  502  0.00000000000E+00  0.00000000000E+00  0.32105216762E+03  0.32105216762E+03  0.00000000000E+00 0. -1.
          2   -1    0    0  504    0 -0.00000000000E+00 -0.00000000000E+00 -0.18020108356E+03  0.18020108356E+03  0.00000000000E+00 0.  1.
         21    1    1    2  503  501 -0.34297120104E+02 -0.81352766485E+02 -0.88618070399E+01  0.88730472140E+02  0.00000000000E+00 0. -1.
         21    1    1    2  504  505  0.41720675491E+02  0.75745017068E+01  0.61760720230E+02  0.74915782068E+02  0.00000000000E+00 0. -1.
         21    1    1    2  505  502  0.47508892607E+02  0.43207441551E+02  0.19949050809E+03  0.20957204179E+03  0.00000000000E+00 0. -1.
          2    1    1    2  501    0 -0.54932447993E+02  0.30570823227E+02 -0.11153833723E+03  0.12803495518E+03  0.00000000000E+00 0.  1.
<scales pt_clust_3="96.94707" pt_clust_4="37.59367" pt_clust_5="37.59367" pt_clust_6="62.86612"></scales>
<clustering>
<clus scale="   37.594">  4  5 -1 -1</clus>
<clus scale="   62.866">  2  6  1 -1</clus>
<clus scale="   96.947">  2  3  1 -1</clus>
<clus scale="  107.420">  1  3  2 -1</clus>
</clustering>
</event>
<event>
 6    0  0.3695460E+002  0.7462647E+02  0.7546771E-02  0.1345032E+00
          2   -1    0    0  503    0 -0.00000000000E+00  0.00000000000E+00  0.61485286084E+03  0.61485286084E+03  0.00000000000E+00 0.  1.
         21   -1    0    0  505  502  0.00000000000E+00 -0.00000000000E+00 -0.42586338534E+02  0.42586338534E+02  0.00000000000E+00 0.  1.
         21    1    1    2  503  504 -0.77368636032E+02 -0.52386315441E+02  0.21928148012E+03  0.23835813267E+03  0.00000000000E+00 0.  1.
         21    1    1    2  504  502 -0.56535551631E+02  0.14542910785E+02  0.64518599530E+02  0.87008129147E+02  0.00000000000E+00 0.  1.
         21    1    1    2  505  501  0.88329298736E+02  0.21393626518E+02  0.90478500362E+02  0.12824239275E+03  0.00000000000E+00 0.  1.
          2    1    1    2  501    0  0.45574888927E+02  0.16449778138E+02  0.19798794229E+03  0.20383054480E+03  0.00000000000E+00 0.  1.
<scales pt_clust_3="14000.00000" pt_clust_4="51.29132" pt_clust_5="74.62647" pt_clust_6="48.45272"></scales>
<clustering>
<clus scale="   48.453">  1  6  2 -1</clus>
<clus scale="   51.291">  2  4  1 -1</clus>
<clus scale="   74.626">  2  5  1 -1</clus>
<clus scale="   51.291">  2  3  1 -1</clus>
</clustering>
</event>
<event>
 6    0  0.3695460E+002  0.7298679E+02  0.7546771E-02  0.1350221E+00
          2   -1    0    0  503    0 -0.00000000000E+00  0.00000000000E+00  0.37186801529E+03  0.37186801529E+03  0.00000000000E+00 0.  1.
         21   -1    0    0  504  502  0.00000000000E+00 -0.00000000000E+00 -0.27510488337E+03  0.27510488337E+03  0.00000000000E+00 0.  1.
         21    1    1    2  503  502  0.38271844078E+02  0.17599684281E+02  0.15361459185E+03  0.15928567345E+03  0.00000000000E+00 0.  1.
         21    1    1    2  504  505  0.57274022510E+02  0.31946214380E+01 -0.89739348412E+02  0.10650666605E+03  0.00000000000E+00 0.  1.
         21    1    1    2  505  501 -0.12373282064E+03  0.28519508172E+02 -0.14599959965E+03  0.19349174749E+03  0.00000000000E+00 0.  1.
          2    1    1    2  501    0  0.28186954048E+02 -0.49313813891E+02  0.17888748813E+03  0.18768881168E+03  0.00000000000E+00 0.  1.
<scales pt_clust_3="42.12461" pt_clust_4="58.89142" pt_clust_5="72.98679" pt_clust_6="14000.00000"></scales>
<clustering>
<clus scale="   42.125">  1  3  2 -1</clus>
<clus scale="   58.891">  2  4  1 -1</clus>
<clus scale="   72.987">  2  5  1 -1</clus>
<clus scale="   58.891">  2  3  1 -1</clus>
</clustering>
</event>
<event>
 6    0  0.3695460E+002  0.1153912E+03  0.7546771E-02  0.1250900E+00
         21   -1    0    0  501  502  0.00000000000E+00  0.00000000000E+00  0.73751458954E+02  0.73751458954E+02  0.00000000000E+00 0.  1.
          1   -1    0    0  503    0 -0.00000000000E+00 -0.00000000000E+00 -0.34751129912E+03  0.34751129912E+03  0.00000000000E+00 0. -1.
         21    1    1    2  503  504  0.15597602266E+02 -0.79965177766E+02 -0.92826249922E+02  0.12350881558E+03  0.00000000000E+00 0.  1.
         21    1    1    2  504  505 -0.64978771643E+02  0.68915237318E+02 -0.63239239477E+02  0.11388920980E+03  0.00000000000E+00 0.  1.
         21    1    1    2  505  502 -0.43869280370E+02  0.65718611093E+01 -0.19756603337E+02  0.48559514969E+02  0.00000000000E+00 0.  1.
          1    1    1    2  501    0  0.93250449747E+02  0.44780793379E+01 -0.97937747431E+02  0.13530521773E+03  0.00000000000E+00 0. -1.
<scales pt_clust_3="81.47217" pt_clust_4="30.25903" pt_clust_5="30.25903" pt_clust_6="106.58356"></scales>
<clustering>
<clus scale="   30.259">  4  5 -1 -1</clus>
<clus scale="   81.472">  2  3  1 -1</clus>
<clus scale="  106.584">  2  6  1 -1</clus>
<clus scale="  115.391">  1  3  2 -1</clus>
</clustering>
</event>
<event>
 6    0  0.3695460E+002  0.1468483E+03  0.7546771E-02  0.1204400E+00
          2   -1    0    0  504    0 -0.00000000000E+00  0.00000000000E+00  0.15169518100E+04  0.15169518100E+04  0.00000000000E+00 0. -1.
         21   -1    0    0  505  502  0.00000000000E+00 -0.00000000000E+00 -0.15897334011E+03  0.15897334011E+03  0.00000000000E+00 0. -1.
         21    1    1    2  503  502 -0.55790792720E+02 -0.39583989356E+02  0.22491604557E+02  0.72009562151E+02  0.00000000000E+00 0. -1.
         21    1    1    2  504  503 -0.13907271716E+02 -0.35833807531E+02  0.14498543823E+03  0.14999417078E+03  0.00000000000E+00 0.  1.
         21    1    1    2  505  501  0.69980288625E+02  0.18675947567E+03 -0.52267128019E+02  0.20617515665E+03  0.00000000000E+00 0. -1.
          2    1    1    2  501    0 -0.28222418907E+00 -0.11134167878E+03  0.12427685551E+04  0.12477462605E+04  0.00000000000E+00 0. -1.
<scales pt_clust_3="69.51753" pt_clust_4="38.43792" pt_clust_5="14000.00000" pt_clust_6="146.84835"></scales>
<clustering>
<clus scale="   38.438">  1  4  2 -1</clus>
<clus scale="   69.518">  2  3  1 -1</clus>
<clus scale="  146.848">  1  6  2 -1</clus>
<clus scale="   69.518">  2  3  1 -1</clus>
</clustering>
</event>
<event>
 6    0  0.3695460E+002  0.1255417E+03  0.7546771E-02  0.1234225E+00
         -3   -1    0    0    0  501 -0.00000000000E+00  0.00000000000E+00  0.57736871071E+03  0.57736871071E+03  0.00000000000E+00 0. -1.
         21   -1    0    0  505  502  0.00000000000E+00 -0.00000000000E+00 -0.36271725996E+03  0.36271725996E+03  0.00000000000E+00 0. -1.
         21    1    1    2  503  504  0.40136161416E+02 -0.39886189568E+02  0.16983271567E+03  0.17901109151E+03  0.00000000000E+00 0. -1.
         21    1    1    2  504  502  0.31361812886E+02  0.24520067619E+02 -0.70521947678E+02  0.80982356892E+02  0.00000000000E+00 0. -1.
         21    1    1    2  505  501 -0.13001629690E+03  0.33537345002E+02 -0.26381411682E+03  0.29601837646E+03  0.00000000000E+00 0. -1.
         -3    1    1    2    0  503  0.58518322598E+02 -0.18171223053E+02  0.37915479959E+03  0.38407414580E+03  0.00000000000E+00 0. -1.
<scales pt_clust_3="48.71557" pt_clust_4="39.80951" pt_clust_5="114.83200" pt_clust_6="48.71557"></scales>
<clustering>
<clus scale="   39.810">  2  4  1 -1</clus>
<clus scale="   48.716">  3  6 -1 -1</clus>
<clus scale="  114.832">  2  5  1 -1</clus>
<clus scale="   39.810">  2  3  1 -1</clus>
</clustering>
</event>
<event>
 6    0  0.3695460E+002  0.8754094E+02  0.7546771E-02  0.1308918E+00
         -1   -1    0    0    0  501 -0.00000000000E+00  0.00000000000E+00  0.31773304077E+03  0.31773304077E+03  0.00000000000E+00 0. -1.
         21   -1    0    0  503  502  0.00000000000E+00 -0.00000000000E+00 -0.26024757956E+03  0.26024757956E+03  0.00000000000E+00 0.  1.
         21    1    1    2  503  504 -0.25172103701E+02 -0.29006651136E+02 -0.15581656619E+03  0.16047997667E+03  0.00000000000E+00 0.  1.
         21    1    1    2  504  501 -0.19959269620E+02  0.10384308279E+03 -0.12262590169E+02  0.10645247486E+03  0.00000000000E+00 0.  1.
         21    1    1    2  505  502 -0.24027612104E+02 -0.76926535519E+02  0.59716366983E+01  0.80812613218E+02  0.00000000000E+00 0. -1.
         -1    1    1    2    0  505  0.69158985425E+02  0.20901038653E+01  0.21959298087E+03  0.23023555557E+03  0.00000000000E+00 0. -1.
<scales pt_clust_3="38.40600" pt_clust_4="14000.00000" pt_clust_5="87.54094" pt_clust_6="67.84951"></scales>
<clustering>
<clus scale="   38.406">  2  3  1 -1</clus>
<clus scale="   67.850">  1  6  2 -1</clus>
<clus scale="   87.541">  1  5  2 -1</clus>
<clus scale="   38.406">  2  3  1 -1</clus>
</clustering>
</event>
<event>
 6    0  0.3695460E+002  0.8496301E+02  0.7546771E-02  0.1315529E+00
          2   -1    0    0  505    0 -0.00000000000E+00  0.00000000000E+00  0.85703082910E+03  0.85703082910E+03  0.00000000000E+00 0.  1.
         21   -1    0    0  503  502  0.00000000000E+00 -0.00000000000E+00 -0.16562078352E+03  0.16562078352E+03  0.00000000000E+00 0.  1.
         21    1    1    2  503  501  0.32409855415E+02 -0.50622027389E+02 -0.83232810023E+01  0.60681672617E+02  0.00000000000E+00 0.  1.
         21    1    1    2  504  502 -0.50244930453E+02  0.13357715387E+03 -0.81277965173E+02  0.16423616135E+03  0.00000000000E+00 0.  1.
         21    1    1    2  505  504  0.68576470685E+02 -0.44086408989E+02  0.25161456022E+03  0.26449240197E+03  0.00000000000E+00 0.  1.
          2    1    1    2  501    0 -0.50741395646E+02 -0.38868717496E+02  0.52939673154E+03  0.53324137667E+03  0.00000000000E+00 0.  1.
<scales pt_clust_3="60.10814" pt_clust_4="14000.00000" pt_clust_5="84.96301" pt_clust_6="63.99779"></scales>
<clustering>
<clus scale="   60.108">  2  3  1 -1</clus>
<clus scale="   63.998">  1  6  2 -1</clus>
<clus scale="   84.963">  1  5  2 -1</clus>
<clus scale="   60.108">  2  3  1 -1</clus>
</clustering>
</event>
<event>
 6    0  0.5637177E+002  0.1256995E+03  0.7546771E-02  0.1233980E+00
         21   -1    0    0  504  502  0.00000000000E+00  0.00000000000E+00  0.89356466096E+03  0.89356466096E+03  0.00000000000E+00 0.  1.
          2   -1    0    0  505    0 -0.00000000000E+00 -0.00000000000E+00 -0.20632964609E+04  0.20632964609E+04  0.00000000000E+00 0.  1.
         21    1    1    2  503  501  0.75180261097E+02 -0.32855828067E+02 -0.35244961807E+02  0.89296049349E+02  0.00000000000E+00 0. -1.
         21    1    1    2  504  503  0.50058949060E+02 -0.45233483585E+02  0.11324158063E+03  0.13181662263E+03  0.00000000000E+00 0.  1.
         21    1    1    2  505  502 -0.23943126586E+01  0.38359318529E+02  0.74141942764E+03  0.74241493637E+03  0.00000000000E+00 0.  1.
          2    1    1    2  501    0 -0.12284489750E+03  0.39729993123E+02 -0.19891478464E+04  0.19933335135E+04  0.00000000000E+00 0.  1.
<scales pt_clust_3="14000.00000" pt_clust_4="50.18689" pt_clust_5="38.43397" pt_clust_6="125.69954"></scales>
<clustering>
<clus scale="   38.434">  1  5  2 -1</clus>
<clus scale="   50.187">  1  4  2 -1</clus>
<clus scale="  125.700">  2  6  1 -1</clus>
<clus scale="   38.434">  1  3  2 -1</clus>
</clustering>
</event>
<event>
 6    0  0.3695460E+002  0.9969695E+02  0.7546771E-02  0.1280935E+00
          2   -1    0    0  505    0 -0.00000000000E+00  0.00000000000E+00  0.13003078721E+04  0.13003078721E+04  0.00000000000E+00 0.  1.
         21   -1    0    0  503  502  0.00000000000E+00 -0.00000000000E+00 -0.48223947671E+02  0.48223947671E+02  0.00000000000E+00 0.  1.
         21    1    1    2  503  501 -0.11030554975E+03  0.60708883308E+02  0.95902729959E+02  0.15827260165E+03  0.00000000000E+00 0.  1.
         21    1    1    2  504  502  0.14427407175E+02 -0.30018247850E+02  0.10898143695E+02  0.35043042359E+02  0.00000000000E+00 0.  1.
         21    1    1    2  505  504  0.13944469436E+02 -0.60279412956E+02  0.38199076264E+03  0.38696898920E+03  0.00000000000E+00 0.  1.
          2    1    1    2  501    0  0.81933673141E+02  0.29588777498E+02  0.76329228813E+03  0.76824718657E+03  0.00000000000E+00 0.  1.
<scales pt_clust_3="99.69695" pt_clust_4="33.30533" pt_clust_5="64.11078" pt_clust_6="14000.00000"></scales>
<clustering>
<clus scale="   33.305">  2  4  1 -1</clus>
<clus scale="   64.111">  1  5  2 -1</clus>
<clus scale="   99.697">  2  3  1 -1</clus>
<clus scale="   33.305">  2  3  1 -1</clus>
</clustering>
</event>
<event>
 6    0  0.3695460E+002  0.7796762E+02  0.7546771E-02  0.1334920E+00
          2   -1    0    0  505    0 -0.00000000000E+00  0.00000000000E+00  0.23671558783E+04  0.23671558783E+04  0.00000000000E+00 0.  1.
         21   -1    0    0  504  502  0.00000000000E+00 -0.00000000000E+00 -0.16401521042E+02  0.16401521042E+02  0.00000000000E+00 0.  1.
         21    1    1    2  503  502  0.57480626836E+02  0.37000185135E+02  0.43959167196E+03  0.44487512205E+03  0.00000000000E+00 0.  1.
         21    1    1    2  504  501 -0.54292121311E+02  0.83906809404E+01  0.66617840063E+02  0.86347985372E+02  0.00000000000E+00 0.  1.
         21    1    1    2  505  503 -0.54097675994E+02  0.28561106871E+02  0.36694199132E+03  0.37200634452E+03  0.00000000000E+00 0.  1.
          2    1    1    2  501    0  0.50909170469E+02 -0.73951972946E+02  0.14776028539E+04  0.14803279473E+04  0.00000000000E+00 0.  1.
<scales pt_clust_3="53.79989" pt_clust_4="54.93667" pt_clust_5="77.96762" pt_clust_6="14000.00000"></scales>
<clustering>
<clus scale="   54.937">  2  4  1 -1</clus>
<clus scale="   53.800">  2  3  1 -1</clus>
<clus scale="   77.968">  2  5  1 -1</clus>
<clus scale="   54.937">  2  3  1 -1</clus>
</clustering>
</event>
<event>
 6    0  0.3695460E+002  0.1115321E+03  0.7546771E-02  0.1257759E+00
         21   -1    0    0  504  502  0.00000000000E+00  0.00000000000E+00  0.59818250147E+02  0.59818250147E+02  0.00000000000E+00 0.  1.
          2   -1    0    0  503    0 -0.00000000000E+00 -0.00000000000E+00 -0.17781542691E+04  0.17781542691E+04  0.00000000000E+00 0.  1.
         21    1    1    2  503  505  0.10349708023E+03  0.76953786701E+02 -0.54824355391E+03  0.56320913106E+03  0.00000000000E+00 0.  1.
         21    1    1    2  504  501  0.34525384864E+02 -0.10290330791E+02 -0.17705091118E+02  0.40141790683E+02  0.00000000000E+00 0.  1.
         21    1    1    2  505  502 -0.26278182858E+02 -0.65963842997E+02  0.56269961043E+01  0.71228046178E+02  0.00000000000E+00 0.  1.
          2    1    1    2  501    0 -0.11174428224E+03 -0.69961291309E+00 -0.11580143700E+04  0.11633935513E+04  0.00000000000E+00 0.  1.
<scales pt_clust_3="14000.00000" pt_clust_4="36.02628" pt_clust_5="74.10735" pt_clust_6="111.53206"></scales>
<clustering>
<clus scale="   36.026">  1  4  2 -1</clus>
<clus scale="   74.107">  1  5  2 -1</clus>
<clus scale="  111.532">  2  6  1 -1</clus>
<clus scale="   36.026">  1  3  2 -1</clus>
</clustering>
</event>
<event>
 6    0  0.3695460E+002  0.2431760E+03  0.7546771E-02  0.1117695E+00
          1   -1    0    0  504    0 -0.00000000000E+00  0.00000000000E+00  0.86251089874E+03  0.86251089874E+03  0.00000000000E+00 0.  1.
         21   -1    0    0  505  502  0.00000000000E+00 -0.00000000000E+00 -0.82175742245E+03  0.82175742245E+03  0.00000000000E+00 0.  1.
         21    1    1    2  503  502  0.10806597727E+03 -0.14976742012E+03 -0.24161014642E+03  0.30411181895E+03  0.00000000000E+00 0.  1.
         21    1    1    2  504  503  0.45078601766E+02 -0.47900592751E+02  0.86155594519E+02  0.10839434298E+03  0.00000000000E+00 0.  1.
         21    1    1    2  505  501 -0.30417652639E+03  0.45660037160E+01 -0.47113557936E+03  0.56081453417E+03  0.00000000000E+00 0.  1.
          1    1    1    2  501    0  0.15103194736E+03  0.19310200915E+03  0.66734360756E+03  0.71094762509E+03  0.00000000000E+00 0.  1.
<scales pt_clust_3="187.34881" pt_clust_4="65.77649" pt_clust_5="243.17598" pt_clust_6="14000.00000"></scales>
<clustering>
<clus scale="   65.776">  1  4  2 -1</clus>
<clus scale="  187.349">  2  3  1 -1</clus>
<clus scale="  243.176">  2  5  1 -1</clus>
<clus scale="  187.349">  2  3  1 -1</clus>
</clustering>
</event>
<event>
 6    0  0.3695460E+002  0.1905768E+03  0.7546771E-02  0.1157942E+00
         21   -1    0    0  504  502  0.00000000000E+00  0.00000000000E+00  0.11616623473E+03  0.11616623473E+03  0.00000000000E+00 0.  1.
          2   -1    0    0  502    0 -0.00000000000E+00 -0.00000000000E+00 -0.84590567695E+03  0.84590567695E+03  0.00000000000E+00 0.  1.
         21    1    1    2  503  501 -0.43224402984E+02  0.24694216277E+02 -0.22606676735E+03  0.23148290786E+03  0.00000000000E+00 0.  1.
         21    1    1    2  504  505  0.86278942472E+02 -0.34809464574E+02 -0.38742533188E+02  0.10078064604E+03  0.00000000000E+00 0.  1.
         21    1    1    2  505  503 -0.10789700141E+02 -0.13481914338E+03  0.66412817209E+01  0.13541316655E+03  0.00000000000E+00 0.  1.
          2    1    1    2  501    0 -0.32264839348E+02  0.14493439168E+03 -0.47157142341E+03  0.49439519124E+03  0.00000000000E+00 0.  1.
<scales pt_clust_3="43.82041" pt_clust_4="93.03631" pt_clust_5="174.90577" pt_clust_6="43.82041"></scales>
<clustering>
<clus scale="   43.820">  3  6 -1 -1</clus>
<clus scale="   93.036">  1  4  2 -1</clus>
<clus scale="  174.906">  1  5  2 -1</clus>
<clus scale="   93.036">  1  3  2 -1</clus>
</clustering>
</event>
<event>
 6    0  0.3695460E+002  0.3689610E+03  0.7546771E-02  0.1055091E+00
          2   -1    0    0  504    0 -0.00000000000E+00  0.00000000000E+00  0.15645930684E+04  0.15645930684E+04  0.00000000000E+00 0.  1.
         21   -1    0    0  505  502  0.00000000000E+00 -0.00000000000E+00 -0.46211909214E+03  0.46211909214E+03  0.00000000000E+00 0.  1.
         21    1    1    2  503  501 -0.20676959284E+03 -0.31315099845E+02 -0.19072819694E+03  0.28303982955E+03  0.00000000000E+00 0.  1.
         21    1    1    2  504  502 -0.28221012769E+02 -0.14245655181E+02  0.72432440197E+02  0.79030517183E+02  0.00000000000E+00 0. -1.
         21    1    1    2  505  503 -0.14454571245E+03  0.64060062672E+02 -0.16452376901E+03  0.22817805588E+03  0.00000000000E+00 0.  1.
          2    1    1    2  501    0  0.37953631806E+03 -0.18499307645E+02  0.13852935020E+04  0.14364637579E+04  0.00000000000E+00 0.  1.
<scales pt_clust_3="89.63245" pt_clust_4="31.61272" pt_clust_5="89.63245" pt_clust_6="354.24165"></scales>
<clustering>
<clus scale="   31.613">  1  4  2 -1</clus>
<clus scale="   89.632">  3  5 -1 -1</clus>
<clus scale="  354.242">  1  6  2 -1</clus>
<clus scale="  368.961">  2  3  1 -1</clus>
</clustering>
</event>
<event>
 6    0  0.3695460E+002  0.1249114E+03  0.7546771E-02  0.1235208E+00
          1   -1    0    0  504    0 -0.00000000000E+00  0.00000000000E+00  0.17389461377E+04  0.17389461377E+04  0.00000000000E+00 0.  1.
         21   -1    0    0  501  502  0.00000000000E+00 -0.00000000000E+00 -0.43146591076E+02  0.43146591076E+02  0.00000000000E+00 0. -1.
         21    1    1    2  503  502  0.31382230524E+02  0.35183274761E+02 -0.13294165390E+02  0.48984099961E+02  0.00000000000E+00 0. -1.
         21    1    1    2  504  505  0.37709618022E+02  0.38437153009E+02  0.10767301393E+03  0.12038649406E+03  0.00000000000E+00 0. -1.
         21    1    1    2  505  503  0.36774250536E+02  0.13364773025E+01  0.11713778261E+03  0.12278188706E+03  0.00000000000E+00 0. -1.
          1    1    1    2  501    0 -0.10586609908E+03 -0.74956905072E+02  0.14842829154E+04  0.14899402477E+04  0.00000000000E+00 0.  1.
<scales pt_clust_3="47.14560" pt_clust_4="31.60012" pt_clust_5="31.60012" pt_clust_6="118.91876"></scales>
<clustering>
<clus scale="   31.600">  4  5 -1 -1</clus>
<clus scale="   47.146">  2  3  1 -1</clus>
<clus scale="  118.919">  1  6  2 -1</clus>
<clus scale="   47.146">  2  3  1 -1</clus>
</clustering>
</event>
<event>
 6    0  0.3695460E+002  0.7933209E+02  0.7546771E-02  0.1330958E+00
          2   -1    0    0  503    0 -0.00000000000E+00  0.00000000000E+00  0.75940522611E+03  0.75940522611E+03  0.00000000000E+00 0.  1.
         21   -1    0    0  505  502  0.00000000000E+00 -0.00000000000E+00 -0.33101406589E+02  0.33101406589E+02  0.00000000000E+00 0.  1.
         21    1    1    2  503  504  0.21051695745E+02 -0.83564956185E+02  0.28274411072E+03  0.29558502658E+03  0.00000000000E+00 0. -1.
         21    1    1    2  504  502  0.56900670524E+02  0.52590850575E+02  0.79916768930E+02  0.11131115769E+03  0.00000000000E+00 0.  1.
         21    1    1    2  505  501 -0.94632032897E+01  0.45312642059E+02  0.71291767203E+02  0.85001787145E+02  0.00000000000E+00 0. -1.
          2    1    1    2  501    0 -0.68489162980E+02 -0.14338536449E+02  0.29235117267E+03  0.30060866127E+03  0.00000000000E+00 0.  1.
<scales pt_clust_3="14000.00000" pt_clust_4="79.33209" pt_clust_5="46.29026" pt_clust_6="70.34830"></scales>
<clustering>
<clus scale="   46.290">  2  5  1 -1</clus>
<clus scale="   70.348">  1  6  2 -1</clus>
<clus scale="   79.332">  2  4  1 -1</clus>
<clus scale="   46.290">  2  3  1 -1</clus>
</clustering>
</event>
<event>
 6    0  0.3695460E+002  0.8707923E+02  0.7546771E-02  0.1310083E+00
         21   -1    0    0  503  502  0.00000000000E+00  0.00000000000E+00  0.70364192438E+03  0.70364192438E+03  0.00000000000E+00 0. -1.
          2   -1    0    0  504    0 -0.00000000000E+00 -0.00000000000E+00 -0.16053371483E+04  0.16053371483E+04  0.00000000000E+00 0. -1.
         21    1    1    2  503  501 -0.56089400646E+02  0.79237262534E+01  0.56192885446E+03  0.56477680882E+03  0.00000000000E+00 0. -1.
         21    1    1    2  504  505 -0.35321133156E+02  0.50452033308E+02 -0.38370625628E+03  0.38861739696E+03  0.00000000000E+00 0. -1.
         21    1    1    2  505  502  0.30468676195E+02  0.40183966675E+02  0.13035899613E+03  0.13977324235E+03  0.00000000000E+00 0.  1.
          2    1    1    2  501    0  0.60941857606E+02 -0.98559726237E+02 -0.12102768182E+04  0.12158116246E+04  0.00000000000E+00 0. -1.
<scales pt_clust_3="54.31217" pt_clust_4="87.07923" pt_clust_5="50.42907" pt_clust_6="14000.00000"></scales>
<clustering>
<clus scale="   50.429">  1  5  2 -1</clus>
<clus scale="   54.312">  1  3  2 -1</clus>
<clus scale="   87.079">  2  4  1 -1</clus>
<clus scale="   50.429">  1  3  2 -1</clus>
</clustering>
</event>
<event>
 6    0  0.3695460E+002  0.1324379E+03  0.7546771E-02  0.1223882E+00
         21   -1    0    0  503  502  0.00000000000E+00  0.00000000000E+00  0.76282101810E+02  0.76282101810E+02  0.00000000000E+00 0. -1.
          1   -1    0    0  505    0 -0.00000000000E+00 -0.00000000000E+00 -0.32689596004E+04  0.32689596004E+04  0.00000000000E+00 0. -1.
         21    1    1    2  503  501 -0.24298706936E+02  0.29597226648E+02 -0.15437625771E+02  0.41288536829E+02  0.00000000000E+00 0. -1.
         21    1    1    2  504  502 -0.10972665847E+03 -0.46287874113E+02  0.23946343129E+01  0.11911440359E+03  0.00000000000E+00 0. -1.
         21    1    1    2  505  504  0.50798970604E+02 -0.39571805689E+00 -0.32553424590E+03  0.32947418300E+03  0.00000000000E+00 0.  1.
          1    1    1    2  501    0  0.83226394802E+02  0.17086365522E+02 -0.28541002612E+04  0.28553645787E+04  0.00000000000E+00 0. -1.
<scales pt_clust_3="38.29390" pt_clust_4="14000.00000" pt_clust_5="50.04619" pt_clust_6="132.43794"></scales>
<clustering>
<clus scale="   38.294">  1  3  2 -1</clus>
<clus scale="   50.046">  2  5  1 -1</clus>
<clus scale="  132.438">  2  6  1 -1</clus>
<clus scale="   38.294">  1  3  2 -1</clus>
</clustering>
</event>
<event>
 6    0  0.3695460E+002  0.1611880E+03  0.7546771E-02  0.1187362E+00
         21   -1    0    0  503  502  0.00000000000E+00  0.00000000000E+00  0.46587206257E+03  0.46587206257E+03  0.00000000000E+00 0.  1.
          3   -1    0    0  505    0 -0.00000000000E+00 -0.00000000000E+00 -0.20464817836E+03  0.20464817836E+03  0.00000000000E+00 0.  1.
         21    1    1    2  503  504  0.12236351667E+03 -0.87962746223E+02  0.33404023350E+03  0.36646030144E+03  0.00000000000E+00 0.  1.
         21    1    1    2  504  501 -0.55281830265E+02  0.46667774752E+02 -0.96328374796E+02  0.12047040196E+03  0.00000000000E+00 0.  1.
         21    1    1    2  505  502  0.15650547395E+02  0.48547561718E+02  0.71380379139E+02  0.87732342431E+02  0.00000000000E+00 0.  1.
          3    1    1    2  501    0 -0.82732233797E+02 -0.72525902464E+01 -0.47868353630E+02  0.95857195106E+02  0.00000000000E+00 0.  1.
<scales pt_clust_3="143.45066" pt_clust_4="69.39611" pt_clust_5="51.00790" pt_clust_6="69.39611"></scales>
<clustering>
<clus scale="   51.008">  1  5  2 -1</clus>
<clus scale="   69.396">  4  6 -1 -1</clus>
<clus scale="  143.451">  1  3  2 -1</clus>
<clus scale="   51.008">  1  3  2 -1</clus>
</clustering>
</event>
<event>
 6    0  0.3695460E+002  0.1024229E+03  0.7546771E-02  0.1275282E+00
         21   -1    0    0  503  502  0.00000000000E+00  0.00000000000E+00  0.14486618820E+03  0.14486618820E+03  0.00000000000E+00 0. -1.
          2   -1    0    0  504    0 -0.00000000000E+00 -0.00000000000E+00 -0.50428821905E+03  0.50428821905E+03  0.00000000000E+00 0.  1.
         21    1    1    2  503  505 -0.10186588533E+03  0.13291185405E+02  0.85644125019E+02  0.13374688914E+03  0.00000000000E+00 0. -1.
         21    1    1    2  504  502  0.53158545962E+02  0.19491978158E+02 -0.37164888473E+02  0.67727373761E+02  0.00000000000E+00 0.  1.
         21    1    1    2  505  501 -0.32825145117E+02 -0.52328690834E+01 -0.25985115859E+01  0.33341045773E+02  0.00000000000E+00 0. -1.
          2    1    1    2  501    0  0.81532484485E+02 -0.27550294479E+02 -0.40530275580E+03  0.41433909858E+03  0.00000000000E+00 0.  1.
<scales pt_clust_3="30.18110" pt_clust_4="56.61950" pt_clust_5="30.18110" pt_clust_6="87.60849"></scales>
<clustering>
<clus scale="   30.181">  3  5 -1 -1</clus>
<clus scale="   56.620">  1  4  2 -1</clus>
<clus scale="   87.608">  2  6  1 -1</clus>
<clus scale="   56.620">  1  3  2 -1</clus>
</clustering>
</event>
<event>
 6    0  0.3695460E+002  0.1065696E+03  0.7546771E-02  0.1267058E+00
          2   -1    0    0  504    0 -0.00000000000E+00  0.00000000000E+00  0.11186578106E+04  0.11186578106E+04  0.00000000000E+00 0.  1.
         21   -1    0    0  503  502  0.00000000000E+00 -0.00000000000E+00 -0.74110245175E+02  0.74110245175E+02  0.00000000000E+00 0.  1.
         21    1    1    2  503  501 -0.18971192768E+02  0.24148557726E+02  0.11946596147E+01  0.30732494316E+02  0.00000000000E+00 0.  1.
         21    1    1    2  504  505 -0.27880273188E+02 -0.37825216902E+02  0.24846838128E+03  0.25287268173E+03  0.00000000000E+00 0.  1.
         21    1    1    2  505  502  0.11466933454E+03  0.29668697290E+02  0.74797840443E+01  0.11868123294E+03  0.00000000000E+00 0.  1.
          2    1    1    2  501    0 -0.67817868582E+02 -0.15992038115E+02  0.78740474045E+03  0.79048164677E+03  0.00000000000E+00 0.  1.
<scales pt_clust_3="30.70927" pt_clust_4="46.69923" pt_clust_5="14000.00000" pt_clust_6="106.56958"></scales>
<clustering>
<clus scale="   30.709">  2  3  1 -1</clus>
<clus scale="   46.699">  1  4  2 -1</clus>
<clus scale="  106.570">  1  6  2 -1</clus>
<clus scale="   30.709">  2  3  1 -1</clus>
</clustering>
</event>
<event>
 6    0  0.3695460E+002  0.1325261E+03  0.7546771E-02  0.1223755E+00
         -1   -1    0    0    0  501 -0.00000000000E+00  0.00000000000E+00  0.45733174599E+03  0.45733174599E+03  0.00000000000E+00 0. -1.
         21   -1    0    0  503  502  0.00000000000E+00 -0.00000000000E+00 -0.99782330314E+02  0.99782330314E+02  0.00000000000E+00 0. -1.
         21    1    1    2  503  504 -0.30874533287E+02  0.16100190859E+02 -0.24245017259E+02  0.42429633670E+02  0.00000000000E+00 0. -1.
         21    1    1    2  504  505  0.28966102150E+02  0.31014826825E+02  0.20516702797E-01  0.42437659899E+02  0.00000000000E+00 0. -1.
         21    1    1    2  505  501  0.12126948850E+03  0.26574394062E+02  0.10766458038E+03  0.16432939216E+03  0.00000000000E+00 0. -1.
         -1    1    1    2    0  502 -0.11936105736E+03 -0.73689411747E+02  0.27410933585E+03  0.30791739057E+03  0.00000000000E+00 0. -1.
<scales pt_clust_3="34.82030" pt_clust_4="40.89426" pt_clust_5="14000.00000" pt_clust_6="132.52608"></scales>
<clustering>
<clus scale="   34.820">  2  3  1 -1</clus>
<clus scale="   40.894">  2  4  1 -1</clus>
<clus scale="  132.526">  1  6  2 -1</clus>
<clus scale="   34.820">  2  3  1 -1</clus>
</clustering>
</event>
<event>
 6    0  0.3695460E+002  0.1574844E+03  0.7546771E-02  0.1191566E+00
         21   -1    0    0  503  502  0.00000000000E+00  0.00000000000E+00  0.29175785578E+03  0.29175785578E+03  0.00000000000E+00 0.  1.
         -3   -1    0    0    0  501 -0.00000000000E+00 -0.00000000000E+00 -0.36846310758E+03  0.36846310758E+03  0.00000000000E+00 0. -1.
         21    1    1    2  503  501 -0.13368519847E+03 -0.21697038071E+02 -0.48464296672E+02  0.14384464468E+03  0.00000000000E+00 0.  1.
         21    1    1    2  504  502 -0.34631263304E+02  0.30662488498E+02  0.53976373865E+02  0.71084186248E+02  0.00000000000E+00 0.  1.
         21    1    1    2  505  504  0.27252084438E+01  0.74530789614E+02  0.13831970521E+03  0.15714517559E+03  0.00000000000E+00 0.  1.
         -3    1    1    2    0  505  0.16559125333E+03 -0.83496240042E+02 -0.22053703420E+03  0.28814695684E+03  0.00000000000E+00 0. -1.
<scales pt_clust_3="157.48445" pt_clust_4="43.33003" pt_clust_5="122.92624" pt_clust_6="14000.00000"></scales>
<clustering>
<clus scale="   43.330">  4  5 -1 -1</clus>
<clus scale="  122.926">  1  4  2 -1</clus>
<clus scale="  157.484">  1  3  2 -1</clus>
<clus scale="  122.926">  1  3  2 -1</clus>
</clustering>
</event>
<event>
 6    0  0.3695460E+002  0.5793618E+02  0.7546771E-02  0.1406703E+00
          2   -1    0    0  505    0 -0.00000000000E+00  0.00000000000E+00  0.12266107093E+04  0.12266107093E+04  0.00000000000E+00 0.  1.
         21   -1    0    0  503  502  0.00000000000E+00 -0.00000000000E+00 -0.52382236588E+03  0.52382236588E+03  0.00000000000E+00 0. -1.
         21    1    1    2  503  501 -0.21878376777E+02 -0.53357345467E+02 -0.46961614608E+03  0.47314373539E+03  0.00000000000E+00 0. -1.
         21    1    1    2  504  502  0.67738338001E+02  0.38791458516E+02 -0.17854529541E+02  0.80075239082E+02  0.00000000000E+00 0.  1.
         21    1    1    2  505  504  0.36499555167E+02 -0.83260771224E+01  0.21675193721E+03  0.21996123152E+03  0.00000000000E+00 0. -1.
          2    1    1    2  501    0 -0.82359516391E+02  0.22891964073E+02  0.97350708186E+03  0.97725286922E+03  0.00000000000E+00 0.  1.
<scales pt_clust_3="14000.00000" pt_clust_4="57.93618" pt_clust_5="37.43716" pt_clust_6="49.33409"></scales>
<clustering>
<clus scale="   37.437">  1  5  2 -1</clus>
<clus scale="   49.334">  1  6  2 -1</clus>
<clus scale="   57.936">  1  4  2 -1</clus>
<clus scale="   57.936">  2  3  1 -1</clus>
</clustering>
</event>
<event>
 6    0  0.3695460E+002  0.1566586E+03  0.7546771E-02  0.1192522E+00
         21   -1    0    0  505  502  0.00000000000E+00  0.00000000000E+00  0.43990176716E+03  0.43990176716E+03  0.00000000000E+00 0. -1.
          1   -1    0    0  503    0 -0.00000000000E+00 -0.00000000000E+00 -0.54940195251E+03  0.54940195251E+03  0.00000000000E+00 0. -1.
         21    1    1    2  503  502 -0.66177019242E+02 -0.50289799701E+02 -0.15904769342E+03  0.17945648668E+03  0.00000000000E+00 0.  1.
         21    1    1    2  504  501  0.92674406115E+02  0.20893892598E+02  0.16453849358E+03  0.18999477932E+03  0.00000000000E+00 0. -1.
         21    1    1    2  505  504  0.51778600936E+02  0.48588333329E+01  0.24508937005E+03  0.25054626536E+03  0.00000000000E+00 0. -1.
          1    1    1    2  501    0 -0.78275987809E+02  0.24537073770E+02 -0.36008035557E+03  0.36930618831E+03  0.00000000000E+00 0. -1.
<scales pt_clust_3="140.67820" pt_clust_4="51.00136" pt_clust_5="51.00136" pt_clust_6="82.03169"></scales>
<clustering>
<clus scale="   51.001">  4  5 -1 -1</clus>
<clus scale="   82.032">  2  6  1 -1</clus>
<clus scale="  140.678">  2  3  1 -1</clus>
<clus scale="  156.659">  1  3  2 -1</clus>
</clustering>
</event>
<event>
 6    0  0.3695460E+002  0.1195559E+03  0.7546771E-02  0.1243831E+00
          2   -1    0    0  502    0 -0.00000000000E+00  0.00000000000E+00  0.36602316348E+04  0.36602316348E+04  0.00000000000E+00 0.  1.
         21   -1    0    0  505  502  0.00000000000E+00 -0.00000000000E+00 -0.14790505373E+02  0.14790505373E+02  0.00000000000E+00 0.  1.
         21    1    1    2  503  501  0.43571060354E+02  0.77900382768E+02  0.30292244064E+03  0.31579884734E+03  0.00000000000E+00 0.  1.
         21    1    1    2  504  503 -0.27601329112E+02  0.16896515782E+02  0.21091181645E+03  0.21338022386E+03  0.00000000000E+00 0.  1.
         21    1    1    2  505  504 -0.46713661787E+01  0.31785660482E+02  0.38574729810E+02  0.50201191760E+02  0.00000000000E+00 0.  1.
          2    1    1    2  501    0 -0.11298365063E+02 -0.12658255903E+03  0.30930321425E+04  0.30956418772E+04  0.00000000000E+00 0.  1.
<scales pt_clust_3="14000.00000" pt_clust_4="35.35477" pt_clust_5="32.12709" pt_clust_6="119.55593"></scales>
<clustering>
<clus scale="   32.127">  2  5  1 -1</clus>
<clus scale="   35.355">  2  4  1 -1</clus>
<clus scale="  119.556">  1  6  2 -1</clus>
<clus scale="   32.127">  2  3  1 -1</clus>
</clustering>
</event>
<event>
 6    0  0.3695460E+002  0.1127207E+03  0.7546771E-02  0.1255613E+00
         21   -1    0    0  501  502  0.00000000000E+00  0.00000000000E+00  0.48653320606E+03  0.48653320606E+03  0.00000000000E+00 0.  1.
          2   -1    0    0  505    0 -0.00000000000E+00 -0.00000000000E+00 -0.23123731695E+04  0.23123731695E+04  0.00000000000E+00 0.  1.
         21    1    1    2  503  502  0.54217917542E+02  0.14600923952E+01  0.18449155132E+03  0.19229884805E+03  0.00000000000E+00 0.  1.
         21    1    1    2  504  503  0.41745011690E+02 -0.37346963157E+02  0.28698885021E+03  0.29240390182E+03  0.00000000000E+00 0.  1.
         21    1    1    2  505  504 -0.10956656317E+03  0.65185179257E+02 -0.48139714935E+03  0.49799312722E+03  0.00000000000E+00 0. -1.
          2    1    1    2  501    0  0.13603633940E+02 -0.29298308494E+02 -0.18159232156E+04  0.18162104985E+04  0.00000000000E+00 0.  1.
<scales pt_clust_3="45.56413" pt_clust_4="45.56413" pt_clust_5="102.76053" pt_clust_6="32.30247"></scales>
<clustering>
<clus scale="   32.302">  2  6  1 -1</clus>
<clus scale="   45.564">  3  4 -1 -1</clus>
<clus scale="  102.761">  2  5  1 -1</clus>
<clus scale="  112.721">  1  3  2 -1</clus>
</clustering>
</event>
<event>
 6    0  0.3695460E+002  0.1205264E+03  0.7546771E-02  0.1242231E+00
          2   -1    0    0  504    0 -0.00000000000E+00  0.00000000000E+00  0.38253845790E+04  0.38253845790E+04  0.00000000000E+00 0. -1.
         21   -1    0    0  503  502  0.00000000000E+00 -0.00000000000E+00 -0.17472033484E+02  0.17472033484E+02  0.00000000000E+00 0.  1.
         21    1    1    2  503  501  0.52572945477E+02  0.27087680943E+02  0.74372649806E+02  0.95020777171E+02  0.00000000000E+00 0.  1.
         21    1    1    2  504  505 -0.26340798908E+02  0.25096569349E+02  0.51204921154E+03  0.51334011194E+03  0.00000000000E+00 0. -1.
         21    1    1    2  505  502  0.81000314159E+02  0.15641961754E+02  0.32769555682E+03  0.33792025660E+03  0.00000000000E+00 0.  1.
          2    1    1    2  501    0 -0.10723246073E+03 -0.67826212046E+02  0.28937951273E+04  0.28965754667E+04  0.00000000000E+00 0. -1.
<scales pt_clust_3="58.84277" pt_clust_4="36.38235" pt_clust_5="14000.00000" pt_clust_6="120.52640"></scales>
<clustering>
<clus scale="   36.382">  1  4  2 -1</clus>
<clus scale="   58.843">  2  3  1 -1</clus>
<clus scale="  120.526">  1  6  2 -1</clus>
<clus scale="   58.843">  2  3  1 -1</clus>
</clustering>
</event>
<event>
 6    0  0.3695460E+002  0.8299171E+02  0.7546771E-02  0.1320770E+00
         -1   -1    0    0    0  501 -0.00000000000E+00  0.00000000000E+00  0.58832616901E+03  0.58832616901E+03  0.00000000000E+00 0.  1.
         21   -1    0    0  505  502  0.00000000000E+00 -0.00000000000E+00 -0.96016395542E+02  0.96016395542E+02  0.00000000000E+00 0.  1.
         21    1    1    2  503  504 -0.73276759710E+02  0.15859028822E+02 -0.18322309241E+01  0.74995662401E+02  0.00000000000E+00 0.  1.
         21    1    1    2  504  502 -0.46054657382E+01  0.31081224552E+02 -0.34576232092E+02  0.46720109803E+02  0.00000000000E+00 0.  1.
         21    1    1    2  505  501  0.44799699519E+02 -0.86221927812E+02  0.13932103707E+03  0.16985754409E+03  0.00000000000E+00 0. -1.
         -1    1    1    2    0  503  0.33082525930E+02  0.39281674438E+02  0.38939719942E+03  0.39276924826E+03  0.00000000000E+00 0.  1.
<scales pt_clust_3="82.99171" pt_clust_4="31.42058" pt_clust_5="14000.00000" pt_clust_6="51.99516"></scales>
<clustering>
<clus scale="   31.421">  2  4  1 -1</clus>
<clus scale="   51.995">  1  6  2 -1</clus>
<clus scale="   82.992">  2  3  1 -1</clus>
<clus scale="   31.421">  2  3  1 -1</clus>
</clustering>
</event>
<event>
 6    0  0.3695460E+002  0.8417837E+02  0.7546771E-02  0.1317595E+00
          2   -1    0    0  505    0 -0.00000000000E+00  0.00000000000E+00  0.13281232985E+04  0.13281232985E+04  0.00000000000E+00 0.  1.
         21   -1    0    0  504  502  0.00000000000E+00 -0.00000000000E+00 -0.37726462098E+02  0.37726462098E+02  0.00000000000E+00 0. -1.
         21    1    1    2  503  501  0.41620613605E+02 -0.77045777169E+02  0.40784738481E+02  0.96600839279E+02  0.00000000000E+00 0. -1.
         21    1    1    2  504  503  0.15400467143E+02 -0.32577103917E+02  0.86680035046E+02  0.93871564190E+02  0.00000000000E+00 0.  1.
         21    1    1    2  505  502  0.76307662411E+01  0.55471472735E+02  0.17247801591E+03  0.18133940237E+03  0.00000000000E+00 0. -1.
          2    1    1    2  501    0 -0.64651846989E+02  0.54151408351E+02  0.99045404700E+03  0.99403795480E+03  0.00000000000E+00 0.  1.
<scales pt_clust_3="84.17837" pt_clust_4="36.03390" pt_clust_5="52.13949" pt_clust_6="14000.00000"></scales>
<clustering>
<clus scale="   36.034">  2  4  1 -1</clus>
<clus scale="   52.139">  2  5  1 -1</clus>
<clus scale="   84.178">  2  3  1 -1</clus>
<clus scale="   36.034">  2  3  1 -1</clus>
</clustering>
</event>
<event>
 6    0  0.3695460E+002  0.8601501E+02  0.7546771E-02  0.1312799E+00
         21   -1    0    0  504  502  0.00000000000E+00  0.00000000000E+00  0.75717180887E+02  0.75717180887E+02  0.00000000000E+00 0. -1.
          2   -1    0    0  505    0 -0.00000000000E+00 -0.00000000000E+00 -0.20435779231E+04  0.20435779231E+04  0.00000000000E+00 0.  1.
         21    1    1    2  503  502  0.62790096505E+01  0.81884511872E+02 -0.21867264573E+03  0.23358558439E+03  0.00000000000E+00 0. -1.
         21    1    1    2  504  501  0.73655670111E+02 -0.13071170865E+02  0.42062386998E+02  0.85821079271E+02  0.00000000000E+00 0. -1.
         21    1    1    2  505  503 -0.27492697827E+00 -0.42350613954E+02 -0.13444212888E+03  0.14095508541E+03  0.00000000000E+00 0. -1.
          2    1    1    2  501    0 -0.79659752783E+02 -0.26462727054E+02 -0.16568083546E+04  0.16589333549E+04  0.00000000000E+00 0.  1.
<scales pt_clust_3="86.01501" pt_clust_4="74.88988" pt_clust_5="42.35151" pt_clust_6="14000.00000"></scales>
<clustering>
<clus scale="   42.352">  2  5  1 -1</clus>
<clus scale="   74.890">  1  4  2 -1</clus>
<clus scale="   86.015">  1  3  2 -1</clus>
<clus scale="   74.890">  1  3  2 -1</clus>
</clustering>
</event>
<event>
 6    0  0.3695460E+002  0.1681105E+03  0.7546771E-02  0.1179833E+00
         -2   -1    0    0    0  501 -0.00000000000E+00  0.00000000000E+00  0.56640462713E+02  0.56640462713E+02  0.00000000000E+00 0.  1.
         21   -1    0    0  503  502  0.00000000000E+00 -0.00000000000E+00 -0.79795133529E+03  0.79795133529E+03  0.00000000000E+00 0. -1.
         21    1    1    2  503  505  0.34814070141E+01  0.79736955577E+02 -0.40158930747E+03  0.40944361535E+03  0.00000000000E+00 0. -1.
         21    1    1    2  504  502 -0.34593045325E+01 -0.47755589358E+02 -0.59324549883E+02  0.76236246771E+02  0.00000000000E+00 0. -1.
         21    1    1    2  505  501  0.28340469676E+00  0.81757262324E+02 -0.23075691531E+03  0.24481234492E+03  0.00000000000E+00 0. -1.
         -2    1    1    2    0  504 -0.30550717834E+00 -0.11373862854E+03 -0.49640099915E+02  0.12409959096E+03  0.00000000000E+00 0.  1.
<scales pt_clust_3="45.21875" pt_clust_4="30.20053" pt_clust_5="167.89615" pt_clust_6="30.20053"></scales>
<clustering>
<clus scale="   30.201">  4  6 -1 -1</clus>
<clus scale="   45.219">  3  5 -1 -1</clus>
<clus scale="  167.896">  2  3  1 -1</clus>
<clus scale="  167.896">  2  3  1 -1</clus>
</clustering>
</event>
<event>
 6    0  0.3695460E+002  0.1488262E+03  0.7546771E-02  0.1201923E+00
          1   -1    0    0  504    0 -0.00000000000E+00  0.00000000000E+00  0.26578025763E+03  0.26578025763E+03  0.00000000000E+00 0.  1.
         21   -1    0    0  503  502  0.00000000000E+00 -0.00000000000E+00 -0.14211695977E+03  0.14211695977E+03  0.00000000000E+00 0. -1.
         21    1    1    2  503  501  0.51532155194E+02  0.41462509583E+02  0.11264714936E+03  0.13062956395E+03  0.00000000000E+00 0.  1.
         21    1    1    2  504  505 -0.30720979953E+02 -0.44409971399E+02 -0.85265529453E+01  0.54669244316E+02  0.00000000000E+00 0. -1.
         21    1    1    2  505  502 -0.88736715331E+02 -0.16297646260E+02 -0.65926691862E+02  0.11174142751E+03  0.00000000000E+00 0. -1.
          1    1    1    2  501    0  0.67925540090E+02  0.19245108076E+02  0.85469393308E+02  0.11085698162E+03  0.00000000000E+00 0.  1.
<scales pt_clust_3="32.24815" pt_clust_4="50.10041" pt_clust_5="50.10041" pt_clust_6="138.07819"></scales>
<clustering>
<clus scale="   32.248">  3  6 -1 -1</clus>
<clus scale="   50.100">  4  5 -1 -1</clus>
<clus scale="  138.078">  1  3  2 -1</clus>
<clus scale="  148.826">  2  3  1 -1</clus>
</clustering>
</event>
<event>
 6    0  0.3695460E+002  0.1505574E+03  0.7546771E-02  0.1199790E+00
          2   -1    0    0  503    0 -0.00000000000E+00  0.00000000000E+00  0.24824570473E+03  0.24824570473E+03  0.00000000000E+00 0.  1.
         21   -1    0    0  504  502  0.00000000000E+00 -0.00000000000E+00 -0.40968565721E+03  0.40968565721E+03  0.00000000000E+00 0.  1.
         21    1    1    2  503  502 -0.69039893738E+02 -0.13375368566E+03 -0.32667977791E+03  0.35968907775E+03  0.00000000000E+00 0.  1.
         21    1    1    2  504  505  0.86318383919E+02  0.27963124608E+02  0.65241167017E+01  0.90969026811E+02  0.00000000000E+00 0. -1.
         21    1    1    2  505  501  0.10280606574E+02  0.33766053509E+02  0.54699642351E+01  0.35717751187E+02  0.00000000000E+00 0. -1.
          2    1    1    2  501    0 -0.27559096755E+02  0.72024507542E+02  0.15324574450E+03  0.17155550620E+03  0.00000000000E+00 0.  1.
<scales pt_clust_3="141.08046" pt_clust_4="32.78942" pt_clust_5="32.78942" pt_clust_6="77.11701"></scales>
<clustering>
<clus scale="   32.789">  4  5 -1 -1</clus>
<clus scale="   77.117">  1  6  2 -1</clus>
<clus scale="  141.080">  2  3  1 -1</clus>
<clus scale="  141.080">  2  3  1 -1</clus>
</clustering>
</event>
<event>
 6    0  0.3695460E+002  0.1516116E+03  0.7546771E-02  0.1198507E+00
          2   -1    0    0  502    0 -0.00000000000E+00  0.00000000000E+00  0.12722817986E+04  0.12722817986E+04  0.00000000000E+00 0.  1.
         21   -1    0    0  503  502  0.00000000000E+00 -0.00000000000E+00 -0.62714106427E+02  0.62714106427E+02  0.00000000000E+00 0. -1.
         21    1    1    2  503  505 -0.30001630491E+02 -0.79314025650E+02 -0.14921906086E+01  0.84811786503E+02  0.00000000000E+00 0. -1.
         21    1    1    2  504  501  0.20011321322E+01  0.36878783904E+02  0.15737472400E+03  0.16165040361E+03  0.00000000000E+00 0.  1.
         21    1    1    2  505  504 -0.71969418673E+01 -0.57316276014E+02  0.42215400752E+02  0.71547826865E+02  0.00000000000E+00 0. -1.
          2    1    1    2  501    0  0.35197440226E+02  0.99751517761E+02  0.10114697580E+04  0.10169858881E+04  0.00000000000E+00 0.  1.
<scales pt_clust_3="150.96340" pt_clust_4="32.00925" pt_clust_5="43.19063" pt_clust_6="32.00925"></scales>
<clustering>
<clus scale="   32.009">  4  6 -1 -1</clus>
<clus scale="   43.191">  3  5 -1 -1</clus>
<clus scale="  150.963">  2  3  1 -1</clus>
<clus scale="  150.963">  2  3  1 -1</clus>
</clustering>
</event>
<event>
 6    0  0.3695460E+002  0.7093091E+02  0.7546771E-02  0.1356956E+00
         -1   -1    0    0    0  501 -0.00000000000E+00  0.00000000000E+00  0.58303645733E+03  0.58303645733E+03  0.00000000000E+00 0. -1.
         21   -1    0    0  505  502  0.00000000000E+00 -0.00000000000E+00 -0.35729946619E+03  0.35729946619E+03  0.00000000000E+00 0. -1.
         21    1    1    2  503  502  0.65902713833E+02  0.28720356332E+01 -0.28418683928E+03  0.29174231078E+03  0.00000000000E+00 0. -1.
         21    1    1    2  504  503 -0.93118212763E+02 -0.27463335457E+02  0.25852649405E+03  0.27615427657E+03  0.00000000000E+00 0. -1.
         21    1    1    2  505  501 -0.19226459176E+01 -0.34545343250E+02 -0.51725540964E+02  0.62230289214E+02  0.00000000000E+00 0. -1.
         -1    1    1    2    0  504  0.29138144848E+02  0.59136643074E+02  0.30312287734E+03  0.31020904695E+03  0.00000000000E+00 0. -1.
<scales pt_clust_3="70.93091" pt_clust_4="14000.00000" pt_clust_5="34.59881" pt_clust_6="65.55010"></scales>
<clustering>
<clus scale="   34.599">  2  5  1 -1</clus>
<clus scale="   65.550">  1  6  2 -1</clus>
<clus scale="   70.931">  2  3  1 -1</clus>
<clus scale="   34.599">  2  3  1 -1</clus>
</clustering>
</event>
<event>
 6    0  0.3695460E+002  0.1634020E+03  0.7546771E-02  0.1184909E+00
         21   -1    0    0  501  502  0.00000000000E+00  0.00000000000E+00  0.22508991850E+03  0.22508991850E+03  0.00000000000E+00 0.  1.
          4   -1    0    0  503    0 -0.00000000000E+00 -0.00000000000E+00 -0.64963453672E+03  0.64963453672E+03  0.00000000000E+00 0.  1.
         21    1    1    2  503  504  0.64509585052E+02  0.12246953626E+02 -0.91034139679E+02  0.11224388190E+03  0.00000000000E+00 0.  1.
         21    1    1    2  504  505 -0.49196670901E+02 -0.27367140462E+01  0.23150270172E+02  0.54440215288E+02  0.00000000000E+00 0.  1.
         21    1    1    2  505  502 -0.10880198346E+03 -0.14953029901E+02  0.15384120528E+03  0.18902005488E+03  0.00000000000E+00 0.  1.
          4    1    1    2  501    0  0.93489069307E+02  0.54427903212E+01 -0.51050195399E+03  0.51902030314E+03  0.00000000000E+00 0.  1.
<scales pt_clust_3="65.66182" pt_clust_4="34.61330" pt_clust_5="34.61330" pt_clust_6="155.01547"></scales>
<clustering>
<clus scale="   34.613">  4  5 -1 -1</clus>
<clus scale="   65.662">  2  3  1 -1</clus>
<clus scale="  155.015">  2  6  1 -1</clus>
<clus scale="  163.402">  1  3  2 -1</clus>
</clustering>
</event>
<event>
 6    0  0.3695460E+002  0.9110274E+02  0.7546771E-02  0.1300203E+00
         21   -1    0    0  505  502  0.00000000000E+00  0.00000000000E+00  0.51065006015E+02  0.51065006015E+02  0.00000000000E+00 0. -1.
          2   -1    0    0  503    0 -0.00000000000E+00 -0.00000000000E+00 -0.94532031314E+03  0.94532031314E+03  0.00000000000E+00 0.  1.
         21    1    1    2  503  502  0.51757540890E+02 -0.65606114764E+02 -0.23126578173E+02  0.86705501275E+02  0.00000000000E+00 0. -1.
         21    1    1    2  504  501  0.78896347144E+02  0.40353517995E+02 -0.18282152847E+03  0.20316680654E+03  0.00000000000E+00 0. -1.
         21    1    1    2  505  504 -0.35312444309E+02  0.16702019692E+02 -0.64520241053E+02  0.75424052466E+02  0.00000000000E+00 0. -1.
          2    1    1    2  501    0 -0.95341443725E+02  0.85505770766E+01 -0.62378695942E+03  0.63108895887E+03  0.00000000000E+00 0.  1.
<scales pt_clust_3="60.40921" pt_clust_4="91.10274" pt_clust_5="39.06311" pt_clust_6="14000.00000"></scales>
<clustering>
<clus scale="   39.063">  1  5  2 -1</clus>
<clus scale="   60.409">  1  3  2 -1</clus>
<clus scale="   91.103">  1  4  2 -1</clus>
<clus scale="   39.063">  1  3  2 -1</clus>
</clustering>
</event>
<event>
 6    0  0.3695460E+002  0.1693411E+03  0.7546771E-02  0.1178537E+00
         21   -1    0    0  503  502  0.00000000000E+00  0.00000000000E+00  0.10652567675E+03  0.10652567675E+03  0.00000000000E+00 0. -1.
          1   -1    0    0  505    0 -0.00000000000E+00 -0.00000000000E+00 -0.13217237008E+04  0.13217237008E+04  0.00000000000E+00 0. -1.
         21    1    1    2  503  504  0.17367786579E+02 -0.25673452336E+02 -0.17602578010E+02  0.35645713881E+02  0.00000000000E+00 0.  1.
         21    1    1    2  504  501 -0.12896636346E+02  0.61721738491E+02 -0.63273999803E+03  0.63587404518E+03  0.00000000000E+00 0. -1.
         21    1    1    2  505  502 -0.93568947553E+01 -0.13830545983E+03  0.39202348065E+02  0.14405823750E+03  0.00000000000E+00 0. -1.
          1    1    1    2  501    0  0.48857445222E+01  0.10225717368E+03 -0.60405779610E+03  0.61267138100E+03  0.00000000000E+00 0. -1.
<scales pt_clust_3="30.99623" pt_clust_4="37.23736" pt_clust_5="162.58154" pt_clust_6="37.23736"></scales>
<clustering>
<clus scale="   30.996">  1  3  2 -1</clus>
<clus scale="   37.237">  4  6 -1 -1</clus>
<clus scale="  162.582">  1  5  2 -1</clus>
<clus scale="   30.996">  1  3  2 -1</clus>
</clustering>
</event>
<event>
 6    0  0.3695460E+002  0.1213711E+03  0.7546771E-02  0.1240852E+00
         21   -1    0    0  503  502  0.00000000000E+00  0.00000000000E+00  0.14628667470E+03  0.14628667470E+03  0.00000000000E+00 0. -1.
          2   -1    0    0  504    0 -0.00000000000E+00 -0.00000000000E+00 -0.19988383735E+04  0.19988383735E+04  0.00000000000E+00 0.  1.
         21    1    1    2  503  505 -0.85726776214E+01 -0.33295265212E+02 -0.13307072599E+02  0.36866565724E+02  0.00000000000E+00 0. -1.
         21    1    1    2  504  502  0.28828083727E+02 -0.12256061803E+03  0.91234420139E+02  0.15548595731E+03  0.00000000000E+00 0. -1.
         21    1    1    2  505  501  0.12223091814E+02  0.38983489707E+02 -0.36115465212E+02  0.54529288192E+02  0.00000000000E+00 0.  1.
          2    1    1    2  501    0 -0.32478497920E+02  0.11687239354E+03 -0.18943635811E+04  0.18982432370E+04  0.00000000000E+00 0.  1.
<scales pt_clust_3="34.38118" pt_clust_4="14000.00000" pt_clust_5="38.50481" pt_clust_6="121.37106"></scales>
<clustering>
<clus scale="   34.381">  1  3  2 -1</clus>
<clus scale="   38.505">  1  5  2 -1</clus>
<clus scale="  121.371">  2  6  1 -1</clus>
<clus scale="   34.381">  1  3  2 -1</clus>
</clustering>
</event>
<event>
 6    0  0.3695460E+002  0.1038186E+03  0.7546771E-02  0.1272465E+00
         21   -1    0    0  504  502  0.00000000000E+00  0.00000000000E+00  0.70737804956E+03  0.70737804956E+03  0.00000000000E+00 0. -1.
          2   -1    0    0  505    0 -0.00000000000E+00 -0.00000000000E+00 -0.61839388848E+03  0.61839388848E+03  0.00000000000E+00 0.  1.
         21    1    1    2  503  502  0.37753761422E+02 -0.43028261281E+02  0.38017379428E+02  0.68717529852E+02  0.00000000000E+00 0. -1.
         21    1    1    2  504  501 -0.25659767202E+02  0.14319806342E+03  0.62849865125E+03  0.64511600790E+03  0.00000000000E+00 0. -1.
         21    1    1    2  505  503 -0.23656850466E+02  0.47891111057E+02 -0.13687236283E+03  0.14692599769E+03  0.00000000000E+00 0.  1.
          2    1    1    2  501    0  0.11562856245E+02 -0.14806091320E+03 -0.44065950677E+03  0.46501240260E+03  0.00000000000E+00 0.  1.
<scales pt_clust_3="55.58262" pt_clust_4="14000.00000" pt_clust_5="53.41540" pt_clust_6="103.81862"></scales>
<clustering>
<clus scale="   53.415">  2  5  1 -1</clus>
<clus scale="   55.583">  1  3  2 -1</clus>
<clus scale="  103.819">  2  6  1 -1</clus>
<clus scale="   55.583">  1  3  2 -1</clus>
</clustering>
</event>
<event>
 6    0  0.3695460E+002  0.1141809E+03  0.7546771E-02  0.1253018E+00
         21   -1    0    0  505  502  0.00000000000E+00  0.00000000000E+00  0.18251123796E+03  0.18251123796E+03  0.00000000000E+00 0.  1.
         -1   -1    0    0    0  501 -0.00000000000E+00 -0.00000000000E+00 -0.19562853068E+04  0.19562853068E+04  0.00000000000E+00 0.  1.
         21    1    1    2  503  501 -0.40806799574E+02 -0.11138708865E+02 -0.16962044965E+03  0.17481522435E+03  0.00000000000E+00 0.  1.
         21    1    1    2  504  503  0.36013822622E+02  0.40129552284E+02 -0.88622120696E+02  0.10373647701E+03  0.00000000000E+00 0.  1.
         21    1    1    2  505  504  0.98804043165E+02  0.56992932264E+02  0.15078358041E+03  0.18906644704E+03  0.00000000000E+00 0.  1.
         -1    1    1    2    0  502 -0.94011066213E+02 -0.85983775683E+02 -0.16663150789E+04  0.16711783963E+04  0.00000000000E+00 0.  1.
<scales pt_clust_3="42.29971" pt_clust_4="52.01854" pt_clust_5="14000.00000" pt_clust_6="114.18090"></scales>
<clustering>
<clus scale="   42.300">  2  3  1 -1</clus>
<clus scale="   52.019">  2  4  1 -1</clus>
<clus scale="  114.181">  2  6  1 -1</clus>
<clus scale="  114.181">  1  3  2 -1</clus>
</clustering>
</event>
<event>
 6    0  0.3695460E+002  0.9623082E+02  0.7546771E-02  0.1288428E+00
          1   -1    0    0  503    0 -0.00000000000E+00  0.00000000000E+00  0.25049425324E+03  0.25049425324E+03  0.00000000000E+00 0. -1.
         21   -1    0    0  501  502  0.00000000000E+00 -0.00000000000E+00 -0.33042702997E+03  0.33042702997E+03  0.00000000000E+00 0. -1.
         21    1    1    2  503  504  0.46102975664E+02  0.96411958100E+01  0.25869021900E+02  0.53736796665E+02  0.00000000000E+00 0. -1.
         21    1    1    2  504  505 -0.14068101150E+02  0.54198223417E+02 -0.24305764085E+03  0.24942408799E+03  0.00000000000E+00 0. -1.
         21    1    1    2  505  502 -0.27937856511E+02  0.38125118256E+02 -0.47301743729E+02  0.66869301090E+02  0.00000000000E+00 0. -1.
          1    1    1    2  501    0 -0.40970180027E+01 -0.10196453748E+03  0.18455758595E+03  0.21089109747E+03  0.00000000000E+00 0. -1.
<scales pt_clust_3="47.10029" pt_clust_4="96.23082" pt_clust_5="46.40418" pt_clust_6="14000.00000"></scales>
<clustering>
<clus scale="   47.100">  1  3  2 -1</clus>
<clus scale="   46.404">  2  5  1 -1</clus>
<clus scale="   96.231">  2  4  1 -1</clus>
<clus scale="   46.404">  2  3  1 -1</clus>
</clustering>
</event>
<event>
 6    0  0.3695460E+002  0.2018556E+03  0.7546771E-02  0.1148183E+00
         21   -1    0    0  504  502  0.00000000000E+00  0.00000000000E+00  0.18789516660E+03  0.18789516660E+03  0.00000000000E+00 0.  1.
          1   -1    0    0  505    0 -0.00000000000E+00 -0.00000000000E+00 -0.66863773281E+03  0.66863773281E+03  0.00000000000E+00 0.  1.
         21    1    1    2  503  501 -0.45059154973E+02  0.94171180973E+02 -0.24748693127E+03  0.26860439297E+03  0.00000000000E+00 0.  1.
         21    1    1    2  504  503  0.66421900828E+02 -0.11478604292E+03  0.74866431452E+02  0.15229145452E+03  0.00000000000E+00 0.  1.
         21    1    1    2  505  502 -0.50516185233E+02 -0.81471221931E+02  0.13626249023E+02  0.96825201450E+02  0.00000000000E+00 0.  1.
          1    1    1    2  501    0  0.29153439378E+02  0.10208608388E+03 -0.32174831541E+03  0.33881185047E+03  0.00000000000E+00 0.  1.
<scales pt_clust_3="77.80181" pt_clust_4="185.98346" pt_clust_5="95.86159" pt_clust_6="77.80181"></scales>
<clustering>
<clus scale="   77.802">  3  6 -1 -1</clus>
<clus scale="   95.862">  1  5  2 -1</clus>
<clus scale="  185.983">  1  4  2 -1</clus>
<clus scale="   95.862">  1  3  2 -1</clus>
</clustering>
</event>
<event>
 6    0  0.3695460E+002  0.1189190E+03  0.7546771E-02  0.1244891E+00
         21   -1    0    0  504  502  0.00000000000E+00  0.00000000000E+00  0.32398381011E+03  0.32398381011E+03  0.00000000000E+00 0. -1.
          1   -1    0    0  503    0 -0.00000000000E+00 -0.00000000000E+00 -0.40620400451E+03  0.40620400451E+03  0.00000000000E+00 0. -1.
         21    1    1    2  503  502 -0.26687154366E+02 -0.20054585103E+02 -0.51793921239E+02  0.61619809064E+02  0.00000000000E+00 0. -1.
         21    1    1    2  504  505  0.39521726117E+02 -0.14509539915E+02  0.43842436897E+02  0.60783656166E+02  0.00000000000E+00 0. -1.
         21    1    1    2  505  501  0.82104096800E+02  0.28460827986E+02  0.25271738256E+03  0.26723992383E+03  0.00000000000E+00 0. -1.
          1    1    1    2  501    0 -0.94938668551E+02  0.61032970321E+01 -0.32698609261E+03  0.34054442557E+03  0.00000000000E+00 0. -1.
<scales pt_clust_3="33.38249" pt_clust_4="41.66686" pt_clust_5="118.91898" pt_clust_6="14000.00000"></scales>
<clustering>
<clus scale="   33.382">  2  3  1 -1</clus>
<clus scale="   41.667">  1  4  2 -1</clus>
<clus scale="  118.919">  1  5  2 -1</clus>
<clus scale="   41.667">  1  3  2 -1</clus>
</clustering>
</event>
<event>
 6    0  0.3695460E+002  0.1022011E+03  0.7546771E-02  0.1275734E+00
          2   -1    0    0  505    0 -0.00000000000E+00  0.00000000000E+00  0.72748790937E+03  0.72748790937E+03  0.00000000000E+00 0.  1.
         21   -1    0    0  504  502  0.00000000000E+00 -0.00000000000E+00 -0.89229359771E+02  0.89229359771E+02  0.00000000000E+00 0.  1.
         21    1    1    2  503  501  0.99378108977E+02  0.68463619971E+02  0.39091638781E+03  0.40911966227E+03  0.00000000000E+00 0. -1.
         21    1    1    2  504  503 -0.25793614518E+02 -0.52905851291E+02 -0.61856479782E+01  0.59182783744E+02  0.00000000000E+00 0.  1.
         21    1    1    2  505  502 -0.77100005540E+02  0.20387939303E+02 -0.11819125223E+02  0.80621155067E+02  0.00000000000E+00 0.  1.
          2    1    1    2  501    0  0.35155110812E+01 -0.35945707983E+02  0.26534693499E+03  0.26779366806E+03  0.00000000000E+00 0.  1.
<scales pt_clust_3="14000.00000" pt_clust_4="60.63737" pt_clust_5="102.20105" pt_clust_6="36.11721"></scales>
<clustering>
<clus scale="   36.117">  1  6  2 -1</clus>
<clus scale="   60.637">  2  4  1 -1</clus>
<clus scale="  102.201">  2  5  1 -1</clus>
<clus scale="   60.637">  2  3  1 -1</clus>
</clustering>
</event>
<event>
 6    0  0.3695460E+002  0.1556860E+03  0.7546771E-02  0.1193655E+00
          2   -1    0    0  504    0 -0.00000000000E+00  0.00000000000E+00  0.44482723286E+04  0.44482723286E+04  0.00000000000E+00 0.  1.
         21   -1    0    0  503  502  0.00000000000E+00 -0.00000000000E+00 -0.25659119992E+02  0.25659119992E+02  0.00000000000E+00 0. -1.
         21    1    1    2  503  501  0.34467864059E+02  0.35163613136E+02  0.80413309142E+03  0.80563921333E+03  0.00000000000E+00 0. -1.
         21    1    1    2  504  505 -0.11322354153E+03 -0.27930281202E+02  0.13152940122E+03  0.17578297514E+03  0.00000000000E+00 0. -1.
         21    1    1    2  505  502 -0.18447186469E+02 -0.26355850219E+02  0.12417216214E+03  0.12827180274E+03  0.00000000000E+00 0. -1.
          2    1    1    2  501    0  0.97202863943E+02  0.19122518284E+02  0.33627785538E+04  0.33642374573E+04  0.00000000000E+00 0.  1.
<scales pt_clust_3="46.63198" pt_clust_4="140.72496" pt_clust_5="32.17032" pt_clust_6="46.63198"></scales>
<clustering>
<clus scale="   32.170">  2  5  1 -1</clus>
<clus scale="   46.632">  3  6 -1 -1</clus>
<clus scale="  140.725">  2  4  1 -1</clus>
<clus scale="   32.170">  2  3  1 -1</clus>
</clustering>
</event>
<event>
 6    0  0.3695460E+002  0.2355563E+03  0.7546771E-02  0.1122789E+00
         21   -1    0    0  503  502  0.00000000000E+00  0.00000000000E+00  0.80700210089E+03  0.80700210089E+03  0.00000000000E+00 0. -1.
          1   -1    0    0  504    0 -0.00000000000E+00 -0.00000000000E+00 -0.22557806282E+04  0.22557806282E+04  0.00000000000E+00 0.  1.
         21    1    1    2  503  505  0.64294580045E+02  0.79831135332E+02  0.30272455067E+03  0.31960750425E+03  0.00000000000E+00 0. -1.
         21    1    1    2  504  502 -0.26816500281E+02 -0.38870491806E+02 -0.19117155685E+03  0.19691775941E+03  0.00000000000E+00 0.  1.
         21    1    1    2  505  501  0.47096833145E+02  0.12366659676E+03  0.47981708729E+03  0.49773082696E+03  0.00000000000E+00 0.  1.
          1    1    1    2  501    0 -0.84574912908E+02 -0.16462724029E+03 -0.20401486084E+04  0.20485266384E+04  0.00000000000E+00 0.  1.
<scales pt_clust_3="37.86678" pt_clust_4="47.22330" pt_clust_5="37.86678" pt_clust_6="231.59365"></scales>
<clustering>
<clus scale="   37.867">  3  5 -1 -1</clus>
<clus scale="   47.223">  2  4  1 -1</clus>
<clus scale="  231.594">  2  6  1 -1</clus>
<clus scale="  235.556">  1  3  2 -1</clus>
</clustering>
</event>
<event>
 6    0  0.3695460E+002  0.7646342E+02  0.7546771E-02  0.1339398E+00
          2   -1    0    0  503    0 -0.00000000000E+00  0.00000000000E+00  0.65718659912E+03  0.65718659912E+03  0.00000000000E+00 0. -1.
         21   -1    0    0  504  502  0.00000000000E+00 -0.00000000000E+00 -0.14679440607E+03  0.14679440607E+03  0.00000000000E+00 0. -1.
         21    1    1    2  503  505  0.19536166004E+02 -0.10520928500E+03  0.90347260462E+02  0.14004743091E+03  0.00000000000E+00 0. -1.
         21    1    1    2  504  501  0.40633269958E+01  0.32145370541E+02  0.16875834286E+02  0.36532578014E+02  0.00000000000E+00 0.  1.
         21    1    1    2  505  502  0.40291174064E+02  0.31361694301E+02 -0.10329361015E+03  0.11522371490E+03  0.00000000000E+00 0. -1.
          2    1    1    2  501    0 -0.63890667064E+02  0.41702220158E+02  0.50646270845E+03  0.51217728138E+03  0.00000000000E+00 0. -1.
<scales pt_clust_3="14000.00000" pt_clust_4="32.40116" pt_clust_5="71.72562" pt_clust_6="76.46342"></scales>
<clustering>
<clus scale="   32.401">  2  4  1 -1</clus>
<clus scale="   71.726">  2  5  1 -1</clus>
<clus scale="   76.463">  1  6  2 -1</clus>
<clus scale="   32.401">  2  3  1 -1</clus>
</clustering>
</event>
<event>
 6    0  0.3695460E+002  0.1394248E+03  0.7546771E-02  0.1214105E+00
          2   -1    0    0  502    0 -0.00000000000E+00  0.00000000000E+00  0.85976598159E+03  0.85976598159E+03  0.00000000000E+00 0. -1.
         21   -1    0    0  505  502  0.00000000000E+00 -0.00000000000E+00 -0.54637166332E+03  0.54637166332E+03  0.00000000000E+00 0. -1.
         21    1    1    2  503  504 -0.53256214765E+02  0.25123514712E+02 -0.15772873800E+03  0.16836202124E+03  0.00000000000E+00 0. -1.
         21    1    1    2  504  501  0.46724274322E+02 -0.82166819804E+02  0.57251113461E+03  0.58026161629E+03  0.00000000000E+00 0. -1.
         21    1    1    2  505  503 -0.55792149966E+02  0.50876501430E+02 -0.37208388653E+03  0.37966775081E+03  0.00000000000E+00 0. -1.
          2    1    1    2  501    0  0.62324090410E+02  0.61668036615E+01  0.27069580819E+03  0.27784625656E+03  0.00000000000E+00 0. -1.
<scales pt_clust_3="39.17291" pt_clust_4="132.18025" pt_clust_5="39.17291" pt_clust_6="62.62844"></scales>
<clustering>
<clus scale="   39.173">  3  5 -1 -1</clus>
<clus scale="   62.628">  1  6  2 -1</clus>
<clus scale="  132.180">  1  4  2 -1</clus>
<clus scale="  139.425">  2  3  1 -1</clus>
</clustering>
</event>
<event>
 6    0  0.3695460E+002  0.1583939E+03  0.7546771E-02  0.1190522E+00
         21   -1    0    0  503  502  0.00000000000E+00  0.00000000000E+00  0.74699474754E+02  0.74699474754E+02  0.00000000000E+00 0. -1.
          3   -1    0    0  502    0 -0.00000000000E+00 -0.00000000000E+00 -0.38341654999E+03  0.38341654999E+03  0.00000000000E+00 0. -1.
         21    1    1    2  503  504 -0.85313415897E+02 -0.63804707471E+02 -0.74365993176E+02  0.12992197877E+03  0.00000000000E+00 0. -1.
         21    1    1    2  504  505 -0.36682433188E+02 -0.21184377738E+02  0.56499703648E+01  0.42735242247E+02  0.00000000000E+00 0. -1.
         21    1    1    2  505  501  0.51409543590E+02  0.17411645188E+02 -0.11162641411E+03  0.12412317627E+03  0.00000000000E+00 0. -1.
          3    1    1    2  501    0  0.70586305495E+02  0.67577440021E+02 -0.12837463832E+03  0.16133562745E+03  0.00000000000E+00 0. -1.
<scales pt_clust_3="34.43696" pt_clust_4="34.43696" pt_clust_5="31.44432" pt_clust_6="154.55169"></scales>
<clustering>
<clus scale="   31.444">  5  6 -1 -1</clus>
<clus scale="   34.437">  3  4 -1 -1</clus>
<clus scale="  154.552">  2  5  1 -1</clus>
<clus scale="  158.394">  1  3  2 -1</clus>
</clustering>
</event>
<event>
 6    0  0.3695460E+002  0.1950919E+03  0.7546771E-02  0.1153947E+00
          2   -1    0    0  503    0 -0.00000000000E+00  0.00000000000E+00  0.89383290587E+03  0.89383290587E+03  0.00000000000E+00 0.  1.
         21   -1    0    0  504  502  0.00000000000E+00 -0.00000000000E+00 -0.48656122594E+03  0.48656122594E+03  0.00000000000E+00 0. -1.
         21    1    1    2  503  505  0.21673886073E+03 -0.40170308165E+02 -0.35919278601E+03  0.42143664403E+03  0.00000000000E+00 0. -1.
         21    1    1    2  504  501 -0.90037748486E+02  0.24862865218E+02  0.30621713556E+03  0.32014667315E+03  0.00000000000E+00 0.  1.
         21    1    1    2  505  502 -0.34296670915E+02  0.54748967780E+00 -0.81823572269E+02  0.88722366739E+02  0.00000000000E+00 0. -1.
          2    1    1    2  501    0 -0.92404441330E+02  0.14759953269E+02  0.54207090265E+03  0.55008844789E+03  0.00000000000E+00 0.  1.
<scales pt_clust_3="187.61503" pt_clust_4="53.47292" pt_clust_5="34.30104" pt_clust_6="53.47292"></scales>
<clustering>
<clus scale="   34.301">  2  5  1 -1</clus>
<clus scale="   53.473">  4  6 -1 -1</clus>
<clus scale="  187.615">  2  3  1 -1</clus>
<clus scale="   34.301">  2  3  1 -1</clus>
</clustering>
</event>
<event>
 6    0  0.3695460E+002  0.1502291E+03  0.7546771E-02  0.1200192E+00
          1   -1    0    0  505    0 -0.00000000000E+00  0.00000000000E+00  0.20770197797E+04  0.20770197797E+04  0.00000000000E+00 0. -1.
         21   -1    0    0  501  502  0.00000000000E+00 -0.00000000000E+00 -0.14535182021E+03  0.14535182021E+03  0.00000000000E+00 0. -1.
         21    1    1    2  503  504 -0.67247998359E+02 -0.37884019451E+02 -0.81194470938E+02  0.11202693571E+03  0.00000000000E+00 0. -1.
         21    1    1    2  504  502 -0.17402086936E+02 -0.63447541152E+02 -0.19749429844E+02  0.68691069922E+02  0.00000000000E+00 0. -1.
         21    1    1    2  505  503  0.11664004442E+02 -0.32406966845E+02  0.22359272135E+03  0.22622989533E+03  0.00000000000E+00 0.  1.
          1    1    1    2  501    0  0.72986080852E+02  0.13373852745E+03  0.18090191390E+04  0.18154236990E+04  0.00000000000E+00 0. -1.
<scales pt_clust_3="65.67998" pt_clust_4="65.67998" pt_clust_5="34.44213" pt_clust_6="132.41294"></scales>
<clustering>
<clus scale="   34.442">  1  5  2 -1</clus>
<clus scale="   65.680">  3  4 -1 -1</clus>
<clus scale="  132.413">  1  6  2 -1</clus>
<clus scale="  150.229">  2  3  1 -1</clus>
</clustering>
</event>
<event>
 6    0  0.3695460E+002  0.5958766E+03  0.7546771E-02  0.9913998E-01
         21   -1    0    0  505  502  0.00000000000E+00  0.00000000000E+00  0.11075192008E+04  0.11075192008E+04  0.00000000000E+00 0. -1.
         -1   -1    0    0    0  501 -0.00000000000E+00 -0.00000000000E+00 -0.90306495965E+03  0.90306495965E+03  0.00000000000E+00 0.  1.
         21    1    1    2  503  502  0.43298507105E+02 -0.47842922280E+02  0.47170909390E+02  0.79929973242E+02  0.00000000000E+00 0.  1.
         21    1    1    2  504  501 -0.12971340736E+03  0.41222803776E+02  0.98891267651E+02  0.16823902763E+03  0.00000000000E+00 0. -1.
         21    1    1    2  505  504 -0.47971245179E+03  0.10762984393E+03  0.72881949236E+03  0.87913939290E+03  0.00000000000E+00 0. -1.
         -1    1    1    2    0  503  0.56612735205E+03 -0.10100972542E+03 -0.67042742827E+03  0.88327576665E+03  0.00000000000E+00 0.  1.
<scales pt_clust_3="64.52678" pt_clust_4="72.36229" pt_clust_5="72.36229" pt_clust_6="580.28389"></scales>
<clustering>
<clus scale="   64.527">  1  3  2 -1</clus>
<clus scale="   72.362">  4  5 -1 -1</clus>
<clus scale="  580.284">  2  6  1 -1</clus>
<clus scale="   64.527">  1  3  2 -1</clus>
</clustering>
</event>
<event>
 6    0  0.3695460E+002  0.7509212E+02  0.7546771E-02  0.1343586E+00
         21   -1    0    0  504  502  0.00000000000E+00  0.00000000000E+00  0.22813533350E+02  0.22813533350E+02  0.00000000000E+00 0. -1.
          1   -1    0    0  503    0 -0.00000000000E+00 -0.00000000000E+00 -0.38678655932E+04  0.38678655932E+04  0.00000000000E+00 0.  1.
         21    1    1    2  503  502 -0.55384481256E+02 -0.39539316875E+02 -0.10618905546E+03  0.12612261432E+03  0.00000000000E+00 0. -1.
         21    1    1    2  504  505  0.57316341319E+02  0.37682418687E+01 -0.64665652846E+02  0.86492827952E+02  0.00000000000E+00 0. -1.
         21    1    1    2  505  501  0.64412843250E+02  0.61465132838E+02 -0.14515660978E+04  0.14542940257E+04  0.00000000000E+00 0. -1.
          1    1    1    2  501    0 -0.66344703312E+02 -0.25694057832E+02 -0.22226312538E+04  0.22237696586E+04  0.00000000000E+00 0.  1.
<scales pt_clust_3="37.12403" pt_clust_4="57.44008" pt_clust_5="14000.00000" pt_clust_6="75.09212"></scales>
<clustering>
<clus scale="   57.440">  1  4  2 -1</clus>
<clus scale="   37.124">  1  3  2 -1</clus>
<clus scale="   75.092">  2  6  1 -1</clus>
<clus scale="   57.440">  1  3  2 -1</clus>
</clustering>
</event>
<event>
 6    0  0.3695460E+002  0.8556980E+02  0.7546771E-02  0.1313949E+00
          4   -1    0    0  504    0 -0.00000000000E+00  0.00000000000E+00  0.47323095439E+03  0.47323095439E+03  0.00000000000E+00 0. -1.
         21   -1    0    0  505  502  0.00000000000E+00 -0.00000000000E+00 -0.20048194715E+03  0.20048194715E+03  0.00000000000E+00 0.  1.
         21    1    1    2  503  502  0.23909798923E+02 -0.47865496981E+02 -0.38985478709E+02  0.66201599950E+02  0.00000000000E+00 0.  1.
         21    1    1    2  504  503 -0.36135258951E+02  0.26874667525E+02  0.30201100822E+02  0.54222792116E+02  0.00000000000E+00 0. -1.
         21    1    1    2  505  501  0.48506033962E+02  0.93728432242E+02 -0.11056831304E+03  0.15285027377E+03  0.00000000000E+00 0.  1.
          4    1    1    2  501    0 -0.36280573934E+02 -0.72737602786E+02  0.39210169817E+03  0.40043823571E+03  0.00000000000E+00 0. -1.
<scales pt_clust_3="52.24006" pt_clust_4="45.03337" pt_clust_5="14000.00000" pt_clust_6="85.56980"></scales>
<clustering>
<clus scale="   45.033">  1  4  2 -1</clus>
<clus scale="   52.240">  2  3  1 -1</clus>
<clus scale="   85.570">  1  6  2 -1</clus>
<clus scale="   52.240">  2  3  1 -1</clus>
</clustering>
</event>
<event>
 6    0  0.3695460E+002  0.6841853E+02  0.7546771E-02  0.1365555E+00
         21   -1    0    0  501  502  0.00000000000E+00  0.00000000000E+00  0.13999230651E+04  0.13999230651E+04  0.00000000000E+00 0.  1.
          2   -1    0    0  504    0 -0.00000000000E+00 -0.00000000000E+00 -0.40563754713E+03  0.40563754713E+03  0.00000000000E+00 0.  1.
         21    1    1    2  503  505  0.71279641571E+02 -0.37725597859E+02  0.12979822901E+04  0.13004853069E+04  0.00000000000E+00 0.  1.
         21    1    1    2  504  503  0.45238528339E+02  0.48578822969E+02 -0.14934369513E+03  0.16343183828E+03  0.00000000000E+00 0. -1.
         21    1    1    2  505  502 -0.38289558261E+02 -0.22857202303E+02  0.81479963571E+02  0.92884478964E+02  0.00000000000E+00 0. -1.
          2    1    1    2  501    0 -0.78228611650E+02  0.12003977194E+02 -0.23583304055E+03  0.24875898811E+03  0.00000000000E+00 0.  1.
<scales pt_clust_3="14000.00000" pt_clust_4="66.15118" pt_clust_5="44.59307" pt_clust_6="68.41853"></scales>
<clustering>
<clus scale="   44.593">  1  5  2 -1</clus>
<clus scale="   66.151">  2  4  1 -1</clus>
<clus scale="   68.419">  2  6  1 -1</clus>
<clus scale="   44.593">  1  3  2 -1</clus>
</clustering>
</event>
<event>
 6    0  0.3695460E+002  0.1266750E+03  0.7546771E-02  0.1232475E+00
         21   -1    0    0  504  502  0.00000000000E+00  0.00000000000E+00  0.97433817147E+02  0.97433817147E+02  0.00000000000E+00 0.  1.
          2   -1    0    0  505    0 -0.00000000000E+00 -0.00000000000E+00 -0.43477522954E+03  0.43477522954E+03  0.00000000000E+00 0.  1.
         21    1    1    2  503  501  0.45694218245E+02  0.53712617059E+01 -0.15450362640E+02  0.48533758756E+02  0.00000000000E+00 0.  1.
         21    1    1    2  504  503  0.90647513823E+02 -0.38884734016E+02  0.21594557291E+02  0.10097187334E+03  0.00000000000E+00 0.  1.
         21    1    1    2  505  502 -0.54970816714E+02  0.35142060421E+02 -0.25175747050E+03  0.26007417991E+03  0.00000000000E+00 0.  1.
          2    1    1    2  501    0 -0.81370915354E+02 -0.16285881117E+01 -0.91728136538E+02  0.12262923468E+03  0.00000000000E+00 0.  1.
<scales pt_clust_3="34.83807" pt_clust_4="34.83807" pt_clust_5="65.24381" pt_clust_6="115.95081"></scales>
<clustering>
<clus scale="   34.838">  3  4 -1 -1</clus>
<clus scale="   65.244">  2  5  1 -1</clus>
<clus scale="  115.951">  2  6  1 -1</clus>
<clus scale="  126.675">  1  3  2 -1</clus>
</clustering>
</event>
<event>
 6    0  0.3695460E+002  0.8645022E+02  0.7546771E-02  0.1311683E+00
          3   -1    0    0  504    0 -0.00000000000E+00  0.00000000000E+00  0.57626022756E+03  0.57626022756E+03  0.00000000000E+00 0. -1.
         21   -1    0    0  503  502  0.00000000000E+00 -0.00000000000E+00 -0.21139368461E+03  0.21139368461E+03  0.00000000000E+00 0.  1.
         21    1    1    2  503  505  0.72106004689E+02 -0.51391150857E+02 -0.15941187954E+03  0.18235260798E+03  0.00000000000E+00 0.  1.
         21    1    1    2  504  502 -0.12109026114E+02 -0.31636827583E+02  0.25680004811E+03  0.25902467466E+03  0.00000000000E+00 0. -1.
         21    1    1    2  505  501 -0.79127445238E+02  0.21411924522E+02  0.12084125323E+02  0.82859213045E+02  0.00000000000E+00 0.  1.
          3    1    1    2  501    0  0.19130466662E+02  0.61616053918E+02  0.25539424906E+03  0.26341741648E+03  0.00000000000E+00 0. -1.
<scales pt_clust_3="14000.00000" pt_clust_4="33.87503" pt_clust_5="86.45022" pt_clust_6="37.01467"></scales>
<clustering>
<clus scale="   33.875">  1  4  2 -1</clus>
<clus scale="   37.015">  1  6  2 -1</clus>
<clus scale="   86.450">  1  5  2 -1</clus>
<clus scale="   86.450">  2  3  1 -1</clus>
</clustering>
</event>
<event>
 6    0  0.3695460E+002  0.9874769E+02  0.7546771E-02  0.1282952E+00
          1   -1    0    0  504    0 -0.00000000000E+00  0.00000000000E+00  0.86137630265E+03  0.86137630265E+03  0.00000000000E+00 0.  1.
         21   -1    0    0  503  502  0.00000000000E+00 -0.00000000000E+00 -0.20699351489E+03  0.20699351489E+03  0.00000000000E+00 0.  1.
         21    1    1    2  503  501 -0.46450308144E+02 -0.15090620756E+02 -0.37766145437E+02  0.61738478298E+02  0.00000000000E+00 0. -1.
         21    1    1    2  504  505  0.28920358234E+02 -0.42022650325E+02  0.45622004512E+03  0.45906319808E+03  0.00000000000E+00 0.  1.
         21    1    1    2  505  502  0.48061860702E+02  0.11658181775E+03 -0.12674251215E+03  0.17878737950E+03  0.00000000000E+00 0.  1.
          1    1    1    2  501    0 -0.30531910792E+02 -0.59468546665E+02  0.36267140023E+03  0.36878076165E+03  0.00000000000E+00 0.  1.
<scales pt_clust_3="48.84013" pt_clust_4="50.88872" pt_clust_5="14000.00000" pt_clust_6="98.74769"></scales>
<clustering>
<clus scale="   48.840">  2  3  1 -1</clus>
<clus scale="   50.889">  1  4  2 -1</clus>
<clus scale="   98.748">  1  6  2 -1</clus>
<clus scale="   48.840">  2  3  1 -1</clus>
</clustering>
</event>
<event>
 6    0  0.3695460E+002  0.8141031E+02  0.7546771E-02  0.1325096E+00
         21   -1    0    0  504  502  0.00000000000E+00  0.00000000000E+00  0.19565757074E+03  0.19565757074E+03  0.00000000000E+00 0. -1.
          3   -1    0    0  503    0 -0.00000000000E+00 -0.00000000000E+00 -0.48287436946E+03  0.48287436946E+03  0.00000000000E+00 0.  1.
         21    1    1    2  503  505  0.97455797324E+02  0.51203989211E+02 -0.34020095150E+03  0.35756980905E+03  0.00000000000E+00 0.  1.
         21    1    1    2  504  501 -0.67871058522E+01 -0.69178467637E+02 -0.86084524745E+01  0.70041635078E+02  0.00000000000E+00 0.  1.
         21    1    1    2  505  502 -0.72778512691E+02  0.65552713191E+02  0.13182069507E+03  0.16422717730E+03  0.00000000000E+00 0. -1.
          3    1    1    2  501    0 -0.17890178781E+02 -0.47578234766E+02 -0.70228089817E+02  0.86693318771E+02  0.00000000000E+00 0.  1.
<scales pt_clust_3="81.41031" pt_clust_4="74.29588" pt_clust_5="14000.00000" pt_clust_6="50.83057"></scales>
<clustering>
<clus scale="   50.831">  2  6  1 -1</clus>
<clus scale="   74.296">  1  4  2 -1</clus>
<clus scale="   81.410">  2  3  1 -1</clus>
<clus scale="   74.296">  1  3  2 -1</clus>
</clustering>
</event>
<event>
 6    0  0.3695460E+002  0.1194290E+03  0.7546771E-02  0.1244042E+00
          2   -1    0    0  504    0 -0.00000000000E+00  0.00000000000E+00  0.16768094055E+04  0.16768094055E+04  0.00000000000E+00 0. -1.
         21   -1    0    0  501  502  0.00000000000E+00 -0.00000000000E+00 -0.30381385027E+03  0.30381385027E+03  0.00000000000E+00 0. -1.
         21    1    1    2  503  505 -0.57087296605E+02  0.51204670991E+01 -0.13364605815E+03  0.14541818138E+03  0.00000000000E+00 0. -1.
         21    1    1    2  504  503  0.13207786049E+02 -0.29459857527E+02  0.30133334051E+03  0.30305793327E+03  0.00000000000E+00 0. -1.
         21    1    1    2  505  502 -0.55861132787E+02 -0.27158455352E+02 -0.15512112898E+03  0.16709462143E+03  0.00000000000E+00 0. -1.
          2    1    1    2  501    0  0.99740643343E+02  0.51497845780E+02  0.13604294018E+04  0.13650525197E+04  0.00000000000E+00 0. -1.
<scales pt_clust_3="30.90040" pt_clust_4="32.28512" pt_clust_5="30.90040" pt_clust_6="115.01541"></scales>
<clustering>
<clus scale="   30.900">  3  5 -1 -1</clus>
<clus scale="   32.285">  1  4  2 -1</clus>
<clus scale="  115.015">  1  6  2 -1</clus>
<clus scale="  119.429">  2  3  1 -1</clus>
</clustering>
</event>
<event>
 6    0  0.3695460E+002  0.2283319E+03  0.7546771E-02  0.1127819E+00
          1   -1    0    0  504    0 -0.00000000000E+00  0.00000000000E+00  0.67437040824E+02  0.67437040824E+02  0.00000000000E+00 0.  1.
         21   -1    0    0  501  502  0.00000000000E+00 -0.00000000000E+00 -0.15333492303E+04  0.15333492303E+04  0.00000000000E+00 0.  1.
         21    1    1    2  503  505 -0.67659143476E+02 -0.60624194585E+02 -0.38295408929E+03  0.39358212252E+03  0.00000000000E+00 0.  1.
         21    1    1    2  504  503 -0.14661774413E+02  0.26946314789E+02 -0.41123139045E+02  0.51304815316E+02  0.00000000000E+00 0.  1.
         21    1    1    2  505  502 -0.13026445254E+03  0.11300880882E+02 -0.87506654107E+03  0.88478132259E+03  0.00000000000E+00 0.  1.
          1    1    1    2  501    0  0.21258537043E+03  0.22376998913E+02 -0.16676842011E+03  0.27111801074E+03  0.00000000000E+00 0.  1.
<scales pt_clust_3="82.63445" pt_clust_4="30.67689" pt_clust_5="82.63445" pt_clust_6="205.29194"></scales>
<clustering>
<clus scale="   30.677">  1  4  2 -1</clus>
<clus scale="   82.634">  3  5 -1 -1</clus>
<clus scale="  205.292">  1  6  2 -1</clus>
<clus scale="  228.332">  2  3  1 -1</clus>
</clustering>
</event>
<event>
 6    0  0.3695460E+002  0.1313015E+03  0.7546771E-02  0.1225537E+00
         21   -1    0    0  504  502  0.00000000000E+00  0.00000000000E+00  0.71134360878E+03  0.71134360878E+03  0.00000000000E+00 0. -1.
          2   -1    0    0  503    0 -0.00000000000E+00 -0.00000000000E+00 -0.12119212406E+04  0.12119212406E+04  0.00000000000E+00 0. -1.
         21    1    1    2  503  505  0.10063294452E+01 -0.69579085206E+02 -0.35592456717E+03  0.36266314854E+03  0.00000000000E+00 0. -1.
         21    1    1    2  504  501 -0.44043140072E+02  0.41383283969E+02  0.31398873922E+02  0.68104799119E+02  0.00000000000E+00 0.  1.
         21    1    1    2  505  502  0.10078716673E+03  0.79295657410E+02  0.65016372855E+03  0.66269052218E+03  0.00000000000E+00 0. -1.
          2    1    1    2  501    0 -0.57750356102E+02 -0.51099856174E+02 -0.82621566710E+03  0.82980637952E+03  0.00000000000E+00 0. -1.
<scales pt_clust_3="69.37274" pt_clust_4="60.43488" pt_clust_5="14000.00000" pt_clust_6="131.30150"></scales>
<clustering>
<clus scale="   60.435">  1  4  2 -1</clus>
<clus scale="   69.373">  2  3  1 -1</clus>
<clus scale="  131.302">  2  6  1 -1</clus>
<clus scale="   60.435">  1  3  2 -1</clus>
</clustering>
</event>
<event>
 6    0  0.3695460E+002  0.1997196E+03  0.7546771E-02  0.1149976E+00
          1   -1    0    0  505    0 -0.00000000000E+00  0.00000000000E+00  0.29237303247E+04  0.29237303247E+04  0.00000000000E+00 0. -1.
         21   -1    0    0  503  502  0.00000000000E+00 -0.00000000000E+00 -0.53603562250E+03  0.53603562250E+03  0.00000000000E+00 0. -1.
         21    1    1    2  503  504  0.93967565416E+02 -0.27489368447E+02 -0.16486569518E+03  0.19174531592E+03  0.00000000000E+00 0.  1.
         21    1    1    2  504  501  0.40715969415E+02 -0.12238569690E+03 -0.34009704912E+03  0.36373349006E+03  0.00000000000E+00 0. -1.
         21    1    1    2  505  502  0.26846729942E+02  0.54803655951E+02  0.40419242761E+03  0.40877341664E+03  0.00000000000E+00 0. -1.
          1    1    1    2  501    0 -0.16153026477E+03  0.95071409394E+02  0.24884650189E+04  0.24955137245E+04  0.00000000000E+00 0. -1.
<scales pt_clust_3="97.96186" pt_clust_4="199.71955" pt_clust_5="61.02612" pt_clust_6="14000.00000"></scales>
<clustering>
<clus scale="   61.026">  1  5  2 -1</clus>
<clus scale="   97.962">  2  3  1 -1</clus>
<clus scale="  199.720">  2  4  1 -1</clus>
<clus scale="   97.962">  2  3  1 -1</clus>
</clustering>
</event>
<event>
 6    0  0.3695460E+002  0.9982950E+02  0.7546771E-02  0.1280655E+00
          2   -1    0    0  503    0 -0.00000000000E+00  0.00000000000E+00  0.16763776925E+04  0.16763776925E+04  0.00000000000E+00 0.  1.
         21   -1    0    0  504  502  0.00000000000E+00 -0.00000000000E+00 -0.16542742939E+02  0.16542742939E+02  0.00000000000E+00 0.  1.
         21    1    1    2  503  505 -0.78146084236E+02  0.20127563578E+02  0.10378973565E+04  0.10410297076E+04  0.00000000000E+00 0.  1.
         21    1    1    2  504  501 -0.17217036022E+02 -0.36788159945E+02  0.87323749080E+02  0.96308006909E+02  0.00000000000E+00 0. -1.
         21    1    1    2  505  502  0.11311218012E+03 -0.91426380598E+01  0.33931027360E+03  0.35778403387E+03  0.00000000000E+00 0.  1.
          2    1    1    2  501    0 -0.17749059860E+02  0.25803234427E+02  0.19530357032E+03  0.19779868709E+03  0.00000000000E+00 0.  1.
<scales pt_clust_3="99.82950" pt_clust_4="39.66986" pt_clust_5="14000.00000" pt_clust_6="31.31830"></scales>
<clustering>
<clus scale="   31.318">  1  6  2 -1</clus>
<clus scale="   39.670">  2  4  1 -1</clus>
<clus scale="   99.829">  1  3  2 -1</clus>
<clus scale="   39.670">  2  3  1 -1</clus>
</clustering>
</event>
<event>
 6    0  0.4690954E+002  0.1181453E+03  0.7546771E-02  0.1246188E+00
         21   -1    0    0  505  502  0.00000000000E+00  0.00000000000E+00  0.31290349614E+03  0.31290349614E+03  0.00000000000E+00 0.  1.
          2   -1    0    0  502    0 -0.00000000000E+00 -0.00000000000E+00 -0.23210048161E+04  0.23210048161E+04  0.00000000000E+00 0.  1.
         21    1    1    2  503  501 -0.17550349893E+01 -0.10113244251E+03 -0.17673370557E+03  0.20363117089E+03  0.00000000000E+00 0. -1.
         21    1    1    2  504  503  0.10083432549E+03  0.10470536808E+02  0.26947505597E+03  0.28791317984E+03  0.00000000000E+00 0.  1.
         21    1    1    2  505  504 -0.29500437633E+02 -0.10370616620E+02  0.60944966501E+01  0.31858568690E+02  0.00000000000E+00 0.  1.
          2    1    1    2  501    0 -0.69578852865E+02  0.10103252232E+03 -0.21069371670E+04  0.21105053928E+04  0.00000000000E+00 0.  1.
<scales pt_clust_3="14000.00000" pt_clust_4="72.86554" pt_clust_5="31.27020" pt_clust_6="118.14532"></scales>
<clustering>
<clus scale="   31.270">  1  5  2 -1</clus>
<clus scale="   72.866">  1  4  2 -1</clus>
<clus scale="  118.145">  2  6  1 -1</clus>
<clus scale="   31.270">  1  3  2 -1</clus>
</clustering>
</event>
<event>
 6    0  0.4004520E+002  0.1263138E+03  0.7546771E-02  0.1233030E+00
          2   -1    0    0  504    0 -0.00000000000E+00  0.00000000000E+00  0.63052938284E+03  0.63052938284E+03  0.00000000000E+00 0. -1.
         21   -1    0    0  505  502  0.00000000000E+00 -0.00000000000E+00 -0.52736168539E+03  0.52736168539E+03  0.00000000000E+00 0. -1.
         21    1    1    2  503  501 -0.70125438374E+02 -0.14678685209E+02 -0.10074478630E+03  0.12362262282E+03  0.00000000000E+00 0. -1.
         21    1    1    2  504  502  0.14405927888E+02  0.28806054003E+02  0.26463678633E+02  0.41685078773E+02  0.00000000000E+00 0. -1.
         21    1    1    2  505  503 -0.51737043003E+02 -0.42552994484E+02 -0.39947335097E+03  0.40505115368E+03  0.00000000000E+00 0. -1.
          2    1    1    2  501    0  0.10745655349E+03  0.28425625690E+02  0.57692215608E+03  0.58753221296E+03  0.00000000000E+00 0. -1.
<scales pt_clust_3="14000.00000" pt_clust_4="32.20744" pt_clust_5="66.85109" pt_clust_6="126.31383"></scales>
<clustering>
<clus scale="   32.207">  1  4  2 -1</clus>
<clus scale="   66.851">  2  5  1 -1</clus>
<clus scale="  126.314">  1  6  2 -1</clus>
<clus scale="   66.851">  2  3  1 -1</clus>
</clustering>
</event>
<event>
 6    0  0.3695460E+002  0.1174741E+03  0.7546771E-02  0.1247323E+00
          2   -1    0    0  505    0 -0.00000000000E+00  0.00000000000E+00  0.57874757924E+03  0.57874757924E+03  0.00000000000E+00 0. -1.
         21   -1    0    0  504  502  0.00000000000E+00 -0.00000000000E+00 -0.72944190535E+02  0.72944190535E+02  0.00000000000E+00 0. -1.
         21    1    1    2  503  502  0.79484701145E+02  0.25532102764E+02  0.31408795450E+02  0.89197636848E+02  0.00000000000E+00 0. -1.
         21    1    1    2  504  501 -0.31618651677E+02  0.50098693123E+01  0.34214951962E+02  0.46856172082E+02  0.00000000000E+00 0. -1.
         21    1    1    2  505  503  0.41313393680E+02  0.28462083000E+02 -0.11502848802E+02  0.51470401171E+02  0.00000000000E+00 0. -1.
          2    1    1    2  501    0 -0.89179443149E+02 -0.59004055076E+02  0.45168249009E+03  0.46416755967E+03  0.00000000000E+00 0. -1.
<scales pt_clust_3="32.72280" pt_clust_4="32.01309" pt_clust_5="32.72280" pt_clust_6="109.16256"></scales>
<clustering>
<clus scale="   32.013">  2  4  1 -1</clus>
<clus scale="   32.723">  3  5 -1 -1</clus>
<clus scale="  109.163">  1  6  2 -1</clus>
<clus scale="   32.013">  2  3  1 -1</clus>
</clustering>
</event>
<event>
 6    0  0.3695460E+002  0.9561830E+02  0.7546771E-02  0.1289790E+00
         21   -1    0    0  504  502  0.00000000000E+00  0.00000000000E+00  0.56811845524E+02  0.56811845524E+02  0.00000000000E+00 0.  1.
         -4   -1    0    0    0  501 -0.00000000000E+00 -0.00000000000E+00 -0.12008616232E+04  0.12008616232E+04  0.00000000000E+00 0.  1.
         21    1    1    2  503  505 -0.88046130497E+02  0.39199035816E+02 -0.14718738895E+02  0.97495265418E+02  0.00000000000E+00 0.  1.
         21    1    1    2  504  503  0.73139128142E+01  0.47399009524E+02 -0.43898495734E+02  0.65017208123E+02  0.00000000000E+00 0. -1.
         21    1    1    2  505  501  0.49219841829E+02 -0.32899699096E+02 -0.83531899563E+03  0.83741435831E+03  0.00000000000E+00 0.  1.
         -4    1    1    2    0  502  0.31512375854E+02 -0.53698346243E+02 -0.25011354738E+03  0.25774663685E+03  0.00000000000E+00 0.  1.
<scales pt_clust_3="14000.00000" pt_clust_4="47.95998" pt_clust_5="58.75224" pt_clust_6="95.61830"></scales>
<clustering>
<clus scale="   47.960">  1  4  2 -1</clus>
<clus scale="   58.752">  2  5  1 -1</clus>
<clus scale="   95.618">  2  6  1 -1</clus>
<clus scale="   47.960">  1  3  2 -1</clus>
</clustering>
</event>
<event>
 6    0  0.3695460E+002  0.1197924E+03  0.7546771E-02  0.1243440E+00
          2   -1    0    0  503    0 -0.00000000000E+00  0.00000000000E+00  0.76519997382E+03  0.76519997382E+03  0.00000000000E+00 0. -1.
         21   -1    0    0  501  502  0.00000000000E+00 -0.00000000000E+00 -0.40168367370E+02  0.40168367370E+02  0.00000000000E+00 0.  1.
         21    1    1    2  503  505 -0.45128739826E+02  0.65968963758E+02  0.27665809108E+03  0.28797257977E+03  0.00000000000E+00 0.  1.
         21    1    1    2  504  502  0.34925001555E+02 -0.20826655855E+02  0.66203524318E+01  0.41198718354E+02  0.00000000000E+00 0.  1.
         21    1    1    2  505  504  0.72545835641E+02 -0.40416233553E+02  0.10591866965E+03  0.13459247670E+03  0.00000000000E+00 0.  1.
          2    1    1    2  501    0 -0.62342097371E+02 -0.47260743496E+01  0.33583449328E+03  0.34160456637E+03  0.00000000000E+00 0. -1.
<scales pt_clust_3="106.83340" pt_clust_4="37.92158" pt_clust_5="37.92158" pt_clust_6="62.52098"></scales>
<clustering>
<clus scale="   37.922">  4  5 -1 -1</clus>
<clus scale="   62.521">  1  6  2 -1</clus>
<clus scale="  106.833">  1  3  2 -1</clus>
<clus scale="  119.792">  2  3  1 -1</clus>
</clustering>
</event>
<event>
 6    0  0.3695460E+002  0.1150522E+03  0.7546771E-02  0.1251490E+00
          2   -1    0    0  503    0 -0.00000000000E+00  0.00000000000E+00  0.34960045867E+04  0.34960045867E+04  0.00000000000E+00 0.  1.
         21   -1    0    0  501  502  0.00000000000E+00 -0.00000000000E+00 -0.22832643242E+02  0.22832643242E+02  0.00000000000E+00 0. -1.
         21    1    1    2  503  504 -0.13569172554E+02 -0.93228088126E+02  0.17214363971E+04  0.17240124327E+04  0.00000000000E+00 0.  1.
         21    1    1    2  504  505  0.65287498761E+02  0.29544472949E+02  0.91737874702E+02  0.11640949717E+03  0.00000000000E+00 0. -1.
         21    1    1    2  505  502  0.13023796375E+02  0.44017047558E+02  0.53501807487E+02  0.70495128570E+02  0.00000000000E+00 0. -1.
          2    1    1    2  501    0 -0.64742122582E+02  0.19666567619E+02  0.16064958641E+04  0.16079201715E+04  0.00000000000E+00 0.  1.
<scales pt_clust_3="104.60491" pt_clust_4="38.34019" pt_clust_5="38.34019" pt_clust_6="67.66326"></scales>
<clustering>
<clus scale="   38.340">  4  5 -1 -1</clus>
<clus scale="   67.663">  1  6  2 -1</clus>
<clus scale="  104.605">  1  3  2 -1</clus>
<clus scale="  115.052">  2  3  1 -1</clus>
</clustering>
</event>
<event>
 6    0  0.3695460E+002  0.1396762E+03  0.7546771E-02  0.1213765E+00
         21   -1    0    0  504  502  0.00000000000E+00  0.00000000000E+00  0.19556733714E+03  0.19556733714E+03  0.00000000000E+00 0. -1.
          1   -1    0    0  502    0 -0.00000000000E+00 -0.00000000000E+00 -0.26994554667E+04  0.26994554667E+04  0.00000000000E+00 0.  1.
         21    1    1    2  503  501 -0.60853676743E+02 -0.47017583881E+02 -0.11877078047E+04  0.11901947960E+04  0.00000000000E+00 0.  1.
         21    1    1    2  504  505  0.38615981665E+02  0.53314372369E+02  0.83606272784E+02  0.10641252365E+03  0.00000000000E+00 0. -1.
         21    1    1    2  505  503  0.70551019226E+02  0.21482940986E+02  0.85027968030E+02  0.11255540153E+03  0.00000000000E+00 0. -1.
          1    1    1    2  501    0 -0.48313324147E+02 -0.27779729474E+02 -0.14848145657E+04  0.14858600826E+04  0.00000000000E+00 0.  1.
<scales pt_clust_3="31.64502" pt_clust_4="42.22437" pt_clust_5="42.22437" pt_clust_6="137.45506"></scales>
<clustering>
<clus scale="   31.645">  3  6 -1 -1</clus>
<clus scale="   42.224">  4  5 -1 -1</clus>
<clus scale="  137.455">  2  3  1 -1</clus>
<clus scale="  139.676">  1  3  2 -1</clus>
</clustering>
</event>
<event>
 6    0  0.3695460E+002  0.9728009E+02  0.7546771E-02  0.1286122E+00
         21   -1    0    0  501  502  0.00000000000E+00  0.00000000000E+00  0.13529649103E+03  0.13529649103E+03  0.00000000000E+00 0. -1.
          1   -1    0    0  505    0 -0.00000000000E+00 -0.00000000000E+00 -0.33739487628E+03  0.33739487628E+03  0.00000000000E+00 0.  1.
         21    1    1    2  503  504 -0.37315180735E+02 -0.15134715308E+02  0.18992542916E+02  0.44521893571E+02  0.00000000000E+00 0. -1.
         21    1    1    2  504  502 -0.47110891069E+02  0.89651052525E+01  0.60557751384E+02  0.77246685510E+02  0.00000000000E+00 0. -1.
         21    1    1    2  505  503 -0.60341785211E+02 -0.16433013400E+02 -0.92608841323E+02  0.11174780742E+03  0.00000000000E+00 0.  1.
          1    1    1    2  501    0  0.14476785702E+03  0.22602623456E+02 -0.18903983822E+03  0.23917498081E+03  0.00000000000E+00 0.  1.
<scales pt_clust_3="33.46213" pt_clust_4="33.46213" pt_clust_5="62.53939" pt_clust_6="90.16598"></scales>
<clustering>
<clus scale="   33.462">  3  4 -1 -1</clus>
<clus scale="   62.539">  2  5  1 -1</clus>
<clus scale="   90.166">  2  6  1 -1</clus>
<clus scale="   97.280">  1  3  2 -1</clus>
</clustering>
</event>
<event>
 6    0  0.3695460E+002  0.6773335E+02  0.7546771E-02  0.1367975E+00
          1   -1    0    0  505    0 -0.00000000000E+00  0.00000000000E+00  0.31483272722E+04  0.31483272722E+04  0.00000000000E+00 0. -1.
         21   -1    0    0  503  502  0.00000000000E+00 -0.00000000000E+00 -0.48728778298E+02  0.48728778298E+02  0.00000000000E+00 0.  1.
         21    1    1    2  503  504  0.47506304552E+02  0.49049493720E+02 -0.41241533867E+00  0.68285224557E+02  0.00000000000E+00 0.  1.
         21    1    1    2  504  501  0.37880000731E+01 -0.86759132071E+02  0.12669099898E+03  0.15359721730E+03  0.00000000000E+00 0.  1.
         21    1    1    2  505  502  0.16819223608E+02  0.32345669710E+02  0.94341749805E+03  0.94412165755E+03  0.00000000000E+00 0.  1.
          1    1    1    2  501    0 -0.68113528234E+02  0.53639686403E+01  0.20299024122E+04  0.20310519511E+04  0.00000000000E+00 0. -1.
<scales pt_clust_3="67.73335" pt_clust_4="14000.00000" pt_clust_5="36.45722" pt_clust_6="63.28529"></scales>
<clustering>
<clus scale="   36.457">  1  5  2 -1</clus>
<clus scale="   63.285">  1  6  2 -1</clus>
<clus scale="   67.733">  2  3  1 -1</clus>
<clus scale="   67.733">  2  3  1 -1</clus>
</clustering>
</event>
<event>
 6    0  0.3695460E+002  0.8625405E+02  0.7546771E-02  0.1312185E+00
         21   -1    0    0  501  502  0.00000000000E+00  0.00000000000E+00  0.47881875048E+02  0.47881875048E+02  0.00000000000E+00 0.  1.
          2   -1    0    0  504    0 -0.00000000000E+00 -0.00000000000E+00 -0.15595490812E+04  0.15595490812E+04  0.00000000000E+00 0. -1.
         21    1    1    2  503  505  0.93265541165E+02 -0.15007265320E+02 -0.23181821084E+02  0.97268062642E+02  0.00000000000E+00 0.  1.
         21    1    1    2  504  503  0.20240179221E+02  0.68768248785E+02 -0.57303472331E+03  0.57750110910E+03  0.00000000000E+00 0. -1.
         21    1    1    2  505  502 -0.18291533052E+02 -0.29757446658E+02 -0.46382518620E+02  0.58063963407E+02  0.00000000000E+00 0. -1.
          2    1    1    2  501    0 -0.95214187335E+02 -0.24003536807E+02 -0.86906814310E+03  0.87459782105E+03  0.00000000000E+00 0. -1.
<scales pt_clust_3="14000.00000" pt_clust_4="69.89596" pt_clust_5="34.92973" pt_clust_6="86.25405"></scales>
<clustering>
<clus scale="   34.930">  1  5  2 -1</clus>
<clus scale="   69.896">  2  4  1 -1</clus>
<clus scale="   86.254">  2  6  1 -1</clus>
<clus scale="   34.930">  1  3  2 -1</clus>
</clustering>
</event>
<event>
 6    0  0.3695460E+002  0.1687416E+03  0.7546771E-02  0.1179167E+00
         21   -1    0    0  501  502  0.00000000000E+00  0.00000000000E+00  0.11510601606E+03  0.11510601606E+03  0.00000000000E+00 0.  1.
         -4   -1    0    0    0  501 -0.00000000000E+00 -0.00000000000E+00 -0.12588774721E+04  0.12588774721E+04  0.00000000000E+00 0. -1.
         21    1    1    2  503  502 -0.43796162125E+02  0.40199975571E+02  0.84908341620E+01  0.60051945161E+02  0.00000000000E+00 0.  1.
         21    1    1    2  504  505  0.70262132064E+02 -0.97000597842E+02 -0.20536633841E+03  0.23774191077E+03  0.00000000000E+00 0.  1.
         21    1    1    2  505  503 -0.29908591540E+02  0.12155436962E+03  0.18862805482E+01  0.12519403610E+03  0.00000000000E+00 0.  1.
         -4    1    1    2    0  504  0.34426216007E+01 -0.64753747347E+02 -0.94878223229E+03  0.95099559608E+03  0.00000000000E+00 0. -1.
<scales pt_clust_3="35.21692" pt_clust_4="160.81725" pt_clust_5="35.21692" pt_clust_6="64.84520"></scales>
<clustering>
<clus scale="   35.217">  3  5 -1 -1</clus>
<clus scale="   64.845">  2  6  1 -1</clus>
<clus scale="  160.817">  2  4  1 -1</clus>
<clus scale="  168.742">  1  3  2 -1</clus>
</clustering>
</event>
<event>
 6    0  0.3695460E+002  0.1707940E+03  0.7546771E-02  0.1177022E+00
          1   -1    0    0  503    0 -0.00000000000E+00  0.00000000000E+00  0.65317331657E+02  0.65317331657E+02  0.00000000000E+00 0.  1.
         21   -1    0    0  505  502  0.00000000000E+00 -0.00000000000E+00 -0.14937571186E+04  0.14937571186E+04  0.00000000000E+00 0.  1.
         21    1    1    2  503  502  0.13529262103E+03 -0.33997534343E+02 -0.12638318348E+04  0.12715073072E+04  0.00000000000E+00 0.  1.
         21    1    1    2  504  501 -0.57101506381E+02  0.25888126939E+02 -0.54512299249E+02  0.83080490591E+02  0.00000000000E+00 0. -1.
         21    1    1    2  505  504  0.21664263299E+02  0.26612971020E+02 -0.96010990118E+02  0.10195930931E+03  0.00000000000E+00 0.  1.
          1    1    1    2  501    0 -0.99855377947E+02 -0.18503563616E+02 -0.14084662801E+02  0.10252734317E+03  0.00000000000E+00 0.  1.
<scales pt_clust_3="155.29282" pt_clust_4="55.98020" pt_clust_5="34.31604" pt_clust_6="55.98020"></scales>
<clustering>
<clus scale="   34.316">  2  5  1 -1</clus>
<clus scale="   55.980">  4  6 -1 -1</clus>
<clus scale="  155.293">  2  3  1 -1</clus>
<clus scale="   34.316">  2  3  1 -1</clus>
</clustering>
</event>
<event>
 6    0  0.3695460E+002  0.1739957E+03  0.7546771E-02  0.1173744E+00
          2   -1    0    0  502    0 -0.00000000000E+00  0.00000000000E+00  0.12366456988E+04  0.12366456988E+04  0.00000000000E+00 0.  1.
         21   -1    0    0  505  502  0.00000000000E+00 -0.00000000000E+00 -0.32923207694E+02  0.32923207694E+02  0.00000000000E+00 0.  1.
         21    1    1    2  503  501  0.12019563030E+03 -0.23771722531E+01  0.52804041721E+03  0.54155269614E+03  0.00000000000E+00 0.  1.
         21    1    1    2  504  503 -0.84659389244E+02  0.57761188054E+01  0.17037727955E+03  0.19033915289E+03  0.00000000000E+00 0.  1.
         21    1    1    2  505  504 -0.77083101964E+02 -0.20193814518E+02  0.91005267491E+02  0.12096095843E+03  0.00000000000E+00 0.  1.
          2    1    1    2  501    0  0.41546860910E+02  0.16794867966E+02  0.41429952682E+03  0.41671609900E+03  0.00000000000E+00 0.  1.
<scales pt_clust_3="38.15769" pt_clust_4="169.07668" pt_clust_5="45.64220" pt_clust_6="38.15769"></scales>
<clustering>
<clus scale="   38.158">  3  6 -1 -1</clus>
<clus scale="   45.642">  4  5 -1 -1</clus>
<clus scale="  169.077">  2  4  1 -1</clus>
<clus scale="  169.077">  2  3  1 -1</clus>
</clustering>
</event>
<event>
 6    0  0.3695460E+002  0.9812155E+02  0.7546771E-02  0.1284296E+00
          2   -1    0    0  505    0 -0.00000000000E+00  0.00000000000E+00  0.34882954994E+03  0.34882954994E+03  0.00000000000E+00 0.  1.
         21   -1    0    0  503  502  0.00000000000E+00 -0.00000000000E+00 -0.14082301574E+03  0.14082301574E+03  0.00000000000E+00 0.  1.
         21    1    1    2  503  501 -0.30100768446E+02 -0.21786276028E+02 -0.38465878253E+02  0.53481977095E+02  0.00000000000E+00 0. -1.
         21    1    1    2  504  502  0.78361593697E+02 -0.63376019040E+02 -0.45037420311E+02  0.11038762786E+03  0.00000000000E+00 0.  1.
         21    1    1    2  505  504  0.34197159474E+02  0.18029074993E+02  0.89662786556E+02  0.97641735719E+02  0.00000000000E+00 0. -1.
          2    1    1    2  501    0 -0.82457984726E+02  0.67133220075E+02  0.20184704621E+03  0.22814122501E+03  0.00000000000E+00 0.  1.
<scales pt_clust_3="37.15775" pt_clust_4="14000.00000" pt_clust_5="37.11201" pt_clust_6="98.12155"></scales>
<clustering>
<clus scale="   37.158">  2  3  1 -1</clus>
<clus scale="   37.112">  1  5  2 -1</clus>
<clus scale="   98.122">  1  6  2 -1</clus>
<clus scale="   37.158">  2  3  1 -1</clus>
</clustering>
</event>
<event>
 6    0  0.3695460E+002  0.7908556E+02  0.7546771E-02  0.1331667E+00
          2   -1    0    0  504    0 -0.00000000000E+00  0.00000000000E+00  0.87212449818E+03  0.87212449818E+03  0.00000000000E+00 0. -1.
         21   -1    0    0  503  502  0.00000000000E+00 -0.00000000000E+00 -0.13285918578E+03  0.13285918578E+03  0.00000000000E+00 0. -1.
         21    1    1    2  503  505  0.36145623466E+02 -0.28417653547E+01  0.14586802231E+02  0.39081408948E+02  0.00000000000E+00 0. -1.
         21    1    1    2  504  502  0.21388748852E+01  0.72426370063E+02 -0.95716592428E+02  0.12004923962E+03  0.00000000000E+00 0. -1.
         21    1    1    2  505  501 -0.96582226094E+02 -0.45766774396E+02  0.24860216544E+03  0.27060258812E+03  0.00000000000E+00 0. -1.
          2    1    1    2  501    0  0.58297727743E+02 -0.23817830312E+02  0.57179293717E+03  0.57525044728E+03  0.00000000000E+00 0. -1.
<scales pt_clust_3="36.25716" pt_clust_4="79.08556" pt_clust_5="14000.00000" pt_clust_6="63.47071"></scales>
<clustering>
<clus scale="   36.257">  2  3  1 -1</clus>
<clus scale="   63.471">  1  6  2 -1</clus>
<clus scale="   79.086">  2  4  1 -1</clus>
<clus scale="   36.257">  2  3  1 -1</clus>
</clustering>
</event>
<event>
 6    0  0.3695460E+002  0.1593319E+03  0.7546771E-02  0.1189453E+00
          1   -1    0    0  502    0 -0.00000000000E+00  0.00000000000E+00  0.14851595305E+04  0.14851595305E+04  0.00000000000E+00 0. -1.
         21   -1    0    0  503  502  0.00000000000E+00 -0.00000000000E+00 -0.88539540225E+02  0.88539540225E+02  0.00000000000E+00 0. -1.
         21    1    1    2  503  505 -0.67024335998E+02 -0.12677872491E+01  0.53635205051E+00  0.67038470851E+02  0.00000000000E+00 0. -1.
         21    1    1    2  504  501  0.60849105386E+02  0.59430053281E+01  0.41891182613E+03  0.42334979746E+03  0.00000000000E+00 0.  1.
         21    1    1    2  505  504 -0.80042326464E+02 -0.44594455867E+02 -0.94610926561E+01  0.92113798065E+02  0.00000000000E+00 0. -1.
          1    1    1    2  501    0  0.86217557075E+02  0.39919237788E+02  0.98663290479E+03  0.99119700439E+03  0.00000000000E+00 0. -1.
<scales pt_clust_3="33.32407" pt_clust_4="32.63124" pt_clust_5="158.90184" pt_clust_6="32.63124"></scales>
<clustering>
<clus scale="   32.631">  4  6 -1 -1</clus>
<clus scale="   33.324">  3  5 -1 -1</clus>
<clus scale="  158.902">  2  3  1 -1</clus>
<clus scale="  158.902">  2  3  1 -1</clus>
</clustering>
</event>
<event>
 6    0  0.3695460E+002  0.8024523E+02  0.7546771E-02  0.1328357E+00
          2   -1    0    0  505    0 -0.00000000000E+00  0.00000000000E+00  0.10067428494E+04  0.10067428494E+04  0.00000000000E+00 0.  1.
         21   -1    0    0  501  502  0.00000000000E+00 -0.00000000000E+00 -0.14447466407E+04  0.14447466407E+04  0.00000000000E+00 0.  1.
         21    1    1    2  503  504 -0.75662925343E+02 -0.23848030305E+02 -0.50017529206E+02  0.93783580913E+02  0.00000000000E+00 0. -1.
         21    1    1    2  504  502  0.29783889431E+02  0.76281892081E+02 -0.13607180086E+04  0.13631799243E+04  0.00000000000E+00 0.  1.
         21    1    1    2  505  503 -0.69619330740E+01  0.68287913686E+02  0.22384226668E+03  0.23413045086E+03  0.00000000000E+00 0.  1.
          2    1    1    2  501    0  0.52840968986E+02 -0.12072177546E+03  0.74888947982E+03  0.76039553396E+03  0.00000000000E+00 0.  1.
<scales pt_clust_3="14000.00000" pt_clust_4="80.24523" pt_clust_5="68.64188" pt_clust_6="71.34539"></scales>
<clustering>
<clus scale="   68.642">  1  5  2 -1</clus>
<clus scale="   71.345">  1  6  2 -1</clus>
<clus scale="   80.245">  2  4  1 -1</clus>
<clus scale="   80.245">  2  3  1 -1</clus>
</clustering>
</event>
<event>
 6    0  0.3695460E+002  0.1448529E+03  0.7546771E-02  0.1206944E+00
          1   -1    0    0  504    0 -0.00000000000E+00  0.00000000000E+00  0.40990521736E+03  0.40990521736E+03  0.00000000000E+00 0. -1.
         21   -1    0    0  503  502  0.00000000000E+00 -0.00000000000E+00 -0.95128737990E+02  0.95128737990E+02  0.00000000000E+00 0.  1.
         21    1    1    2  503  501  0.34017403407E+02  0.22158558993E+02  0.37524871045E+02  0.55283826008E+02  0.00000000000E+00 0.  1.
         21    1    1    2  504  505 -0.10093903905E+03 -0.34052301971E+02  0.55202955143E+02  0.11998172832E+03  0.00000000000E+00 0.  1.
         21    1    1    2  505  502 -0.43658492688E+02 -0.13730749733E+02 -0.29048067347E+02  0.54206897057E+02  0.00000000000E+00 0.  1.
          1    1    1    2  501    0  0.11058012833E+03  0.25624492711E+02  0.25109672053E+03  0.27556150397E+03  0.00000000000E+00 0. -1.
<scales pt_clust_3="32.56213" pt_clust_4="134.23044" pt_clust_5="45.76677" pt_clust_6="32.56213"></scales>
<clustering>
<clus scale="   32.562">  3  6 -1 -1</clus>
<clus scale="   45.767">  2  5  1 -1</clus>
<clus scale="  134.230">  2  4  1 -1</clus>
<clus scale="   45.767">  2  3  1 -1</clus>
</clustering>
</event>
<event>
 6    0  0.3695460E+002  0.8769628E+02  0.7546771E-02  0.1308528E+00
         21   -1    0    0  503  502  0.00000000000E+00  0.00000000000E+00  0.37049921277E+03  0.37049921277E+03  0.00000000000E+00 0.  1.
          2   -1    0    0  504    0 -0.00000000000E+00 -0.00000000000E+00 -0.13098952412E+03  0.13098952412E+03  0.00000000000E+00 0. -1.
         21    1    1    2  503  505  0.44155546024E+02 -0.27967169072E+02  0.19126764240E+03  0.19828057348E+03  0.00000000000E+00 0.  1.
         21    1    1    2  504  502 -0.74166867971E+02  0.87448062836E+01  0.18456038111E+02  0.76927376689E+02  0.00000000000E+00 0.  1.
         21    1    1    2  505  501 -0.39322207048E+02 -0.45016150186E+02  0.94439408992E+02  0.11176534219E+03  0.00000000000E+00 0.  1.
          2    1    1    2  501    0  0.69333528994E+02  0.64238512975E+02 -0.64653400858E+02  0.11451544452E+03  0.00000000000E+00 0. -1.
<scales pt_clust_3="52.26734" pt_clust_4="62.19379" pt_clust_5="87.69628" pt_clust_6="14000.00000"></scales>
<clustering>
<clus scale="   52.267">  1  3  2 -1</clus>
<clus scale="   62.194">  1  4  2 -1</clus>
<clus scale="   87.696">  1  5  2 -1</clus>
<clus scale="   52.267">  1  3  2 -1</clus>
</clustering>
</event>
<event>
 6    0  0.3695460E+002  0.1189669E+03  0.7546771E-02  0.1244811E+00
         21   -1    0    0  505  502  0.00000000000E+00  0.00000000000E+00  0.92971247784E+03  0.92971247784E+03  0.00000000000E+00 0. -1.
         -2   -1    0    0    0  501 -0.00000000000E+00 -0.00000000000E+00 -0.26957114108E+02  0.26957114108E+02  0.00000000000E+00 0. -1.
         21    1    1    2  503  501 -0.34071890068E+01 -0.32825327904E+02  0.13394388357E+02  0.35616298634E+02  0.00000000000E+00 0.  1.
         21    1    1    2  504  503 -0.34275063139E+02 -0.11465176429E+01  0.12491461700E+03  0.12953669748E+03  0.00000000000E+00 0. -1.
         21    1    1    2  505  504 -0.42509929576E+02 -0.61940243712E+02  0.37655254384E+03  0.38397331440E+03  0.00000000000E+00 0. -1.
         -2    1    1    2    0  502  0.80192181722E+02  0.95912089259E+02  0.38789381454E+03  0.40754328142E+03  0.00000000000E+00 0. -1.
<scales pt_clust_3="33.00168" pt_clust_4="32.73469" pt_clust_5="32.73469" pt_clust_6="108.65439"></scales>
<clustering>
<clus scale="   32.735">  4  5 -1 -1</clus>
<clus scale="   33.002">  2  3  1 -1</clus>
<clus scale="  108.654">  2  6  1 -1</clus>
<clus scale="  118.967">  1  3  2 -1</clus>
</clustering>
</event>
<event>
 6    0  0.3695460E+002  0.1707103E+03  0.7546771E-02  0.1177109E+00
          2   -1    0    0  504    0 -0.00000000000E+00  0.00000000000E+00  0.15901372539E+04  0.15901372539E+04  0.00000000000E+00 0.  1.
         21   -1    0    0  501  502  0.00000000000E+00 -0.00000000000E+00 -0.75042644670E+02  0.75042644670E+02  0.00000000000E+00 0. -1.
         21    1    1    2  503  502 -0.18000791471E+02 -0.49816312058E+02  0.48141722729E+02  0.71577363097E+02  0.00000000000E+00 0. -1.
         21    1    1    2  504  505  0.46319145327E+02  0.82181124939E+02  0.60515104283E+03  0.61245978248E+03  0.00000000000E+00 0.  1.
         21    1    1    2  505  503 -0.16486002629E+03  0.17886392585E+02  0.76759097417E+02  0.18273125169E+03  0.00000000000E+00 0. -1.
          2    1    1    2  501    0  0.13654167243E+03 -0.50251205466E+02  0.78504274625E+03  0.79841150130E+03  0.00000000000E+00 0.  1.
<scales pt_clust_3="52.96880" pt_clust_4="91.32251" pt_clust_5="170.71033" pt_clust_6="14000.00000"></scales>
<clustering>
<clus scale="   52.969">  2  3  1 -1</clus>
<clus scale="   91.323">  1  4  2 -1</clus>
<clus scale="  170.710">  2  5  1 -1</clus>
<clus scale="   52.969">  2  3  1 -1</clus>
</clustering>
</event>
<event>
 6    0  0.3695460E+002  0.1421105E+03  0.7546771E-02  0.1210517E+00
         21   -1    0    0  501  502  0.00000000000E+00  0.00000000000E+00  0.27557542951E+03  0.27557542951E+03  0.00000000000E+00 0.  1.
          2   -1    0    0  505    0 -0.00000000000E+00 -0.00000000000E+00 -0.24602416409E+03  0.24602416409E+03  0.00000000000E+00 0.  1.
         21    1    1    2  503  504  0.25482759354E+02 -0.73354672132E+02  0.93037622695E+02  0.12118695550E+03  0.00000000000E+00 0.  1.
         21    1    1    2  504  502 -0.23967562986E+02 -0.57611920489E+02  0.13580849001E+03  0.14945743012E+03  0.00000000000E+00 0.  1.
         21    1    1    2  505  503  0.23432110023E+02  0.20690222925E+02 -0.83306570207E+02  0.88978276812E+02  0.00000000000E+00 0. -1.
          2    1    1    2  501    0 -0.24947306391E+02  0.11027636970E+03 -0.11598827708E+03  0.16197693117E+03  0.00000000000E+00 0.  1.
<scales pt_clust_3="54.52298" pt_clust_4="54.52298" pt_clust_5="31.25938" pt_clust_6="128.34372"></scales>
<clustering>
<clus scale="   31.259">  2  5  1 -1</clus>
<clus scale="   54.523">  3  4 -1 -1</clus>
<clus scale="  128.344">  2  6  1 -1</clus>
<clus scale="  142.111">  1  3  2 -1</clus>
</clustering>
</event>
<event>
 6    0  0.3695460E+002  0.1515228E+03  0.7546771E-02  0.1198614E+00
         21   -1    0    0  504  502  0.00000000000E+00  0.00000000000E+00  0.24671891858E+02  0.24671891858E+02  0.00000000000E+00 0. -1.
          1   -1    0    0  503    0 -0.00000000000E+00 -0.00000000000E+00 -0.33444234930E+04  0.33444234930E+04  0.00000000000E+00 0.  1.
         21    1    1    2  503  505 -0.70248074600E+02 -0.12681366282E+03 -0.87119301686E+03  0.88317255941E+03  0.00000000000E+00 0. -1.
         21    1    1    2  504  501  0.31654103151E+02  0.21309693398E+02 -0.14149055035E+03  0.14654576458E+03  0.00000000000E+00 0. -1.
         21    1    1    2  505  502 -0.54107020143E+02 -0.18519434470E+02 -0.47035240779E+02  0.74046289286E+02  0.00000000000E+00 0. -1.
          1    1    1    2  501    0  0.92700991592E+02  0.12402340389E+03 -0.22600327932E+04  0.22653307716E+04  0.00000000000E+00 0.  1.
<scales pt_clust_3="151.52280" pt_clust_4="38.15869" pt_clust_5="35.23709" pt_clust_6="14000.00000"></scales>
<clustering>
<clus scale="   38.159">  1  4  2 -1</clus>
<clus scale="   35.237">  1  5  2 -1</clus>
<clus scale="  151.523">  1  3  2 -1</clus>
<clus scale="   38.159">  1  3  2 -1</clus>
</clustering>
</event>
<event>
 6    0  0.3695460E+002  0.1054821E+03  0.7546771E-02  0.1269173E+00
          2   -1    0    0  505    0 -0.00000000000E+00  0.00000000000E+00  0.25796837347E+03  0.25796837347E+03  0.00000000000E+00 0. -1.
         21   -1    0    0  501  502  0.00000000000E+00 -0.00000000000E+00 -0.13295932930E+04  0.13295932930E+04  0.00000000000E+00 0. -1.
         21    1    1    2  503  502  0.28558807085E+02  0.40249494093E+02 -0.81670485451E+03  0.81819462636E+03  0.00000000000E+00 0. -1.
         21    1    1    2  504  503  0.17449570469E+02  0.48819403650E+02 -0.48010360593E+03  0.48289470292E+03  0.00000000000E+00 0. -1.
         21    1    1    2  505  504 -0.38075775940E+02  0.21019405866E+02  0.14129535959E+03  0.14783760948E+03  0.00000000000E+00 0. -1.
          2    1    1    2  501    0 -0.79326016139E+01 -0.11008830361E+03  0.83888181315E+02  0.13863472770E+03  0.00000000000E+00 0. -1.
<scales pt_clust_3="31.93317" pt_clust_4="31.93317" pt_clust_5="43.49230" pt_clust_6="100.27591"></scales>
<clustering>
<clus scale="   31.933">  3  4 -1 -1</clus>
<clus scale="   43.492">  1  5  2 -1</clus>
<clus scale="  100.276">  1  6  2 -1</clus>
<clus scale="  105.482">  2  3  1 -1</clus>
</clustering>
</event>
<event>
 6    0  0.3695460E+002  0.1842950E+03  0.7546771E-02  0.1163710E+00
         21   -1    0    0  504  502  0.00000000000E+00  0.00000000000E+00  0.21599300995E+03  0.21599300995E+03  0.00000000000E+00 0. -1.
          2   -1    0    0  505    0 -0.00000000000E+00 -0.00000000000E+00 -0.92386122218E+03  0.92386122218E+03  0.00000000000E+00 0. -1.
         21    1    1    2  503  501 -0.32967812278E+02 -0.10679451886E+02 -0.11297263819E+02  0.36449355396E+02  0.00000000000E+00 0. -1.
         21    1    1    2  504  503 -0.96312742127E+01  0.31236614167E+02  0.15469934877E+03  0.15811507208E+03  0.00000000000E+00 0. -1.
         21    1    1    2  505  502  0.10452419322E+02 -0.19014616280E+03 -0.66327816882E+03  0.69007444926E+03  0.00000000000E+00 0. -1.
          2    1    1    2  501    0  0.32146667169E+02  0.16958900052E+03 -0.18799212836E+03  0.25521535540E+03  0.00000000000E+00 0. -1.
<scales pt_clust_3="35.23835" pt_clust_4="32.68773" pt_clust_5="184.29495" pt_clust_6="14000.00000"></scales>
<clustering>
<clus scale="   32.688">  1  4  2 -1</clus>
<clus scale="   35.238">  1  3  2 -1</clus>
<clus scale="  184.295">  2  5  1 -1</clus>
<clus scale="   32.688">  1  3  2 -1</clus>
</clustering>
</event>
<event>
 6    0  0.3695460E+002  0.1654161E+03  0.7546771E-02  0.1182714E+00
         21   -1    0    0  503  502  0.00000000000E+00  0.00000000000E+00  0.12326284540E+04  0.12326284540E+04  0.00000000000E+00 0.  1.
         -1   -1    0    0    0  501 -0.00000000000E+00 -0.00000000000E+00 -0.13500812890E+03  0.13500812890E+03  0.00000000000E+00 0. -1.
         21    1    1    2  503  505  0.23466440644E+02 -0.61685424102E+02  0.44439492276E+03  0.44926897596E+03  0.00000000000E+00 0.  1.
         21    1    1    2  504  501  0.25019288125E+02  0.25222032382E+02  0.34256343562E+02  0.49351927723E+02  0.00000000000E+00 0.  1.
         21    1    1    2  505  504 -0.34548583384E+02 -0.94455193866E+02  0.70474183977E+03  0.71188232805E+03  0.00000000000E+00 0.  1.
         -1    1    1    2    0  502 -0.13937145384E+02  0.13091858559E+03 -0.85772781030E+02  0.15713335114E+03  0.00000000000E+00 0. -1.
<scales pt_clust_3="46.32291" pt_clust_4="35.52627" pt_clust_5="46.32291" pt_clust_6="155.26802"></scales>
<clustering>
<clus scale="   35.526">  2  4  1 -1</clus>
<clus scale="   46.323">  3  5 -1 -1</clus>
<clus scale="  155.268">  2  6  1 -1</clus>
<clus scale="  165.416">  1  3  2 -1</clus>
</clustering>
</event>
<event>
 6    0  0.3695460E+002  0.1823354E+03  0.7546771E-02  0.1165562E+00
         21   -1    0    0  503  502  0.00000000000E+00  0.00000000000E+00  0.57067308272E+03  0.57067308272E+03  0.00000000000E+00 0. -1.
          2   -1    0    0  504    0 -0.00000000000E+00 -0.00000000000E+00 -0.10954333268E+04  0.10954333268E+04  0.00000000000E+00 0. -1.
         21    1    1    2  503  505 -0.40837153273E+02  0.20629640152E+02  0.13597392187E+03  0.14346484785E+03  0.00000000000E+00 0. -1.
         21    1    1    2  504  502  0.44791425055E+02  0.79180937982E+01 -0.94441592819E+02  0.10482453159E+03  0.00000000000E+00 0.  1.
         21    1    1    2  505  501 -0.12696099803E+03 -0.52053579293E+02  0.41060442567E+03  0.43292570323E+03  0.00000000000E+00 0. -1.
          2    1    1    2  501    0  0.12300672625E+03  0.23505845343E+02 -0.97689699883E+03  0.98489132690E+03  0.00000000000E+00 0. -1.
<scales pt_clust_3="38.01630" pt_clust_4="45.48591" pt_clust_5="38.01630" pt_clust_6="170.03437"></scales>
<clustering>
<clus scale="   38.016">  3  5 -1 -1</clus>
<clus scale="   45.486">  2  4  1 -1</clus>
<clus scale="  170.034">  2  6  1 -1</clus>
<clus scale="  182.335">  1  3  2 -1</clus>
</clustering>
</event>
<event>
 6    0  0.3695460E+002  0.1050382E+03  0.7546771E-02  0.1270044E+00
         21   -1    0    0  505  502  0.00000000000E+00  0.00000000000E+00  0.26048289518E+02  0.26048289518E+02  0.00000000000E+00 0. -1.
          2   -1    0    0  503    0 -0.00000000000E+00 -0.00000000000E+00 -0.44949802250E+04  0.44949802250E+04  0.00000000000E+00 0.  1.
         21    1    1    2  503  502 -0.13350998714E+03  0.61157045885E+02 -0.22592136926E+03  0.26945420022E+03  0.00000000000E+00 0. -1.
         21    1    1    2  504  501  0.22577700677E+02 -0.24719137307E+02 -0.81276013652E+03  0.81344933943E+03  0.00000000000E+00 0. -1.
         21    1    1    2  505  504  0.48028706816E+02 -0.23701824477E+02 -0.19453587018E+03  0.20177397738E+03  0.00000000000E+00 0. -1.
          2    1    1    2  501    0  0.62903579647E+02 -0.12736084101E+02 -0.32357145596E+04  0.32363509975E+04  0.00000000000E+00 0.  1.
<scales pt_clust_3="94.90821" pt_clust_4="32.50447" pt_clust_5="53.55869" pt_clust_6="32.50447"></scales>
<clustering>
<clus scale="   32.504">  4  6 -1 -1</clus>
<clus scale="   53.559">  1  5  2 -1</clus>
<clus scale="   94.908">  1  3  2 -1</clus>
<clus scale="   53.559">  1  3  2 -1</clus>
</clustering>
</event>
<event>
 6    0  0.3695460E+002  0.1661260E+03  0.7546771E-02  0.1181949E+00
         21   -1    0    0  504  502  0.00000000000E+00  0.00000000000E+00  0.53497314577E+03  0.53497314577E+03  0.00000000000E+00 0.  1.
         -1   -1    0    0    0  501 -0.00000000000E+00 -0.00000000000E+00 -0.87216284463E+02  0.87216284463E+02  0.00000000000E+00 0.  1.
         21    1    1    2  503  501 -0.10288428359E+03 -0.82018630686E+02  0.17301774580E+03  0.21736460602E+03  0.00000000000E+00 0.  1.
         21    1    1    2  504  503 -0.12866481969E+02 -0.29956628227E+02  0.21647132430E+03  0.21891272274E+03  0.00000000000E+00 0.  1.
         21    1    1    2  505  502  0.74189532909E+02  0.43710955541E+02  0.61676584975E+02  0.10591853266E+03  0.00000000000E+00 0.  1.
         -1    1    1    2    0  505  0.41561232653E+02  0.68264303372E+02 -0.34087937708E+01  0.79993568801E+02  0.00000000000E+00 0.  1.
<scales pt_clust_3="149.55390" pt_clust_4="32.60285" pt_clust_5="70.80804" pt_clust_6="70.80804"></scales>
<clustering>
<clus scale="   32.603">  1  4  2 -1</clus>
<clus scale="   70.808">  5  6 -1 -1</clus>
<clus scale="  149.554">  1  3  2 -1</clus>
<clus scale="   32.603">  1  3  2 -1</clus>
</clustering>
</event>
<event>
 6    0  0.3695460E+002  0.1121885E+03  0.7546771E-02  0.1256570E+00
         21   -1    0    0  505  502  0.00000000000E+00  0.00000000000E+00  0.45500569737E+02  0.45500569737E+02  0.00000000000E+00 0. -1.
          2   -1    0    0  503    0 -0.00000000000E+00 -0.00000000000E+00 -0.10989988449E+04  0.10989988449E+04  0.00000000000E+00 0.  1.
         21    1    1    2  503  502  0.84721761852E+02 -0.11147825919E+03 -0.51273368042E+03  0.53150823723E+03  0.00000000000E+00 0. -1.
         21    1    1    2  504  501 -0.51276748860E+02  0.73973426357E+02 -0.35037879749E+03  0.36175499238E+03  0.00000000000E+00 0.  1.
         21    1    1    2  505  504 -0.61896734145E+02 -0.55917739809E+01 -0.91893739467E+01  0.62824503401E+02  0.00000000000E+00 0. -1.
          2    1    1    2  501    0  0.28451721152E+02  0.43096606814E+02 -0.18119642331E+03  0.18841168163E+03  0.00000000000E+00 0.  1.
<scales pt_clust_3="14000.00000" pt_clust_4="112.18850" pt_clust_5="60.90076" pt_clust_6="51.64124"></scales>
<clustering>
<clus scale="   51.641">  2  6  1 -1</clus>
<clus scale="   60.901">  1  5  2 -1</clus>
<clus scale="  112.189">  2  4  1 -1</clus>
<clus scale="   60.901">  1  3  2 -1</clus>
</clustering>
</event>
<event>
 6    0  0.3695460E+002  0.2325820E+03  0.7546771E-02  0.1124836E+00
         21   -1    0    0  503  502  0.00000000000E+00  0.00000000000E+00  0.24992553321E+03  0.24992553321E+03  0.00000000000E+00 0.  1.
          2   -1    0    0  504    0 -0.00000000000E+00 -0.00000000000E+00 -0.12002552778E+04  0.12002552778E+04  0.00000000000E+00 0.  1.
         21    1    1    2  503  505  0.76358939053E+02 -0.17795015842E+02  0.31995017549E+02  0.84681942055E+02  0.00000000000E+00 0.  1.
         21    1    1    2  504  502  0.65206820418E+02 -0.49635882102E+02 -0.21442687308E+03  0.22955290049E+03  0.00000000000E+00 0. -1.
         21    1    1    2  505  501  0.14610752058E+03  0.70354398223E+01  0.12718225425E+03  0.19383557666E+03  0.00000000000E+00 0.  1.
          2    1    1    2  501    0 -0.28767328005E+03  0.60395458122E+02 -0.89508014334E+03  0.94211039185E+03  0.00000000000E+00 0.  1.
<scales pt_clust_3="37.52809" pt_clust_4="81.94907" pt_clust_5="37.52809" pt_clust_6="226.86314"></scales>
<clustering>
<clus scale="   37.528">  3  5 -1 -1</clus>
<clus scale="   81.949">  2  4  1 -1</clus>
<clus scale="  226.863">  2  6  1 -1</clus>
<clus scale="  232.582">  1  3  2 -1</clus>
</clustering>
</event>
<event>
 6    0  0.3695460E+002  0.8449499E+02  0.7546771E-02  0.1316758E+00
         21   -1    0    0  504  502  0.00000000000E+00  0.00000000000E+00  0.11410530439E+04  0.11410530439E+04  0.00000000000E+00 0. -1.
         -1   -1    0    0    0  501 -0.00000000000E+00 -0.00000000000E+00 -0.37450017743E+02  0.37450017743E+02  0.00000000000E+00 0. -1.
         21    1    1    2  503  501  0.78662033078E+01 -0.99242931285E+02  0.54886257260E+02  0.11368173908E+03  0.00000000000E+00 0. -1.
         21    1    1    2  504  503 -0.47822382896E+02  0.45775629709E+01  0.55755582536E+03  0.55962168719E+03  0.00000000000E+00 0. -1.
         21    1    1    2  505  502  0.59176352446E+01  0.41560407127E+02  0.32082112069E+03  0.32355598793E+03  0.00000000000E+00 0. -1.
         -1    1    1    2    0  505  0.34038544344E+02  0.53104961187E+02  0.17033982284E+03  0.18164364743E+03  0.00000000000E+00 0. -1.
<scales pt_clust_3="14000.00000" pt_clust_4="54.78539" pt_clust_5="41.97959" pt_clust_6="84.49499"></scales>
<clustering>
<clus scale="   41.980">  1  5  2 -1</clus>
<clus scale="   54.785">  1  4  2 -1</clus>
<clus scale="   84.495">  1  6  2 -1</clus>
<clus scale="   41.980">  1  3  2 -1</clus>
</clustering>
</event>
<event>
 6    0  0.3695460E+002  0.9159592E+02  0.7546771E-02  0.1299032E+00
          2   -1    0    0  504    0 -0.00000000000E+00  0.00000000000E+00  0.26348662465E+03  0.26348662465E+03  0.00000000000E+00 0.  1.
         21   -1    0    0  505  502  0.00000000000E+00 -0.00000000000E+00 -0.13929446759E+03  0.13929446759E+03  0.00000000000E+00 0.  1.
         21    1    1    2  503  502 -0.82807935198E+02 -0.26398719678E+02 -0.87555917545E+02  0.12336970953E+03  0.00000000000E+00 0.  1.
         21    1    1    2  504  503  0.45636272791E+02 -0.56951385869E+02  0.43700603491E+02  0.85063931793E+02  0.00000000000E+00 0. -1.
         21    1    1    2  505  501  0.22365508581E+02  0.32839986407E+02  0.42330793297E+02  0.58056668372E+02  0.00000000000E+00 0.  1.
          2    1    1    2  501    0  0.14806153826E+02  0.50510119140E+02  0.12571667781E+03  0.13629078254E+03  0.00000000000E+00 0.  1.
<scales pt_clust_3="84.78093" pt_clust_4="72.98034" pt_clust_5="30.12227" pt_clust_6="30.12227"></scales>
<clustering>
<clus scale="   30.122">  5  6 -1 -1</clus>
<clus scale="   72.980">  1  4  2 -1</clus>
<clus scale="   84.781">  2  3  1 -1</clus>
<clus scale="   84.781">  2  3  1 -1</clus>
</clustering>
</event>
<event>
 6    0  0.3695460E+002  0.2302340E+03  0.7546771E-02  0.1126475E+00
          2   -1    0    0  504    0 -0.00000000000E+00  0.00000000000E+00  0.11694214462E+04  0.11694214462E+04  0.00000000000E+00 0. -1.
         21   -1    0    0  501  502  0.00000000000E+00 -0.00000000000E+00 -0.69233853995E+02  0.69233853995E+02  0.00000000000E+00 0. -1.
         21    1    1    2  503  502  0.16340831298E+02 -0.57416131887E+02  0.21887598383E+02  0.63582245410E+02  0.00000000000E+00 0. -1.
         21    1    1    2  504  505  0.65754029955E+02 -0.72951060272E+02  0.13017621964E+03  0.16306838384E+03  0.00000000000E+00 0. -1.
         21    1    1    2  505  503  0.43419672744E+02 -0.37917698873E+02  0.20909485079E+02  0.61320685215E+02  0.00000000000E+00 0.  1.
          2    1    1    2  501    0 -0.12551453400E+03  0.16828489103E+03  0.92721428908E+03  0.95068398570E+03  0.00000000000E+00 0. -1.
<scales pt_clust_3="79.35398" pt_clust_4="79.35398" pt_clust_5="32.72905" pt_clust_6="209.93738"></scales>
<clustering>
<clus scale="   32.729">  3  5 -1 -1</clus>
<clus scale="   79.354">  3  4 -1 -1</clus>
<clus scale="  209.937">  1  6  2 -1</clus>
<clus scale="  230.234">  2  3  1 -1</clus>
</clustering>
</event>
<event>
 6    0  0.3695460E+002  0.8078117E+02  0.7546771E-02  0.1326849E+00
         21   -1    0    0  501  502  0.00000000000E+00  0.00000000000E+00  0.72400349498E+03  0.72400349498E+03  0.00000000000E+00 0. -1.
          1   -1    0    0  504    0 -0.00000000000E+00 -0.00000000000E+00 -0.76325198668E+03  0.76325198668E+03  0.00000000000E+00 0. -1.
         21    1    1    2  503  505 -0.92633677729E+02 -0.84337847561E+02  0.24475252777E+03  0.27495030575E+03  0.00000000000E+00 0. -1.
         21    1    1    2  504  503 -0.41448102841E+02  0.34044051745E+01 -0.17943852377E+03  0.18419478553E+03  0.00000000000E+00 0. -1.
         21    1    1    2  505  502  0.43225112567E+02  0.22517169963E+02  0.45531113468E+03  0.45791228708E+03  0.00000000000E+00 0. -1.
          1    1    1    2  501    0  0.90856668003E+02  0.58416272423E+02 -0.55987363038E+03  0.57019810330E+03  0.00000000000E+00 0. -1.
<scales pt_clust_3="14000.00000" pt_clust_4="41.58768" pt_clust_5="48.65974" pt_clust_6="80.78117"></scales>
<clustering>
<clus scale="   41.588">  2  4  1 -1</clus>
<clus scale="   48.660">  1  5  2 -1</clus>
<clus scale="   80.781">  2  6  1 -1</clus>
<clus scale="   48.660">  1  3  2 -1</clus>
</clustering>
</event>
<event>
 6    0  0.3695460E+002  0.1113294E+03  0.7546771E-02  0.1258128E+00
         21   -1    0    0  505  502  0.00000000000E+00  0.00000000000E+00  0.24190888570E+02  0.24190888570E+02  0.00000000000E+00 0. -1.
          2   -1    0    0  503    0 -0.00000000000E+00 -0.00000000000E+00 -0.24943608649E+04  0.24943608649E+04  0.00000000000E+00 0.  1.
         21    1    1    2  503  504 -0.13753574950E+02 -0.54874535999E+02 -0.11018999394E+03  0.12386367623E+03  0.00000000000E+00 0. -1.
         21    1    1    2  504  502 -0.26060379964E+02 -0.32212770183E+02 -0.25428160425E+02  0.48614784884E+02  0.00000000000E+00 0. -1.
         21    1    1    2  505  501  0.10716327528E+03  0.10637015635E+03 -0.12175458703E+04  0.12268726601E+04  0.00000000000E+00 0.  1.
          2    1    1    2  501    0 -0.67349320365E+02 -0.19282850169E+02 -0.11170059517E+04  0.11192006323E+04  0.00000000000E+00 0.  1.
<scales pt_clust_3="40.02422" pt_clust_4="40.02422" pt_clust_5="101.02998" pt_clust_6="70.05540"></scales>
<clustering>
<clus scale="   40.024">  3  4 -1 -1</clus>
<clus scale="   70.055">  2  6  1 -1</clus>
<clus scale="  101.030">  2  5  1 -1</clus>
<clus scale="  111.329">  1  3  2 -1</clus>
</clustering>
</event>
<event>
 6    0  0.3695460E+002  0.1333660E+03  0.7546771E-02  0.1222545E+00
         21   -1    0    0  503  502  0.00000000000E+00  0.00000000000E+00  0.17501080108E+03  0.17501080108E+03  0.00000000000E+00 0.  1.
         -1   -1    0    0    0  501 -0.00000000000E+00 -0.00000000000E+00 -0.19175136201E+03  0.19175136201E+03  0.00000000000E+00 0.  1.
         21    1    1    2  503  504  0.59923022101E+02 -0.41371910592E+02  0.80521333396E+01  0.73261452450E+02  0.00000000000E+00 0.  1.
         21    1    1    2  504  505  0.43481343489E+02 -0.26259243385E+01  0.44294574438E+02  0.62125132071E+02  0.00000000000E+00 0.  1.
         21    1    1    2  505  501  0.19883706119E+00 -0.67620261675E+02 -0.31042188433E+02  0.74405354564E+02  0.00000000000E+00 0.  1.
         -1    1    1    2    0  502 -0.10360320265E+03  0.11161809661E+03 -0.38045080279E+02  0.15697022400E+03  0.00000000000E+00 0.  1.
<scales pt_clust_3="42.08753" pt_clust_4="42.08753" pt_clust_5="67.62055" pt_clust_6="121.75960"></scales>
<clustering>
<clus scale="   42.088">  3  4 -1 -1</clus>
<clus scale="   67.621">  2  5  1 -1</clus>
<clus scale="  121.760">  2  6  1 -1</clus>
<clus scale="  133.366">  1  3  2 -1</clus>
</clustering>
</event>
<event>
 6    0  0.3695460E+002  0.2478934E+03  0.7546771E-02  0.1114643E+00
         -2   -1    0    0    0  501 -0.00000000000E+00  0.00000000000E+00  0.11855049256E+04  0.11855049256E+04  0.00000000000E+00 0. -1.
         21   -1    0    0  505  502  0.00000000000E+00 -0.00000000000E+00 -0.17264115174E+03  0.17264115174E+03  0.00000000000E+00 0.  1.
         21    1    1    2  503  502  0.14043681549E+03 -0.11333234935E+03  0.69315165838E+03  0.71625829284E+03  0.00000000000E+00 0. -1.
         21    1    1    2  504  501 -0.10709706709E+03  0.92742723101E+02 -0.19885937611E+01  0.14168609308E+03  0.00000000000E+00 0.  1.
         21    1    1    2  505  504 -0.83607707307E+02  0.48483102909E+02 -0.60288795340E+02  0.11391048605E+03  0.00000000000E+00 0.  1.
         -2    1    1    2    0  503  0.50267958907E+02 -0.27893476656E+02  0.38198950460E+03  0.38629120539E+03  0.00000000000E+00 0. -1.
<scales pt_clust_3="32.78372" pt_clust_4="59.20460" pt_clust_5="59.20460" pt_clust_6="244.30898"></scales>
<clustering>
<clus scale="   32.784">  3  6 -1 -1</clus>
<clus scale="   59.205">  4  5 -1 -1</clus>
<clus scale="  244.309">  1  3  2 -1</clus>
<clus scale="  247.893">  2  3  1 -1</clus>
</clustering>
</event>
<event>
 6    0  0.3695460E+002  0.1801535E+03  0.7546771E-02  0.1167655E+00
          2   -1    0    0  502    0 -0.00000000000E+00  0.00000000000E+00  0.41457590469E+03  0.41457590469E+03  0.00000000000E+00 0. -1.
         21   -1    0    0  503  502  0.00000000000E+00 -0.00000000000E+00 -0.42336647203E+03  0.42336647203E+03  0.00000000000E+00 0. -1.
         21    1    1    2  503  505  0.80581159839E+02  0.34924874886E+02 -0.23779009433E+03  0.25349003761E+03  0.00000000000E+00 0. -1.
         21    1    1    2  504  501 -0.68369800569E+02  0.46545379504E+02  0.12076649187E+03  0.14637434045E+03  0.00000000000E+00 0. -1.
         21    1    1    2  505  504  0.89282445297E+02 -0.76940423121E+02 -0.13217085853E+03  0.17708845132E+03  0.00000000000E+00 0. -1.
          2    1    1    2  501    0 -0.10149380457E+03 -0.45298312692E+01  0.24040389365E+03  0.26098954733E+03  0.00000000000E+00 0. -1.
<scales pt_clust_3="87.82409" pt_clust_4="63.04585" pt_clust_5="166.05108" pt_clust_6="63.04585"></scales>
<clustering>
<clus scale="   63.046">  4  6 -1 -1</clus>
<clus scale="   87.824">  2  3  1 -1</clus>
<clus scale="  166.051">  2  5  1 -1</clus>
<clus scale="   87.824">  2  3  1 -1</clus>
</clustering>
</event>
<event>
 6    0  0.3695460E+002  0.2773667E+03  0.7546771E-02  0.1097136E+00
         -2   -1    0    0    0  501 -0.00000000000E+00  0.00000000000E+00  0.55147442663E+03  0.55147442663E+03  0.00000000000E+00 0.  1.
         21   -1    0    0  503  502  0.00000000000E+00 -0.00000000000E+00 -0.19854790477E+04  0.19854790477E+04  0.00000000000E+00 0.  1.
         21    1    1    2  503  501 -0.65575223617E+02  0.25535999664E+02  0.56175768658E+01  0.70595710925E+02  0.00000000000E+00 0. -1.
         21    1    1    2  504  505 -0.12243470203E+03  0.52919848729E+02 -0.71173938260E+03  0.72412962610E+03  0.00000000000E+00 0.  1.
         21    1    1    2  505  502 -0.94163361090E+02  0.96337214641E+02 -0.11764888759E+04  0.11841763689E+04  0.00000000000E+00 0.  1.
         -2    1    1    2    0  504  0.28217328674E+03 -0.17479306303E+03  0.44860606058E+03  0.55805176841E+03  0.00000000000E+00 0.  1.
<scales pt_clust_3="70.37185" pt_clust_4="83.56645" pt_clust_5="83.56645" pt_clust_6="264.38390"></scales>
<clustering>
<clus scale="   70.372">  1  3  2 -1</clus>
<clus scale="   83.566">  4  5 -1 -1</clus>
<clus scale="  264.384">  1  6  2 -1</clus>
<clus scale="  277.367">  2  3  1 -1</clus>
</clustering>
</event>
<event>
 6    0  0.3695460E+002  0.1450244E+03  0.7546771E-02  0.1206724E+00
          1   -1    0    0  504    0 -0.00000000000E+00  0.00000000000E+00  0.88497533493E+02  0.88497533493E+02  0.00000000000E+00 0. -1.
         21   -1    0    0  505  502  0.00000000000E+00 -0.00000000000E+00 -0.81922235407E+03  0.81922235407E+03  0.00000000000E+00 0.  1.
         21    1    1    2  503  502 -0.32332068291E+02  0.73073851272E+00 -0.47754307516E+03  0.47863690335E+03  0.00000000000E+00 0.  1.
         21    1    1    2  504  503 -0.11187247627E+03  0.71690797515E+00 -0.25368994895E+03  0.27726261036E+03  0.00000000000E+00 0.  1.
         21    1    1    2  505  501  0.66877394933E+02  0.19001962764E+02 -0.12922093540E+02  0.70715210834E+02  0.00000000000E+00 0.  1.
          1    1    1    2  501    0  0.77327149633E+02 -0.20449609252E+02  0.13430297071E+02  0.81105163019E+02  0.00000000000E+00 0. -1.
<scales pt_clust_3="32.34032" pt_clust_4="137.03999" pt_clust_5="43.88888" pt_clust_6="43.88888"></scales>
<clustering>
<clus scale="   32.340">  2  3  1 -1</clus>
<clus scale="   43.889">  5  6 -1 -1</clus>
<clus scale="  137.040">  2  4  1 -1</clus>
<clus scale="   32.340">  2  3  1 -1</clus>
</clustering>
</event>
<event>
 6    0  0.3695460E+002  0.1222269E+03  0.7546771E-02  0.1239468E+00
         21   -1    0    0  501  502  0.00000000000E+00  0.00000000000E+00  0.60600324061E+02  0.60600324061E+02  0.00000000000E+00 0.  1.
          1   -1    0    0  503    0 -0.00000000000E+00 -0.00000000000E+00 -0.43428075216E+04  0.43428075216E+04  0.00000000000E+00 0.  1.
         21    1    1    2  503  505  0.21693566741E+02 -0.22988836207E+02 -0.13954445850E+03  0.14307953497E+03  0.00000000000E+00 0.  1.
         21    1    1    2  504  502  0.10847237484E+02 -0.30817655395E+02  0.19338267266E+02  0.37965234438E+02  0.00000000000E+00 0.  1.
         21    1    1    2  505  504 -0.36881128974E+01 -0.79898068645E+02 -0.26002924529E+02  0.84103838403E+02  0.00000000000E+00 0.  1.
          1    1    1    2  501    0 -0.28852691328E+02  0.13370456025E+03 -0.41359980818E+04  0.41382592379E+04  0.00000000000E+00 0.  1.
<scales pt_clust_3="31.60850" pt_clust_4="32.22985" pt_clust_5="32.22985" pt_clust_6="111.32027"></scales>
<clustering>
<clus scale="   31.609">  2  3  1 -1</clus>
<clus scale="   32.230">  4  5 -1 -1</clus>
<clus scale="  111.320">  2  6  1 -1</clus>
<clus scale="  122.227">  1  3  2 -1</clus>
</clustering>
</event>
<event>
 6    0  0.3695460E+002  0.1156397E+03  0.7546771E-02  0.1250469E+00
         21   -1    0    0  504  502  0.00000000000E+00  0.00000000000E+00  0.12874843262E+04  0.12874843262E+04  0.00000000000E+00 0. -1.
         -4   -1    0    0    0  501 -0.00000000000E+00 -0.00000000000E+00 -0.73328753276E+03  0.73328753276E+03  0.00000000000E+00 0. -1.
         21    1    1    2  503  501  0.28295077611E+02  0.21893577895E+02 -0.16463618149E+03  0.16847852215E+03  0.00000000000E+00 0.  1.
         21    1    1    2  504  503 -0.21492875936E+02  0.30218285420E+02  0.20479054141E+03  0.20812076864E+03  0.00000000000E+00 0. -1.
         21    1    1    2  505  502 -0.91553263516E+02 -0.42075821870E+01  0.10729462232E+04  0.10768534263E+04  0.00000000000E+00 0. -1.
         -4    1    1    2    0  505  0.84751061841E+02 -0.47904281128E+02 -0.55890378968E+03  0.56731914188E+03  0.00000000000E+00 0. -1.
<scales pt_clust_3="35.77625" pt_clust_4="37.08657" pt_clust_5="14000.00000" pt_clust_6="115.63974"></scales>
<clustering>
<clus scale="   35.776">  2  3  1 -1</clus>
<clus scale="   37.087">  1  4  2 -1</clus>
<clus scale="  115.640">  2  6  1 -1</clus>
<clus scale="   37.087">  1  3  2 -1</clus>
</clustering>
</event>
<event>
 6    0  0.3695460E+002  0.6409560E+02  0.7546771E-02  0.1381406E+00
         21   -1    0    0  503  502  0.00000000000E+00  0.00000000000E+00  0.19241764278E+03  0.19241764278E+03  0.00000000000E+00 0. -1.
          2   -1    0    0  505    0 -0.00000000000E+00 -0.00000000000E+00 -0.10127988324E+04  0.10127988324E+04  0.00000000000E+00 0. -1.
         21    1    1    2  503  501 -0.55959742211E+02  0.46744787244E+01  0.30522096002E+02  0.63913549768E+02  0.00000000000E+00 0. -1.
         21    1    1    2  504  502  0.10961597962E+03  0.26560711485E+02  0.11774271044E+03  0.16304747850E+03  0.00000000000E+00 0. -1.
         21    1    1    2  505  504 -0.47192865327E+02 -0.72160365436E+02 -0.79831429851E+03  0.80295703750E+03  0.00000000000E+00 0. -1.
          2    1    1    2  501    0 -0.64633720788E+01  0.40925175227E+02 -0.17033169754E+03  0.17529840938E+03  0.00000000000E+00 0. -1.
<scales pt_clust_3="56.35605" pt_clust_4="14000.00000" pt_clust_5="64.09560" pt_clust_6="41.43242"></scales>
<clustering>
<clus scale="   41.432">  2  6  1 -1</clus>
<clus scale="   56.356">  1  3  2 -1</clus>
<clus scale="   64.096">  2  5  1 -1</clus>
<clus scale="   56.356">  1  3  2 -1</clus>
</clustering>
</event>
<event>
 6    0  0.3695460E+002  0.8403110E+02  0.7546771E-02  0.1317986E+00
          2   -1    0    0  505    0 -0.00000000000E+00  0.00000000000E+00  0.21336404796E+03  0.21336404796E+03  0.00000000000E+00 0.  1.
         21   -1    0    0  503  502  0.00000000000E+00 -0.00000000000E+00 -0.11436381746E+04  0.11436381746E+04  0.00000000000E+00 0.  1.
         21    1    1    2  503  501 -0.19996477458E+02  0.52775812896E+02 -0.46085824563E+03  0.46430105331E+03  0.00000000000E+00 0.  1.
         21    1    1    2  504  502 -0.64182752395E+02 -0.14160057918E+02 -0.41636252428E+03  0.42151830870E+03  0.00000000000E+00 0.  1.
         21    1    1    2  505  504 -0.61587063329E+02 -0.55188999565E+02  0.17869478216E+03  0.19690255767E+03  0.00000000000E+00 0.  1.
          2    1    1    2  501    0  0.14576629318E+03  0.16573244586E+02 -0.23174813888E+03  0.27428030286E+03  0.00000000000E+00 0.  1.
<scales pt_clust_3="56.43709" pt_clust_4="78.64298" pt_clust_5="84.03110" pt_clust_6="14000.00000"></scales>
<clustering>
<clus scale="   56.437">  2  3  1 -1</clus>
<clus scale="   78.643">  2  4  1 -1</clus>
<clus scale="   84.031">  1  5  2 -1</clus>
<clus scale="   56.437">  2  3  1 -1</clus>
</clustering>
</event>
<event>
 6    0  0.3695460E+002  0.1459201E+03  0.7546771E-02  0.1205578E+00
          2   -1    0    0  504    0 -0.00000000000E+00  0.00000000000E+00  0.21100084960E+04  0.21100084960E+04  0.00000000000E+00 0. -1.
         21   -1    0    0  503  502  0.00000000000E+00 -0.00000000000E+00 -0.31093715957E+03  0.31093715957E+03  0.00000000000E+00 0. -1.
         21    1    1    2  503  501  0.15400331138E+03 -0.40891522544E+02 -0.22172749726E+03  0.27304252338E+03  0.00000000000E+00 0. -1.
         21    1    1    2  504  505 -0.39067776893E+02  0.41206292558E+01  0.63763940751E+03  0.63884840517E+03  0.00000000000E+00 0. -1.
         21    1    1    2  505  502 -0.11859514918E+03  0.47933294193E+01 -0.66448193534E+01  0.11887783242E+03  0.00000000000E+00 0. -1.
          2    1    1    2  501    0  0.36596146906E+01  0.31977563869E+02  0.13898042456E+04  0.13901768946E+04  0.00000000000E+00 0. -1.
<scales pt_clust_3="145.92015" pt_clust_4="48.34680" pt_clust_5="14000.00000" pt_clust_6="32.18629"></scales>
<clustering>
<clus scale="   32.186">  1  6  2 -1</clus>
<clus scale="   48.347">  1  4  2 -1</clus>
<clus scale="  145.920">  2  3  1 -1</clus>
<clus scale="  145.920">  2  3  1 -1</clus>
</clustering>
</event>
<event>
 6    0  0.3695460E+002  0.8295401E+02  0.7546771E-02  0.1320871E+00
         21   -1    0    0  503  502  0.00000000000E+00  0.00000000000E+00  0.20660808332E+04  0.20660808332E+04  0.00000000000E+00 0.  1.
         -2   -1    0    0    0  501 -0.00000000000E+00 -0.00000000000E+00 -0.17145613946E+03  0.17145613946E+03  0.00000000000E+00 0.  1.
         21    1    1    2  503  504  0.40748063977E+02 -0.59729623669E+02  0.42803725198E+03  0.43410128052E+03  0.00000000000E+00 0.  1.
         21    1    1    2  504  501 -0.56223529840E+01 -0.29644472284E+02 -0.66459767173E+01  0.30896190649E+02  0.00000000000E+00 0.  1.
         21    1    1    2  505  502 -0.80859989342E+02  0.13225499609E+03  0.16124362587E+04  0.16198704918E+04  0.00000000000E+00 0.  1.
         -2    1    1    2    0  505  0.45734278350E+02 -0.42880900137E+02 -0.13920284018E+03  0.15266900972E+03  0.00000000000E+00 0.  1.
<scales pt_clust_3="72.72975" pt_clust_4="30.17293" pt_clust_5="82.95401" pt_clust_6="14000.00000"></scales>
<clustering>
<clus scale="   30.173">  2  4  1 -1</clus>
<clus scale="   72.730">  1  3  2 -1</clus>
<clus scale="   82.954">  1  5  2 -1</clus>
<clus scale="   72.730">  1  3  2 -1</clus>
</clustering>
</event>
<event>
 6    0  0.3695460E+002  0.1452167E+03  0.7546771E-02  0.1206477E+00
          2   -1    0    0  502    0 -0.00000000000E+00  0.00000000000E+00  0.19941168783E+03  0.19941168783E+03  0.00000000000E+00 0. -1.
         21   -1    0    0  505  502  0.00000000000E+00 -0.00000000000E+00 -0.26172965140E+03  0.26172965140E+03  0.00000000000E+00 0. -1.
         21    1    1    2  503  501 -0.14203242813E+02  0.46830236773E+02  0.23837835162E+02  0.54433864164E+02  0.00000000000E+00 0.  1.
         21    1    1    2  504  503  0.40042996161E+02 -0.11118581702E+03 -0.17061669080E+03  0.20754706124E+03  0.00000000000E+00 0. -1.
         21    1    1    2  505  504  0.40128638751E+02 -0.37704733354E+01 -0.30200419960E+02  0.50364565748E+02  0.00000000000E+00 0.  1.
          2    1    1    2  501    0 -0.65968392098E+02  0.68126053585E+02  0.11466131202E+03  0.14879584809E+03  0.00000000000E+00 0. -1.
<scales pt_clust_3="35.75856" pt_clust_4="136.41862" pt_clust_5="40.30539" pt_clust_6="35.75856"></scales>
<clustering>
<clus scale="   35.759">  3  6 -1 -1</clus>
<clus scale="   40.305">  2  5  1 -1</clus>
<clus scale="  136.419">  2  4  1 -1</clus>
<clus scale="   40.305">  2  3  1 -1</clus>
</clustering>
</event>
<event>
 6    0  0.3695460E+002  0.9624983E+02  0.7546771E-02  0.1288386E+00
         21   -1    0    0  504  502  0.00000000000E+00  0.00000000000E+00  0.23813881635E+03  0.23813881635E+03  0.00000000000E+00 0.  1.
         -3   -1    0    0    0  501 -0.00000000000E+00 -0.00000000000E+00 -0.15293360836E+04  0.15293360836E+04  0.00000000000E+00 0.  1.
         21    1    1    2  503  501  0.28105450168E+02  0.14220665535E+03 -0.62057806700E+03  0.63728312891E+03  0.00000000000E+00 0.  1.
         21    1    1    2  504  503 -0.14136883155E+02 -0.27478920360E+02 -0.17237660559E+01  0.30950184150E+02  0.00000000000E+00 0.  1.
         21    1    1    2  505  502  0.10881998188E+02 -0.33892998710E+02  0.21166101652E+03  0.21463349962E+03  0.00000000000E+00 0.  1.
         -3    1    1    2    0  505 -0.24850565201E+02 -0.80834736276E+02 -0.88055645073E+03  0.88460808729E+03  0.00000000000E+00 0.  1.
<scales pt_clust_3="96.24983" pt_clust_4="30.90214" pt_clust_5="60.15222" pt_clust_6="14000.00000"></scales>
<clustering>
<clus scale="   30.902">  1  4  2 -1</clus>
<clus scale="   60.152">  1  5  2 -1</clus>
<clus scale="   96.250">  1  3  2 -1</clus>
<clus scale="   30.902">  1  3  2 -1</clus>
</clustering>
</event>
<event>
 6    0  0.3695460E+002  0.1595415E+03  0.7546771E-02  0.1189215E+00
          2   -1    0    0  503    0 -0.00000000000E+00  0.00000000000E+00  0.24905233232E+03  0.24905233232E+03  0.00000000000E+00 0.  1.
         21   -1    0    0  501  502  0.00000000000E+00 -0.00000000000E+00 -0.48076928622E+03  0.48076928622E+03  0.00000000000E+00 0. -1.
         21    1    1    2  503  505  0.49509202892E+02 -0.61951853754E+01  0.47757720987E+02  0.69067658182E+02  0.00000000000E+00 0.  1.
         21    1    1    2  504  502  0.48544308699E+02  0.79586064717E+02 -0.22979005811E+03  0.24797976210E+03  0.00000000000E+00 0. -1.
         21    1    1    2  505  504  0.20529544209E+01  0.65149643063E+02 -0.18411974980E+03  0.19531710852E+03  0.00000000000E+00 0. -1.
          2    1    1    2  501    0 -0.10010646601E+03 -0.13854052241E+03  0.13443513303E+03  0.21745708974E+03  0.00000000000E+00 0.  1.
<scales pt_clust_3="49.89531" pt_clust_4="34.29664" pt_clust_5="34.29664" pt_clust_6="154.17920"></scales>
<clustering>
<clus scale="   34.297">  4  5 -1 -1</clus>
<clus scale="   49.895">  1  3  2 -1</clus>
<clus scale="  154.179">  1  6  2 -1</clus>
<clus scale="  159.542">  2  3  1 -1</clus>
</clustering>
</event>
<event>
 6    0  0.3695460E+002  0.1659403E+03  0.7546771E-02  0.1182149E+00
          2   -1    0    0  503    0 -0.00000000000E+00  0.00000000000E+00  0.13892874347E+04  0.13892874347E+04  0.00000000000E+00 0. -1.
         21   -1    0    0  504  502  0.00000000000E+00 -0.00000000000E+00 -0.53859585213E+02  0.53859585213E+02  0.00000000000E+00 0.  1.
         21    1    1    2  503  505 -0.19249810261E+01  0.78516425629E+02  0.59500117218E+02  0.98533235989E+02  0.00000000000E+00 0.  1.
         21    1    1    2  504  501 -0.81146643134E+00 -0.10862482725E+03  0.94801657258E+03  0.95421980354E+03  0.00000000000E+00 0.  1.
         21    1    1    2  505  502 -0.20092587762E+02  0.78768339391E+02  0.28416097955E+02  0.86114098709E+02  0.00000000000E+00 0.  1.
          2    1    1    2  501    0  0.22829035220E+02 -0.48659937767E+02  0.29949506177E+03  0.30427988172E+03  0.00000000000E+00 0. -1.
<scales pt_clust_3="33.21839" pt_clust_4="33.82937" pt_clust_5="162.37419" pt_clust_6="33.82937"></scales>
<clustering>
<clus scale="   33.218">  3  5 -1 -1</clus>
<clus scale="   33.829">  4  6 -1 -1</clus>
<clus scale="  162.374">  2  3  1 -1</clus>
<clus scale="  162.374">  2  3  1 -1</clus>
</clustering>
</event>
<event>
 6    0  0.3695460E+002  0.8574320E+02  0.7546771E-02  0.1313500E+00
          1   -1    0    0  503    0 -0.00000000000E+00  0.00000000000E+00  0.32102648303E+04  0.32102648303E+04  0.00000000000E+00 0. -1.
         21   -1    0    0  504  502  0.00000000000E+00 -0.00000000000E+00 -0.23614894595E+03  0.23614894595E+03  0.00000000000E+00 0. -1.
         21    1    1    2  503  505  0.22468636595E+02  0.36486757219E+02  0.41841828441E+03  0.42060668541E+03  0.00000000000E+00 0. -1.
         21    1    1    2  504  501  0.28001540473E+02  0.91161145358E+02 -0.19251979841E+03  0.21484485907E+03  0.00000000000E+00 0. -1.
         21    1    1    2  505  502 -0.45926288974E+02 -0.44273743562E+02  0.23597932187E+01  0.63835389964E+02  0.00000000000E+00 0. -1.
          1    1    1    2  501    0 -0.45438880948E+01 -0.83374159015E+02  0.27458576052E+04  0.27471268418E+04  0.00000000000E+00 0. -1.
<scales pt_clust_3="42.85001" pt_clust_4="14000.00000" pt_clust_5="85.74320" pt_clust_6="50.61301"></scales>
<clustering>
<clus scale="   42.850">  1  3  2 -1</clus>
<clus scale="   50.613">  1  6  2 -1</clus>
<clus scale="   85.743">  1  5  2 -1</clus>
<clus scale="   85.743">  2  3  1 -1</clus>
</clustering>
</event>
<event>
 6    0  0.3695460E+002  0.3311787E+03  0.7546771E-02  0.1070617E+00
         21   -1    0    0  504  502  0.00000000000E+00  0.00000000000E+00  0.16419242713E+04  0.16419242713E+04  0.00000000000E+00 0. -1.
          2   -1    0    0  502    0 -0.00000000000E+00 -0.00000000000E+00 -0.14170841216E+04  0.14170841216E+04  0.00000000000E+00 0. -1.
         21    1    1    2  503  505  0.11052027181E+03 -0.84664870466E+02  0.45836584646E+03  0.47904292080E+03  0.00000000000E+00 0.  1.
         21    1    1    2  504  503  0.17053986805E+03 -0.33920993585E+02  0.11493929749E+04  0.11624709421E+04  0.00000000000E+00 0. -1.
         21    1    1    2  505  501 -0.17205508155E+03  0.77549495710E+02 -0.71451623619E+03  0.73901984219E+03  0.00000000000E+00 0. -1.
          2    1    1    2  501    0 -0.10900505832E+03  0.41036368341E+02 -0.66840243552E+03  0.67847468787E+03  0.00000000000E+00 0. -1.
<scales pt_clust_3="115.36380" pt_clust_4="115.36380" pt_clust_5="48.23130" pt_clust_6="311.16987"></scales>
<clustering>
<clus scale="   48.231">  5  6 -1 -1</clus>
<clus scale="  115.364">  3  4 -1 -1</clus>
<clus scale="  311.170">  2  5  1 -1</clus>
<clus scale="  331.179">  1  3  2 -1</clus>
</clustering>
</event>
<event>
 6    0  0.3695460E+002  0.8340947E+02  0.7546771E-02  0.1319645E+00
          2   -1    0    0  504    0 -0.00000000000E+00  0.00000000000E+00  0.28253395686E+04  0.28253395686E+04  0.00000000000E+00 0. -1.
         21   -1    0    0  501  502  0.00000000000E+00 -0.00000000000E+00 -0.46951869306E+02  0.46951869306E+02  0.00000000000E+00 0.  1.
         21    1    1    2  503  502 -0.38999878323E+02  0.77227704093E+02  0.16569773013E+02  0.88088967336E+02  0.00000000000E+00 0.  1.
         21    1    1    2  504  505 -0.38683345136E+02 -0.17744979736E+02  0.26435547829E+03  0.26775941515E+03  0.00000000000E+00 0.  1.
         21    1    1    2  505  503  0.96297914647E+02 -0.20819588104E+02  0.25206148786E+03  0.27063210688E+03  0.00000000000E+00 0.  1.
          2    1    1    2  501    0 -0.18614691188E+02 -0.38663136253E+02  0.22454009602E+04  0.22458109486E+04  0.00000000000E+00 0. -1.
<scales pt_clust_3="14000.00000" pt_clust_4="42.55920" pt_clust_5="83.40947" pt_clust_6="75.52128"></scales>
<clustering>
<clus scale="   42.559">  1  4  2 -1</clus>
<clus scale="   75.521">  1  6  2 -1</clus>
<clus scale="   83.409">  1  5  2 -1</clus>
<clus scale="   83.409">  2  3  1 -1</clus>
</clustering>
</event>
<event>
 6    0  0.3695460E+002  0.1531575E+03  0.7546771E-02  0.1196646E+00
          3   -1    0    0  504    0 -0.00000000000E+00  0.00000000000E+00  0.43039200115E+02  0.43039200115E+02  0.00000000000E+00 0.  1.
         21   -1    0    0  505  502  0.00000000000E+00 -0.00000000000E+00 -0.89917494502E+03  0.89917494502E+03  0.00000000000E+00 0.  1.
         21    1    1    2  503  501 -0.68116013964E+02  0.17530314235E+02 -0.23658455151E+03  0.24681846221E+03  0.00000000000E+00 0.  1.
         21    1    1    2  504  502  0.30918982088E+02 -0.55769084051E+02 -0.10205342763E+03  0.12033734366E+03  0.00000000000E+00 0.  1.
         21    1    1    2  505  503 -0.82829061119E+02 -0.33226955313E+02 -0.32618801838E+03  0.33817644397E+03  0.00000000000E+00 0.  1.
          3    1    1    2  501    0  0.12002609299E+03  0.71465725129E+02 -0.19130974739E+03  0.23688189528E+03  0.00000000000E+00 0.  1.
<scales pt_clust_3="44.16796" pt_clust_4="63.76656" pt_clust_5="44.16796" pt_clust_6="144.85146"></scales>
<clustering>
<clus scale="   44.168">  3  5 -1 -1</clus>
<clus scale="   63.767">  1  4  2 -1</clus>
<clus scale="  144.851">  1  6  2 -1</clus>
<clus scale="  153.158">  2  3  1 -1</clus>
</clustering>
</event>
<event>
 6    0  0.3695460E+002  0.1375799E+03  0.7546771E-02  0.1216623E+00
          3   -1    0    0  505    0 -0.00000000000E+00  0.00000000000E+00  0.13704042042E+03  0.13704042042E+03  0.00000000000E+00 0.  1.
         21   -1    0    0  503  502  0.00000000000E+00 -0.00000000000E+00 -0.75140777672E+03  0.75140777672E+03  0.00000000000E+00 0. -1.
         21    1    1    2  503  501 -0.38423299220E+02  0.27533410940E+02  0.10341211486E+02  0.48387801107E+02  0.00000000000E+00 0.  1.
         21    1    1    2  504  502  0.28179554096E+02  0.41014784518E+02 -0.10302914674E+03  0.11441724038E+03  0.00000000000E+00 0. -1.
         21    1    1    2  505  504  0.52253408469E+02 -0.14194302677E+03 -0.59487209375E+03  0.61380049647E+03  0.00000000000E+00 0. -1.
          3    1    1    2  501    0 -0.42009663344E+02  0.73394831311E+02  0.73192672702E+02  0.11184265919E+03  0.00000000000E+00 0.  1.
<scales pt_clust_3="33.76740" pt_clust_4="49.76243" pt_clust_5="129.95502" pt_clust_6="33.76740"></scales>
<clustering>
<clus scale="   33.767">  3  6 -1 -1</clus>
<clus scale="   49.762">  2  4  1 -1</clus>
<clus scale="  129.955">  2  5  1 -1</clus>
<clus scale="   49.762">  2  3  1 -1</clus>
</clustering>
</event>
<event>
 6    0  0.3695460E+002  0.1051776E+03  0.7546771E-02  0.1269770E+00
         21   -1    0    0  504  502  0.00000000000E+00  0.00000000000E+00  0.48152049749E+02  0.48152049749E+02  0.00000000000E+00 0.  1.
          2   -1    0    0  505    0 -0.00000000000E+00 -0.00000000000E+00 -0.50218701579E+03  0.50218701579E+03  0.00000000000E+00 0.  1.
         21    1    1    2  503  502 -0.51847955633E+02  0.23394681009E+02 -0.59341809287E+02  0.82200802505E+02  0.00000000000E+00 0.  1.
         21    1    1    2  504  501  0.14467154973E+02 -0.63022053111E+02 -0.16846068220E+03  0.18044411655E+03  0.00000000000E+00 0.  1.
         21    1    1    2  505  503  0.52543062446E+02  0.79190115277E+02 -0.51894174846E+02  0.10828136105E+03  0.00000000000E+00 0.  1.
          2    1    1    2  501    0 -0.15162261786E+02 -0.39562743175E+02 -0.17433829972E+03  0.17941278544E+03  0.00000000000E+00 0.  1.
<scales pt_clust_3="56.88165" pt_clust_4="30.94804" pt_clust_5="97.98267" pt_clust_6="30.94804"></scales>
<clustering>
<clus scale="   30.948">  4  6 -1 -1</clus>
<clus scale="   56.882">  1  3  2 -1</clus>
<clus scale="   97.983">  1  5  2 -1</clus>
<clus scale="   56.882">  1  3  2 -1</clus>
</clustering>
</event>
<event>
 6    0  0.3695460E+002  0.1571664E+03  0.7546771E-02  0.1191934E+00
          2   -1    0    0  504    0 -0.00000000000E+00  0.00000000000E+00  0.83237672311E+03  0.83237672311E+03  0.00000000000E+00 0.  1.
         21   -1    0    0  505  502  0.00000000000E+00 -0.00000000000E+00 -0.12790656428E+03  0.12790656428E+03  0.00000000000E+00 0.  1.
         21    1    1    2  503  501  0.62662829983E+02 -0.15364334456E+02 -0.32516607591E+02  0.72249725287E+02  0.00000000000E+00 0.  1.
         21    1    1    2  504  502  0.32114054173E+02 -0.58503879502E+01  0.17707704275E+02  0.37136266712E+02  0.00000000000E+00 0. -1.
         21    1    1    2  505  503  0.54215085452E+02  0.36857336115E+02 -0.40121965310E+02  0.76860333179E+02  0.00000000000E+00 0.  1.
          2    1    1    2  501    0 -0.14899196961E+03 -0.15642613709E+02  0.75940102746E+03  0.77403696222E+03  0.00000000000E+00 0.  1.
<scales pt_clust_3="52.88522" pt_clust_4="32.64260" pt_clust_5="52.88522" pt_clust_6="147.87229"></scales>
<clustering>
<clus scale="   32.643">  2  4  1 -1</clus>
<clus scale="   52.885">  3  5 -1 -1</clus>
<clus scale="  147.872">  1  6  2 -1</clus>
<clus scale="   32.643">  2  3  1 -1</clus>
</clustering>
</event>
<event>
 6    0  0.3695460E+002  0.1217840E+03  0.7546771E-02  0.1240183E+00
          1   -1    0    0  505    0 -0.00000000000E+00  0.00000000000E+00  0.67888102347E+03  0.67888102347E+03  0.00000000000E+00 0. -1.
         21   -1    0    0  504  502  0.00000000000E+00 -0.00000000000E+00 -0.51322803046E+03  0.51322803046E+03  0.00000000000E+00 0. -1.
         21    1    1    2  503  502  0.52041434286E+02  0.15243747992E+02 -0.43938584766E+02  0.69794569750E+02  0.00000000000E+00 0.  1.
         21    1    1    2  504  501  0.59247020707E+02  0.37303493750E+02 -0.43314651747E+03  0.43876835084E+03  0.00000000000E+00 0. -1.
         21    1    1    2  505  503  0.48438915825E+02 -0.40541155184E+02  0.10576307115E+03  0.12318985773E+03  0.00000000000E+00 0. -1.
          1    1    1    2  501    0 -0.15972737082E+03 -0.12006086559E+02  0.53697502410E+03  0.56035627561E+03  0.00000000000E+00 0. -1.
<scales pt_clust_3="54.22806" pt_clust_4="121.78397" pt_clust_5="63.74675" pt_clust_6="14000.00000"></scales>
<clustering>
<clus scale="   54.228">  2  3  1 -1</clus>
<clus scale="   63.747">  1  5  2 -1</clus>
<clus scale="  121.784">  2  4  1 -1</clus>
<clus scale="   54.228">  2  3  1 -1</clus>
</clustering>
</event>
<event>
 6    0  0.3695460E+002  0.6622437E+02  0.7546771E-02  0.1373424E+00
         21   -1    0    0  504  502  0.00000000000E+00  0.00000000000E+00  0.44144215041E+03  0.44144215041E+03  0.00000000000E+00 0.  1.
          2   -1    0    0  505    0 -0.00000000000E+00 -0.00000000000E+00 -0.92747026093E+03  0.92747026093E+03  0.00000000000E+00 0.  1.
         21    1    1    2  503  502 -0.44605602864E+02  0.19232202348E+02  0.23755511203E+03  0.24247055217E+03  0.00000000000E+00 0.  1.
         21    1    1    2  504  501  0.36359000395E+02 -0.58406787595E+02  0.18761671497E+03  0.19983333426E+03  0.00000000000E+00 0.  1.
         21    1    1    2  505  503 -0.59669103314E+02  0.29614789605E+02 -0.17547446342E+03  0.18769316707E+03  0.00000000000E+00 0.  1.
          2    1    1    2  501    0  0.67915705783E+02  0.95597956425E+01 -0.73572547411E+03  0.73891535783E+03  0.00000000000E+00 0.  1.
<scales pt_clust_3="48.57507" pt_clust_4="40.44256" pt_clust_5="14000.00000" pt_clust_6="66.22437"></scales>
<clustering>
<clus scale="   48.575">  1  3  2 -1</clus>
<clus scale="   40.443">  1  4  2 -1</clus>
<clus scale="   66.224">  2  6  1 -1</clus>
<clus scale="   48.575">  1  3  2 -1</clus>
</clustering>
</event>
<event>
 6    0  0.3695460E+002  0.1363887E+03  0.7546771E-02  0.1218272E+00
         21   -1    0    0  501  502  0.00000000000E+00  0.00000000000E+00  0.10046931311E+03  0.10046931311E+03  0.00000000000E+00 0.  1.
          2   -1    0    0  504    0 -0.00000000000E+00 -0.00000000000E+00 -0.86682280182E+03  0.86682280182E+03  0.00000000000E+00 0.  1.
         21    1    1    2  503  502 -0.31251797230E+02 -0.31508037135E+02  0.22603892631E+02  0.49803284995E+02  0.00000000000E+00 0.  1.
         21    1    1    2  504  505  0.34462333952E+02 -0.13109386263E+02 -0.10588687387E+03  0.11212287245E+03  0.00000000000E+00 0. -1.
         21    1    1    2  505  503 -0.92196801186E+02 -0.92704690403E+01  0.19870809230E+02  0.94768353392E+02  0.00000000000E+00 0.  1.
          2    1    1    2  501    0  0.88986264464E+02  0.53887892439E+02 -0.70294131671E+03  0.71059760410E+03  0.00000000000E+00 0.  1.
<scales pt_clust_3="32.41862" pt_clust_4="36.87151" pt_clust_5="32.41862" pt_clust_6="128.09165"></scales>
<clustering>
<clus scale="   32.419">  3  5 -1 -1</clus>
<clus scale="   36.872">  2  4  1 -1</clus>
<clus scale="  128.092">  2  6  1 -1</clus>
<clus scale="  136.389">  1  3  2 -1</clus>
</clustering>
</event>
<event>
 6    0  0.3695460E+002  0.1273623E+03  0.7546771E-02  0.1231423E+00
         -4   -1    0    0    0  501 -0.00000000000E+00  0.00000000000E+00  0.22992067019E+03  0.22992067019E+03  0.00000000000E+00 0.  1.
         21   -1    0    0  503  502  0.00000000000E+00 -0.00000000000E+00 -0.61701304877E+03  0.61701304877E+03  0.00000000000E+00 0. -1.
         21    1    1    2  503  504 -0.87269330885E+02  0.82038741033E+02 -0.57067478595E+03  0.58310891132E+03  0.00000000000E+00 0. -1.
         21    1    1    2  504  501 -0.39953589422E+01 -0.33773227029E+02 -0.13719238726E+02  0.36671668468E+02  0.00000000000E+00 0. -1.
         21    1    1    2  505  502  0.45528699428E+02 -0.42384137974E+02  0.81632034111E+02  0.10263072940E+03  0.00000000000E+00 0. -1.
         -4    1    1    2    0  505  0.45735990400E+02 -0.58813760304E+01  0.11566961198E+03  0.12452240978E+03  0.00000000000E+00 0.  1.
<scales pt_clust_3="119.20303" pt_clust_4="34.00873" pt_clust_5="37.45277" pt_clust_6="37.45277"></scales>
<clustering>
<clus scale="   34.009">  1  4  2 -1</clus>
<clus scale="   37.453">  5  6 -1 -1</clus>
<clus scale="  119.203">  2  3  1 -1</clus>
<clus scale="  119.203">  2  3  1 -1</clus>
</clustering>
</event>
<event>
 6    0  0.3695460E+002  0.1227660E+03  0.7546771E-02  0.1238603E+00
         21   -1    0    0  503  502  0.00000000000E+00  0.00000000000E+00  0.40167954691E+03  0.40167954691E+03  0.00000000000E+00 0. -1.
          1   -1    0    0  505    0 -0.00000000000E+00 -0.00000000000E+00 -0.10491547485E+04  0.10491547485E+04  0.00000000000E+00 0.  1.
         21    1    1    2  503  501 -0.54783270964E+02 -0.11014338673E+03  0.37338159679E+03  0.39312413973E+03  0.00000000000E+00 0. -1.
         21    1    1    2  504  502  0.57949412121E+02 -0.42003905210E+02 -0.38250120724E+03  0.38913960985E+03  0.00000000000E+00 0. -1.
         21    1    1    2  505  504  0.34564304955E+02  0.13880146292E+02 -0.46342332899E+02  0.59455541849E+02  0.00000000000E+00 0. -1.
          1    1    1    2  501    0 -0.37730446113E+02  0.13826714565E+03 -0.59201325825E+03  0.60911500398E+03  0.00000000000E+00 0.  1.
<scales pt_clust_3="14000.00000" pt_clust_4="80.18948" pt_clust_5="37.24714" pt_clust_6="122.76598"></scales>
<clustering>
<clus scale="   37.247">  2  5  1 -1</clus>
<clus scale="   80.189">  2  4  1 -1</clus>
<clus scale="  122.766">  2  6  1 -1</clus>
<clus scale="  122.766">  1  3  2 -1</clus>
</clustering>
</event>
<event>
 6    0  0.3695460E+002  0.1635915E+03  0.7546771E-02  0.1184701E+00
          1   -1    0    0  504    0 -0.00000000000E+00  0.00000000000E+00  0.30356398585E+04  0.30356398585E+04  0.00000000000E+00 0. -1.
         21   -1    0    0  503  502  0.00000000000E+00 -0.00000000000E+00 -0.60098740475E+03  0.60098740475E+03  0.00000000000E+00 0.  1.
         21    1    1    2  503  505 -0.17903546941E+03 -0.13192041060E+02 -0.56064448816E+03  0.58868495085E+03  0.00000000000E+00 0.  1.
         21    1    1    2  504  502  0.29652590926E+02 -0.12667996111E+02 -0.13318729870E+02  0.34887574285E+02  0.00000000000E+00 0.  1.
         21    1    1    2  505  501  0.73471918994E+02 -0.10820236411E+02  0.10484908377E+04  0.10511176134E+04  0.00000000000E+00 0. -1.
          1    1    1    2  501    0  0.75910959495E+02  0.36680273582E+02  0.19601248341E+04  0.19619371248E+04  0.00000000000E+00 0. -1.
<scales pt_clust_3="151.70882" pt_clust_4="32.24522" pt_clust_5="57.46397" pt_clust_6="57.46397"></scales>
<clustering>
<clus scale="   32.245">  2  4  1 -1</clus>
<clus scale="   57.464">  5  6 -1 -1</clus>
<clus scale="  151.709">  2  3  1 -1</clus>
<clus scale="   32.245">  2  3  1 -1</clus>
</clustering>
</event>
<event>
 6    0  0.3695460E+002  0.1187343E+03  0.7546771E-02  0.1245200E+00
          1   -1    0    0  505    0 -0.00000000000E+00  0.00000000000E+00  0.21896874804E+04  0.21896874804E+04  0.00000000000E+00 0.  1.
         21   -1    0    0  503  502  0.00000000000E+00 -0.00000000000E+00 -0.31036198620E+03  0.31036198620E+03  0.00000000000E+00 0. -1.
         21    1    1    2  503  501  0.14261281001E+02  0.82371733907E+02  0.61454563610E+02  0.10375524117E+03  0.00000000000E+00 0. -1.
         21    1    1    2  504  502  0.25510805415E+02 -0.12285592330E+03 -0.27183901052E+03  0.29940077943E+03  0.00000000000E+00 0. -1.
         21    1    1    2  505  504 -0.54693616589E+01 -0.50977381766E+02  0.28732540851E+03  0.29186383426E+03  0.00000000000E+00 0. -1.
          1    1    1    2  501    0 -0.34302724758E+02  0.91461571161E+02  0.18023845326E+04  0.18050296117E+04  0.00000000000E+00 0.  1.
<scales pt_clust_3="14000.00000" pt_clust_4="118.73431" pt_clust_5="51.26995" pt_clust_6="58.43682"></scales>
<clustering>
<clus scale="   51.270">  1  5  2 -1</clus>
<clus scale="   58.437">  1  6  2 -1</clus>
<clus scale="  118.734">  2  4  1 -1</clus>
<clus scale="  118.734">  2  3  1 -1</clus>
</clustering>
</event>
<event>
 6    0  0.3695462E+002  0.1466678E+03  0.7546771E-02  0.1204628E+00
          1   -1    0    0  505    0 -0.00000000000E+00  0.00000000000E+00  0.21427061406E+04  0.21427061406E+04  0.00000000000E+00 0. -1.
         21   -1    0    0  503  502  0.00000000000E+00 -0.00000000000E+00 -0.15444726484E+03  0.15444726484E+03  0.00000000000E+00 0. -1.
         21    1    1    2  503  501  0.37546469773E+02  0.20481472423E+02  0.23613581517E+02  0.48855187412E+02  0.00000000000E+00 0.  1.
         21    1    1    2  504  502  0.93614726745E+02  0.50752497476E+02 -0.11766025369E+03  0.15869300035E+03  0.00000000000E+00 0. -1.
         21    1    1    2  505  504 -0.43898876036E+02  0.40633804013E+01  0.26446610164E+03  0.26811553721E+03  0.00000000000E+00 0.  1.
          1    1    1    2  501    0 -0.87262320483E+02 -0.75297350300E+02  0.18178394463E+04  0.18214896804E+04  0.00000000000E+00 0. -1.
<scales pt_clust_3="42.76948" pt_clust_4="14000.00000" pt_clust_5="43.63089" pt_clust_6="146.66778"></scales>
<clustering>
<clus scale="   42.769">  2  3  1 -1</clus>
<clus scale="   43.631">  1  5  2 -1</clus>
<clus scale="  146.668">  1  6  2 -1</clus>
<clus scale="   42.769">  2  3  1 -1</clus>
</clustering>
</event>
<event>
 6    0  0.3695460E+002  0.8458727E+02  0.7546771E-02  0.1316515E+00
          2   -1    0    0  504    0 -0.00000000000E+00  0.00000000000E+00  0.18379790854E+04  0.18379790854E+04  0.00000000000E+00 0.  1.
         21   -1    0    0  505  502  0.00000000000E+00 -0.00000000000E+00 -0.18994362012E+03  0.18994362012E+03  0.00000000000E+00 0.  1.
         21    1    1    2  503  502  0.24865387278E+02  0.58652708501E+02 -0.17442570569E+03  0.18569532709E+03  0.00000000000E+00 0.  1.
         21    1    1    2  504  503 -0.46073354340E+02 -0.38623192140E+00  0.11560227251E+03  0.12444592627E+03  0.00000000000E+00 0. -1.
         21    1    1    2  505  501 -0.31757792114E+02  0.52352315130E+02  0.34329681384E+03  0.34871481852E+03  0.00000000000E+00 0. -1.
          2    1    1    2  501    0  0.52965759175E+02 -0.11061879171E+03  0.13635620846E+04  0.13690666337E+04  0.00000000000E+00 0.  1.
<scales pt_clust_3="63.64579" pt_clust_4="46.07497" pt_clust_5="84.58727" pt_clust_6="14000.00000"></scales>
<clustering>
<clus scale="   46.075">  1  4  2 -1</clus>
<clus scale="   63.646">  2  3  1 -1</clus>
<clus scale="   84.587">  2  5  1 -1</clus>
<clus scale="   63.646">  2  3  1 -1</clus>
</clustering>
</event>
<event>
 6    0  0.3695460E+002  0.1048140E+03  0.7546771E-02  0.1270487E+00
          2   -1    0    0  504    0 -0.00000000000E+00  0.00000000000E+00  0.24289972044E+03  0.24289972044E+03  0.00000000000E+00 0. -1.
         21   -1    0    0  501  502  0.00000000000E+00 -0.00000000000E+00 -0.35536440771E+03  0.35536440771E+03  0.00000000000E+00 0.  1.
         21    1    1    2  503  505 -0.50941580616E+02  0.34985556416E+01 -0.11453580847E+02  0.52330383540E+02  0.00000000000E+00 0. -1.
         21    1    1    2  504  503  0.35132101325E+02 -0.29831179660E+02  0.74123369191E+02  0.87283662180E+02  0.00000000000E+00 0.  1.
         21    1    1    2  505  502  0.10206715581E+03 -0.26187151964E+02 -0.28831319805E+03  0.30696574954E+03  0.00000000000E+00 0.  1.
          2    1    1    2  501    0 -0.86257676523E+02  0.52519775983E+02  0.11317872244E+03  0.15168433288E+03  0.00000000000E+00 0. -1.
<scales pt_clust_3="46.51530" pt_clust_4="46.08865" pt_clust_5="14000.00000" pt_clust_6="104.81396"></scales>
<clustering>
<clus scale="   46.089">  1  4  2 -1</clus>
<clus scale="   46.515">  1  3  2 -1</clus>
<clus scale="  104.814">  1  6  2 -1</clus>
<clus scale="  104.814">  2  3  1 -1</clus>
</clustering>
</event>
<event>
 6    0  0.3695460E+002  0.1576443E+03  0.7546771E-02  0.1191382E+00
         21   -1    0    0  503  502  0.00000000000E+00  0.00000000000E+00  0.10490345402E+04  0.10490345402E+04  0.00000000000E+00 0.  1.
          1   -1    0    0  505    0 -0.00000000000E+00 -0.00000000000E+00 -0.48999050434E+03  0.48999050434E+03  0.00000000000E+00 0. -1.
         21    1    1    2  503  501 -0.28293264937E+02  0.35339895620E+02  0.12461613993E+03  0.13258431051E+03  0.00000000000E+00 0. -1.
         21    1    1    2  504  502 -0.95263049282E+02 -0.13488806020E+03  0.88836707516E+03  0.90358502509E+03  0.00000000000E+00 0.  1.
         21    1    1    2  505  504  0.22412429121E+02  0.38397809233E+02 -0.12957826357E+02  0.46309977293E+02  0.00000000000E+00 0. -1.
          1    1    1    2  501    0  0.10114388510E+03  0.61150355346E+02 -0.44098135290E+03  0.45654573162E+03  0.00000000000E+00 0. -1.
<scales pt_clust_3="45.41010" pt_clust_4="157.64433" pt_clust_5="44.46019" pt_clust_6="14000.00000"></scales>
<clustering>
<clus scale="   44.460">  2  5  1 -1</clus>
<clus scale="   45.410">  1  3  2 -1</clus>
<clus scale="  157.644">  1  4  2 -1</clus>
<clus scale="   45.410">  1  3  2 -1</clus>
</clustering>
</event>
<event>
 6    0  0.3695460E+002  0.7122210E+02  0.7546771E-02  0.1355986E+00
          1   -1    0    0  504    0 -0.00000000000E+00  0.00000000000E+00  0.88163719191E+03  0.88163719191E+03  0.00000000000E+00 0. -1.
         21   -1    0    0  503  502  0.00000000000E+00 -0.00000000000E+00 -0.30099234878E+02  0.30099234878E+02  0.00000000000E+00 0. -1.
         21    1    1    2  503  501  0.17505317912E+02 -0.43054501550E+02  0.87435915050E+02  0.99021035642E+02  0.00000000000E+00 0. -1.
         21    1    1    2  504  505  0.17025409830E+02  0.68525284870E+02  0.53912728336E+03  0.54373137385E+03  0.00000000000E+00 0. -1.
         21    1    1    2  505  502 -0.66540448234E+02 -0.59712807236E+02  0.93328606041E+02  0.12924194097E+03  0.00000000000E+00 0. -1.
          1    1    1    2  501    0  0.32009720491E+02  0.34242023916E+02  0.13164615259E+03  0.13974207633E+03  0.00000000000E+00 0. -1.
<scales pt_clust_3="46.47716" pt_clust_4="71.22210" pt_clust_5="14000.00000" pt_clust_6="44.18870"></scales>
<clustering>
<clus scale="   46.477">  2  3  1 -1</clus>
<clus scale="   44.189">  2  6  1 -1</clus>
<clus scale="   71.222">  1  4  2 -1</clus>
<clus scale="   46.477">  2  3  1 -1</clus>
</clustering>
</event>
<event>
 6    0  0.3695460E+002  0.1406443E+03  0.7546771E-02  0.1212465E+00
         21   -1    0    0  501  502  0.00000000000E+00  0.00000000000E+00  0.47353509558E+03  0.47353509558E+03  0.00000000000E+00 0. -1.
          1   -1    0    0  504    0 -0.00000000000E+00 -0.00000000000E+00 -0.52999586967E+03  0.52999586967E+03  0.00000000000E+00 0.  1.
         21    1    1    2  503  502 -0.29879129113E+02 -0.56111778251E+02  0.23296779775E+03  0.24148558716E+03  0.00000000000E+00 0. -1.
         21    1    1    2  504  505  0.30430982546E+02 -0.14838734560E+01 -0.81302846103E+01  0.31533285699E+02  0.00000000000E+00 0.  1.
         21    1    1    2  505  503  0.37370132447E+02 -0.65908218106E+02  0.20961268601E+03  0.22288539241E+03  0.00000000000E+00 0. -1.
          1    1    1    2  501    0 -0.37921985880E+02  0.12350386981E+03 -0.49091097325E+03  0.50762669997E+03  0.00000000000E+00 0.  1.
<scales pt_clust_3="63.43748" pt_clust_4="30.46714" pt_clust_5="63.43748" pt_clust_6="122.32289"></scales>
<clustering>
<clus scale="   30.467">  2  4  1 -1</clus>
<clus scale="   63.437">  3  5 -1 -1</clus>
<clus scale="  122.323">  2  6  1 -1</clus>
<clus scale="  140.644">  1  3  2 -1</clus>
</clustering>
</event>
<event>
 6    0  0.3695460E+002  0.1099873E+03  0.7546771E-02  0.1260593E+00
          1   -1    0    0  504    0 -0.00000000000E+00  0.00000000000E+00  0.70926894727E+03  0.70926894727E+03  0.00000000000E+00 0.  1.
         21   -1    0    0  505  502  0.00000000000E+00 -0.00000000000E+00 -0.18621641920E+03  0.18621641920E+03  0.00000000000E+00 0. -1.
         21    1    1    2  503  502  0.32928646143E+02 -0.32350299908E+02 -0.35609781320E+02  0.58300035734E+02  0.00000000000E+00 0.  1.
         21    1    1    2  504  503  0.12362413777E+03  0.71324044653E+02  0.30673079250E+03  0.33831025088E+03  0.00000000000E+00 0.  1.
         21    1    1    2  505  501 -0.52110552300E+02 -0.81382236061E+02 -0.94138216340E+02  0.13490953185E+03  0.00000000000E+00 0. -1.
          1    1    1    2  501    0 -0.10444223161E+03  0.42408491316E+02  0.34606973323E+03  0.36396554800E+03  0.00000000000E+00 0.  1.
<scales pt_clust_3="46.16100" pt_clust_4="14000.00000" pt_clust_5="109.74186" pt_clust_6="109.98732"></scales>
<clustering>
<clus scale="   46.161">  2  3  1 -1</clus>
<clus scale="  109.987">  1  6  2 -1</clus>
<clus scale="  109.742">  2  5  1 -1</clus>
<clus scale="   46.161">  2  3  1 -1</clus>
</clustering>
</event>
<event>
 6    0  0.3695460E+002  0.1234781E+03  0.7546771E-02  0.1237467E+00
         -1   -1    0    0    0  501 -0.00000000000E+00  0.00000000000E+00  0.10787498663E+04  0.10787498663E+04  0.00000000000E+00 0.  1.
         21   -1    0    0  503  502  0.00000000000E+00 -0.00000000000E+00 -0.68762863287E+02  0.68762863287E+02  0.00000000000E+00 0.  1.
         21    1    1    2  503  501 -0.31231077833E+02 -0.14509749853E+03  0.51223644399E+02  0.15701122905E+03  0.00000000000E+00 0.  1.
         21    1    1    2  504  505  0.25623128291E+02  0.62919134375E+02  0.39037285659E+03  0.39624024195E+03  0.00000000000E+00 0.  1.
         21    1    1    2  505  502 -0.13122583160E+02  0.39558415238E+02  0.24426242869E+02  0.48308505934E+02  0.00000000000E+00 0.  1.
         -1    1    1    2    0  504  0.18730532702E+02  0.42619948914E+02  0.54396425914E+03  0.54595275265E+03  0.00000000000E+00 0.  1.
<scales pt_clust_3="116.66527" pt_clust_4="33.48312" pt_clust_5="41.67818" pt_clust_6="33.48312"></scales>
<clustering>
<clus scale="   33.483">  4  6 -1 -1</clus>
<clus scale="   41.678">  2  5  1 -1</clus>
<clus scale="  116.665">  2  3  1 -1</clus>
<clus scale="   41.678">  2  3  1 -1</clus>
</clustering>
</event>
<event>
 6    0  0.3695460E+002  0.7248042E+03  0.7546771E-02  0.9675729E-01
         21   -1    0    0  503  502  0.00000000000E+00  0.00000000000E+00  0.19958170247E+03  0.19958170247E+03  0.00000000000E+00 0. -1.
          1   -1    0    0  505    0 -0.00000000000E+00 -0.00000000000E+00 -0.28988439573E+04  0.28988439573E+04  0.00000000000E+00 0.  1.
         21    1    1    2  503  501 -0.52740199261E+01 -0.27309181629E+03 -0.34015393975E+03  0.43624724428E+03  0.00000000000E+00 0.  1.
         21    1    1    2  504  502  0.28148112932E+03  0.64601176047E+03 -0.13496274413E+04  0.15225166834E+04  0.00000000000E+00 0. -1.
         21    1    1    2  505  504 -0.81548419922E+02  0.23690263988E+02 -0.20405770316E+03  0.22102244144E+03  0.00000000000E+00 0.  1.
          1    1    1    2  501    0 -0.19465868948E+03 -0.39661020816E+03 -0.80542317060E+03  0.91863929066E+03  0.00000000000E+00 0.  1.
<scales pt_clust_3="145.18889" pt_clust_4="700.31731" pt_clust_5="84.91981" pt_clust_6="145.18889"></scales>
<clustering>
<clus scale="   84.920">  2  5  1 -1</clus>
<clus scale="  145.189">  3  6 -1 -1</clus>
<clus scale="  700.317">  2  4  1 -1</clus>
<clus scale="  724.804">  1  3  2 -1</clus>
</clustering>
</event>
<event>
 6    0  0.3695460E+002  0.9339193E+02  0.7546771E-02  0.1294839E+00
          2   -1    0    0  503    0 -0.00000000000E+00  0.00000000000E+00  0.18463517229E+04  0.18463517229E+04  0.00000000000E+00 0.  1.
         21   -1    0    0  501  502  0.00000000000E+00 -0.00000000000E+00 -0.36007155419E+03  0.36007155419E+03  0.00000000000E+00 0.  1.
         21    1    1    2  503  505  0.41403712196E+02 -0.87154465745E+02  0.24910928345E+03  0.26714341352E+03  0.00000000000E+00 0.  1.
         21    1    1    2  504  502  0.14687485970E+02  0.29183363366E+02 -0.21900223193E+03  0.22142576303E+03  0.00000000000E+00 0.  1.
         21    1    1    2  505  504  0.40036197504E+02  0.36791263040E+02 -0.12359270765E+03  0.13502463306E+03  0.00000000000E+00 0.  1.
          2    1    1    2  501    0 -0.96127395669E+02  0.21179839339E+02  0.15797658248E+04  0.15828294675E+04  0.00000000000E+00 0.  1.
<scales pt_clust_3="93.39193" pt_clust_4="32.67095" pt_clust_5="83.31694" pt_clust_6="14000.00000"></scales>
<clustering>
<clus scale="   32.671">  2  4  1 -1</clus>
<clus scale="   83.317">  2  5  1 -1</clus>
<clus scale="   93.392">  2  3  1 -1</clus>
<clus scale="   32.671">  2  3  1 -1</clus>
</clustering>
</event>
<event>
 6    0  0.3695460E+002  0.1250812E+03  0.7546771E-02  0.1234942E+00
         21   -1    0    0  503  502  0.00000000000E+00  0.00000000000E+00  0.92807995418E+02  0.92807995418E+02  0.00000000000E+00 0. -1.
          2   -1    0    0  504    0 -0.00000000000E+00 -0.00000000000E+00 -0.16028763703E+04  0.16028763703E+04  0.00000000000E+00 0.  1.
         21    1    1    2  503  505 -0.66547148830E+02 -0.74849691312E+02 -0.46904622322E+03  0.47962001504E+03  0.00000000000E+00 0.  1.
         21    1    1    2  504  502  0.53884690321E+02  0.79285408079E+02  0.48081529344E+02  0.10724536936E+03  0.00000000000E+00 0. -1.
         21    1    1    2  505  501 -0.49001701501E+01 -0.90435854373E+02 -0.26490342521E+03  0.27995799705E+03  0.00000000000E+00 0.  1.
          2    1    1    2  501    0  0.17562628659E+02  0.86000137606E+02 -0.82420025584E+03  0.82886098431E+03  0.00000000000E+00 0.  1.
<scales pt_clust_3="72.74924" pt_clust_4="98.95793" pt_clust_5="72.74924" pt_clust_6="87.77511"></scales>
<clustering>
<clus scale="   72.749">  3  5 -1 -1</clus>
<clus scale="   87.775">  2  6  1 -1</clus>
<clus scale="   98.958">  1  4  2 -1</clus>
<clus scale="   98.958">  1  3  2 -1</clus>
</clustering>
</event>
<event>
 6    0  0.3695460E+002  0.1108994E+03  0.7546771E-02  0.1258913E+00
          1   -1    0    0  503    0 -0.00000000000E+00  0.00000000000E+00  0.20787206754E+04  0.20787206754E+04  0.00000000000E+00 0. -1.
         21   -1    0    0  501  502  0.00000000000E+00 -0.00000000000E+00 -0.53408854292E+02  0.53408854292E+02  0.00000000000E+00 0. -1.
         21    1    1    2  503  504  0.69464656365E+02 -0.46272921472E+02  0.17736894513E+03  0.19602618305E+03  0.00000000000E+00 0. -1.
         21    1    1    2  504  505  0.29301917149E+02  0.33134870995E+02 -0.93898409316E+01  0.45218261103E+02  0.00000000000E+00 0. -1.
         21    1    1    2  505  502  0.63561889098E+01 -0.36918547123E+02  0.85311162287E+01  0.38420830330E+02  0.00000000000E+00 0. -1.
          1    1    1    2  501    0 -0.10512276242E+03  0.50056597600E+02  0.18488016007E+04  0.18524642552E+04  0.00000000000E+00 0. -1.
<scales pt_clust_3="14000.00000" pt_clust_4="34.51632" pt_clust_5="37.46172" pt_clust_6="110.89944"></scales>
<clustering>
<clus scale="   37.462">  2  5  1 -1</clus>
<clus scale="   34.516">  2  4  1 -1</clus>
<clus scale="  110.899">  1  6  2 -1</clus>
<clus scale="   37.462">  2  3  1 -1</clus>
</clustering>
</event>
<event>
 6    0  0.3695460E+002  0.2879803E+03  0.7546771E-02  0.1091408E+00
         21   -1    0    0  505  502  0.00000000000E+00  0.00000000000E+00  0.37464574494E+03  0.37464574494E+03  0.00000000000E+00 0. -1.
         -1   -1    0    0    0  501 -0.00000000000E+00 -0.00000000000E+00 -0.67840714798E+03  0.67840714798E+03  0.00000000000E+00 0. -1.
         21    1    1    2  503  504 -0.20248007140E+03  0.51800029437E+02  0.21679367255E+03  0.30113272625E+03  0.00000000000E+00 0. -1.
         21    1    1    2  504  501  0.29454228493E+02  0.62109409300E+02 -0.28855188438E+02  0.74550333329E+02  0.00000000000E+00 0. -1.
         21    1    1    2  505  503 -0.34565761535E+02  0.65103872456E+02  0.36518227039E+02  0.82261090349E+02  0.00000000000E+00 0. -1.
         -1    1    1    2    0  502  0.20759160444E+03 -0.17901331119E+03 -0.52821811419E+03  0.59510874298E+03  0.00000000000E+00 0. -1.
<scales pt_clust_3="67.62476" pt_clust_4="68.73958" pt_clust_5="67.62476" pt_clust_6="264.51090"></scales>
<clustering>
<clus scale="   67.625">  3  5 -1 -1</clus>
<clus scale="   68.740">  2  4  1 -1</clus>
<clus scale="  264.511">  2  6  1 -1</clus>
<clus scale="  287.980">  1  3  2 -1</clus>
</clustering>
</event>
<event>
 6    0  0.3695460E+002  0.2470464E+03  0.7546771E-02  0.1115186E+00
         21   -1    0    0  504  502  0.00000000000E+00  0.00000000000E+00  0.72238773759E+03  0.72238773759E+03  0.00000000000E+00 0.  1.
          1   -1    0    0  505    0 -0.00000000000E+00 -0.00000000000E+00 -0.60913128547E+03  0.60913128547E+03  0.00000000000E+00 0. -1.
         21    1    1    2  503  502 -0.16669852658E+03  0.18281334234E+03  0.59781045360E+03  0.64698257730E+03  0.00000000000E+00 0.  1.
         21    1    1    2  504  501  0.27720468709E+02  0.26428178633E+02  0.49574214854E+02  0.62645636637E+02  0.00000000000E+00 0.  1.
         21    1    1    2  505  503  0.16920057823E+02 -0.68825123039E+02 -0.17815006750E+02  0.73079137813E+02  0.00000000000E+00 0. -1.
          1    1    1    2  501    0  0.12205800004E+03 -0.14041639793E+03 -0.51631320958E+03  0.54881167131E+03  0.00000000000E+00 0. -1.
<scales pt_clust_3="247.04636" pt_clust_4="38.29978" pt_clust_5="70.09809" pt_clust_6="14000.00000"></scales>
<clustering>
<clus scale="   38.300">  1  4  2 -1</clus>
<clus scale="   70.098">  2  5  1 -1</clus>
<clus scale="  247.046">  1  3  2 -1</clus>
<clus scale="   38.300">  1  3  2 -1</clus>
</clustering>
</event>
<event>
 6    0  0.3695460E+002  0.8783952E+02  0.7546771E-02  0.1308170E+00
          2   -1    0    0  505    0 -0.00000000000E+00  0.00000000000E+00  0.14117968499E+04  0.14117968499E+04  0.00000000000E+00 0.  1.
         21   -1    0    0  503  502  0.00000000000E+00 -0.00000000000E+00 -0.79378368734E+03  0.79378368734E+03  0.00000000000E+00 0.  1.
         21    1    1    2  503  501  0.94290193932E+02 -0.26389854454E+02 -0.32148430384E+03  0.33606431335E+03  0.00000000000E+00 0.  1.
         21    1    1    2  504  502 -0.81551764097E+02 -0.41751701083E+02 -0.44877200433E+03  0.45802860898E+03  0.00000000000E+00 0.  1.
         21    1    1    2  505  504 -0.36272386102E+02  0.11436192929E+03  0.31670398679E+03  0.33866761303E+03  0.00000000000E+00 0.  1.
          2    1    1    2  501    0  0.23533956268E+02 -0.46220373757E+02  0.10715654839E+04  0.10728200019E+04  0.00000000000E+00 0.  1.
<scales pt_clust_3="14000.00000" pt_clust_4="87.83952" pt_clust_5="71.07009" pt_clust_6="51.86685"></scales>
<clustering>
<clus scale="   51.867">  1  6  2 -1</clus>
<clus scale="   71.070">  1  5  2 -1</clus>
<clus scale="   87.840">  2  4  1 -1</clus>
<clus scale="   87.840">  2  3  1 -1</clus>
</clustering>
</event>
<event>
 6    0  0.3695460E+002  0.1281800E+03  0.7546771E-02  0.1230182E+00
          1   -1    0    0  503    0 -0.00000000000E+00  0.00000000000E+00  0.17001526176E+04  0.17001526176E+04  0.00000000000E+00 0.  1.
         21   -1    0    0  505  502  0.00000000000E+00 -0.00000000000E+00 -0.23877442606E+03  0.23877442606E+03  0.00000000000E+00 0.  1.
         21    1    1    2  503  502 -0.36156183108E+02 -0.12042700579E+03 -0.82680890370E+02  0.15048608884E+03  0.00000000000E+00 0.  1.
         21    1    1    2  504  501  0.10855818368E+03  0.63224212695E+02  0.16325103660E+03  0.20599291557E+03  0.00000000000E+00 0.  1.
         21    1    1    2  505  504  0.52064005218E+02  0.91202071750E+02 -0.69810226585E+02  0.12610291934E+03  0.00000000000E+00 0.  1.
          1    1    1    2  501    0 -0.12446600579E+03 -0.33999278655E+02  0.14506182719E+04  0.14563451199E+04  0.00000000000E+00 0.  1.
<scales pt_clust_3="45.45468" pt_clust_4="14000.00000" pt_clust_5="105.01656" pt_clust_6="128.17998"></scales>
<clustering>
<clus scale="  105.017">  2  5  1 -1</clus>
<clus scale="   45.455">  2  3  1 -1</clus>
<clus scale="  128.180">  1  6  2 -1</clus>
<clus scale="  105.017">  2  3  1 -1</clus>
</clustering>
</event>
<event>
 6    0  0.3695460E+002  0.1240149E+03  0.7546771E-02  0.1236617E+00
         -2   -1    0    0    0  501 -0.00000000000E+00  0.00000000000E+00  0.23844649325E+03  0.23844649325E+03  0.00000000000E+00 0. -1.
         21   -1    0    0  505  502  0.00000000000E+00 -0.00000000000E+00 -0.14619160751E+03  0.14619160751E+03  0.00000000000E+00 0.  1.
         21    1    1    2  503  504 -0.18093664057E+02  0.55577556582E+02  0.46366310456E+02  0.74606167439E+02  0.00000000000E+00 0. -1.
         21    1    1    2  504  502  0.94774840869E+02 -0.48704919127E+02 -0.74593267371E+02  0.13007150013E+03  0.00000000000E+00 0.  1.
         21    1    1    2  505  501  0.72874259187E+00 -0.44472063488E+02  0.23511490286E+02  0.50309896364E+02  0.00000000000E+00 0.  1.
         -2    1    1    2    0  503 -0.77409919404E+02  0.37599426033E+02  0.96970352376E+02  0.12965053683E+03  0.00000000000E+00 0. -1.
<scales pt_clust_3="44.52147" pt_clust_4="109.57729" pt_clust_5="44.47803" pt_clust_6="44.52147"></scales>
<clustering>
<clus scale="   44.478">  1  5  2 -1</clus>
<clus scale="   44.521">  3  6 -1 -1</clus>
<clus scale="  109.577">  2  4  1 -1</clus>
<clus scale="  109.577">  2  3  1 -1</clus>
</clustering>
</event>
<event>
 6    0  0.3695460E+002  0.1354673E+03  0.7546771E-02  0.1219561E+00
          2   -1    0    0  505    0 -0.00000000000E+00  0.00000000000E+00  0.29321690344E+04  0.29321690344E+04  0.00000000000E+00 0. -1.
         21   -1    0    0  501  502  0.00000000000E+00 -0.00000000000E+00 -0.28048327436E+02  0.28048327436E+02  0.00000000000E+00 0.  1.
         21    1    1    2  503  502  0.18186453812E+02  0.51608216957E+02  0.13549213636E+03  0.14612417382E+03  0.00000000000E+00 0.  1.
         21    1    1    2  504  503  0.11736944669E+03  0.60888593824E+01  0.16567502480E+03  0.20312773092E+03  0.00000000000E+00 0.  1.
         21    1    1    2  505  504 -0.15828967723E+02 -0.69288117318E+02  0.56296769700E+03  0.56743636409E+03  0.00000000000E+00 0. -1.
          2    1    1    2  501    0 -0.11972693278E+03  0.11591040979E+02  0.20399858488E+04  0.20435290930E+04  0.00000000000E+00 0. -1.
<scales pt_clust_3="54.71887" pt_clust_4="135.46734" pt_clust_5="65.73284" pt_clust_6="14000.00000"></scales>
<clustering>
<clus scale="   54.719">  2  3  1 -1</clus>
<clus scale="   65.733">  1  5  2 -1</clus>
<clus scale="  135.467">  2  4  1 -1</clus>
<clus scale="   54.719">  2  3  1 -1</clus>
</clustering>
</event>
<event>
 6    0  0.3695460E+002  0.2264085E+03  0.7546771E-02  0.1129193E+00
         21   -1    0    0  505  502  0.00000000000E+00  0.00000000000E+00  0.13875841368E+04  0.13875841368E+04  0.00000000000E+00 0.  1.
          1   -1    0    0  504    0 -0.00000000000E+00 -0.00000000000E+00 -0.17412590763E+04  0.17412590763E+04  0.00000000000E+00 0.  1.
         21    1    1    2  503  501 -0.18276229389E+02  0.10102541383E+03 -0.65432746372E+03  0.66233268421E+03  0.00000000000E+00 0.  1.
         21    1    1    2  504  502  0.53794916929E+02 -0.16970839056E+03  0.13079450197E+04  0.13200056838E+04  0.00000000000E+00 0.  1.
         21    1    1    2  505  503 -0.10035240082E+02 -0.49812646527E+02  0.56408602230E+02  0.75920591430E+02  0.00000000000E+00 0. -1.
          1    1    1    2  501    0 -0.25483447458E+02  0.11849562326E+03 -0.10637010977E+04  0.10705842536E+04  0.00000000000E+00 0.  1.
<scales pt_clust_3="32.85756" pt_clust_4="223.57599" pt_clust_5="50.81344" pt_clust_6="32.85756"></scales>
<clustering>
<clus scale="   32.858">  3  6 -1 -1</clus>
<clus scale="   50.813">  1  5  2 -1</clus>
<clus scale="  223.576">  1  4  2 -1</clus>
<clus scale="   50.813">  1  3  2 -1</clus>
</clustering>
</event>
<event>
 6    0  0.3814852E+002  0.1355022E+03  0.7546771E-02  0.1219512E+00
          2   -1    0    0  504    0 -0.00000000000E+00  0.00000000000E+00  0.21228105511E+04  0.21228105511E+04  0.00000000000E+00 0. -1.
         21   -1    0    0  505  502  0.00000000000E+00 -0.00000000000E+00 -0.38858382187E+03  0.38858382187E+03  0.00000000000E+00 0. -1.
         21    1    1    2  503  502  0.37931790213E+02 -0.13693445165E+03 -0.35919637398E+03  0.38627956177E+03  0.00000000000E+00 0. -1.
         21    1    1    2  504  503 -0.54122708003E+02 -0.11881126264E+02  0.29261922071E+03  0.29781947050E+03  0.00000000000E+00 0. -1.
         21    1    1    2  505  501  0.13300984310E+02  0.79070090104E+02  0.11582000034E+03  0.14086613437E+03  0.00000000000E+00 0. -1.
          2    1    1    2  501    0  0.28899334792E+01  0.69745487808E+02  0.16849838822E+04  0.16864292063E+04  0.00000000000E+00 0. -1.
<scales pt_clust_3="14000.00000" pt_clust_4="55.41145" pt_clust_5="135.50221" pt_clust_6="75.28475"></scales>
<clustering>
<clus scale="   55.411">  1  4  2 -1</clus>
<clus scale="   75.285">  1  6  2 -1</clus>
<clus scale="  135.502">  1  5  2 -1</clus>
<clus scale="  135.502">  2  3  1 -1</clus>
</clustering>
</event>
<event>
 6    0  0.3695460E+002  0.1115090E+03  0.7546771E-02  0.1257801E+00
         21   -1    0    0  505  502  0.00000000000E+00  0.00000000000E+00  0.10321225102E+04  0.10321225102E+04  0.00000000000E+00 0.  1.
          2   -1    0    0  503    0 -0.00000000000E+00 -0.00000000000E+00 -0.12030044045E+03  0.12030044045E+03  0.00000000000E+00 0.  1.
         21    1    1    2  503  504  0.67259791546E+02  0.90144643325E+02 -0.79165242185E+02  0.13753934655E+03  0.00000000000E+00 0.  1.
         21    1    1    2  504  502 -0.10303086632E+02 -0.35925288652E+02  0.42988139846E+03  0.43150295098E+03  0.00000000000E+00 0.  1.
         21    1    1    2  505  501 -0.14044208768E+02  0.40851992842E+02  0.28450392599E+03  0.28776485022E+03  0.00000000000E+00 0. -1.
          2    1    1    2  501    0 -0.42912496146E+02 -0.95071347515E+02  0.27660198753E+03  0.29561580294E+03  0.00000000000E+00 0.  1.
<scales pt_clust_3="14000.00000" pt_clust_4="37.37352" pt_clust_5="30.38917" pt_clust_6="111.50903"></scales>
<clustering>
<clus scale="   37.374">  1  4  2 -1</clus>
<clus scale="   30.389">  1  5  2 -1</clus>
<clus scale="  111.509">  1  6  2 -1</clus>
<clus scale="   37.374">  1  3  2 -1</clus>
</clustering>
</event>
<event>
 6    0  0.3695460E+002  0.1378893E+03  0.7546771E-02  0.1216198E+00
          2   -1    0    0  503    0 -0.00000000000E+00  0.00000000000E+00  0.38108207707E+04  0.38108207707E+04  0.00000000000E+00 0.  1.
         21   -1    0    0  505  502  0.00000000000E+00 -0.00000000000E+00 -0.19814489508E+02  0.19814489508E+02  0.00000000000E+00 0. -1.
         21    1    1    2  503  504  0.36824538144E+02 -0.10544827744E+02  0.85319532271E+03  0.85405473987E+03  0.00000000000E+00 0. -1.
         21    1    1    2  504  502  0.38317924471E+02  0.21506728684E+01  0.13527402227E+03  0.14061276553E+03  0.00000000000E+00 0. -1.
         21    1    1    2  505  501 -0.60622894215E+02 -0.13626678870E+03  0.36772764017E+03  0.39682161023E+03  0.00000000000E+00 0. -1.
          2    1    1    2  501    0 -0.14519568400E+02  0.14466094358E+03  0.24348092961E+04  0.24391461446E+04  0.00000000000E+00 0.  1.
<scales pt_clust_3="38.30457" pt_clust_4="40.07002" pt_clust_5="14000.00000" pt_clust_6="137.88932"></scales>
<clustering>
<clus scale="   38.305">  1  3  2 -1</clus>
<clus scale="   40.070">  2  4  1 -1</clus>
<clus scale="  137.889">  1  6  2 -1</clus>
<clus scale="   40.070">  2  3  1 -1</clus>
</clustering>
</event>
<event>
 6    0  0.3695460E+002  0.1050631E+03  0.7546771E-02  0.1269995E+00
         -3   -1    0    0    0  501 -0.00000000000E+00  0.00000000000E+00  0.28852609681E+03  0.28852609681E+03  0.00000000000E+00 0. -1.
         21   -1    0    0  505  502  0.00000000000E+00 -0.00000000000E+00 -0.16588145249E+03  0.16588145249E+03  0.00000000000E+00 0. -1.
         21    1    1    2  503  502  0.63529875263E+02 -0.54063406779E+02 -0.28665509139E+02  0.88207757128E+02  0.00000000000E+00 0. -1.
         21    1    1    2  504  501 -0.12222769877E+02 -0.30574694030E+02  0.58040628005E+02  0.66730221921E+02  0.00000000000E+00 0. -1.
         21    1    1    2  505  504 -0.11970216263E+03  0.84649369093E+02 -0.37997693356E+02  0.15145279174E+03  0.00000000000E+00 0. -1.
         -3    1    1    2    0  503  0.68395057247E+02 -0.11268284954E-01  0.13126721881E+03  0.14801677850E+03  0.00000000000E+00 0. -1.
<scales pt_clust_3="14000.00000" pt_clust_4="32.92731" pt_clust_5="105.06308" pt_clust_6="63.71258"></scales>
<clustering>
<clus scale="   32.927">  1  4  2 -1</clus>
<clus scale="   63.713">  1  6  2 -1</clus>
<clus scale="  105.063">  1  5  2 -1</clus>
<clus scale="  105.063">  2  3  1 -1</clus>
</clustering>
</event>
<event>
 6    0  0.3695460E+002  0.1171793E+03  0.7546771E-02  0.1247824E+00
         21   -1    0    0  505  502  0.00000000000E+00  0.00000000000E+00  0.43137552517E+02  0.43137552517E+02  0.00000000000E+00 0.  1.
          2   -1    0    0  503    0 -0.00000000000E+00 -0.00000000000E+00 -0.92531467870E+03  0.92531467870E+03  0.00000000000E+00 0.  1.
         21    1    1    2  503  502 -0.36474725398E+02  0.15688541668E+02 -0.63671453321E+02  0.75037256750E+02  0.00000000000E+00 0.  1.
         21    1    1    2  504  501  0.13291789513E+03 -0.22380869545E+02 -0.17689972566E+03  0.22239960231E+03  0.00000000000E+00 0.  1.
         21    1    1    2  505  504  0.15236973471E+02  0.34661316334E+02 -0.29019982240E+02  0.47704628494E+02  0.00000000000E+00 0.  1.
          2    1    1    2  501    0 -0.11168014321E+03 -0.27968988457E+02 -0.61258596496E+03  0.62331074366E+03  0.00000000000E+00 0.  1.
<scales pt_clust_3="40.16272" pt_clust_4="14000.00000" pt_clust_5="37.86254" pt_clust_6="117.17927"></scales>
<clustering>
<clus scale="   37.863">  1  5  2 -1</clus>
<clus scale="   40.163">  1  3  2 -1</clus>
<clus scale="  117.179">  2  6  1 -1</clus>
<clus scale="   37.863">  1  3  2 -1</clus>
</clustering>
</event>
<event>
 6    0  0.3695460E+002  0.1182699E+03  0.7546771E-02  0.1245979E+00
         21   -1    0    0  505  502  0.00000000000E+00  0.00000000000E+00  0.39816297663E+03  0.39816297663E+03  0.00000000000E+00 0.  1.
          1   -1    0    0  504    0 -0.00000000000E+00 -0.00000000000E+00 -0.15270217530E+04  0.15270217530E+04  0.00000000000E+00 0.  1.
         21    1    1    2  503  502  0.32305866276E+02 -0.11806777232E+02  0.15084799581E+02  0.37558223638E+02  0.00000000000E+00 0. -1.
         21    1    1    2  504  503 -0.44614625485E+02  0.36356676355E+02 -0.97770258117E+03  0.97939502242E+03  0.00000000000E+00 0.  1.
         21    1    1    2  505  501  0.85576099424E+02  0.34718509373E+02  0.36100479265E+03  0.37262998269E+03  0.00000000000E+00 0.  1.
          1    1    1    2  501    0 -0.73267340215E+02 -0.59268408497E+02 -0.52724578747E+03  0.53560150092E+03  0.00000000000E+00 0.  1.
<scales pt_clust_3="34.39577" pt_clust_4="57.47839" pt_clust_5="14000.00000" pt_clust_6="118.26994"></scales>
<clustering>
<clus scale="   34.396">  1  3  2 -1</clus>
<clus scale="   57.478">  2  4  1 -1</clus>
<clus scale="  118.270">  2  6  1 -1</clus>
<clus scale="   34.396">  1  3  2 -1</clus>
</clustering>
</event>
<event>
 6    0  0.3695460E+002  0.1312789E+03  0.7546771E-02  0.1225570E+00
         21   -1    0    0  501  502  0.00000000000E+00  0.00000000000E+00  0.41564063447E+02  0.41564063447E+02  0.00000000000E+00 0.  1.
          2   -1    0    0  503    0 -0.00000000000E+00 -0.00000000000E+00 -0.13647850731E+04  0.13647850731E+04  0.00000000000E+00 0. -1.
         21    1    1    2  503  505  0.46629835350E+02 -0.54135119748E+02 -0.99858082122E+03  0.10011336620E+04  0.00000000000E+00 0. -1.
         21    1    1    2  504  502 -0.34738105182E+02  0.44660995777E+02 -0.63479583548E+02  0.85035275168E+02  0.00000000000E+00 0.  1.
         21    1    1    2  505  504 -0.22095860753E+02  0.73848926073E+02 -0.34713370335E+02  0.84539393330E+02  0.00000000000E+00 0.  1.
          2    1    1    2  501    0  0.10204130585E+02 -0.64374802102E+02 -0.22644723451E+03  0.23564080599E+03  0.00000000000E+00 0. -1.
<scales pt_clust_3="124.07715" pt_clust_4="36.74040" pt_clust_5="36.74040" pt_clust_6="65.17852"></scales>
<clustering>
<clus scale="   36.740">  4  5 -1 -1</clus>
<clus scale="   65.179">  2  6  1 -1</clus>
<clus scale="  124.077">  2  3  1 -1</clus>
<clus scale="  131.279">  1  3  2 -1</clus>
</clustering>
</event>
<event>
 6    0  0.3695460E+002  0.1015311E+03  0.7546771E-02  0.1277109E+00
         21   -1    0    0  501  502  0.00000000000E+00  0.00000000000E+00  0.40014630788E+03  0.40014630788E+03  0.00000000000E+00 0. -1.
          1   -1    0    0  504    0 -0.00000000000E+00 -0.00000000000E+00 -0.18900083350E+03  0.18900083350E+03  0.00000000000E+00 0. -1.
         21    1    1    2  503  505  0.65596500515E+02 -0.40444666418E+02  0.11914985262E+03  0.14189911663E+03  0.00000000000E+00 0. -1.
         21    1    1    2  504  503  0.37095130208E+02  0.87009023267E+02 -0.51952168605E+02  0.10791499728E+03  0.00000000000E+00 0. -1.
         21    1    1    2  505  502  0.37008403344E+02 -0.12111049961E+02  0.18551949492E+03  0.18956208071E+03  0.00000000000E+00 0. -1.
          1    1    1    2  501    0 -0.13970003407E+03 -0.34453306888E+02 -0.41571704551E+02  0.14977094676E+03  0.00000000000E+00 0. -1.
<scales pt_clust_3="14000.00000" pt_clust_4="95.16758" pt_clust_5="38.93969" pt_clust_6="101.53106"></scales>
<clustering>
<clus scale="   38.940">  1  5  2 -1</clus>
<clus scale="   95.168">  2  4  1 -1</clus>
<clus scale="  101.531">  2  6  1 -1</clus>
<clus scale="   38.940">  1  3  2 -1</clus>
</clustering>
</event>
<event>
 6    0  0.3695460E+002  0.2607981E+03  0.7546771E-02  0.1106665E+00
          1   -1    0    0  504    0 -0.00000000000E+00  0.00000000000E+00  0.67171339637E+03  0.67171339637E+03  0.00000000000E+00 0.  1.
         21   -1    0    0  505  502  0.00000000000E+00 -0.00000000000E+00 -0.31078963660E+03  0.31078963660E+03  0.00000000000E+00 0. -1.
         21    1    1    2  503  501  0.36112451201E+02  0.86618352274E+01  0.31582077570E+02  0.48750016871E+02  0.00000000000E+00 0. -1.
         21    1    1    2  504  502 -0.11772883898E+02  0.96672234788E+02 -0.17975625596E+03  0.20444176024E+03  0.00000000000E+00 0. -1.
         21    1    1    2  505  503  0.96905842493E+02  0.13963514098E+03  0.22837170025E+02  0.17149417261E+03  0.00000000000E+00 0. -1.
          1    1    1    2  501    0 -0.12124540980E+03 -0.24496921099E+03  0.48626076814E+03  0.55781708325E+03  0.00000000000E+00 0.  1.
<scales pt_clust_3="35.78290" pt_clust_4="97.38646" pt_clust_5="35.78290" pt_clust_6="249.30995"></scales>
<clustering>
<clus scale="   35.783">  3  5 -1 -1</clus>
<clus scale="   97.386">  2  4  1 -1</clus>
<clus scale="  249.310">  1  6  2 -1</clus>
<clus scale="   97.386">  2  3  1 -1</clus>
</clustering>
</event>
<event>
 6    0  0.3695460E+002  0.1245978E+03  0.7546771E-02  0.1235699E+00
         21   -1    0    0  504  502  0.00000000000E+00  0.00000000000E+00  0.16166390469E+04  0.16166390469E+04  0.00000000000E+00 0. -1.
         -3   -1    0    0    0  501 -0.00000000000E+00 -0.00000000000E+00 -0.10642829493E+03  0.10642829493E+03  0.00000000000E+00 0.  1.
         21    1    1    2  503  501 -0.36020391650E+02 -0.13647968391E+02  0.49411980321E+02  0.62652050685E+02  0.00000000000E+00 0. -1.
         21    1    1    2  504  505  0.48128642502E+02 -0.13439992458E+02  0.66475595527E+03  0.66663144217E+03  0.00000000000E+00 0. -1.
         21    1    1    2  505  503  0.38774121016E+02 -0.63919270572E+02  0.86535732335E+03  0.86858068288E+03  0.00000000000E+00 0. -1.
         -3    1    1    2    0  502 -0.50882371868E+02  0.91007231421E+02 -0.69314506930E+02  0.12520316613E+03  0.00000000000E+00 0.  1.
<scales pt_clust_3="38.51929" pt_clust_4="37.40345" pt_clust_5="37.40345" pt_clust_6="115.89451"></scales>
<clustering>
<clus scale="   37.403">  4  5 -1 -1</clus>
<clus scale="   38.519">  2  3  1 -1</clus>
<clus scale="  115.895">  2  6  1 -1</clus>
<clus scale="  124.598">  1  3  2 -1</clus>
</clustering>
</event>
<event>
 6    0  0.3695460E+002  0.2088978E+03  0.7546771E-02  0.1142442E+00
          2   -1    0    0  504    0 -0.00000000000E+00  0.00000000000E+00  0.89924850260E+02  0.89924850260E+02  0.00000000000E+00 0. -1.
         21   -1    0    0  503  502  0.00000000000E+00 -0.00000000000E+00 -0.19088636578E+04  0.19088636578E+04  0.00000000000E+00 0.  1.
         21    1    1    2  503  501  0.12588231744E+03 -0.23381828604E+03 -0.83124665062E+03  0.87263299439E+03  0.00000000000E+00 0.  1.
         21    1    1    2  504  505 -0.36016861048E+02 -0.23853397781E+01 -0.33830242598E+02  0.49471097015E+02  0.00000000000E+00 0.  1.
         21    1    1    2  505  502  0.15892236561E+02  0.86885863628E+02 -0.87160431347E+03  0.87606837389E+03  0.00000000000E+00 0.  1.
          2    1    1    2  501    0 -0.10575769296E+03  0.14931776219E+03 -0.82257600893E+02  0.20061604280E+03  0.00000000000E+00 0. -1.
<scales pt_clust_3="208.89781" pt_clust_4="36.09576" pt_clust_5="88.09251" pt_clust_6="14000.00000"></scales>
<clustering>
<clus scale="   36.096">  1  4  2 -1</clus>
<clus scale="   88.093">  2  5  1 -1</clus>
<clus scale="  208.898">  2  3  1 -1</clus>
<clus scale="   88.093">  2  3  1 -1</clus>
</clustering>
</event>
<event>
 6    0  0.3833206E+002  0.1032106E+03  0.7546771E-02  0.1273686E+00
         -2   -1    0    0    0  501 -0.00000000000E+00  0.00000000000E+00  0.21616465337E+03  0.21616465337E+03  0.00000000000E+00 0. -1.
         21   -1    0    0  505  502  0.00000000000E+00 -0.00000000000E+00 -0.65566362826E+03  0.65566362826E+03  0.00000000000E+00 0. -1.
         21    1    1    2  503  504 -0.45205870385E+02 -0.58984995312E+02 -0.17776906248E+03  0.19267755438E+03  0.00000000000E+00 0. -1.
         21    1    1    2  504  502 -0.23903765655E+02 -0.23127463755E+02 -0.44208018407E+03  0.44332962763E+03  0.00000000000E+00 0. -1.
         21    1    1    2  505  501 -0.24173292516E+02  0.19814864751E+02  0.11911501958E+02  0.33449376901E+02  0.00000000000E+00 0.  1.
         -2    1    1    2    0  503  0.93282928556E+02  0.62297594316E+02  0.16843876969E+03  0.20237172271E+03  0.00000000000E+00 0. -1.
<scales pt_clust_3="103.21057" pt_clust_4="33.27239" pt_clust_5="31.25663" pt_clust_6="14000.00000"></scales>
<clustering>
<clus scale="   31.257">  1  5  2 -1</clus>
<clus scale="   33.272">  2  4  1 -1</clus>
<clus scale="  103.211">  2  3  1 -1</clus>
<clus scale="   33.272">  2  3  1 -1</clus>
</clustering>
</event>
<event>
 6    0  0.3695460E+002  0.2037678E+03  0.7546771E-02  0.1146598E+00
          2   -1    0    0  503    0 -0.00000000000E+00  0.00000000000E+00  0.64048136101E+03  0.64048136101E+03  0.00000000000E+00 0.  1.
         21   -1    0    0  501  502  0.00000000000E+00 -0.00000000000E+00 -0.44005253071E+03  0.44005253071E+03  0.00000000000E+00 0.  1.
         21    1    1    2  503  505 -0.41635657209E+02  0.81590586712E+02  0.10513129724E+03  0.13943866555E+03  0.00000000000E+00 0. -1.
         21    1    1    2  504  502  0.41407793051E+01 -0.11290031630E+03 -0.24354647251E+03  0.26847441543E+03  0.00000000000E+00 0.  1.
         21    1    1    2  505  504  0.27499657129E+02 -0.88929102325E+02 -0.14591223751E+03  0.17307512080E+03  0.00000000000E+00 0.  1.
          2    1    1    2  501    0  0.99952207741E+01  0.12023883191E+03  0.48475624308E+03  0.49954568994E+03  0.00000000000E+00 0.  1.
<scales pt_clust_3="91.59996" pt_clust_4="35.75561" pt_clust_5="35.75561" pt_clust_6="199.92410"></scales>
<clustering>
<clus scale="   35.756">  4  5 -1 -1</clus>
<clus scale="   91.600">  1  3  2 -1</clus>
<clus scale="  199.924">  1  6  2 -1</clus>
<clus scale="  203.768">  2  3  1 -1</clus>
</clustering>
</event>
<event>
 6    0  0.3695460E+002  0.7680856E+02  0.7546771E-02  0.1338360E+00
          2   -1    0    0  504    0 -0.00000000000E+00  0.00000000000E+00  0.26633774724E+04  0.26633774724E+04  0.00000000000E+00 0.  1.
         21   -1    0    0  503  502  0.00000000000E+00 -0.00000000000E+00 -0.16062895160E+02  0.16062895160E+02  0.00000000000E+00 0.  1.
         21    1    1    2  503  501  0.18102961042E+02  0.64990335193E+02  0.21705574120E+03  0.22729860460E+03  0.00000000000E+00 0.  1.
         21    1    1    2  504  505  0.39691595545E+02  0.44782991183E+02  0.38867383663E+03  0.39325346831E+03  0.00000000000E+00 0.  1.
         21    1    1    2  505  502 -0.20513347628E+02 -0.83674488617E+02  0.21336265842E+03  0.23009963382E+03  0.00000000000E+00 0.  1.
          2    1    1    2  501    0 -0.37281208958E+02 -0.26098837760E+02  0.18282223410E+04  0.18287886608E+04  0.00000000000E+00 0.  1.
<scales pt_clust_3="76.80856" pt_clust_4="39.42763" pt_clust_5="14000.00000" pt_clust_6="45.50866"></scales>
<clustering>
<clus scale="   45.509">  1  6  2 -1</clus>
<clus scale="   39.428">  1  4  2 -1</clus>
<clus scale="   76.809">  1  3  2 -1</clus>
<clus scale="   76.809">  2  3  1 -1</clus>
</clustering>
</event>
<event>
 6    0  0.3695460E+002  0.2256763E+03  0.7546771E-02  0.1129721E+00
         -2   -1    0    0    0  501 -0.00000000000E+00  0.00000000000E+00  0.48084257146E+03  0.48084257146E+03  0.00000000000E+00 0. -1.
         21   -1    0    0  505  502  0.00000000000E+00 -0.00000000000E+00 -0.22539860329E+03  0.22539860329E+03  0.00000000000E+00 0. -1.
         21    1    1    2  503  504 -0.43672257809E+02 -0.10230480787E+03 -0.18155002547E+02  0.11270822478E+03  0.00000000000E+00 0. -1.
         21    1    1    2  504  502 -0.57942248827E+02 -0.10698115730E+03 -0.67368845594E+02  0.13907132549E+03  0.00000000000E+00 0. -1.
         21    1    1    2  505  501  0.90791724058E+02  0.20268104514E+02  0.45544270092E+02  0.10357709089E+03  0.00000000000E+00 0.  1.
         -2    1    1    2    0  503  0.10822782578E+02  0.18901786065E+03  0.29542354621E+03  0.35088453361E+03  0.00000000000E+00 0. -1.
<scales pt_clust_3="42.25089" pt_clust_4="42.25089" pt_clust_5="93.02652" pt_clust_6="221.30816"></scales>
<clustering>
<clus scale="   42.251">  3  4 -1 -1</clus>
<clus scale="   93.027">  1  5  2 -1</clus>
<clus scale="  221.308">  1  6  2 -1</clus>
<clus scale="  225.676">  2  3  1 -1</clus>
</clustering>
</event>
<event>
 6    0  0.3695460E+002  0.1423028E+03  0.7546771E-02  0.1210263E+00
         21   -1    0    0  504  502  0.00000000000E+00  0.00000000000E+00  0.43140842280E+03  0.43140842280E+03  0.00000000000E+00 0. -1.
          1   -1    0    0  505    0 -0.00000000000E+00 -0.00000000000E+00 -0.36960391601E+03  0.36960391601E+03  0.00000000000E+00 0. -1.
         21    1    1    2  503  501 -0.45036172386E+02 -0.61740018307E+02  0.14550782419E+03  0.16435514469E+03  0.00000000000E+00 0. -1.
         21    1    1    2  504  503 -0.18180020718E+02 -0.96372875835E+02  0.23052534897E+03  0.25051982131E+03  0.00000000000E+00 0. -1.
         21    1    1    2  505  502  0.27443612562E+02  0.27977084094E+02  0.50414094534E+01  0.39513098007E+02  0.00000000000E+00 0.  1.
          1    1    1    2  501    0  0.35772580542E+02  0.13013581005E+03 -0.31927007582E+03  0.34662427481E+03  0.00000000000E+00 0. -1.
<scales pt_clust_3="36.65551" pt_clust_4="36.65551" pt_clust_5="39.19017" pt_clust_6="136.10945"></scales>
<clustering>
<clus scale="   36.656">  3  4 -1 -1</clus>
<clus scale="   39.190">  1  5  2 -1</clus>
<clus scale="  136.109">  2  6  1 -1</clus>
<clus scale="   39.190">  1  3  2 -1</clus>
</clustering>
</event>
<event>
 6    0  0.3695460E+002  0.1223558E+03  0.7546771E-02  0.1239261E+00
         21   -1    0    0  503  502  0.00000000000E+00  0.00000000000E+00  0.23513111221E+03  0.23513111221E+03  0.00000000000E+00 0. -1.
          2   -1    0    0  505    0 -0.00000000000E+00 -0.00000000000E+00 -0.58562285574E+03  0.58562285574E+03  0.00000000000E+00 0. -1.
         21    1    1    2  503  504 -0.15025889244E+03  0.15644962370E+02  0.11732339897E+03  0.19127801638E+03  0.00000000000E+00 0. -1.
         21    1    1    2  504  501  0.50419151169E+02  0.25306155824E+02 -0.34627658074E+03  0.35084179155E+03  0.00000000000E+00 0. -1.
         21    1    1    2  505  502  0.54277326658E+02 -0.76451660232E+02  0.43808064712E+02  0.10348928000E+03  0.00000000000E+00 0. -1.
          2    1    1    2  501    0  0.45562414611E+02  0.35500542038E+02 -0.16534662648E+03  0.17514488002E+03  0.00000000000E+00 0. -1.
<scales pt_clust_3="113.91747" pt_clust_4="44.12800" pt_clust_5="93.75972" pt_clust_6="44.12800"></scales>
<clustering>
<clus scale="   44.128">  4  6 -1 -1</clus>
<clus scale="   93.760">  1  5  2 -1</clus>
<clus scale="  113.917">  1  3  2 -1</clus>
<clus scale="   93.760">  1  3  2 -1</clus>
</clustering>
</event>
<event>
 6    0  0.3695460E+002  0.8781198E+02  0.7546771E-02  0.1308238E+00
          2   -1    0    0  503    0 -0.00000000000E+00  0.00000000000E+00  0.38948461533E+04  0.38948461533E+04  0.00000000000E+00 0.  1.
         21   -1    0    0  501  502  0.00000000000E+00 -0.00000000000E+00 -0.10990236668E+02  0.10990236668E+02  0.00000000000E+00 0.  1.
         21    1    1    2  503  505 -0.18561214680E+02 -0.58823079681E+02  0.23280736096E+04  0.23288905953E+04  0.00000000000E+00 0.  1.
         21    1    1    2  504  502 -0.41994564088E+02  0.23573076226E+02  0.34225886465E+03  0.34563038606E+03  0.00000000000E+00 0.  1.
         21    1    1    2  505  504 -0.53332364092E+02  0.16545262236E+02  0.12769390782E+03  0.13936936843E+03  0.00000000000E+00 0.  1.
          2    1    1    2  501    0  0.11388814286E+03  0.18704741219E+02  0.10858295345E+04  0.10919460401E+04  0.00000000000E+00 0.  1.
<scales pt_clust_3="61.28483" pt_clust_4="48.15842" pt_clust_5="87.81198" pt_clust_6="14000.00000"></scales>
<clustering>
<clus scale="   48.158">  2  4  1 -1</clus>
<clus scale="   61.285">  1  3  2 -1</clus>
<clus scale="   87.812">  2  5  1 -1</clus>
<clus scale="   48.158">  2  3  1 -1</clus>
</clustering>
</event>
<event>
 6    0  0.3695460E+002  0.2629453E+03  0.7546771E-02  0.1105386E+00
         21   -1    0    0  503  502  0.00000000000E+00  0.00000000000E+00  0.92296670851E+02  0.92296670851E+02  0.00000000000E+00 0.  1.
          1   -1    0    0  505    0 -0.00000000000E+00 -0.00000000000E+00 -0.22670827072E+04  0.22670827072E+04  0.00000000000E+00 0. -1.
         21    1    1    2  503  504 -0.19510738623E+02  0.72284976319E+02 -0.64285181761E+02  0.98683186598E+02  0.00000000000E+00 0.  1.
         21    1    1    2  504  501 -0.38487757625E+02 -0.41272145825E+02 -0.22191663472E+03  0.22897967218E+03  0.00000000000E+00 0.  1.
         21    1    1    2  505  502  0.13025750161E+03  0.15230104965E+03 -0.85474788725E+02  0.21787282060E+03  0.00000000000E+00 0.  1.
          1    1    1    2  501    0 -0.72259005367E+02 -0.18331388014E+03 -0.18031094311E+04  0.18138436986E+04  0.00000000000E+00 0. -1.
<scales pt_clust_3="74.87180" pt_clust_4="52.68876" pt_clust_5="243.81795" pt_clust_6="52.68876"></scales>
<clustering>
<clus scale="   52.689">  4  6 -1 -1</clus>
<clus scale="   74.872">  1  3  2 -1</clus>
<clus scale="  243.818">  1  5  2 -1</clus>
<clus scale="   74.872">  1  3  2 -1</clus>
</clustering>
</event>
<event>
 6    0  0.3695460E+002  0.9759356E+02  0.7546771E-02  0.1285439E+00
          1   -1    0    0  504    0 -0.00000000000E+00  0.00000000000E+00  0.14304374156E+04  0.14304374156E+04  0.00000000000E+00 0. -1.
         21   -1    0    0  505  502  0.00000000000E+00 -0.00000000000E+00 -0.32777935303E+02  0.32777935303E+02  0.00000000000E+00 0. -1.
         21    1    1    2  503  502  0.87583056948E+02  0.36265644925E+02  0.13465535650E+03  0.16467560202E+03  0.00000000000E+00 0. -1.
         21    1    1    2  504  503  0.29960562438E+02 -0.73859296132E+02  0.36038654739E+03  0.36909523766E+03  0.00000000000E+00 0. -1.
         21    1    1    2  505  501 -0.11284448242E+02 -0.28773491373E+02  0.17526414641E+02  0.35530659832E+02  0.00000000000E+00 0.  1.
          1    1    1    2  501    0 -0.10625917114E+03  0.66367142580E+02  0.88509116175E+03  0.89391385137E+03  0.00000000000E+00 0. -1.
<scales pt_clust_3="82.46981" pt_clust_4="97.59356" pt_clust_5="30.90716" pt_clust_6="14000.00000"></scales>
<clustering>
<clus scale="   30.907">  2  5  1 -1</clus>
<clus scale="   82.470">  2  3  1 -1</clus>
<clus scale="   97.594">  1  4  2 -1</clus>
<clus scale="   30.907">  2  3  1 -1</clus>
</clustering>
</event>
<event>
 6    0  0.3695460E+002  0.9028897E+02  0.7546771E-02  0.1302153E+00
         21   -1    0    0  504  502  0.00000000000E+00  0.00000000000E+00  0.20946696946E+02  0.20946696946E+02  0.00000000000E+00 0. -1.
          2   -1    0    0  505    0 -0.00000000000E+00 -0.00000000000E+00 -0.30531548233E+04  0.30531548233E+04  0.00000000000E+00 0.  1.
         21    1    1    2  503  502 -0.30794721567E+02  0.86436579402E+02 -0.13405627096E+03  0.16245208807E+03  0.00000000000E+00 0. -1.
         21    1    1    2  504  501  0.87542608669E+02 -0.51837533171E+02 -0.87193401371E+03  0.87784951014E+03  0.00000000000E+00 0.  1.
         21    1    1    2  505  503 -0.80631945288E+02  0.60374699498E+01 -0.47259353132E+03  0.47946074655E+03  0.00000000000E+00 0.  1.
          2    1    1    2  501    0  0.23884058187E+02 -0.40636516181E+02 -0.15536243104E+04  0.15543391755E+04  0.00000000000E+00 0.  1.
<scales pt_clust_3="14000.00000" pt_clust_4="90.28897" pt_clust_5="73.37006" pt_clust_6="47.13570"></scales>
<clustering>
<clus scale="   47.136">  2  6  1 -1</clus>
<clus scale="   73.370">  2  5  1 -1</clus>
<clus scale="   90.289">  2  4  1 -1</clus>
<clus scale="   90.289">  1  3  2 -1</clus>
</clustering>
</event>
<event>
 6    0  0.3695460E+002  0.1610403E+03  0.7546771E-02  0.1187527E+00
          1   -1    0    0  502    0 -0.00000000000E+00  0.00000000000E+00  0.77234783149E+02  0.77234783149E+02  0.00000000000E+00 0.  1.
         21   -1    0    0  505  502  0.00000000000E+00 -0.00000000000E+00 -0.47503922906E+03  0.47503922906E+03  0.00000000000E+00 0.  1.
         21    1    1    2  503  501  0.63327760992E+02  0.52048853743E+02 -0.23617537625E+02  0.85306955002E+02  0.00000000000E+00 0.  1.
         21    1    1    2  504  503 -0.46009602863E+02 -0.25416043588E+02 -0.18012774927E+03  0.18764025390E+03  0.00000000000E+00 0.  1.
         21    1    1    2  505  504 -0.47947534886E+02 -0.90033634556E+02 -0.18092715145E+03  0.20770088008E+03  0.00000000000E+00 0.  1.
          1    1    1    2  501    0  0.30629376757E+02  0.63400824402E+02 -0.13132007564E+02  0.71625923226E+02  0.00000000000E+00 0.  1.
<scales pt_clust_3="31.02831" pt_clust_4="44.11897" pt_clust_5="44.11897" pt_clust_6="152.56933"></scales>
<clustering>
<clus scale="   31.028">  3  6 -1 -1</clus>
<clus scale="   44.119">  4  5 -1 -1</clus>
<clus scale="  152.569">  1  3  2 -1</clus>
<clus scale="  161.040">  2  3  1 -1</clus>
</clustering>
</event>
<event>
 6    0  0.3695460E+002  0.1080082E+03  0.7546771E-02  0.1264304E+00
         21   -1    0    0  504  502  0.00000000000E+00  0.00000000000E+00  0.92441883689E+01  0.92441883689E+01  0.00000000000E+00 0.  1.
          2   -1    0    0  503    0 -0.00000000000E+00 -0.00000000000E+00 -0.34860985597E+04  0.34860985597E+04  0.00000000000E+00 0. -1.
         21    1    1    2  503  505 -0.11939495341E+03 -0.27020120055E+02 -0.81020143503E+03  0.81939709977E+03  0.00000000000E+00 0.  1.
         21    1    1    2  504  501  0.74031932969E+02  0.76918878474E+01 -0.55875905408E+03  0.56369457400E+03  0.00000000000E+00 0.  1.
         21    1    1    2  505  502 -0.14302272520E+02 -0.34434082484E+02 -0.26526280653E+03  0.26787052388E+03  0.00000000000E+00 0. -1.
          2    1    1    2  501    0  0.59665292965E+02  0.53762314693E+02 -0.18426310757E+04  0.18443805504E+04  0.00000000000E+00 0. -1.
<scales pt_clust_3="34.35968" pt_clust_4="74.43045" pt_clust_5="34.35968" pt_clust_6="88.25974"></scales>
<clustering>
<clus scale="   34.360">  3  5 -1 -1</clus>
<clus scale="   74.430">  1  4  2 -1</clus>
<clus scale="   88.260">  2  6  1 -1</clus>
<clus scale="   74.430">  1  3  2 -1</clus>
</clustering>
</event>
<event>
 6    0  0.3695460E+002  0.8341010E+02  0.7546771E-02  0.1319643E+00
         21   -1    0    0  504  502  0.00000000000E+00  0.00000000000E+00  0.10307905520E+02  0.10307905520E+02  0.00000000000E+00 0.  1.
          2   -1    0    0  505    0 -0.00000000000E+00 -0.00000000000E+00 -0.50077140255E+04  0.50077140255E+04  0.00000000000E+00 0.  1.
         21    1    1    2  503  501  0.28142420690E+01 -0.79901590253E+02 -0.58625312074E+03  0.59167973234E+03  0.00000000000E+00 0. -1.
         21    1    1    2  504  503  0.91916536881E+01  0.85221392214E+02 -0.33517703260E+03  0.34596360411E+03  0.00000000000E+00 0.  1.
         21    1    1    2  505  502 -0.48043814957E+02  0.65238553282E+02 -0.96540788149E+03  0.96880165908E+03  0.00000000000E+00 0.  1.
          2    1    1    2  501    0  0.36037919200E+02 -0.70558355243E+02 -0.31105680852E+04  0.31115769355E+04  0.00000000000E+00 0.  1.
<scales pt_clust_3="14000.00000" pt_clust_4="83.41010" pt_clust_5="41.66975" pt_clust_6="79.22887"></scales>
<clustering>
<clus scale="   79.229">  2  6  1 -1</clus>
<clus scale="   41.670">  2  5  1 -1</clus>
<clus scale="   83.410">  1  4  2 -1</clus>
<clus scale="   83.410">  1  3  2 -1</clus>
</clustering>
</event>
<event>
 6    0  0.3695460E+002  0.3594350E+03  0.7546771E-02  0.1058808E+00
          2   -1    0    0  503    0 -0.00000000000E+00  0.00000000000E+00  0.16549454868E+03  0.16549454868E+03  0.00000000000E+00 0. -1.
         21   -1    0    0  505  502  0.00000000000E+00 -0.00000000000E+00 -0.10688205106E+04  0.10688205106E+04  0.00000000000E+00 0. -1.
         21    1    1    2  503  504 -0.10394783077E+03 -0.45882679734E+02 -0.24451190112E+03  0.26962277650E+03  0.00000000000E+00 0. -1.
         21    1    1    2  504  502 -0.16544648203E+03 -0.15272386156E+03 -0.54174539107E+03  0.58667297965E+03  0.00000000000E+00 0. -1.
         21    1    1    2  505  501  0.17523459589E+03  0.76074912643E+02 -0.11597593408E+03  0.22348372025E+03  0.00000000000E+00 0. -1.
          2    1    1    2  501    0  0.94159716903E+02  0.12253162865E+03 -0.10927356714E+01  0.15453558289E+03  0.00000000000E+00 0. -1.
<scales pt_clust_3="39.06452" pt_clust_4="339.17826" pt_clust_5="117.87144" pt_clust_6="117.87144"></scales>
<clustering>
<clus scale="   39.065">  3  4 -1 -1</clus>
<clus scale="  117.871">  5  6 -1 -1</clus>
<clus scale="  339.178">  2  3  1 -1</clus>
<clus scale="  339.178">  2  3  1 -1</clus>
</clustering>
</event>
<event>
 6    0  0.3695460E+002  0.1415623E+03  0.7546771E-02  0.1211242E+00
          2   -1    0    0  505    0 -0.00000000000E+00  0.00000000000E+00  0.24971540000E+04  0.24971540000E+04  0.00000000000E+00 0. -1.
         21   -1    0    0  501  502  0.00000000000E+00 -0.00000000000E+00 -0.66863930854E+02  0.66863930854E+02  0.00000000000E+00 0.  1.
         21    1    1    2  503  502  0.28993108029E+02  0.46404056642E+02  0.26020108238E+02  0.60588636053E+02  0.00000000000E+00 0.  1.
         21    1    1    2  504  503 -0.10632725279E+03  0.80941769255E+02  0.49445194529E+02  0.14248467271E+03  0.00000000000E+00 0.  1.
         21    1    1    2  505  504  0.39118939128E+02 -0.57770466594E+02  0.55469612671E+03  0.55906664290E+03  0.00000000000E+00 0. -1.
          2    1    1    2  501    0  0.38215205629E+02 -0.69575359304E+02  0.18001286397E+04  0.18018779792E+04  0.00000000000E+00 0. -1.
<scales pt_clust_3="54.71688" pt_clust_4="14000.00000" pt_clust_5="68.82731" pt_clust_6="141.56231"></scales>
<clustering>
<clus scale="   54.717">  2  3  1 -1</clus>
<clus scale="   68.827">  1  5  2 -1</clus>
<clus scale="  141.562">  1  6  2 -1</clus>
<clus scale="   54.717">  2  3  1 -1</clus>
</clustering>
</event>
<event>
 6    0  0.3695460E+002  0.1139490E+03  0.7546771E-02  0.1253427E+00
         21   -1    0    0  504  502  0.00000000000E+00  0.00000000000E+00  0.10680789284E+04  0.10680789284E+04  0.00000000000E+00 0.  1.
         -1   -1    0    0    0  501 -0.00000000000E+00 -0.00000000000E+00 -0.49696507829E+02  0.49696507829E+02  0.00000000000E+00 0. -1.
         21    1    1    2  503  502  0.31636105266E+02  0.11080965140E+03  0.80172125112E+03  0.80996085491E+03  0.00000000000E+00 0.  1.
         21    1    1    2  504  505 -0.14092250223E+02 -0.52332506576E+02  0.10943456953E+03  0.12211964531E+03  0.00000000000E+00 0. -1.
         21    1    1    2  505  501  0.15536248154E+02  0.40331527052E+02  0.52489004001E+02  0.67993401312E+02  0.00000000000E+00 0.  1.
         -1    1    1    2    0  503 -0.33080103196E+02 -0.98808671872E+02  0.54737595934E+02  0.11770153471E+03  0.00000000000E+00 0. -1.
<scales pt_clust_3="14000.00000" pt_clust_4="47.70184" pt_clust_5="43.22045" pt_clust_6="113.94902"></scales>
<clustering>
<clus scale="   43.220">  2  5  1 -1</clus>
<clus scale="   47.702">  2  4  1 -1</clus>
<clus scale="  113.949">  2  6  1 -1</clus>
<clus scale="  113.949">  1  3  2 -1</clus>
</clustering>
</event>
<event>
 6    0  0.3695460E+002  0.1311021E+03  0.7546771E-02  0.1225830E+00
         21   -1    0    0  501  502  0.00000000000E+00  0.00000000000E+00  0.49719632711E+02  0.49719632711E+02  0.00000000000E+00 0.  1.
          2   -1    0    0  505    0 -0.00000000000E+00 -0.00000000000E+00 -0.13277948491E+04  0.13277948491E+04  0.00000000000E+00 0. -1.
         21    1    1    2  503  504 -0.60697723929E+02 -0.13428376302E+02 -0.14515109070E+03  0.15790305289E+03  0.00000000000E+00 0.  1.
         21    1    1    2  504  502  0.11167271633E+03  0.78080549029E+02 -0.79584461742E+02  0.15780067889E+03  0.00000000000E+00 0.  1.
         21    1    1    2  505  503  0.33019625267E+02 -0.15440339003E+02 -0.27348617069E+03  0.27590466701E+03  0.00000000000E+00 0.  1.
          2    1    1    2  501    0 -0.83994617663E+02 -0.49211833724E+02 -0.77985349330E+03  0.78590608306E+03  0.00000000000E+00 0. -1.
<scales pt_clust_3="58.09432" pt_clust_4="131.10206" pt_clust_5="36.45133" pt_clust_6="14000.00000"></scales>
<clustering>
<clus scale="   36.451">  2  5  1 -1</clus>
<clus scale="   58.094">  2  3  1 -1</clus>
<clus scale="  131.102">  1  4  2 -1</clus>
<clus scale="  131.102">  1  3  2 -1</clus>
</clustering>
</event>
<event>
 6    0  0.3695460E+002  0.1273744E+03  0.7546771E-02  0.1231405E+00
         21   -1    0    0  504  502  0.00000000000E+00  0.00000000000E+00  0.60705204500E+03  0.60705204500E+03  0.00000000000E+00 0.  1.
         -4   -1    0    0    0  501 -0.00000000000E+00 -0.00000000000E+00 -0.28714461052E+03  0.28714461052E+03  0.00000000000E+00 0. -1.
         21    1    1    2  503  502 -0.39616247363E+02 -0.40908902037E+02  0.53819187353E+02  0.78354899326E+02  0.00000000000E+00 0.  1.
         21    1    1    2  504  505 -0.86274941026E+01 -0.51611727571E+02  0.20101720262E+03  0.20771644092E+03  0.00000000000E+00 0.  1.
         21    1    1    2  505  501  0.11613737021E+03 -0.18200769965E+02  0.30964265206E+03  0.33120647451E+03  0.00000000000E+00 0.  1.
         -4    1    1    2    0  503 -0.67893628744E+02  0.11072139957E+03 -0.24457160755E+03  0.27691884076E+03  0.00000000000E+00 0. -1.
<scales pt_clust_3="64.20237" pt_clust_4="52.32785" pt_clust_5="127.37436" pt_clust_6="14000.00000"></scales>
<clustering>
<clus scale="   52.328">  1  4  2 -1</clus>
<clus scale="   64.202">  1  3  2 -1</clus>
<clus scale="  127.374">  1  5  2 -1</clus>
<clus scale="   52.328">  1  3  2 -1</clus>
</clustering>
</event>
<event>
 6    0  0.3695460E+002  0.1511315E+03  0.7546771E-02  0.1199089E+00
          1   -1    0    0  503    0 -0.00000000000E+00  0.00000000000E+00  0.14474065606E+04  0.14474065606E+04  0.00000000000E+00 0. -1.
         21   -1    0    0  505  502  0.00000000000E+00 -0.00000000000E+00 -0.53181894271E+02  0.53181894271E+02  0.00000000000E+00 0. -1.
         21    1    1    2  503  502 -0.27078787280E+02  0.13618977846E+03  0.23848173105E+03  0.27596096195E+03  0.00000000000E+00 0. -1.
         21    1    1    2  504  501 -0.17383304149E+02 -0.65554473030E+02  0.38058495503E+03  0.38658049122E+03  0.00000000000E+00 0. -1.
         21    1    1    2  505  504  0.11734268936E+03 -0.11549506825E+02  0.94918853911E+02  0.15136805040E+03  0.00000000000E+00 0. -1.
          1    1    1    2  501    0 -0.72880597934E+02 -0.59085798604E+02  0.68023912633E+03  0.68667895129E+03  0.00000000000E+00 0. -1.
<scales pt_clust_3="141.36975" pt_clust_4="45.43110" pt_clust_5="117.90970" pt_clust_6="45.43110"></scales>
<clustering>
<clus scale="   45.431">  4  6 -1 -1</clus>
<clus scale="  117.910">  2  5  1 -1</clus>
<clus scale="  141.370">  2  3  1 -1</clus>
<clus scale="  117.910">  2  3  1 -1</clus>
</clustering>
</event>
<event>
 6    0  0.3695460E+002  0.1785053E+03  0.7546771E-02  0.1169257E+00
          1   -1    0    0  504    0 -0.00000000000E+00  0.00000000000E+00  0.19425474403E+03  0.19425474403E+03  0.00000000000E+00 0. -1.
         21   -1    0    0  501  502  0.00000000000E+00 -0.00000000000E+00 -0.51946594029E+03  0.51946594029E+03  0.00000000000E+00 0. -1.
         21    1    1    2  503  502 -0.30687178139E+02  0.16256045630E+02 -0.88376418525E+02  0.94954480005E+02  0.00000000000E+00 0.  1.
         21    1    1    2  504  505  0.11410979352E+02  0.34368367004E+02 -0.64087836521E+01  0.36775910706E+02  0.00000000000E+00 0. -1.
         21    1    1    2  505  503 -0.12017155126E+03 -0.12313962945E+03 -0.34632018766E+03  0.38670692062E+03  0.00000000000E+00 0. -1.
          1    1    1    2  501    0  0.13944775005E+03  0.72515216820E+02  0.11589419357E+03  0.19528337299E+03  0.00000000000E+00 0. -1.
<scales pt_clust_3="34.72696" pt_clust_4="36.54472" pt_clust_5="14000.00000" pt_clust_6="178.50535"></scales>
<clustering>
<clus scale="   34.727">  2  3  1 -1</clus>
<clus scale="   36.545">  1  4  2 -1</clus>
<clus scale="  178.505">  1  6  2 -1</clus>
<clus scale="   34.727">  2  3  1 -1</clus>
</clustering>
</event>
<event>
 6    0  0.3695460E+002  0.2289652E+03  0.7546771E-02  0.1127370E+00
         21   -1    0    0  503  502  0.00000000000E+00  0.00000000000E+00  0.29832101623E+04  0.29832101623E+04  0.00000000000E+00 0.  1.
          1   -1    0    0  505    0 -0.00000000000E+00 -0.00000000000E+00 -0.26007311032E+02  0.26007311032E+02  0.00000000000E+00 0.  1.
         21    1    1    2  503  504 -0.12582541046E+02  0.78620111505E+02  0.10279199561E+04  0.10309989711E+04  0.00000000000E+00 0. -1.
         21    1    1    2  504  501 -0.25062480116E+02  0.15132080115E+03  0.10773579732E+04  0.10882216296E+04  0.00000000000E+00 0.  1.
         21    1    1    2  505  502  0.10907606887E+02 -0.36858685985E+02  0.41951721207E+02  0.56898906253E+02  0.00000000000E+00 0.  1.
          1    1    1    2  501    0  0.26737414276E+02 -0.19308222667E+03  0.80997320076E+03  0.83309796635E+03  0.00000000000E+00 0.  1.
<scales pt_clust_3="49.78850" pt_clust_4="49.78850" pt_clust_5="38.43876" pt_clust_6="218.66469"></scales>
<clustering>
<clus scale="   38.439">  2  5  1 -1</clus>
<clus scale="   49.788">  3  4 -1 -1</clus>
<clus scale="  218.665">  2  6  1 -1</clus>
<clus scale="  228.965">  1  3  2 -1</clus>
</clustering>
</event>
<event>
 6    0  0.3695460E+002  0.8344299E+02  0.7546771E-02  0.1319555E+00
         21   -1    0    0  503  502  0.00000000000E+00  0.00000000000E+00  0.22985828166E+02  0.22985828166E+02  0.00000000000E+00 0. -1.
          2   -1    0    0  504    0 -0.00000000000E+00 -0.00000000000E+00 -0.19708820970E+04  0.19708820970E+04  0.00000000000E+00 0. -1.
         21    1    1    2  503  501  0.34551826106E+01  0.66163994020E+02 -0.61983445614E+02  0.90727944547E+02  0.00000000000E+00 0. -1.
         21    1    1    2  504  505  0.65912067930E+02 -0.95665365616E+02 -0.93128374321E+03  0.93850182379E+03  0.00000000000E+00 0. -1.
         21    1    1    2  505  502 -0.26758530157E+02 -0.26546423634E+02 -0.96108188137E+02  0.10323524287E+03  0.00000000000E+00 0. -1.
          2    1    1    2  501    0 -0.42608720384E+02  0.56047795230E+02 -0.85852089186E+03  0.86140291395E+03  0.00000000000E+00 0. -1.
<scales pt_clust_3="49.30815" pt_clust_4="83.44299" pt_clust_5="37.69259" pt_clust_6="14000.00000"></scales>
<clustering>
<clus scale="   37.693">  1  5  2 -1</clus>
<clus scale="   49.308">  1  3  2 -1</clus>
<clus scale="   83.443">  1  4  2 -1</clus>
<clus scale="   37.693">  1  3  2 -1</clus>
</clustering>
</event>
<event>
 6    0  0.3695460E+002  0.1456925E+03  0.7546771E-02  0.1205868E+00
         21   -1    0    0  505  502  0.00000000000E+00  0.00000000000E+00  0.12150126197E+03  0.12150126197E+03  0.00000000000E+00 0. -1.
          2   -1    0    0  503    0 -0.00000000000E+00 -0.00000000000E+00 -0.63936347317E+03  0.63936347317E+03  0.00000000000E+00 0. -1.
         21    1    1    2  503  504  0.24271653632E+02 -0.89022927665E+02  0.21984370829E+02  0.94855191639E+02  0.00000000000E+00 0. -1.
         21    1    1    2  504  502 -0.41703583241E+01 -0.44361858108E+02  0.44977229159E+02  0.63311274558E+02  0.00000000000E+00 0. -1.
         21    1    1    2  505  501 -0.95526323117E+00  0.58469362299E+02 -0.14892547055E+03  0.15999492065E+03  0.00000000000E+00 0. -1.
          2    1    1    2  501    0 -0.19146032077E+02  0.74915423475E+02 -0.43589834063E+03  0.44270334829E+03  0.00000000000E+00 0. -1.
<scales pt_clust_3="143.29262" pt_clust_4="33.59490" pt_clust_5="47.87547" pt_clust_6="47.87547"></scales>
<clustering>
<clus scale="   33.595">  3  4 -1 -1</clus>
<clus scale="   47.875">  5  6 -1 -1</clus>
<clus scale="  143.293">  1  3  2 -1</clus>
<clus scale="  143.293">  1  3  2 -1</clus>
</clustering>
</event>
<event>
 6    0  0.3695460E+002  0.1192465E+03  0.7546771E-02  0.1244345E+00
          4   -1    0    0  503    0 -0.00000000000E+00  0.00000000000E+00  0.80317615094E+02  0.80317615094E+02  0.00000000000E+00 0. -1.
         21   -1    0    0  505  502  0.00000000000E+00 -0.00000000000E+00 -0.91131250868E+03  0.91131250868E+03  0.00000000000E+00 0.  1.
         21    1    1    2  503  504 -0.31520447649E+02  0.32631422317E+02 -0.30815544436E+02  0.54844745613E+02  0.00000000000E+00 0. -1.
         21    1    1    2  504  502  0.33151649660E+02  0.14067364178E+03 -0.65689488459E+03  0.67260612156E+03  0.00000000000E+00 0.  1.
         21    1    1    2  505  501 -0.22502091770E+02 -0.80573254410E+02 -0.14690964272E+03  0.16905867793E+03  0.00000000000E+00 0. -1.
          4    1    1    2  501    0  0.20870889760E+02 -0.92731809690E+02  0.36251781627E+01  0.95120578660E+02  0.00000000000E+00 0. -1.
<scales pt_clust_3="45.36902" pt_clust_4="119.24647" pt_clust_5="14000.00000" pt_clust_6="69.17064"></scales>
<clustering>
<clus scale="   45.369">  1  3  2 -1</clus>
<clus scale="   69.171">  1  6  2 -1</clus>
<clus scale="  119.246">  2  4  1 -1</clus>
<clus scale="  119.246">  2  3  1 -1</clus>
</clustering>
</event>
<event>
 6    0  0.3695460E+002  0.1472844E+03  0.7546771E-02  0.1203850E+00
          2   -1    0    0  505    0 -0.00000000000E+00  0.00000000000E+00  0.34851695106E+04  0.34851695106E+04  0.00000000000E+00 0. -1.
         21   -1    0    0  503  502  0.00000000000E+00 -0.00000000000E+00 -0.16039462819E+02  0.16039462819E+02  0.00000000000E+00 0. -1.
         21    1    1    2  503  504  0.59182022596E+02  0.14011136832E+02  0.30596875081E+03  0.31195464450E+03  0.00000000000E+00 0. -1.
         21    1    1    2  504  501  0.98374042404E+02 -0.11915873787E+03  0.72242858449E+03  0.73876878434E+03  0.00000000000E+00 0. -1.
         21    1    1    2  505  502 -0.15022518377E+02  0.56312819904E+02  0.40329686785E+03  0.40748640881E+03  0.00000000000E+00 0. -1.
          2    1    1    2  501    0 -0.14253354662E+03  0.48834781138E+02  0.20374358446E+04  0.20429991358E+04  0.00000000000E+00 0. -1.
<scales pt_clust_3="61.74424" pt_clust_4="147.28436" pt_clust_5="58.28216" pt_clust_6="14000.00000"></scales>
<clustering>
<clus scale="   58.282">  2  5  1 -1</clus>
<clus scale="   61.744">  2  3  1 -1</clus>
<clus scale="  147.284">  2  4  1 -1</clus>
<clus scale="   58.282">  2  3  1 -1</clus>
</clustering>
</event>
<event>
 6    0  0.3695460E+002  0.1400126E+03  0.7546771E-02  0.1213312E+00
         21   -1    0    0  504  502  0.00000000000E+00  0.00000000000E+00  0.20446607791E+03  0.20446607791E+03  0.00000000000E+00 0.  1.
         -3   -1    0    0    0  501 -0.00000000000E+00 -0.00000000000E+00 -0.24816389143E+04  0.24816389143E+04  0.00000000000E+00 0.  1.
         21    1    1    2  503  501  0.13840571357E+02 -0.40663215601E+02 -0.24722616119E+03  0.25092993702E+03  0.00000000000E+00 0. -1.
         21    1    1    2  504  505 -0.75223799956E+02 -0.17637354067E+02  0.10887034861E+03  0.13350074586E+03  0.00000000000E+00 0.  1.
         21    1    1    2  505  503 -0.56049767786E+02  0.27008667069E+02  0.67622477401E+02  0.91890391312E+02  0.00000000000E+00 0.  1.
         -3    1    1    2    0  502  0.11743299638E+03  0.31291902599E+02 -0.22064395012E+04  0.22097839180E+04  0.00000000000E+00 0.  1.
<scales pt_clust_3="42.95414" pt_clust_4="43.27342" pt_clust_5="43.27342" pt_clust_6="131.42546"></scales>
<clustering>
<clus scale="   42.954">  2  3  1 -1</clus>
<clus scale="   43.273">  4  5 -1 -1</clus>
<clus scale="  131.425">  2  6  1 -1</clus>
<clus scale="  140.013">  1  3  2 -1</clus>
</clustering>
</event>
<event>
 6    0  0.3695460E+002  0.1078763E+03  0.7546771E-02  0.1264554E+00
          2   -1    0    0  505    0 -0.00000000000E+00  0.00000000000E+00  0.23774883170E+04  0.23774883170E+04  0.00000000000E+00 0. -1.
         21   -1    0    0  503  502  0.00000000000E+00 -0.00000000000E+00 -0.22708491033E+02  0.22708491033E+02  0.00000000000E+00 0. -1.
         21    1    1    2  503  504  0.28080451993E+02 -0.25997324707E+02  0.37283093375E+02  0.53426601312E+02  0.00000000000E+00 0. -1.
         21    1    1    2  504  501  0.42300700873E+02  0.18139176760E+02  0.59322450422E+03  0.59500730369E+03  0.00000000000E+00 0. -1.
         21    1    1    2  505  502 -0.12013947880E+03 -0.11027900538E+02  0.26112481363E+03  0.28764783547E+03  0.00000000000E+00 0. -1.
          2    1    1    2  501    0  0.49758325931E+02  0.18886048485E+02  0.14631474147E+04  0.14641150676E+04  0.00000000000E+00 0. -1.
<scales pt_clust_3="38.26712" pt_clust_4="35.69981" pt_clust_5="100.81444" pt_clust_6="35.69981"></scales>
<clustering>
<clus scale="   35.700">  4  6 -1 -1</clus>
<clus scale="   38.267">  2  3  1 -1</clus>
<clus scale="  100.814">  2  5  1 -1</clus>
<clus scale="   38.267">  2  3  1 -1</clus>
</clustering>
</event>
<event>
 6    0  0.3695460E+002  0.2399401E+03  0.7546771E-02  0.1119833E+00
          3   -1    0    0  504    0 -0.00000000000E+00  0.00000000000E+00  0.12349809181E+04  0.12349809181E+04  0.00000000000E+00 0. -1.
         21   -1    0    0  503  502  0.00000000000E+00 -0.00000000000E+00 -0.15533804961E+04  0.15533804961E+04  0.00000000000E+00 0. -1.
         21    1    1    2  503  501  0.69129297296E+02  0.62723143427E+02 -0.14202630910E+04  0.14233271937E+04  0.00000000000E+00 0. -1.
         21    1    1    2  504  505  0.16695224699E+03 -0.45379594391E+02  0.23016987601E+03  0.28794189030E+03  0.00000000000E+00 0. -1.
         21    1    1    2  505  502  0.53436472899E+02 -0.59398320092E+02 -0.60403736436E+02  0.10016101258E+03  0.00000000000E+00 0.  1.
          3    1    1    2  501    0 -0.28951801719E+03  0.42054771056E+02  0.93209737338E+03  0.97693131770E+03  0.00000000000E+00 0. -1.
<scales pt_clust_3="120.82520" pt_clust_4="14000.00000" pt_clust_5="79.89754" pt_clust_6="239.94009"></scales>
<clustering>
<clus scale="   79.898">  2  5  1 -1</clus>
<clus scale="  120.825">  2  3  1 -1</clus>
<clus scale="  239.940">  1  6  2 -1</clus>
<clus scale="   79.898">  2  3  1 -1</clus>
</clustering>
</event>
<event>
 6    0  0.3695460E+002  0.7845836E+02  0.7546771E-02  0.1333484E+00
          2   -1    0    0  505    0 -0.00000000000E+00  0.00000000000E+00  0.42074811071E+04  0.42074811071E+04  0.00000000000E+00 0.  1.
         21   -1    0    0  503  502  0.00000000000E+00 -0.00000000000E+00 -0.52846037702E+03  0.52846037702E+03  0.00000000000E+00 0.  1.
         21    1    1    2  503  501 -0.46784575961E+02  0.42269238037E+01 -0.32410117111E+03  0.32748775939E+03  0.00000000000E+00 0.  1.
         21    1    1    2  504  502  0.25524120512E+02 -0.79871225973E+02 -0.19200350564E+03  0.20951429460E+03  0.00000000000E+00 0.  1.
         21    1    1    2  505  504  0.44401998393E+02  0.34918297919E+00  0.32576087636E+03  0.32877318619E+03  0.00000000000E+00 0.  1.
          2    1    1    2  501    0 -0.23141542944E+02  0.75295119190E+02  0.38693645305E+04  0.38701662439E+04  0.00000000000E+00 0.  1.
<scales pt_clust_3="46.95585" pt_clust_4="14000.00000" pt_clust_5="44.40337" pt_clust_6="78.45836"></scales>
<clustering>
<clus scale="   44.403">  1  5  2 -1</clus>
<clus scale="   46.956">  2  3  1 -1</clus>
<clus scale="   78.458">  1  6  2 -1</clus>
<clus scale="   46.956">  2  3  1 -1</clus>
</clustering>
</event>
<event>
 6    0  0.3695460E+002  0.1211159E+03  0.7546771E-02  0.1241267E+00
         21   -1    0    0  504  502  0.00000000000E+00  0.00000000000E+00  0.31770351630E+03  0.31770351630E+03  0.00000000000E+00 0.  1.
          1   -1    0    0  502    0 -0.00000000000E+00 -0.00000000000E+00 -0.30952519829E+03  0.30952519829E+03  0.00000000000E+00 0.  1.
         21    1    1    2  503  505 -0.89078941054E+02 -0.62943974040E+02  0.15514937410E+03  0.18965318318E+03  0.00000000000E+00 0.  1.
         21    1    1    2  504  503  0.35162597055E+02 -0.41316381238E+02  0.12666243781E+03  0.13779268755E+03  0.00000000000E+00 0.  1.
         21    1    1    2  505  501  0.32455815651E+02  0.50066587434E+02 -0.98051662235E+02  0.11477879427E+03  0.00000000000E+00 0.  1.
          1    1    1    2  501    0  0.21460528349E+02  0.54193767844E+02 -0.17558183167E+03  0.18500404958E+03  0.00000000000E+00 0.  1.
<scales pt_clust_3="115.98185" pt_clust_4="54.25359" pt_clust_5="34.48421" pt_clust_6="34.48421"></scales>
<clustering>
<clus scale="   34.484">  5  6 -1 -1</clus>
<clus scale="   54.254">  1  4  2 -1</clus>
<clus scale="  115.982">  1  3  2 -1</clus>
<clus scale="   54.254">  1  3  2 -1</clus>
</clustering>
</event>
<event>
 6    0  0.3695460E+002  0.9290393E+02  0.7546771E-02  0.1295968E+00
          2   -1    0    0  504    0 -0.00000000000E+00  0.00000000000E+00  0.68268306060E+02  0.68268306060E+02  0.00000000000E+00 0. -1.
         21   -1    0    0  505  502  0.00000000000E+00 -0.00000000000E+00 -0.12901561445E+04  0.12901561445E+04  0.00000000000E+00 0. -1.
         21    1    1    2  503  502  0.95211194893E+01  0.36116956582E+02 -0.38033404841E+03  0.38216367521E+03  0.00000000000E+00 0. -1.
         21    1    1    2  504  503 -0.30374069797E+02  0.40622501148E+01 -0.34981456772E+02  0.46505787919E+02  0.00000000000E+00 0. -1.
         21    1    1    2  505  501 -0.51178685552E+02  0.48903898698E+02 -0.81198585833E+03  0.81506556994E+03  0.00000000000E+00 0. -1.
          2    1    1    2  501    0  0.72031635860E+02 -0.89083105395E+02  0.54135250784E+01  0.11468941749E+03  0.00000000000E+00 0. -1.
<scales pt_clust_3="37.29768" pt_clust_4="30.64451" pt_clust_5="14000.00000" pt_clust_6="92.90393"></scales>
<clustering>
<clus scale="   30.645">  1  4  2 -1</clus>
<clus scale="   37.298">  2  3  1 -1</clus>
<clus scale="   92.904">  1  6  2 -1</clus>
<clus scale="   37.298">  2  3  1 -1</clus>
</clustering>
</event>
<event>
 6    0  0.3695460E+002  0.8702779E+02  0.7546771E-02  0.1310213E+00
          2   -1    0    0  505    0 -0.00000000000E+00  0.00000000000E+00  0.28634155253E+02  0.28634155253E+02  0.00000000000E+00 0.  1.
         21   -1    0    0  501  502  0.00000000000E+00 -0.00000000000E+00 -0.18593857320E+04  0.18593857320E+04  0.00000000000E+00 0.  1.
         21    1    1    2  503  502 -0.31446564210E+02 -0.50342058580E+02 -0.10368680732E+04  0.10385656505E+04  0.00000000000E+00 0.  1.
         21    1    1    2  504  503 -0.67661547213E+02  0.18310507019E+02 -0.61229007769E+03  0.61628929803E+03  0.00000000000E+00 0.  1.
         21    1    1    2  505  504  0.44492856898E+02 -0.22649861279E+02 -0.13252973663E+03  0.14162189669E+03  0.00000000000E+00 0.  1.
          2    1    1    2  501    0  0.54615254525E+02  0.54681412840E+02 -0.49063689252E+02  0.91543042008E+02  0.00000000000E+00 0.  1.
<scales pt_clust_3="59.22886" pt_clust_4="87.02779" pt_clust_5="49.92625" pt_clust_6="14000.00000"></scales>
<clustering>
<clus scale="   49.926">  1  5  2 -1</clus>
<clus scale="   59.229">  2  3  1 -1</clus>
<clus scale="   87.028">  2  4  1 -1</clus>
<clus scale="   59.229">  2  3  1 -1</clus>
</clustering>
</event>
<event>
 6    0  0.3695460E+002  0.1583965E+03  0.7546771E-02  0.1190519E+00
          2   -1    0    0  503    0 -0.00000000000E+00  0.00000000000E+00  0.12474171969E+03  0.12474171969E+03  0.00000000000E+00 0. -1.
         21   -1    0    0  504  502  0.00000000000E+00 -0.00000000000E+00 -0.27080705749E+03  0.27080705749E+03  0.00000000000E+00 0. -1.
         21    1    1    2  503  505 -0.71529595473E+02 -0.12799270933E+03 -0.12370968962E+03  0.19184030853E+03  0.00000000000E+00 0. -1.
         21    1    1    2  504  501  0.61539181240E+02  0.54370413896E+02 -0.12396755223E+02  0.83047530216E+02  0.00000000000E+00 0. -1.
         21    1    1    2  505  502 -0.33179387971E+02  0.64479863000E+01 -0.21385753776E+02  0.39997484647E+02  0.00000000000E+00 0. -1.
          2    1    1    2  501    0  0.43169802204E+02  0.67174309129E+02  0.11426860826E+02  0.80663453792E+02  0.00000000000E+00 0. -1.
<scales pt_clust_3="155.00390" pt_clust_4="32.15432" pt_clust_5="33.80012" pt_clust_6="32.15432"></scales>
<clustering>
<clus scale="   32.154">  4  6 -1 -1</clus>
<clus scale="   33.800">  2  5  1 -1</clus>
<clus scale="  155.004">  2  3  1 -1</clus>
<clus scale="   33.800">  2  3  1 -1</clus>
</clustering>
</event>
<event>
 6    0  0.3695460E+002  0.1931753E+03  0.7546771E-02  0.1155628E+00
          2   -1    0    0  505    0 -0.00000000000E+00  0.00000000000E+00  0.20679132538E+04  0.20679132538E+04  0.00000000000E+00 0.  1.
         21   -1    0    0  503  502  0.00000000000E+00 -0.00000000000E+00 -0.59969079906E+02  0.59969079906E+02  0.00000000000E+00 0. -1.
         21    1    1    2  503  501 -0.47711773348E+02  0.53434712326E+02  0.43505198846E+03  0.44091032474E+03  0.00000000000E+00 0.  1.
         21    1    1    2  504  502  0.65391894213E+02  0.19981375568E+02  0.11138340241E+02  0.69277830665E+02  0.00000000000E+00 0. -1.
         21    1    1    2  505  504  0.97547486632E+02 -0.10780878646E+03  0.18308638881E+03  0.23379237018E+03  0.00000000000E+00 0. -1.
          2    1    1    2  501    0 -0.11522760750E+03  0.34392698567E+02  0.13786674564E+04  0.13839018081E+04  0.00000000000E+00 0.  1.
<scales pt_clust_3="60.27285" pt_clust_4="68.37657" pt_clust_5="176.68752" pt_clust_6="60.27285"></scales>
<clustering>
<clus scale="   60.273">  3  6 -1 -1</clus>
<clus scale="   68.377">  2  4  1 -1</clus>
<clus scale="  176.688">  2  5  1 -1</clus>
<clus scale="   68.377">  2  3  1 -1</clus>
</clustering>
</event>
<event>
 6    0  0.3695460E+002  0.1215728E+03  0.7546771E-02  0.1240525E+00
         21   -1    0    0  505  502  0.00000000000E+00  0.00000000000E+00  0.94807455080E+02  0.94807455080E+02  0.00000000000E+00 0. -1.
          2   -1    0    0  504    0 -0.00000000000E+00 -0.00000000000E+00 -0.45175161802E+03  0.45175161802E+03  0.00000000000E+00 0. -1.
         21    1    1    2  503  501 -0.75430396156E+02 -0.53608148032E+01  0.17261467438E+02  0.77565722182E+02  0.00000000000E+00 0. -1.
         21    1    1    2  504  502  0.97398205172E+02 -0.26406351920E+02 -0.92657031128E+02  0.13700011390E+03  0.00000000000E+00 0. -1.
         21    1    1    2  505  503 -0.32843843437E+02 -0.40849500572E+02 -0.13579216413E+02  0.54146051260E+02  0.00000000000E+00 0. -1.
          2    1    1    2  501    0  0.10876034420E+02  0.72616667295E+02 -0.26796938284E+03  0.27784718576E+03  0.00000000000E+00 0. -1.
<scales pt_clust_3="49.08323" pt_clust_4="106.32133" pt_clust_5="49.08323" pt_clust_6="73.42662"></scales>
<clustering>
<clus scale="   49.083">  3  5 -1 -1</clus>
<clus scale="   73.427">  2  6  1 -1</clus>
<clus scale="  106.321">  2  4  1 -1</clus>
<clus scale="  121.573">  1  3  2 -1</clus>
</clustering>
</event>
<event>
 6    0  0.3695460E+002  0.9066016E+02  0.7546771E-02  0.1301261E+00
         21   -1    0    0  504  502  0.00000000000E+00  0.00000000000E+00  0.78548772396E+02  0.78548772396E+02  0.00000000000E+00 0. -1.
          2   -1    0    0  503    0 -0.00000000000E+00 -0.00000000000E+00 -0.16409383192E+04  0.16409383192E+04  0.00000000000E+00 0. -1.
         21    1    1    2  503  505 -0.40975522593E+02  0.60514649440E+01 -0.23283404077E+03  0.23648954357E+03  0.00000000000E+00 0. -1.
         21    1    1    2  504  501  0.10081783370E+03 -0.12389005862E+03 -0.82780829220E+02  0.17990455220E+03  0.00000000000E+00 0. -1.
         21    1    1    2  505  502 -0.17956299231E+02  0.83401601401E+02 -0.38492165906E+02  0.93594351509E+02  0.00000000000E+00 0. -1.
          2    1    1    2  501    0 -0.41886011871E+02  0.34436992273E+02 -0.12082825109E+04  0.12094986443E+04  0.00000000000E+00 0. -1.
<scales pt_clust_3="41.41997" pt_clust_4="14000.00000" pt_clust_5="86.01484" pt_clust_6="90.66016"></scales>
<clustering>
<clus scale="   41.420">  2  3  1 -1</clus>
<clus scale="   86.015">  1  5  2 -1</clus>
<clus scale="   90.660">  2  6  1 -1</clus>
<clus scale="   86.015">  1  3  2 -1</clus>
</clustering>
</event>
<event>
 6    0  0.3695460E+002  0.1261358E+03  0.7546771E-02  0.1233305E+00
         21   -1    0    0  503  502  0.00000000000E+00  0.00000000000E+00  0.56459086350E+03  0.56459086350E+03  0.00000000000E+00 0. -1.
          4   -1    0    0  504    0 -0.00000000000E+00 -0.00000000000E+00 -0.16866716224E+03  0.16866716224E+03  0.00000000000E+00 0.  1.
         21    1    1    2  503  501 -0.13076691159E+03  0.69174808984E+02  0.39645236028E+03  0.42315436112E+03  0.00000000000E+00 0. -1.
         21    1    1    2  504  505  0.43474049646E+02 -0.27504671224E+02  0.72282100952E+01  0.51949465377E+02  0.00000000000E+00 0. -1.
         21    1    1    2  505  502  0.46837332859E+01 -0.38836191058E+02  0.10859780512E+03  0.11542820439E+03  0.00000000000E+00 0. -1.
          4    1    1    2  501    0  0.82609128661E+02 -0.28339467016E+01 -0.11635467422E+03  0.14272599485E+03  0.00000000000E+00 0.  1.
<scales pt_clust_3="126.13579" pt_clust_4="53.09743" pt_clust_5="39.11761" pt_clust_6="14000.00000"></scales>
<clustering>
<clus scale="   39.118">  1  5  2 -1</clus>
<clus scale="   53.097">  2  4  1 -1</clus>
<clus scale="  126.136">  1  3  2 -1</clus>
<clus scale="   39.118">  1  3  2 -1</clus>
</clustering>
</event>
<event>
 6    0  0.3695460E+002  0.9676339E+02  0.7546771E-02  0.1287253E+00
         21   -1    0    0  503  502  0.00000000000E+00  0.00000000000E+00  0.23301806170E+03  0.23301806170E+03  0.00000000000E+00 0. -1.
          4   -1    0    0  505    0 -0.00000000000E+00 -0.00000000000E+00 -0.41908707977E+03  0.41908707977E+03  0.00000000000E+00 0.  1.
         21    1    1    2  503  501 -0.44345992212E+02 -0.36235694612E+02 -0.33801953648E+02  0.66499358341E+02  0.00000000000E+00 0. -1.
         21    1    1    2  504  502  0.10411934626E+02  0.30217795801E+02  0.91289228440E+02  0.96722524754E+02  0.00000000000E+00 0. -1.
         21    1    1    2  505  504  0.39173256172E+02  0.10218447087E+03  0.90006787684E+02  0.14169485493E+03  0.00000000000E+00 0. -1.
          4    1    1    2  501    0 -0.52391985856E+01 -0.96166572056E+02 -0.33356308055E+03  0.34718840345E+03  0.00000000000E+00 0.  1.
<scales pt_clust_3="54.10701" pt_clust_4="31.96128" pt_clust_5="96.76339" pt_clust_6="14000.00000"></scales>
<clustering>
<clus scale="   31.961">  1  4  2 -1</clus>
<clus scale="   54.107">  1  3  2 -1</clus>
<clus scale="   96.763">  1  5  2 -1</clus>
<clus scale="   31.961">  1  3  2 -1</clus>
</clustering>
</event>
<event>
 6    0  0.3695460E+002  0.1500116E+03  0.7546771E-02  0.1200459E+00
         21   -1    0    0  503  502  0.00000000000E+00  0.00000000000E+00  0.19445492986E+03  0.19445492986E+03  0.00000000000E+00 0.  1.
          1   -1    0    0  505    0 -0.00000000000E+00 -0.00000000000E+00 -0.31258308338E+04  0.31258308338E+04  0.00000000000E+00 0.  1.
         21    1    1    2  503  504 -0.49996391275E+02  0.14324280675E+03  0.14989884234E+03  0.21327869974E+03  0.00000000000E+00 0.  1.
         21    1    1    2  504  501  0.39625445432E+02 -0.73649750300E+02 -0.13697854057E+04  0.13723361539E+04  0.00000000000E+00 0.  1.
         21    1    1    2  505  502 -0.49718921252E+02 -0.51242897488E+02 -0.10512889535E+03  0.12708221871E+03  0.00000000000E+00 0.  1.
          1    1    1    2  501    0  0.60089867095E+02 -0.18350158966E+02 -0.16063604452E+04  0.16075886913E+04  0.00000000000E+00 0.  1.
<scales pt_clust_3="135.65638" pt_clust_4="55.50453" pt_clust_5="71.39892" pt_clust_6="55.50453"></scales>
<clustering>
<clus scale="   55.505">  4  6 -1 -1</clus>
<clus scale="   71.399">  1  5  2 -1</clus>
<clus scale="  135.656">  1  3  2 -1</clus>
<clus scale="   71.399">  1  3  2 -1</clus>
</clustering>
</event>
<event>
 6    0  0.3695460E+002  0.7264560E+02  0.7546771E-02  0.1351321E+00
         21   -1    0    0  503  502  0.00000000000E+00  0.00000000000E+00  0.25201557617E+02  0.25201557617E+02  0.00000000000E+00 0. -1.
         -1   -1    0    0    0  501 -0.00000000000E+00 -0.00000000000E+00 -0.13555035947E+04  0.13555035947E+04  0.00000000000E+00 0. -1.
         21    1    1    2  503  501  0.78824717255E+02 -0.10412837195E+02 -0.39417555631E+03  0.40211457624E+03  0.00000000000E+00 0. -1.
         21    1    1    2  504  505  0.18632413895E+02  0.65491281885E+02 -0.10397118751E+03  0.12428307480E+03  0.00000000000E+00 0. -1.
         21    1    1    2  505  502 -0.34433500000E+02 -0.13065837596E+02 -0.27170206382E+02  0.45766823674E+02  0.00000000000E+00 0. -1.
         -1    1    1    2    0  504 -0.63023631150E+02 -0.42012607094E+02 -0.80498508686E+03  0.80854067758E+03  0.00000000000E+00 0. -1.
<scales pt_clust_3="14000.00000" pt_clust_4="57.24585" pt_clust_5="36.82909" pt_clust_6="72.64560"></scales>
<clustering>
<clus scale="   36.829">  1  5  2 -1</clus>
<clus scale="   57.246">  1  4  2 -1</clus>
<clus scale="   72.646">  2  6  1 -1</clus>
<clus scale="   36.829">  1  3  2 -1</clus>
</clustering>
</event>
<event>
 6    0  0.3695460E+002  0.2060582E+03  0.7546771E-02  0.1144726E+00
         21   -1    0    0  505  502  0.00000000000E+00  0.00000000000E+00  0.64285921644E+03  0.64285921644E+03  0.00000000000E+00 0.  1.
         -4   -1    0    0    0  501 -0.00000000000E+00 -0.00000000000E+00 -0.32976219708E+03  0.32976219708E+03  0.00000000000E+00 0.  1.
         21    1    1    2  503  501  0.22505864673E+02 -0.31849770128E+02 -0.54024668435E+01  0.39371416661E+02  0.00000000000E+00 0.  1.
         21    1    1    2  504  502 -0.61262197462E+02  0.14553803336E+03  0.53199315665E+03  0.55493341467E+03  0.00000000000E+00 0.  1.
         21    1    1    2  505  503 -0.13523244251E+02  0.55484342575E+02  0.39555545671E+02  0.69469645165E+02  0.00000000000E+00 0. -1.
         -4    1    1    2    0  504  0.52279577040E+02 -0.16917260581E+03 -0.25304921612E+03  0.30884693703E+03  0.00000000000E+00 0.  1.
<scales pt_clust_3="38.99900" pt_clust_4="14000.00000" pt_clust_5="55.34790" pt_clust_6="206.05821"></scales>
<clustering>
<clus scale="   38.999">  2  3  1 -1</clus>
<clus scale="   55.348">  1  5  2 -1</clus>
<clus scale="  206.058">  2  6  1 -1</clus>
<clus scale="   55.348">  1  3  2 -1</clus>
</clustering>
</event>
<event>
 6    0  0.3695460E+002  0.7872221E+02  0.7546771E-02  0.1332717E+00
          2   -1    0    0  503    0 -0.00000000000E+00  0.00000000000E+00  0.18023063607E+04  0.18023063607E+04  0.00000000000E+00 0. -1.
         21   -1    0    0  505  502  0.00000000000E+00 -0.00000000000E+00 -0.33073267031E+02  0.33073267031E+02  0.00000000000E+00 0. -1.
         21    1    1    2  503  504  0.84849679617E+02  0.94717599266E+01  0.12060402637E+03  0.14776506199E+03  0.00000000000E+00 0. -1.
         21    1    1    2  504  502  0.37094066874E+02 -0.13109156090E+02  0.91811438433E+01  0.40399420452E+02  0.00000000000E+00 0. -1.
         21    1    1    2  505  501 -0.48298750497E+02 -0.24684335738E+02  0.26445847293E+03  0.26996364502E+03  0.00000000000E+00 0. -1.
          2    1    1    2  501    0 -0.73644995993E+02  0.28321731901E+02  0.13749894505E+04  0.13772515003E+04  0.00000000000E+00 0. -1.
<scales pt_clust_3="78.72221" pt_clust_4="39.34234" pt_clust_5="50.17749" pt_clust_6="14000.00000"></scales>
<clustering>
<clus scale="   39.342">  2  4  1 -1</clus>
<clus scale="   50.177">  2  5  1 -1</clus>
<clus scale="   78.722">  2  3  1 -1</clus>
<clus scale="   39.342">  2  3  1 -1</clus>
</clustering>
</event>
<event>
 6    0  0.3695460E+002  0.1158013E+03  0.7546771E-02  0.1250189E+00
         21   -1    0    0  504  502  0.00000000000E+00  0.00000000000E+00  0.40768634220E+03  0.40768634220E+03  0.00000000000E+00 0. -1.
         -1   -1    0    0    0  501 -0.00000000000E+00 -0.00000000000E+00 -0.16103433866E+04  0.16103433866E+04  0.00000000000E+00 0.  1.
         21    1    1    2  503  501  0.13670594592E+02  0.49760379562E+02 -0.49916888349E+03  0.50182920877E+03  0.00000000000E+00 0.  1.
         21    1    1    2  504  505 -0.10801805773E+03 -0.63184987221E+02  0.33328027027E+03  0.35599997466E+03  0.00000000000E+00 0. -1.
         21    1    1    2  505  503  0.10031664379E+03 -0.19643327832E+02  0.18936519590E+02  0.10396095961E+03  0.00000000000E+00 0.  1.
         -1    1    1    2    0  502 -0.59691806481E+01  0.33067935491E+02 -0.10557049508E+04  0.10562395858E+04  0.00000000000E+00 0.  1.
<scales pt_clust_3="80.04443" pt_clust_4="14000.00000" pt_clust_5="115.80133" pt_clust_6="33.60237"></scales>
<clustering>
<clus scale="   33.602">  2  6  1 -1</clus>
<clus scale="   80.044">  2  3  1 -1</clus>
<clus scale="  115.801">  2  5  1 -1</clus>
<clus scale="  115.801">  1  3  2 -1</clus>
</clustering>
</event>
<event>
 6    0  0.4232611E+002  0.1341769E+03  0.7546771E-02  0.1221386E+00
         21   -1    0    0  505  502  0.00000000000E+00  0.00000000000E+00  0.24202655749E+03  0.24202655749E+03  0.00000000000E+00 0.  1.
          2   -1    0    0  503    0 -0.00000000000E+00 -0.00000000000E+00 -0.62078148763E+03  0.62078148763E+03  0.00000000000E+00 0.  1.
         21    1    1    2  503  504 -0.10512342504E+02 -0.31823768983E+02 -0.44237121884E+02  0.55499410535E+02  0.00000000000E+00 0.  1.
         21    1    1    2  504  502  0.51591682676E+02  0.20001313338E+02  0.84032461998E+01  0.55967569210E+02  0.00000000000E+00 0.  1.
         21    1    1    2  505  501  0.83762266224E+01  0.10541333098E+03  0.18490404319E+03  0.21300618937E+03  0.00000000000E+00 0.  1.
          2    1    1    2  501    0 -0.49455566794E+02 -0.93590875332E+02 -0.52782509764E+03  0.53833487602E+03  0.00000000000E+00 0.  1.
<scales pt_clust_3="33.51510" pt_clust_4="54.45630" pt_clust_5="134.17690" pt_clust_6="14000.00000"></scales>
<clustering>
<clus scale="   33.515">  2  3  1 -1</clus>
<clus scale="   54.456">  1  4  2 -1</clus>
<clus scale="  134.177">  1  5  2 -1</clus>
<clus scale="   54.456">  1  3  2 -1</clus>
</clustering>
</event>
<event>
 6    0  0.3695460E+002  0.6765759E+02  0.7546771E-02  0.1368245E+00
         21   -1    0    0  504  502  0.00000000000E+00  0.00000000000E+00  0.21546084867E+03  0.21546084867E+03  0.00000000000E+00 0. -1.
         -1   -1    0    0    0  501 -0.00000000000E+00 -0.00000000000E+00 -0.46679609240E+03  0.46679609240E+03  0.00000000000E+00 0. -1.
         21    1    1    2  503  502  0.37976471785E+02 -0.49626725616E+02  0.38427103420E+02  0.73359843116E+02  0.00000000000E+00 0. -1.
         21    1    1    2  504  505 -0.61915648798E+02  0.10179714841E+03  0.12033228693E+03  0.16934009055E+03  0.00000000000E+00 0. -1.
         21    1    1    2  505  501 -0.35770240745E+02  0.24193850600E+02 -0.23934883969E+03  0.24321332116E+03  0.00000000000E+00 0. -1.
         -1    1    1    2    0  503  0.59709417757E+02 -0.76364273393E+02 -0.17074579440E+03  0.19634368624E+03  0.00000000000E+00 0. -1.
<scales pt_clust_3="59.32793" pt_clust_4="67.65759" pt_clust_5="43.18394" pt_clust_6="14000.00000"></scales>
<clustering>
<clus scale="   43.184">  2  5  1 -1</clus>
<clus scale="   59.328">  1  3  2 -1</clus>
<clus scale="   67.658">  1  4  2 -1</clus>
<clus scale="   59.328">  1  3  2 -1</clus>
</clustering>
</event>
<event>
 6    0  0.3695460E+002  0.1279937E+03  0.7546771E-02  0.1230463E+00
         21   -1    0    0  501  502  0.00000000000E+00  0.00000000000E+00  0.18260254785E+03  0.18260254785E+03  0.00000000000E+00 0. -1.
          2   -1    0    0  504    0 -0.00000000000E+00 -0.00000000000E+00 -0.56400789790E+04  0.56400789790E+04  0.00000000000E+00 0. -1.
         21    1    1    2  503  505 -0.56602237539E+02 -0.50204248853E+02  0.59747125946E+02  0.96405388626E+02  0.00000000000E+00 0. -1.
         21    1    1    2  504  503  0.51653357728E+02  0.55541446863E+01 -0.22939693601E+03  0.23520602063E+03  0.00000000000E+00 0. -1.
         21    1    1    2  505  502 -0.18721531607E+02 -0.38679092157E+02  0.96714988931E+02  0.10583173909E+03  0.00000000000E+00 0. -1.
          2    1    1    2  501    0  0.23670411418E+02  0.83329196323E+02 -0.53845416100E+04  0.53852383785E+04  0.00000000000E+00 0. -1.
<scales pt_clust_3="40.20164" pt_clust_4="51.95111" pt_clust_5="40.20164" pt_clust_6="116.34799"></scales>
<clustering>
<clus scale="   40.202">  3  5 -1 -1</clus>
<clus scale="   51.951">  2  4  1 -1</clus>
<clus scale="  116.348">  2  6  1 -1</clus>
<clus scale="  127.994">  1  3  2 -1</clus>
</clustering>
</event>
<event>
 6    0  0.4227105E+002  0.1373559E+03  0.7546771E-02  0.1216932E+00
          1   -1    0    0  503    0 -0.00000000000E+00  0.00000000000E+00  0.33714338532E+04  0.33714338532E+04  0.00000000000E+00 0.  1.
         21   -1    0    0  504  502  0.00000000000E+00 -0.00000000000E+00 -0.17933821012E+03  0.17933821012E+03  0.00000000000E+00 0. -1.
         21    1    1    2  503  505  0.36318739205E+02 -0.38468880783E+01  0.16002020023E+03  0.16413504759E+03  0.00000000000E+00 0.  1.
         21    1    1    2  504  501 -0.10540494789E+03  0.86345998079E+01 -0.13898213138E+03  0.17464476000E+03  0.00000000000E+00 0. -1.
         21    1    1    2  505  502 -0.25771755052E+02 -0.54502722989E+02  0.26910935966E+02  0.66022182986E+02  0.00000000000E+00 0.  1.
          1    1    1    2  501    0  0.94857963738E+02  0.49715011260E+02  0.31441466383E+04  0.31459700727E+04  0.00000000000E+00 0.  1.
<scales pt_clust_3="36.52190" pt_clust_4="137.35588" pt_clust_5="60.11637" pt_clust_6="14000.00000"></scales>
<clustering>
<clus scale="   36.522">  1  3  2 -1</clus>
<clus scale="   60.116">  2  5  1 -1</clus>
<clus scale="  137.356">  2  4  1 -1</clus>
<clus scale="   60.116">  2  3  1 -1</clus>
</clustering>
</event>
<event>
 6    0  0.3695460E+002  0.1013403E+03  0.7546771E-02  0.1277502E+00
          2   -1    0    0  503    0 -0.00000000000E+00  0.00000000000E+00  0.21058969096E+04  0.21058969096E+04  0.00000000000E+00 0. -1.
         21   -1    0    0  501  502  0.00000000000E+00 -0.00000000000E+00 -0.25120500539E+02  0.25120500539E+02  0.00000000000E+00 0. -1.
         21    1    1    2  503  505  0.34957953452E+02  0.16149998807E+02  0.28635545335E+03  0.28893308331E+03  0.00000000000E+00 0. -1.
         21    1    1    2  504  502 -0.47511662635E+02  0.39622390194E+02  0.10965515440E+03  0.12590291806E+03  0.00000000000E+00 0. -1.
         21    1    1    2  505  504 -0.39725496530E+02 -0.10584125673E+03  0.20068784609E+03  0.23033909410E+03  0.00000000000E+00 0. -1.
          2    1    1    2  501    0  0.52279205713E+02  0.50068867727E+02  0.14840779552E+04  0.14858423147E+04  0.00000000000E+00 0. -1.
<scales pt_clust_3="38.50819" pt_clust_4="60.83782" pt_clust_5="14000.00000" pt_clust_6="101.34030"></scales>
<clustering>
<clus scale="   38.508">  1  3  2 -1</clus>
<clus scale="   60.838">  2  4  1 -1</clus>
<clus scale="  101.340">  1  6  2 -1</clus>
<clus scale="   60.838">  2  3  1 -1</clus>
</clustering>
</event>
<event>
 6    0  0.3695460E+002  0.3244298E+03  0.7546771E-02  0.1073628E+00
          2   -1    0    0  505    0 -0.00000000000E+00  0.00000000000E+00  0.10686995290E+04  0.10686995290E+04  0.00000000000E+00 0.  1.
         21   -1    0    0  504  502  0.00000000000E+00 -0.00000000000E+00 -0.98440425822E+03  0.98440425822E+03  0.00000000000E+00 0.  1.
         21    1    1    2  503  501 -0.16044794392E+03 -0.12857899094E+03 -0.47379793140E+02  0.21099986829E+03  0.00000000000E+00 0.  1.
         21    1    1    2  504  503  0.33599766025E+03 -0.46365449200E+02 -0.79746656304E+03  0.86660088953E+03  0.00000000000E+00 0.  1.
         21    1    1    2  505  502 -0.14517151860E+03  0.10386855150E+03  0.36739695318E+03  0.40846538043E+03  0.00000000000E+00 0.  1.
          2    1    1    2  501    0 -0.30378197730E+02  0.71075888642E+02  0.56174467375E+03  0.56703764896E+03  0.00000000000E+00 0.  1.
<scales pt_clust_3="202.60714" pt_clust_4="324.42983" pt_clust_5="14000.00000" pt_clust_6="77.29565"></scales>
<clustering>
<clus scale="   77.296">  1  6  2 -1</clus>
<clus scale="  202.607">  1  3  2 -1</clus>
<clus scale="  324.430">  2  4  1 -1</clus>
<clus scale="  324.430">  2  3  1 -1</clus>
</clustering>
</event>
<event>
 6    0  0.3695460E+002  0.8252868E+02  0.7546771E-02  0.1322025E+00
          2   -1    0    0  503    0 -0.00000000000E+00  0.00000000000E+00  0.24739445787E+04  0.24739445787E+04  0.00000000000E+00 0.  1.
         21   -1    0    0  501  502  0.00000000000E+00 -0.00000000000E+00 -0.22548152870E+03  0.22548152870E+03  0.00000000000E+00 0.  1.
         21    1    1    2  503  504 -0.81016765806E+01  0.62587954116E+02  0.81762443493E+03  0.82005646498E+03  0.00000000000E+00 0.  1.
         21    1    1    2  504  505 -0.81561653588E+02  0.11285464114E+01 -0.44837904339E+01  0.81692602661E+02  0.00000000000E+00 0.  1.
         21    1    1    2  505  502  0.26476653481E+02 -0.66689260010E+02 -0.17342709565E+03  0.18768438423E+03  0.00000000000E+00 0.  1.
          2    1    1    2  501    0  0.63186676687E+02  0.29727594822E+01  0.16087495012E+04  0.16099926555E+04  0.00000000000E+00 0.  1.
<scales pt_clust_3="63.11014" pt_clust_4="82.52868" pt_clust_5="71.48945" pt_clust_6="14000.00000"></scales>
<clustering>
<clus scale="   63.110">  1  3  2 -1</clus>
<clus scale="   71.489">  2  5  1 -1</clus>
<clus scale="   82.529">  2  4  1 -1</clus>
<clus scale="   71.489">  2  3  1 -1</clus>
</clustering>
</event>
<event>
 6    0  0.3695460E+002  0.1200107E+03  0.7546771E-02  0.1243079E+00
         21   -1    0    0  505  502  0.00000000000E+00  0.00000000000E+00  0.16047118878E+02  0.16047118878E+02  0.00000000000E+00 0. -1.
          2   -1    0    0  504    0 -0.00000000000E+00 -0.00000000000E+00 -0.22849794197E+04  0.22849794197E+04  0.00000000000E+00 0.  1.
         21    1    1    2  503  501  0.27534797524E+02  0.51867438559E+02 -0.18268733859E+03  0.19189335564E+03  0.00000000000E+00 0. -1.
         21    1    1    2  504  502  0.42172881149E+02 -0.31432619934E+02 -0.60902705662E+03  0.61129413312E+03  0.00000000000E+00 0.  1.
         21    1    1    2  505  503  0.46405918939E+02  0.32181169361E+02 -0.10088750429E+03  0.11561758299E+03  0.00000000000E+00 0. -1.
          2    1    1    2  501    0 -0.11611359761E+03 -0.52615987986E+02 -0.13763304013E+04  0.13822214668E+04  0.00000000000E+00 0.  1.
<scales pt_clust_3="39.43247" pt_clust_4="52.59811" pt_clust_5="39.43247" pt_clust_6="113.07382"></scales>
<clustering>
<clus scale="   39.432">  3  5 -1 -1</clus>
<clus scale="   52.598">  2  4  1 -1</clus>
<clus scale="  113.074">  2  6  1 -1</clus>
<clus scale="  120.011">  1  3  2 -1</clus>
</clustering>
</event>
<event>
 6    0  0.3695460E+002  0.8968706E+02  0.7546771E-02  0.1303611E+00
         -1   -1    0    0    0  501 -0.00000000000E+00  0.00000000000E+00  0.12920519182E+03  0.12920519182E+03  0.00000000000E+00 0.  1.
         21   -1    0    0  505  502  0.00000000000E+00 -0.00000000000E+00 -0.21850245978E+04  0.21850245978E+04  0.00000000000E+00 0.  1.
         21    1    1    2  503  504  0.52937958227E+02 -0.28867819940E+02 -0.11322994787E+04  0.11339038266E+04  0.00000000000E+00 0.  1.
         21    1    1    2  504  502 -0.17688217100E+02 -0.55638015802E+02 -0.10037620946E+04  0.10054585046E+04  0.00000000000E+00 0.  1.
         21    1    1    2  505  501 -0.40625999225E+02 -0.12554543506E+02 -0.83628644057E+01  0.43336195919E+02  0.00000000000E+00 0. -1.
         -1    1    1    2    0  503  0.53762580986E+01  0.97060379247E+02  0.88605031769E+02  0.13153126254E+03  0.00000000000E+00 0.  1.
<scales pt_clust_3="89.68706" pt_clust_4="58.56692" pt_clust_5="42.52162" pt_clust_6="14000.00000"></scales>
<clustering>
<clus scale="   42.522">  1  5  2 -1</clus>
<clus scale="   58.567">  2  4  1 -1</clus>
<clus scale="   89.687">  2  3  1 -1</clus>
<clus scale="   58.567">  2  3  1 -1</clus>
</clustering>
</event>
<event>
 6    0  0.3695460E+002  0.1556475E+03  0.7546771E-02  0.1193700E+00
         21   -1    0    0  501  502  0.00000000000E+00  0.00000000000E+00  0.11593780849E+03  0.11593780849E+03  0.00000000000E+00 0.  1.
          2   -1    0    0  505    0 -0.00000000000E+00 -0.00000000000E+00 -0.25397209936E+04  0.25397209936E+04  0.00000000000E+00 0.  1.
         21    1    1    2  503  504 -0.62270670415E+02  0.19717278122E+02 -0.98469074844E+02  0.11816330289E+03  0.00000000000E+00 0. -1.
         21    1    1    2  504  502 -0.11155119087E+03 -0.10874120217E+03  0.34992660755E+02  0.15966465965E+03  0.00000000000E+00 0.  1.
         21    1    1    2  505  503  0.25672068747E+02  0.21465452304E+02 -0.15969919846E+04  0.15973425492E+04  0.00000000000E+00 0.  1.
          2    1    1    2  501    0  0.14814979254E+03  0.67558471743E+02 -0.76331478643E+03  0.78048829031E+03  0.00000000000E+00 0.  1.
<scales pt_clust_3="63.33287" pt_clust_4="14000.00000" pt_clust_5="33.46372" pt_clust_6="155.64748"></scales>
<clustering>
<clus scale="   33.464">  2  5  1 -1</clus>
<clus scale="   63.333">  2  3  1 -1</clus>
<clus scale="  155.647">  2  6  1 -1</clus>
<clus scale="  155.647">  1  3  2 -1</clus>
</clustering>
</event>
<event>
 6    0  0.3695460E+002  0.1241095E+03  0.7546771E-02  0.1236468E+00
          1   -1    0    0  503    0 -0.00000000000E+00  0.00000000000E+00  0.13412225655E+04  0.13412225655E+04  0.00000000000E+00 0.  1.
         21   -1    0    0  504  502  0.00000000000E+00 -0.00000000000E+00 -0.32411893484E+02  0.32411893484E+02  0.00000000000E+00 0.  1.
         21    1    1    2  503  502 -0.88824782998E+02  0.75449509305E+01  0.10173447533E+03  0.13526519075E+03  0.00000000000E+00 0. -1.
         21    1    1    2  504  505 -0.20777140116E+02 -0.88975850116E+02  0.18463711015E+03  0.20600789767E+03  0.00000000000E+00 0.  1.
         21    1    1    2  505  501  0.36982451865E+02  0.50940600422E+02  0.39213677683E+03  0.39715727144E+03  0.00000000000E+00 0.  1.
          1    1    1    2  501    0  0.72619471248E+02  0.30490298763E+02  0.63030230974E+03  0.63520409915E+03  0.00000000000E+00 0.  1.
<scales pt_clust_3="89.14465" pt_clust_4="116.86930" pt_clust_5="37.34281" pt_clust_6="37.34281"></scales>
<clustering>
<clus scale="   37.343">  5  6 -1 -1</clus>
<clus scale="   89.145">  2  3  1 -1</clus>
<clus scale="  116.869">  2  4  1 -1</clus>
<clus scale="   89.145">  2  3  1 -1</clus>
</clustering>
</event>
<event>
 6    0  0.3695460E+002  0.1761090E+03  0.7546771E-02  0.1171623E+00
         21   -1    0    0  503  502  0.00000000000E+00  0.00000000000E+00  0.39171033724E+02  0.39171033724E+02  0.00000000000E+00 0.  1.
          2   -1    0    0  504    0 -0.00000000000E+00 -0.00000000000E+00 -0.30343001579E+04  0.30343001579E+04  0.00000000000E+00 0. -1.
         21    1    1    2  503  501  0.65874683194E+01 -0.37089280915E+02 -0.16112919250E+03  0.16547394410E+03  0.00000000000E+00 0.  1.
         21    1    1    2  504  505  0.23158407830E+02  0.30398983946E+02 -0.23304401542E+03  0.23615656502E+03  0.00000000000E+00 0.  1.
         21    1    1    2  505  502 -0.18387734298E+03  0.67706060384E+01 -0.22396102233E+03  0.28985385609E+03  0.00000000000E+00 0.  1.
          2    1    1    2  501    0  0.15413146683E+03 -0.80309068983E-01 -0.23769948939E+04  0.23819868264E+04  0.00000000000E+00 0. -1.
<scales pt_clust_3="37.66974" pt_clust_4="37.16052" pt_clust_5="176.10902" pt_clust_6="14000.00000"></scales>
<clustering>
<clus scale="   37.670">  1  3  2 -1</clus>
<clus scale="   37.161">  2  4  1 -1</clus>
<clus scale="  176.109">  1  5  2 -1</clus>
<clus scale="   37.670">  1  3  2 -1</clus>
</clustering>
</event>
<event>
 6    0  0.3695460E+002  0.1157312E+03  0.7546771E-02  0.1250310E+00
         21   -1    0    0  501  502  0.00000000000E+00  0.00000000000E+00  0.12606513060E+03  0.12606513060E+03  0.00000000000E+00 0.  1.
          2   -1    0    0  503    0 -0.00000000000E+00 -0.00000000000E+00 -0.31818126275E+04  0.31818126275E+04  0.00000000000E+00 0.  1.
         21    1    1    2  503  505  0.44214837022E+02  0.40809055693E+02 -0.15419524061E+04  0.15431259033E+04  0.00000000000E+00 0.  1.
         21    1    1    2  504  502 -0.30604837082E+02 -0.84190124848E+01  0.80882465425E+02  0.86887910766E+02  0.00000000000E+00 0.  1.
         21    1    1    2  505  504 -0.86515454177E+02  0.30029739727E+02 -0.12095488758E+02  0.92374292570E+02  0.00000000000E+00 0.  1.
          2    1    1    2  501    0  0.72905454238E+02 -0.62419782935E+02 -0.15825820675E+04  0.15854896514E+04  0.00000000000E+00 0.  1.
<scales pt_clust_3="59.77725" pt_clust_4="31.74170" pt_clust_5="14000.00000" pt_clust_6="115.73124"></scales>
<clustering>
<clus scale="   31.742">  1  4  2 -1</clus>
<clus scale="   59.777">  2  3  1 -1</clus>
<clus scale="  115.731">  2  6  1 -1</clus>
<clus scale="   31.742">  1  3  2 -1</clus>
</clustering>
</event>
<event>
 6    0  0.3695460E+002  0.1064974E+03  0.7546771E-02  0.1267197E+00
          2   -1    0    0  504    0 -0.00000000000E+00  0.00000000000E+00  0.12690873832E+04  0.12690873832E+04  0.00000000000E+00 0.  1.
         21   -1    0    0  503  502  0.00000000000E+00 -0.00000000000E+00 -0.27440547590E+02  0.27440547590E+02  0.00000000000E+00 0. -1.
         21    1    1    2  503  501 -0.21100644767E+02  0.33792038461E+02  0.46412042849E+02  0.61165486954E+02  0.00000000000E+00 0.  1.
         21    1    1    2  504  505  0.79221103513E+01 -0.32643839182E+02  0.14561421536E+03  0.14943854852E+03  0.00000000000E+00 0.  1.
         21    1    1    2  505  502 -0.84876804770E+02 -0.57676812454E+02  0.16652560981E+03  0.19560538184E+03  0.00000000000E+00 0. -1.
          2    1    1    2  501    0  0.98055339186E+02  0.56528613175E+02  0.88309496760E+03  0.89031851348E+03  0.00000000000E+00 0.  1.
<scales pt_clust_3="38.31310" pt_clust_4="33.59137" pt_clust_5="106.49740" pt_clust_6="14000.00000"></scales>
<clustering>
<clus scale="   33.591">  1  4  2 -1</clus>
<clus scale="   38.313">  2  3  1 -1</clus>
<clus scale="  106.497">  2  5  1 -1</clus>
<clus scale="   38.313">  2  3  1 -1</clus>
</clustering>
</event>
<event>
 6    0  0.3695460E+002  0.1272026E+03  0.7546771E-02  0.1231667E+00
         21   -1    0    0  503  502  0.00000000000E+00  0.00000000000E+00  0.29437501036E+03  0.29437501036E+03  0.00000000000E+00 0.  1.
          1   -1    0    0  504    0 -0.00000000000E+00 -0.00000000000E+00 -0.55910808675E+03  0.55910808675E+03  0.00000000000E+00 0. -1.
         21    1    1    2  503  501 -0.58972229770E+02  0.23386998080E+02  0.52735472810E+00  0.63442522540E+02  0.00000000000E+00 0.  1.
         21    1    1    2  504  505 -0.43186217413E+02 -0.91406593790E+02  0.13222593789E+03  0.16644492607E+03  0.00000000000E+00 0.  1.
         21    1    1    2  505  502  0.44502051572E+02 -0.46986343368E+02  0.94796485436E+02  0.11478032370E+03  0.00000000000E+00 0.  1.
          1    1    1    2  501    0  0.57656395612E+02  0.11500593908E+03 -0.49228285444E+03  0.50881532481E+03  0.00000000000E+00 0. -1.
<scales pt_clust_3="63.44033" pt_clust_4="127.20263" pt_clust_5="43.08358" pt_clust_6="14000.00000"></scales>
<clustering>
<clus scale="   63.440">  1  3  2 -1</clus>
<clus scale="   43.084">  1  5  2 -1</clus>
<clus scale="  127.203">  1  4  2 -1</clus>
<clus scale="   63.440">  1  3  2 -1</clus>
</clustering>
</event>
<event>
 6    0  0.3695460E+002  0.1142446E+03  0.7546771E-02  0.1252906E+00
         21   -1    0    0  504  502  0.00000000000E+00  0.00000000000E+00  0.63545401843E+02  0.63545401843E+02  0.00000000000E+00 0. -1.
          2   -1    0    0  503    0 -0.00000000000E+00 -0.00000000000E+00 -0.20349913387E+04  0.20349913387E+04  0.00000000000E+00 0.  1.
         21    1    1    2  503  502  0.28383499716E+02 -0.31608211927E+02 -0.65926168855E+01  0.42990286284E+02  0.00000000000E+00 0. -1.
         21    1    1    2  504  505 -0.59609810595E+02  0.13329749369E+03 -0.78431837296E+02  0.16575012653E+03  0.00000000000E+00 0. -1.
         21    1    1    2  505  501  0.33702315354E+02 -0.54824127184E+02 -0.12435752011E+04  0.12452392589E+04  0.00000000000E+00 0.  1.
          2    1    1    2  501    0 -0.24760044747E+01 -0.46865154578E+02 -0.64284628155E+03  0.64455706886E+03  0.00000000000E+00 0.  1.
<scales pt_clust_3="42.48179" pt_clust_4="107.81218" pt_clust_5="32.27423" pt_clust_6="32.27423"></scales>
<clustering>
<clus scale="   32.274">  5  6 -1 -1</clus>
<clus scale="   42.482">  1  3  2 -1</clus>
<clus scale="  107.812">  1  4  2 -1</clus>
<clus scale="   42.482">  1  3  2 -1</clus>
</clustering>
</event>
<event>
 6    0  0.3695460E+002  0.1017671E+03  0.7546771E-02  0.1276623E+00
         21   -1    0    0  503  502  0.00000000000E+00  0.00000000000E+00  0.17265025601E+03  0.17265025601E+03  0.00000000000E+00 0. -1.
          1   -1    0    0  505    0 -0.00000000000E+00 -0.00000000000E+00 -0.37807171923E+03  0.37807171923E+03  0.00000000000E+00 0. -1.
         21    1    1    2  503  501 -0.64110475400E+02  0.11363244475E+03  0.27416188633E+02  0.13331966454E+03  0.00000000000E+00 0. -1.
         21    1    1    2  504  502  0.44996064815E+02 -0.76925134834E+02  0.61721247195E+02  0.10840495641E+03  0.00000000000E+00 0. -1.
         21    1    1    2  505  504 -0.30141806488E+02 -0.28975311289E+01 -0.63663842163E+02  0.70498290646E+02  0.00000000000E+00 0. -1.
          1    1    1    2  501    0  0.49256217072E+02 -0.33809778784E+02 -0.23089505689E+03  0.23849906364E+03  0.00000000000E+00 0. -1.
<scales pt_clust_3="101.76708" pt_clust_4="14000.00000" pt_clust_5="30.28076" pt_clust_6="44.70425"></scales>
<clustering>
<clus scale="   30.281">  2  5  1 -1</clus>
<clus scale="   44.704">  2  6  1 -1</clus>
<clus scale="  101.767">  2  3  1 -1</clus>
<clus scale="  101.767">  1  3  2 -1</clus>
</clustering>
</event>
<event>
 6    0  0.3695460E+002  0.1388946E+03  0.7546771E-02  0.1214824E+00
          4   -1    0    0  504    0 -0.00000000000E+00  0.00000000000E+00  0.57567655655E+02  0.57567655655E+02  0.00000000000E+00 0. -1.
         21   -1    0    0  505  502  0.00000000000E+00 -0.00000000000E+00 -0.48956105283E+03  0.48956105283E+03  0.00000000000E+00 0.  1.
         21    1    1    2  503  502  0.46681770820E+01 -0.83605461910E+02 -0.18215838208E+03  0.20048277058E+03  0.00000000000E+00 0.  1.
         21    1    1    2  504  503  0.34809679917E+02 -0.37112105606E+02 -0.19186702397E+03  0.19849931256E+03  0.00000000000E+00 0.  1.
         21    1    1    2  505  501 -0.45278352117E+01  0.40057683809E+02 -0.43059469063E+02  0.58985059123E+02  0.00000000000E+00 0. -1.
          4    1    1    2  501    0 -0.34950021788E+02  0.80659883707E+02 -0.14908522071E+02  0.89161566232E+02  0.00000000000E+00 0. -1.
<scales pt_clust_3="43.82321" pt_clust_4="43.82321" pt_clust_5="33.55960" pt_clust_6="136.33464"></scales>
<clustering>
<clus scale="   33.560">  5  6 -1 -1</clus>
<clus scale="   43.823">  3  4 -1 -1</clus>
<clus scale="  136.335">  1  5  2 -1</clus>
<clus scale="  138.895">  2  3  1 -1</clus>
</clustering>
</event>
<event>
 6    0  0.3695460E+002  0.1198469E+03  0.7546771E-02  0.1243350E+00
         21   -1    0    0  503  502  0.00000000000E+00  0.00000000000E+00  0.28578802371E+03  0.28578802371E+03  0.00000000000E+00 0. -1.
          3   -1    0    0  505    0 -0.00000000000E+00 -0.00000000000E+00 -0.65444546821E+03  0.65444546821E+03  0.00000000000E+00 0. -1.
         21    1    1    2  503  504  0.10059370637E+03 -0.10629513522E+03  0.19972206537E+03  0.24760180316E+03  0.00000000000E+00 0. -1.
         21    1    1    2  504  501 -0.88214753033E+02  0.61401831849E+02 -0.38082303922E+03  0.39569965227E+03  0.00000000000E+00 0. -1.
         21    1    1    2  505  502 -0.42038901877E+02  0.12149485996E+01  0.43153775105E+02  0.60257727114E+02  0.00000000000E+00 0. -1.
          3    1    1    2  501    0  0.29659948545E+02  0.43678354772E+02 -0.23071024575E+03  0.23667430937E+03  0.00000000000E+00 0. -1.
<scales pt_clust_3="14000.00000" pt_clust_4="119.84690" pt_clust_5="42.05645" pt_clust_6="52.51078"></scales>
<clustering>
<clus scale="   42.056">  1  5  2 -1</clus>
<clus scale="   52.511">  2  6  1 -1</clus>
<clus scale="  119.847">  2  4  1 -1</clus>
<clus scale="   42.056">  1  3  2 -1</clus>
</clustering>
</event>
<event>
 6    0  0.3733994E+002  0.8428931E+02  0.7546771E-02  0.1317302E+00
         21   -1    0    0  503  502  0.00000000000E+00  0.00000000000E+00  0.22916077980E+03  0.22916077980E+03  0.00000000000E+00 0.  1.
          2   -1    0    0  504    0 -0.00000000000E+00 -0.00000000000E+00 -0.12645023068E+04  0.12645023068E+04  0.00000000000E+00 0.  1.
         21    1    1    2  503  501 -0.85302481856E+02 -0.31515369626E+01 -0.19947866426E+02  0.87660498350E+02  0.00000000000E+00 0.  1.
         21    1    1    2  504  505  0.29410536541E+02  0.32378346797E+02 -0.11385373695E+03  0.12196725142E+03  0.00000000000E+00 0. -1.
         21    1    1    2  505  502  0.57535624806E+02 -0.79706585095E+02  0.17798600112E+03  0.20332856274E+03  0.00000000000E+00 0.  1.
          2    1    1    2  501    0 -0.16436794915E+01  0.50479775261E+02 -0.10795259247E+04  0.10807067741E+04  0.00000000000E+00 0.  1.
<scales pt_clust_3="83.93825" pt_clust_4="43.74171" pt_clust_5="14000.00000" pt_clust_6="84.28931"></scales>
<clustering>
<clus scale="   43.742">  2  4  1 -1</clus>
<clus scale="   83.938">  1  3  2 -1</clus>
<clus scale="   84.289">  2  6  1 -1</clus>
<clus scale="   83.938">  1  3  2 -1</clus>
</clustering>
</event>
<event>
 6    0  0.3695460E+002  0.8032323E+02  0.7546771E-02  0.1328137E+00
          1   -1    0    0  505    0 -0.00000000000E+00  0.00000000000E+00  0.60565765574E+03  0.60565765574E+03  0.00000000000E+00 0. -1.
         21   -1    0    0  504  502  0.00000000000E+00 -0.00000000000E+00 -0.42859024923E+02  0.42859024923E+02  0.00000000000E+00 0. -1.
         21    1    1    2  503  501  0.90736963812E+02  0.58587095992E+02  0.10397967078E+03  0.14992470228E+03  0.00000000000E+00 0. -1.
         21    1    1    2  504  503 -0.28185250345E+02 -0.13486758550E+02  0.34090046645E+02  0.46243186238E+02  0.00000000000E+00 0.  1.
         21    1    1    2  505  502  0.14336332160E+02 -0.36689977033E+02  0.28447327082E+02  0.48589456188E+02  0.00000000000E+00 0.  1.
          1    1    1    2  501    0 -0.76888045627E+02 -0.84103604088E+01  0.39628158631E+03  0.40375933596E+03  0.00000000000E+00 0. -1.
<scales pt_clust_3="80.32323" pt_clust_4="31.24582" pt_clust_5="40.92155" pt_clust_6="14000.00000"></scales>
<clustering>
<clus scale="   31.246">  2  4  1 -1</clus>
<clus scale="   40.922">  2  5  1 -1</clus>
<clus scale="   80.323">  2  3  1 -1</clus>
<clus scale="   31.246">  2  3  1 -1</clus>
</clustering>
</event>
<event>
 6    0  0.3695460E+002  0.2039451E+03  0.7546771E-02  0.1146453E+00
          1   -1    0    0  504    0 -0.00000000000E+00  0.00000000000E+00  0.72103125995E+03  0.72103125995E+03  0.00000000000E+00 0. -1.
         21   -1    0    0  503  502  0.00000000000E+00 -0.00000000000E+00 -0.22925184581E+03  0.22925184581E+03  0.00000000000E+00 0. -1.
         21    1    1    2  503  505  0.15782472044E+02  0.80308036842E+02  0.56954062044E+01  0.82042091983E+02  0.00000000000E+00 0. -1.
         21    1    1    2  504  502  0.72242889773E+02  0.92877052195E+02 -0.15439020129E+03  0.19411727435E+03  0.00000000000E+00 0. -1.
         21    1    1    2  505  501 -0.88838456607E+02 -0.97170296080E+02  0.45526575765E+03  0.47392114101E+03  0.00000000000E+00 0. -1.
          1    1    1    2  501    0  0.81309479045E+00 -0.76014792957E+02  0.18520845158E+03  0.20020259841E+03  0.00000000000E+00 0. -1.
<scales pt_clust_3="81.84416" pt_clust_4="187.34874" pt_clust_5="61.23404" pt_clust_6="61.23404"></scales>
<clustering>
<clus scale="   61.234">  5  6 -1 -1</clus>
<clus scale="   81.844">  2  3  1 -1</clus>
<clus scale="  187.349">  2  4  1 -1</clus>
<clus scale="   81.844">  2  3  1 -1</clus>
</clustering>
</event>
<event>
 6    0  0.3695460E+002  0.1628637E+03  0.7546771E-02  0.1185501E+00
          2   -1    0    0  505    0 -0.00000000000E+00  0.00000000000E+00  0.36802912280E+03  0.36802912280E+03  0.00000000000E+00 0.  1.
         21   -1    0    0  504  502  0.00000000000E+00 -0.00000000000E+00 -0.20198930743E+03  0.20198930743E+03  0.00000000000E+00 0. -1.
         21    1    1    2  503  502  0.16131370333E+03 -0.77479528234E+02 -0.10291017615E+03  0.20643568619E+03  0.00000000000E+00 0. -1.
         21    1    1    2  504  501 -0.80469689533E+02  0.78067070058E+02  0.16147847153E+03  0.19658365936E+03  0.00000000000E+00 0.  1.
         21    1    1    2  505  503  0.12249604299E+02  0.27838957181E+02  0.27982081372E+02  0.41328648905E+02  0.00000000000E+00 0.  1.
          2    1    1    2  501    0 -0.93093618096E+02 -0.28426499005E+02  0.79489438620E+02  0.12567043578E+03  0.00000000000E+00 0.  1.
<scales pt_clust_3="14000.00000" pt_clust_4="162.86365" pt_clust_5="30.41480" pt_clust_6="91.50563"></scales>
<clustering>
<clus scale="   30.415">  1  5  2 -1</clus>
<clus scale="   91.506">  1  6  2 -1</clus>
<clus scale="  162.864">  1  4  2 -1</clus>
<clus scale="  162.864">  2  3  1 -1</clus>
</clustering>
</event>
<event>
 6    0  0.3695460E+002  0.2938162E+03  0.7546771E-02  0.1088373E+00
         -3   -1    0    0    0  501 -0.00000000000E+00  0.00000000000E+00  0.77859172610E+02  0.77859172610E+02  0.00000000000E+00 0.  1.
         21   -1    0    0  503  502  0.00000000000E+00 -0.00000000000E+00 -0.26761276662E+04  0.26761276662E+04  0.00000000000E+00 0. -1.
         21    1    1    2  503  504 -0.71185973199E+02 -0.71978443517E+02 -0.68000886514E+03  0.68750301511E+03  0.00000000000E+00 0.  1.
         21    1    1    2  504  505 -0.95020888981E+02 -0.16773156056E+03 -0.16002658890E+04  0.16118355255E+04  0.00000000000E+00 0. -1.
         21    1    1    2  505  501 -0.26393719745E+02  0.33413831439E+02 -0.37453533977E+02  0.56708727554E+02  0.00000000000E+00 0. -1.
         -3    1    1    2    0  502  0.19260058193E+03  0.20629617264E+03 -0.28054020546E+03  0.39793957064E+03  0.00000000000E+00 0.  1.
<scales pt_clust_3="34.13742" pt_clust_4="34.13742" pt_clust_5="42.58066" pt_clust_6="290.01514"></scales>
<clustering>
<clus scale="   34.137">  3  4 -1 -1</clus>
<clus scale="   42.581">  1  5  2 -1</clus>
<clus scale="  290.015">  1  6  2 -1</clus>
<clus scale="  293.816">  2  3  1 -1</clus>
</clustering>
</event>
<event>
 6    0  0.3695460E+002  0.1186659E+03  0.7546771E-02  0.1245314E+00
         21   -1    0    0  501  502  0.00000000000E+00  0.00000000000E+00  0.11581428222E+03  0.11581428222E+03  0.00000000000E+00 0. -1.
          1   -1    0    0  504    0 -0.00000000000E+00 -0.00000000000E+00 -0.10147507593E+04  0.10147507593E+04  0.00000000000E+00 0. -1.
         21    1    1    2  503  505  0.37811246007E+02 -0.91653451729E+02  0.64758770915E+02  0.11842188965E+03  0.00000000000E+00 0. -1.
         21    1    1    2  504  503 -0.63807661171E+02  0.81558993602E+01 -0.22601437644E+03  0.23499028634E+03  0.00000000000E+00 0. -1.
         21    1    1    2  505  502 -0.16002586127E+02 -0.28734856940E+02 -0.32957398366E+01  0.33055055093E+02  0.00000000000E+00 0. -1.
          1    1    1    2  501    0  0.41999001291E+02  0.11223240931E+03 -0.73438513168E+03  0.74409781040E+03  0.00000000000E+00 0. -1.
<scales pt_clust_3="14000.00000" pt_clust_4="64.88480" pt_clust_5="32.89034" pt_clust_6="118.66592"></scales>
<clustering>
<clus scale="   32.890">  1  5  2 -1</clus>
<clus scale="   64.885">  2  4  1 -1</clus>
<clus scale="  118.666">  2  6  1 -1</clus>
<clus scale="   32.890">  1  3  2 -1</clus>
</clustering>
</event>
<event>
 6    0  0.3695460E+002  0.1887252E+03  0.7546771E-02  0.1159616E+00
         21   -1    0    0  503  502  0.00000000000E+00  0.00000000000E+00  0.12754521263E+03  0.12754521263E+03  0.00000000000E+00 0. -1.
         -1   -1    0    0    0  501 -0.00000000000E+00 -0.00000000000E+00 -0.29607147494E+03  0.29607147494E+03  0.00000000000E+00 0. -1.
         21    1    1    2  503  505  0.46768876944E+02 -0.51256479820E+02 -0.23751120918E+02  0.73339418589E+02  0.00000000000E+00 0. -1.
         21    1    1    2  504  502 -0.59101622071E+02  0.42485605339E+02 -0.63574089202E+02  0.96642088193E+02  0.00000000000E+00 0. -1.
         21    1    1    2  505  501  0.11554334755E+03 -0.15478787068E+01  0.93693753477E+01  0.11593293874E+03  0.00000000000E+00 0. -1.
         -1    1    1    2    0  504 -0.10321060242E+03  0.10318753188E+02 -0.90570427538E+02  0.13770224204E+03  0.00000000000E+00 0. -1.
<scales pt_clust_3="62.39593" pt_clust_4="37.67934" pt_clust_5="62.39593" pt_clust_6="176.51270"></scales>
<clustering>
<clus scale="   37.679">  4  6 -1 -1</clus>
<clus scale="   62.396">  3  5 -1 -1</clus>
<clus scale="  176.513">  2  4  1 -1</clus>
<clus scale="  188.725">  1  3  2 -1</clus>
</clustering>
</event>
<event>
 6    0  0.3695460E+002  0.2526661E+03  0.7546771E-02  0.1111631E+00
          2   -1    0    0  505    0 -0.00000000000E+00  0.00000000000E+00  0.45146867142E+04  0.45146867142E+04  0.00000000000E+00 0. -1.
         21   -1    0    0  504  502  0.00000000000E+00 -0.00000000000E+00 -0.22511236199E+02  0.22511236199E+02  0.00000000000E+00 0. -1.
         21    1    1    2  503  502 -0.12064341423E+03 -0.10439966791E+03  0.49835194432E+03  0.52326741200E+03  0.00000000000E+00 0. -1.
         21    1    1    2  504  501 -0.11253559770E+02  0.44137662426E+02  0.29882427661E+03  0.30227590731E+03  0.00000000000E+00 0. -1.
         21    1    1    2  505  503 -0.87040551740E+02 -0.27131621760E+02  0.52130459957E+03  0.52921703306E+03  0.00000000000E+00 0. -1.
          2    1    1    2  501    0  0.21893752574E+03  0.87393627241E+02  0.31736946575E+04  0.31824375980E+04  0.00000000000E+00 0. -1.
<scales pt_clust_3="68.05839" pt_clust_4="45.54971" pt_clust_5="68.05839" pt_clust_6="237.16917"></scales>
<clustering>
<clus scale="   45.550">  2  4  1 -1</clus>
<clus scale="   68.058">  3  5 -1 -1</clus>
<clus scale="  237.169">  1  6  2 -1</clus>
<clus scale="   45.550">  2  3  1 -1</clus>
</clustering>
</event>
<event>
 6    0  0.3695460E+002  0.1008810E+03  0.7546771E-02  0.1278454E+00
         21   -1    0    0  505  502  0.00000000000E+00  0.00000000000E+00  0.22421810866E+03  0.22421810866E+03  0.00000000000E+00 0. -1.
          2   -1    0    0  504    0 -0.00000000000E+00 -0.00000000000E+00 -0.14774860678E+04  0.14774860678E+04  0.00000000000E+00 0. -1.
         21    1    1    2  503  502 -0.85864000356E+02 -0.92639856429E+02 -0.10312141916E+03  0.16306071460E+03  0.00000000000E+00 0. -1.
         21    1    1    2  504  503 -0.63360891077E+01  0.31317801145E+02 -0.21147276596E+03  0.21387304981E+03  0.00000000000E+00 0. -1.
         21    1    1    2  505  501  0.48743524499E+02  0.85877593954E+02  0.17982768326E+03  0.20515576519E+03  0.00000000000E+00 0. -1.
          2    1    1    2  501    0  0.43456564965E+02 -0.24555538670E+02 -0.11185014573E+04  0.11196146468E+04  0.00000000000E+00 0. -1.
<scales pt_clust_3="14000.00000" pt_clust_4="31.95232" pt_clust_5="100.88098" pt_clust_6="37.98175"></scales>
<clustering>
<clus scale="   31.952">  2  4  1 -1</clus>
<clus scale="   37.982">  2  6  1 -1</clus>
<clus scale="  100.881">  1  5  2 -1</clus>
<clus scale="  100.881">  1  3  2 -1</clus>
</clustering>
</event>
<event>
 6    0  0.3695460E+002  0.1518585E+03  0.7546771E-02  0.1198208E+00
         21   -1    0    0  504  502  0.00000000000E+00  0.00000000000E+00  0.90931703414E+02  0.90931703414E+02  0.00000000000E+00 0.  1.
          1   -1    0    0  503    0 -0.00000000000E+00 -0.00000000000E+00 -0.13805561483E+04  0.13805561483E+04  0.00000000000E+00 0.  1.
         21    1    1    2  503  502 -0.83788135073E+01  0.29751315790E+02 -0.90408214457E+02  0.95545751074E+02  0.00000000000E+00 0. -1.
         21    1    1    2  504  505 -0.30284354584E+02 -0.78789578982E+02  0.27842891352E+02  0.88882880734E+02  0.00000000000E+00 0.  1.
         21    1    1    2  505  501  0.51229235584E+02 -0.93546817928E+02 -0.85867261710E+02  0.13692563075E+03  0.00000000000E+00 0.  1.
          1    1    1    2  501    0 -0.12566067493E+02  0.14258508112E+03 -0.11411918601E+04  0.11501335892E+04  0.00000000000E+00 0.  1.
<scales pt_clust_3="30.90866" pt_clust_4="83.82351" pt_clust_5="151.85846" pt_clust_6="14000.00000"></scales>
<clustering>
<clus scale="   30.909">  2  3  1 -1</clus>
<clus scale="   83.824">  1  4  2 -1</clus>
<clus scale="  151.858">  1  5  2 -1</clus>
<clus scale="   83.824">  1  3  2 -1</clus>
</clustering>
</event>
<event>
 6    0  0.3695460E+002  0.1257302E+03  0.7546771E-02  0.1233932E+00
          2   -1    0    0  505    0 -0.00000000000E+00  0.00000000000E+00  0.84207421851E+03  0.84207421851E+03  0.00000000000E+00 0. -1.
         21   -1    0    0  503  502  0.00000000000E+00 -0.00000000000E+00 -0.68141277421E+02  0.68141277421E+02  0.00000000000E+00 0.  1.
         21    1    1    2  503  501  0.14567439901E+02  0.93894404169E+02  0.86911626414E+02  0.12877111573E+03  0.00000000000E+00 0.  1.
         21    1    1    2  504  502  0.61542689316E+02  0.13825383770E+02  0.37983722210E+02  0.73630204383E+02  0.00000000000E+00 0.  1.
         21    1    1    2  505  504  0.79191449263E+02  0.99884715226E+01  0.27095277090E+03  0.28246496997E+03  0.00000000000E+00 0.  1.
          2    1    1    2  501    0 -0.15530157848E+03 -0.11770825946E+03  0.37808482156E+03  0.42534920585E+03  0.00000000000E+00 0. -1.
<scales pt_clust_3="125.73024" pt_clust_4="63.07649" pt_clust_5="87.00432" pt_clust_6="14000.00000"></scales>
<clustering>
<clus scale="   63.076">  2  4  1 -1</clus>
<clus scale="   87.004">  1  5  2 -1</clus>
<clus scale="  125.730">  2  3  1 -1</clus>
<clus scale="   63.076">  2  3  1 -1</clus>
</clustering>
</event>
<event>
 6    0  0.6394853E+002  0.9917494E+02  0.7546771E-02  0.1282041E+00
          2   -1    0    0  503    0 -0.00000000000E+00  0.00000000000E+00  0.11898082933E+04  0.11898082933E+04  0.00000000000E+00 0.  1.
         21   -1    0    0  504  502  0.00000000000E+00 -0.00000000000E+00 -0.57019153593E+03  0.57019153593E+03  0.00000000000E+00 0.  1.
         21    1    1    2  503  505 -0.42104761147E+02 -0.75724658514E+01  0.12321632514E+03  0.13043165234E+03  0.00000000000E+00 0.  1.
         21    1    1    2  504  501  0.71904612195E+02  0.43448654921E+02 -0.50554775582E+03  0.51248082138E+03  0.00000000000E+00 0.  1.
         21    1    1    2  505  502 -0.21356167833E+02  0.42659298644E+02 -0.45937987068E+02  0.66228395128E+02  0.00000000000E+00 0. -1.
          2    1    1    2  501    0 -0.84436832151E+01 -0.78535487713E+02  0.10478861751E+04  0.10508589604E+04  0.00000000000E+00 0.  1.
<scales pt_clust_3="42.78029" pt_clust_4="99.17494" pt_clust_5="47.82328" pt_clust_6="14000.00000"></scales>
<clustering>
<clus scale="   42.780">  1  3  2 -1</clus>
<clus scale="   47.823">  2  5  1 -1</clus>
<clus scale="   99.175">  2  4  1 -1</clus>
<clus scale="   47.823">  2  3  1 -1</clus>
</clustering>
</event>
<event>
 6    0  0.3695460E+002  0.2270455E+03  0.7546771E-02  0.1128737E+00
         21   -1    0    0  503  502  0.00000000000E+00  0.00000000000E+00  0.38346618089E+03  0.38346618089E+03  0.00000000000E+00 0.  1.
          2   -1    0    0  504    0 -0.00000000000E+00 -0.00000000000E+00 -0.20530034497E+04  0.20530034497E+04  0.00000000000E+00 0.  1.
         21    1    1    2  503  505 -0.12424458605E+03 -0.12872067685E+03  0.30923940025E+03  0.35726004041E+03  0.00000000000E+00 0.  1.
         21    1    1    2  504  502  0.91914892955E+02  0.20043980913E+03 -0.15262755865E+04  0.15421224435E+04  0.00000000000E+00 0.  1.
         21    1    1    2  505  501 -0.35431986184E+02 -0.20021529196E+02  0.27797596427E+02  0.49284821633E+02  0.00000000000E+00 0.  1.
          2    1    1    2  501    0  0.67761679280E+02 -0.51697603087E+02 -0.48029867895E+03  0.48780232507E+03  0.00000000000E+00 0.  1.
<scales pt_clust_3="30.40538" pt_clust_4="217.91222" pt_clust_5="30.40538" pt_clust_6="85.23079"></scales>
<clustering>
<clus scale="   30.405">  3  5 -1 -1</clus>
<clus scale="   85.231">  2  6  1 -1</clus>
<clus scale="  217.912">  2  4  1 -1</clus>
<clus scale="  227.046">  1  3  2 -1</clus>
</clustering>
</event>
<event>
 6    0  0.3695460E+002  0.7063672E+02  0.7546771E-02  0.1357941E+00
          1   -1    0    0  503    0 -0.00000000000E+00  0.00000000000E+00  0.12344023766E+04  0.12344023766E+04  0.00000000000E+00 0.  1.
         21   -1    0    0  505  502  0.00000000000E+00 -0.00000000000E+00 -0.48258813781E+02  0.48258813781E+02  0.00000000000E+00 0. -1.
         21    1    1    2  503  504 -0.25291572505E+02  0.25243053275E+02  0.13732223171E+03  0.14189528075E+03  0.00000000000E+00 0.  1.
         21    1    1    2  504  502 -0.91485769660E+02  0.79335723764E+01  0.46692839100E+02  0.10301848787E+03  0.00000000000E+00 0. -1.
         21    1    1    2  505  501  0.29131946717E+02 -0.33486338501E+02  0.15171001199E+02  0.46905910747E+02  0.00000000000E+00 0.  1.
          1    1    1    2  501    0  0.87645395448E+02  0.30971284929E+00  0.98695749085E+03  0.99084151105E+03  0.00000000000E+00 0.  1.
<scales pt_clust_3="35.73339" pt_clust_4="14000.00000" pt_clust_5="43.37423" pt_clust_6="70.63672"></scales>
<clustering>
<clus scale="   35.733">  1  3  2 -1</clus>
<clus scale="   43.374">  2  5  1 -1</clus>
<clus scale="   70.637">  1  6  2 -1</clus>
<clus scale="   43.374">  2  3  1 -1</clus>
</clustering>
</event>
<event>
 6    0  0.3695460E+002  0.9997902E+02  0.7546771E-02  0.1280340E+00
         21   -1    0    0  505  502  0.00000000000E+00  0.00000000000E+00  0.10415099868E+03  0.10415099868E+03  0.00000000000E+00 0.  1.
          2   -1    0    0  504    0 -0.00000000000E+00 -0.00000000000E+00 -0.47784946418E+03  0.47784946418E+03  0.00000000000E+00 0. -1.
         21    1    1    2  503  502  0.42576104780E+02 -0.84201720038E+02  0.37876250192E+02  0.10167233982E+03  0.00000000000E+00 0.  1.
         21    1    1    2  504  503 -0.11499189876E+02  0.80191435715E+02 -0.21960788874E+03  0.23407375446E+03  0.00000000000E+00 0.  1.
         21    1    1    2  505  501  0.35121905047E+02  0.50609084856E+01  0.73424406079E+01  0.36236341467E+02  0.00000000000E+00 0.  1.
          2    1    1    2  501    0 -0.66198819951E+02 -0.10506241621E+01 -0.19930926757E+03  0.21001802711E+03  0.00000000000E+00 0. -1.
<scales pt_clust_3="14000.00000" pt_clust_4="99.97902" pt_clust_5="35.48466" pt_clust_6="63.91960"></scales>
<clustering>
<clus scale="   35.485">  1  5  2 -1</clus>
<clus scale="   63.920">  2  6  1 -1</clus>
<clus scale="   99.979">  2  4  1 -1</clus>
<clus scale="   35.485">  1  3  2 -1</clus>
</clustering>
</event>
<event>
 6    0  0.3695460E+002  0.1349710E+03  0.7546771E-02  0.1220261E+00
          4   -1    0    0  505    0 -0.00000000000E+00  0.00000000000E+00  0.32600693405E+03  0.32600693405E+03  0.00000000000E+00 0. -1.
         21   -1    0    0  501  502  0.00000000000E+00 -0.00000000000E+00 -0.94923953017E+02  0.94923953017E+02  0.00000000000E+00 0. -1.
         21    1    1    2  503  504  0.41198819292E+02 -0.11047512288E+02  0.24576593620E+02  0.49228032591E+02  0.00000000000E+00 0.  1.
         21    1    1    2  504  502 -0.20297315046E+02  0.13364665475E+03  0.60237298479E+02  0.14799304529E+03  0.00000000000E+00 0. -1.
         21    1    1    2  505  503 -0.30625545601E+02  0.11982608497E+02  0.41071086610E+02  0.52615027369E+02  0.00000000000E+00 0.  1.
          4    1    1    2  501    0  0.97240413550E+01 -0.13458175096E+03  0.10519800233E+03  0.17109478182E+03  0.00000000000E+00 0. -1.
<scales pt_clust_3="38.33687" pt_clust_4="134.97101" pt_clust_5="32.88627" pt_clust_6="14000.00000"></scales>
<clustering>
<clus scale="   32.886">  1  5  2 -1</clus>
<clus scale="   38.337">  1  3  2 -1</clus>
<clus scale="  134.971">  2  4  1 -1</clus>
<clus scale="  134.971">  2  3  1 -1</clus>
</clustering>
</event>
<event>
 6    0  0.3695460E+002  0.1458499E+03  0.7546771E-02  0.1205667E+00
         -1   -1    0    0    0  501 -0.00000000000E+00  0.00000000000E+00  0.15931190013E+04  0.15931190013E+04  0.00000000000E+00 0. -1.
         21   -1    0    0  505  502  0.00000000000E+00 -0.00000000000E+00 -0.23066706878E+02  0.23066706878E+02  0.00000000000E+00 0. -1.
         21    1    1    2  503  504  0.65696677073E+02  0.73323397902E+02  0.71322042539E+03  0.71998315901E+03  0.00000000000E+00 0. -1.
         21    1    1    2  504  502 -0.95891168484E+02 -0.94122067873E+02  0.29420999942E+03  0.32344026282E+03  0.00000000000E+00 0. -1.
         21    1    1    2  505  501  0.23899510007E+02 -0.26511667047E+02  0.77804767210E+02  0.85601617209E+02  0.00000000000E+00 0. -1.
         -1    1    1    2    0  503  0.62949814039E+01  0.47310337018E+02  0.48481710241E+03  0.48716066916E+03  0.00000000000E+00 0. -1.
<scales pt_clust_3="32.41201" pt_clust_4="138.22156" pt_clust_5="35.69391" pt_clust_6="32.41201"></scales>
<clustering>
<clus scale="   32.412">  3  6 -1 -1</clus>
<clus scale="   35.694">  2  5  1 -1</clus>
<clus scale="  138.222">  2  4  1 -1</clus>
<clus scale="   35.694">  2  3  1 -1</clus>
</clustering>
</event>
<event>
 6    0  0.3695460E+002  0.1272322E+03  0.7546771E-02  0.1231621E+00
          1   -1    0    0  504    0 -0.00000000000E+00  0.00000000000E+00  0.15099270405E+03  0.15099270405E+03  0.00000000000E+00 0. -1.
         21   -1    0    0  503  502  0.00000000000E+00 -0.00000000000E+00 -0.70338716718E+03  0.70338716718E+03  0.00000000000E+00 0. -1.
         21    1    1    2  503  501 -0.13524591537E+03 -0.53614873647E+01 -0.61332402267E+03  0.62808165070E+03  0.00000000000E+00 0. -1.
         21    1    1    2  504  505  0.23097694375E+02 -0.55063982553E+02  0.45552650175E+02  0.75103858742E+02  0.00000000000E+00 0. -1.
         21    1    1    2  505  502  0.54755679472E+02  0.37030621749E+02 -0.31752793251E+02  0.73332743443E+02  0.00000000000E+00 0. -1.
          1    1    1    2  501    0  0.57392541521E+02  0.23394848169E+02  0.47129702612E+02  0.77861618345E+02  0.00000000000E+00 0. -1.
<scales pt_clust_3="127.23216" pt_clust_4="59.71219" pt_clust_5="64.82143" pt_clust_6="14000.00000"></scales>
<clustering>
<clus scale="   59.712">  1  4  2 -1</clus>
<clus scale="   64.821">  1  5  2 -1</clus>
<clus scale="  127.232">  2  3  1 -1</clus>
<clus scale="  127.232">  2  3  1 -1</clus>
</clustering>
</event>
<event>
 6    0  0.3695460E+002  0.1816031E+03  0.7546771E-02  0.1166261E+00
         -2   -1    0    0    0  501 -0.00000000000E+00  0.00000000000E+00  0.81862127777E+03  0.81862127777E+03  0.00000000000E+00 0. -1.
         21   -1    0    0  505  502  0.00000000000E+00 -0.00000000000E+00 -0.24961844667E+03  0.24961844667E+03  0.00000000000E+00 0.  1.
         21    1    1    2  503  501  0.31021815246E+02 -0.18937531176E+02  0.33131297115E+02  0.49179934493E+02  0.00000000000E+00 0. -1.
         21    1    1    2  504  502 -0.10143269891E+03 -0.14516143059E+03 -0.15780009061E+03  0.23719464989E+03  0.00000000000E+00 0.  1.
         21    1    1    2  505  503 -0.90381237082E+02 -0.30049850252E+02  0.10656011107E+03  0.14292242227E+03  0.00000000000E+00 0. -1.
         -2    1    1    2    0  504  0.16079212075E+03  0.19414881202E+03  0.58711151352E+03  0.63894271779E+03  0.00000000000E+00 0. -1.
<scales pt_clust_3="36.34533" pt_clust_4="14000.00000" pt_clust_5="91.58965" pt_clust_6="181.60306"></scales>
<clustering>
<clus scale="   36.345">  1  3  2 -1</clus>
<clus scale="   91.590">  1  5  2 -1</clus>
<clus scale="  181.603">  1  6  2 -1</clus>
<clus scale="  181.603">  2  3  1 -1</clus>
</clustering>
</event>
<event>
 6    0  0.3695460E+002  0.1326564E+03  0.7546771E-02  0.1223566E+00
         21   -1    0    0  503  502  0.00000000000E+00  0.00000000000E+00  0.35975520357E+03  0.35975520357E+03  0.00000000000E+00 0. -1.
          2   -1    0    0  504    0 -0.00000000000E+00 -0.00000000000E+00 -0.12354110053E+04  0.12354110053E+04  0.00000000000E+00 0.  1.
         21    1    1    2  503  505 -0.27840583654E+02  0.35200247994E+02  0.12008632168E+02  0.46458183386E+02  0.00000000000E+00 0. -1.
         21    1    1    2  504  502  0.31378028639E+01  0.97662515970E+02  0.31826981734E+03  0.33293165884E+03  0.00000000000E+00 0. -1.
         21    1    1    2  505  501 -0.16482576111E+02 -0.96788732129E+02 -0.69115896480E+03  0.69809773571E+03  0.00000000000E+00 0.  1.
          2    1    1    2  501    0  0.41185356900E+02 -0.36074031835E+02 -0.51477528640E+03  0.51767863090E+03  0.00000000000E+00 0.  1.
<scales pt_clust_3="44.87934" pt_clust_4="132.65642" pt_clust_5="14000.00000" pt_clust_6="54.55623"></scales>
<clustering>
<clus scale="   44.879">  1  3  2 -1</clus>
<clus scale="   54.556">  2  6  1 -1</clus>
<clus scale="  132.656">  1  4  2 -1</clus>
<clus scale="   44.879">  1  3  2 -1</clus>
</clustering>
</event>
<event>
 6    0  0.3695460E+002  0.1449641E+03  0.7546771E-02  0.1206801E+00
         21   -1    0    0  503  502  0.00000000000E+00  0.00000000000E+00  0.98627962593E+02  0.98627962593E+02  0.00000000000E+00 0.  1.
          2   -1    0    0  505    0 -0.00000000000E+00 -0.00000000000E+00 -0.48276974885E+03  0.48276974885E+03  0.00000000000E+00 0.  1.
         21    1    1    2  503  504 -0.73638542744E+01 -0.83180914156E+02  0.33064448806E+02  0.89813966645E+02  0.00000000000E+00 0.  1.
         21    1    1    2  504  501  0.17982003204E+02 -0.53542561951E+02 -0.23301024095E+02  0.61099067942E+02  0.00000000000E+00 0.  1.
         21    1    1    2  505  502  0.45299222105E+02  0.37187622789E+02 -0.11377082318E+03  0.12797944764E+03  0.00000000000E+00 0. -1.
          2    1    1    2  501    0 -0.55917371034E+02  0.99535853318E+02 -0.28013438779E+03  0.30250522921E+03  0.00000000000E+00 0.  1.
<scales pt_clust_3="51.18443" pt_clust_4="51.18443" pt_clust_5="58.60835" pt_clust_6="130.92446"></scales>
<clustering>
<clus scale="   51.184">  3  4 -1 -1</clus>
<clus scale="   58.608">  2  5  1 -1</clus>
<clus scale="  130.924">  2  6  1 -1</clus>
<clus scale="  144.964">  1  3  2 -1</clus>
</clustering>
</event>
<event>
 6    0  0.3695460E+002  0.1443853E+03  0.7546771E-02  0.1207547E+00
         21   -1    0    0  501  502  0.00000000000E+00  0.00000000000E+00  0.96240762364E+02  0.96240762364E+02  0.00000000000E+00 0.  1.
          2   -1    0    0  505    0 -0.00000000000E+00 -0.00000000000E+00 -0.28402426507E+04  0.28402426507E+04  0.00000000000E+00 0.  1.
         21    1    1    2  503  504  0.79573692311E+02 -0.63243335247E+02  0.12249525774E+02  0.10238038310E+03  0.00000000000E+00 0.  1.
         21    1    1    2  504  502 -0.12191614443E+01 -0.47677523801E+02  0.19926850990E+02  0.51688606296E+02  0.00000000000E+00 0.  1.
         21    1    1    2  505  503 -0.30372197052E+02  0.65949098650E+02 -0.49581083733E+03  0.50109893272E+03  0.00000000000E+00 0. -1.
          2    1    1    2  501    0 -0.47982333815E+02  0.44971760397E+02 -0.22803674278E+04  0.22813154909E+04  0.00000000000E+00 0.  1.
<scales pt_clust_3="44.70356" pt_clust_4="44.70356" pt_clust_5="128.79457" pt_clust_6="65.76293"></scales>
<clustering>
<clus scale="   44.704">  3  4 -1 -1</clus>
<clus scale="   65.763">  2  6  1 -1</clus>
<clus scale="  128.795">  2  5  1 -1</clus>
<clus scale="  144.385">  1  3  2 -1</clus>
</clustering>
</event>
<event>
 6    0  0.3695460E+002  0.1084398E+03  0.7546771E-02  0.1263487E+00
         21   -1    0    0  505  502  0.00000000000E+00  0.00000000000E+00  0.51172904487E+02  0.51172904487E+02  0.00000000000E+00 0. -1.
          2   -1    0    0  504    0 -0.00000000000E+00 -0.00000000000E+00 -0.19469468078E+04  0.19469468078E+04  0.00000000000E+00 0.  1.
         21    1    1    2  503  502  0.21700573691E+02  0.44825936890E+02  0.30554500168E+01  0.49896044847E+02  0.00000000000E+00 0. -1.
         21    1    1    2  504  503  0.44968759563E+02  0.30381151436E+02 -0.19441203613E+02  0.57646891479E+02  0.00000000000E+00 0. -1.
         21    1    1    2  505  501 -0.87870447077E+02 -0.12346413296E+03 -0.13026057113E+04  0.13113909588E+04  0.00000000000E+00 0.  1.
          2    1    1    2  501    0  0.21201113824E+02  0.48257044639E+02 -0.57678243841E+03  0.57918581720E+03  0.00000000000E+00 0.  1.
<scales pt_clust_3="33.13044" pt_clust_4="33.13044" pt_clust_5="102.77696" pt_clust_6="52.70891"></scales>
<clustering>
<clus scale="   33.130">  3  4 -1 -1</clus>
<clus scale="   52.709">  2  6  1 -1</clus>
<clus scale="  102.777">  2  5  1 -1</clus>
<clus scale="  108.440">  1  3  2 -1</clus>
</clustering>
</event>
<event>
 6    0  0.3695460E+002  0.1904325E+03  0.7546771E-02  0.1158072E+00
         21   -1    0    0  505  502  0.00000000000E+00  0.00000000000E+00  0.68513309663E+03  0.68513309663E+03  0.00000000000E+00 0. -1.
          1   -1    0    0  503    0 -0.00000000000E+00 -0.00000000000E+00 -0.59032961405E+03  0.59032961405E+03  0.00000000000E+00 0. -1.
         21    1    1    2  503  502  0.25607338650E+03 -0.55795914240E+02  0.55125026990E+03  0.61037990087E+03  0.00000000000E+00 0. -1.
         21    1    1    2  504  501 -0.16786532724E+03 -0.30511398244E+02 -0.28404410155E+03  0.33134689547E+03  0.00000000000E+00 0. -1.
         21    1    1    2  505  504 -0.66576017151E+02  0.41416741877E+02  0.58303962079E+02  0.97709081264E+02  0.00000000000E+00 0.  1.
          1    1    1    2  501    0 -0.21632042104E+02  0.44890570608E+02 -0.23070664784E+03  0.23602683308E+03  0.00000000000E+00 0. -1.
<scales pt_clust_3="190.43251" pt_clust_4="14000.00000" pt_clust_5="80.74341" pt_clust_6="49.83080"></scales>
<clustering>
<clus scale="   49.831">  2  6  1 -1</clus>
<clus scale="   80.743">  1  5  2 -1</clus>
<clus scale="  190.433">  1  3  2 -1</clus>
<clus scale="   80.743">  1  3  2 -1</clus>
</clustering>
</event>
<event>
 6    0  0.3695460E+002  0.1380782E+03  0.7546771E-02  0.1215939E+00
         21   -1    0    0  504  502  0.00000000000E+00  0.00000000000E+00  0.16607811914E+03  0.16607811914E+03  0.00000000000E+00 0.  1.
          1   -1    0    0  505    0 -0.00000000000E+00 -0.00000000000E+00 -0.71801748518E+03  0.71801748518E+03  0.00000000000E+00 0.  1.
         21    1    1    2  503  502 -0.10268758222E+02  0.38216591144E+02 -0.27830378973E+02  0.48378561656E+02  0.00000000000E+00 0.  1.
         21    1    1    2  504  501  0.63451347263E+02  0.63486199811E+02  0.77267767872E+02  0.11843512565E+03  0.00000000000E+00 0.  1.
         21    1    1    2  505  503  0.82078425655E+02 -0.55413892846E+02  0.11574988662E+00  0.99033231172E+02  0.00000000000E+00 0.  1.
          1    1    1    2  501    0 -0.13526101470E+03 -0.46288898110E+02 -0.60149250483E+03  0.61824868584E+03  0.00000000000E+00 0.  1.
<scales pt_clust_3="39.57215" pt_clust_4="14000.00000" pt_clust_5="89.90043" pt_clust_6="138.07820"></scales>
<clustering>
<clus scale="   39.572">  1  3  2 -1</clus>
<clus scale="   89.900">  1  5  2 -1</clus>
<clus scale="  138.078">  2  6  1 -1</clus>
<clus scale="   39.572">  1  3  2 -1</clus>
</clustering>
</event>
<event>
 6    0  0.3695460E+002  0.1819775E+03  0.7546771E-02  0.1165903E+00
         21   -1    0    0  501  502  0.00000000000E+00  0.00000000000E+00  0.17117341240E+03  0.17117341240E+03  0.00000000000E+00 0.  1.
          1   -1    0    0  504    0 -0.00000000000E+00 -0.00000000000E+00 -0.19567783532E+04  0.19567783532E+04  0.00000000000E+00 0.  1.
         21    1    1    2  503  502 -0.11280059499E+02  0.10025950313E+03  0.10685597452E+03  0.14696056274E+03  0.00000000000E+00 0.  1.
         21    1    1    2  504  505  0.18071102125E+02 -0.51501178077E+02 -0.28061328770E+03  0.28587191766E+03  0.00000000000E+00 0.  1.
         21    1    1    2  505  503 -0.21786050076E+02  0.65983826174E+02  0.90695664233E+01  0.70076774538E+02  0.00000000000E+00 0.  1.
          1    1    1    2  501    0  0.14995007450E+02 -0.11474215123E+03 -0.16209171941E+04  0.16250425107E+04  0.00000000000E+00 0.  1.
<scales pt_clust_3="58.07229" pt_clust_4="54.57963" pt_clust_5="58.07229" pt_clust_6="167.86764"></scales>
<clustering>
<clus scale="   54.580">  2  4  1 -1</clus>
<clus scale="   58.072">  3  5 -1 -1</clus>
<clus scale="  167.868">  2  6  1 -1</clus>
<clus scale="  181.977">  1  3  2 -1</clus>
</clustering>
</event>
<event>
 6    0  0.3695460E+002  0.1614355E+03  0.7546771E-02  0.1187086E+00
          3   -1    0    0  503    0 -0.00000000000E+00  0.00000000000E+00  0.21929337862E+04  0.21929337862E+04  0.00000000000E+00 0.  1.
         21   -1    0    0  504  502  0.00000000000E+00 -0.00000000000E+00 -0.83678502341E+02  0.83678502341E+02  0.00000000000E+00 0.  1.
         21    1    1    2  503  505 -0.12635513815E+02 -0.69725746791E+02  0.84310315837E+02  0.11013430588E+03  0.00000000000E+00 0.  1.
         21    1    1    2  504  501 -0.22808206419E+02 -0.69109397111E+02 -0.23397005301E+02  0.76444377859E+02  0.00000000000E+00 0.  1.
         21    1    1    2  505  502 -0.56388823697E+02 -0.15800366877E+01  0.28438274676E+02  0.63173819106E+02  0.00000000000E+00 0.  1.
          3    1    1    2  501    0  0.91832543930E+02  0.14041518059E+03  0.20199036987E+04  0.20268597857E+04  0.00000000000E+00 0.  1.
<scales pt_clust_3="73.90786" pt_clust_4="161.43548" pt_clust_5="56.41096" pt_clust_6="14000.00000"></scales>
<clustering>
<clus scale="   56.411">  2  5  1 -1</clus>
<clus scale="   73.908">  2  3  1 -1</clus>
<clus scale="  161.435">  2  4  1 -1</clus>
<clus scale="   56.411">  2  3  1 -1</clus>
</clustering>
</event>
<event>
 6    0  0.3695460E+002  0.2126526E+03  0.7546771E-02  0.1139482E+00
         21   -1    0    0  503  502  0.00000000000E+00  0.00000000000E+00  0.14071072701E+03  0.14071072701E+03  0.00000000000E+00 0.  1.
          2   -1    0    0  502    0 -0.00000000000E+00 -0.00000000000E+00 -0.31805267029E+03  0.31805267029E+03  0.00000000000E+00 0.  1.
         21    1    1    2  503  504  0.17352822593E+02 -0.14357704091E+03 -0.62119563137E+02  0.15739862532E+03  0.00000000000E+00 0.  1.
         21    1    1    2  504  505  0.48122598061E+02 -0.42603837402E+02 -0.13675974034E+02  0.65710757653E+02  0.00000000000E+00 0.  1.
         21    1    1    2  505  501  0.18154310230E+02  0.45533249179E+02 -0.23116527627E+02  0.54196213984E+02  0.00000000000E+00 0. -1.
          2    1    1    2  501    0 -0.83629730883E+02  0.14064762913E+03 -0.78429878483E+02  0.18145780035E+03  0.00000000000E+00 0.  1.
<scales pt_clust_3="209.84002" pt_clust_4="47.52601" pt_clust_5="43.34190" pt_clust_6="43.34190"></scales>
<clustering>
<clus scale="   43.342">  5  6 -1 -1</clus>
<clus scale="   47.526">  3  4 -1 -1</clus>
<clus scale="  209.840">  1  3  2 -1</clus>
<clus scale="  209.840">  1  3  2 -1</clus>
</clustering>
</event>
<event>
 6    0  0.3695460E+002  0.2193377E+03  0.7546771E-02  0.1134378E+00
         21   -1    0    0  505  502  0.00000000000E+00  0.00000000000E+00  0.14602820716E+03  0.14602820716E+03  0.00000000000E+00 0. -1.
         -1   -1    0    0    0  501 -0.00000000000E+00 -0.00000000000E+00 -0.11102643783E+04  0.11102643783E+04  0.00000000000E+00 0. -1.
         21    1    1    2  503  502 -0.68541681828E+02  0.82485034284E+02 -0.10874221601E+03  0.15273052272E+03  0.00000000000E+00 0. -1.
         21    1    1    2  504  501 -0.11021479135E+03 -0.56773035982E+02 -0.58316358007E+01  0.12411480904E+03  0.00000000000E+00 0. -1.
         21    1    1    2  505  504 -0.34256907541E+02 -0.52311473324E+02  0.33244502046E+02  0.70818238271E+02  0.00000000000E+00 0. -1.
         -1    1    1    2    0  503  0.21301338072E+03  0.26599475022E+02 -0.88290682135E+03  0.90862901539E+03  0.00000000000E+00 0. -1.
<scales pt_clust_3="107.24618" pt_clust_4="47.51322" pt_clust_5="47.51322" pt_clust_6="208.88535"></scales>
<clustering>
<clus scale="   47.513">  4  5 -1 -1</clus>
<clus scale="  107.246">  1  3  2 -1</clus>
<clus scale="  208.885">  2  6  1 -1</clus>
<clus scale="  107.246">  1  3  2 -1</clus>
</clustering>
</event>
<event>
 6    0  0.3695460E+002  0.1816509E+03  0.7546771E-02  0.1166215E+00
         21   -1    0    0  505  502  0.00000000000E+00  0.00000000000E+00  0.34128322842E+03  0.34128322842E+03  0.00000000000E+00 0. -1.
          1   -1    0    0  504    0 -0.00000000000E+00 -0.00000000000E+00 -0.15446745787E+04  0.15446745787E+04  0.00000000000E+00 0.  1.
         21    1    1    2  503  502  0.49703090629E+01 -0.49900393371E+02  0.19389149515E+02  0.53765159255E+02  0.00000000000E+00 0.  1.
         21    1    1    2  504  503 -0.40038688638E+02 -0.25262838897E+02 -0.46158597291E+02  0.66120524203E+02  0.00000000000E+00 0. -1.
         21    1    1    2  505  501  0.41863245699E+02 -0.12796136155E+03  0.27187565523E+03  0.30338591480E+03  0.00000000000E+00 0. -1.
          1    1    1    2  501    0 -0.67948661239E+01  0.20312459382E+03 -0.14484975578E+04  0.14626862089E+04  0.00000000000E+00 0.  1.
<scales pt_clust_3="50.39414" pt_clust_4="47.34245" pt_clust_5="181.65089" pt_clust_6="14000.00000"></scales>
<clustering>
<clus scale="   47.342">  2  4  1 -1</clus>
<clus scale="   50.394">  1  3  2 -1</clus>
<clus scale="  181.651">  1  5  2 -1</clus>
<clus scale="   50.394">  1  3  2 -1</clus>
</clustering>
</event>
<event>
 6    0  0.3695460E+002  0.1796065E+03  0.7546771E-02  0.1168184E+00
         21   -1    0    0  503  502  0.00000000000E+00  0.00000000000E+00  0.80292170975E+02  0.80292170975E+02  0.00000000000E+00 0. -1.
          2   -1    0    0  502    0 -0.00000000000E+00 -0.00000000000E+00 -0.60241123832E+03  0.60241123832E+03  0.00000000000E+00 0.  1.
         21    1    1    2  503  504 -0.91049972003E+02  0.31625013942E+02 -0.50477070123E+02  0.10880337089E+03  0.00000000000E+00 0. -1.
         21    1    1    2  504  505 -0.41761266597E+02  0.63611229565E+02 -0.77933148696E+01  0.76492664166E+02  0.00000000000E+00 0. -1.
         21    1    1    2  505  501  0.48930219310E+02 -0.20717685084E+02 -0.69966460415E+02  0.87856100642E+02  0.00000000000E+00 0.  1.
          2    1    1    2  501    0  0.83881019290E+02 -0.74518558423E+02 -0.39388222194E+03  0.40955127360E+03  0.00000000000E+00 0.  1.
<scales pt_clust_3="175.89537" pt_clust_4="57.79121" pt_clust_5="51.26611" pt_clust_6="51.26611"></scales>
<clustering>
<clus scale="   51.266">  5  6 -1 -1</clus>
<clus scale="   57.791">  3  4 -1 -1</clus>
<clus scale="  175.895">  1  3  2 -1</clus>
<clus scale="  175.895">  1  3  2 -1</clus>
</clustering>
</event>
<event>
 6    0  0.3695460E+002  0.1172651E+03  0.7546771E-02  0.1247678E+00
          1   -1    0    0  503    0 -0.00000000000E+00  0.00000000000E+00  0.24558142979E+04  0.24558142979E+04  0.00000000000E+00 0.  1.
         21   -1    0    0  504  502  0.00000000000E+00 -0.00000000000E+00 -0.10441933572E+03  0.10441933572E+03  0.00000000000E+00 0. -1.
         21    1    1    2  503  505  0.23250394617E+02 -0.37209178893E+02  0.17039496363E+03  0.17595325366E+03  0.00000000000E+00 0. -1.
         21    1    1    2  504  501  0.94616748524E+02  0.40491666424E+02  0.38929760971E+03  0.40267174358E+03  0.00000000000E+00 0.  1.
         21    1    1    2  505  502 -0.25488915644E+02  0.78829486528E+02 -0.74439782287E+02  0.11137797787E+03  0.00000000000E+00 0. -1.
          1    1    1    2  501    0 -0.92378227497E+02 -0.82111974058E+02  0.18661421711E+04  0.18702306585E+04  0.00000000000E+00 0.  1.
<scales pt_clust_3="43.87601" pt_clust_4="14000.00000" pt_clust_5="82.50360" pt_clust_6="117.26513"></scales>
<clustering>
<clus scale="   43.876">  1  3  2 -1</clus>
<clus scale="   82.504">  2  5  1 -1</clus>
<clus scale="  117.265">  1  6  2 -1</clus>
<clus scale="   82.504">  2  3  1 -1</clus>
</clustering>
</event>
<event>
 6    0  0.3695460E+002  0.1236256E+03  0.7546771E-02  0.1237233E+00
         21   -1    0    0  505  502  0.00000000000E+00  0.00000000000E+00  0.10002898000E+03  0.10002898000E+03  0.00000000000E+00 0.  1.
          2   -1    0    0  504    0 -0.00000000000E+00 -0.00000000000E+00 -0.10227253088E+04  0.10227253088E+04  0.00000000000E+00 0.  1.
         21    1    1    2  503  501 -0.10031503307E+03  0.71714220399E+02 -0.17773086140E+03  0.21631988896E+03  0.00000000000E+00 0.  1.
         21    1    1    2  504  502 -0.17391817849E+02 -0.27512666213E+02 -0.55485425192E+03  0.55580811707E+03  0.00000000000E+00 0.  1.
         21    1    1    2  505  503  0.12787182149E+03 -0.54998810912E+01  0.26200873337E+02  0.13064431556E+03  0.00000000000E+00 0.  1.
          2    1    1    2  501    0 -0.10164970578E+02 -0.38701673095E+02 -0.21631208885E+03  0.21998196724E+03  0.00000000000E+00 0.  1.
<scales pt_clust_3="14000.00000" pt_clust_4="32.54877" pt_clust_5="123.62556" pt_clust_6="54.68901"></scales>
<clustering>
<clus scale="   32.549">  2  4  1 -1</clus>
<clus scale="   54.689">  2  6  1 -1</clus>
<clus scale="  123.626">  1  5  2 -1</clus>
<clus scale="  123.626">  1  3  2 -1</clus>
</clustering>
</event>
<event>
 6    0  0.3695460E+002  0.1140115E+03  0.7546771E-02  0.1253317E+00
          2   -1    0    0  503    0 -0.00000000000E+00  0.00000000000E+00  0.19019425872E+04  0.19019425872E+04  0.00000000000E+00 0. -1.
         21   -1    0    0  501  502  0.00000000000E+00 -0.00000000000E+00 -0.21616094084E+02  0.21616094084E+02  0.00000000000E+00 0.  1.
         21    1    1    2  503  504 -0.57036563763E+02  0.77351670350E+02  0.55352152223E+03  0.56180292459E+03  0.00000000000E+00 0.  1.
         21    1    1    2  504  505  0.27451426373E+02  0.19295018453E+02  0.18079089250E+02  0.38114721764E+02  0.00000000000E+00 0.  1.
         21    1    1    2  505  502 -0.12300329655E+02  0.27627837345E+02  0.52493173508E+02  0.60581587722E+02  0.00000000000E+00 0.  1.
          2    1    1    2  501    0  0.41885467045E+02 -0.12427452615E+03  0.12562327081E+04  0.12630594472E+04  0.00000000000E+00 0. -1.
<scales pt_clust_3="114.01148" pt_clust_4="40.57040" pt_clust_5="30.24228" pt_clust_6="14000.00000"></scales>
<clustering>
<clus scale="   30.242">  2  5  1 -1</clus>
<clus scale="   40.570">  2  4  1 -1</clus>
<clus scale="  114.011">  2  3  1 -1</clus>
<clus scale="   30.242">  2  3  1 -1</clus>
</clustering>
</event>
<event>
 6    0  0.3695460E+002  0.7859774E+02  0.7546771E-02  0.1333079E+00
          2   -1    0    0  504    0 -0.00000000000E+00  0.00000000000E+00  0.29929617968E+04  0.29929617968E+04  0.00000000000E+00 0.  1.
         21   -1    0    0  503  502  0.00000000000E+00 -0.00000000000E+00 -0.67018535456E+02  0.67018535456E+02  0.00000000000E+00 0.  1.
         21    1    1    2  503  501  0.40623083267E+02 -0.65817732334E+02 -0.91056440207E+01  0.77878890187E+02  0.00000000000E+00 0.  1.
         21    1    1    2  504  505  0.44994952446E+02  0.53877950910E+02  0.17212285200E+04  0.17226592807E+04  0.00000000000E+00 0.  1.
         21    1    1    2  505  502 -0.73053921004E+02  0.47944785531E+02  0.62362462932E+02  0.10735294415E+03  0.00000000000E+00 0.  1.
          2    1    1    2  501    0 -0.12564114709E+02 -0.36005004106E+02  0.11514579224E+04  0.11520892172E+04  0.00000000000E+00 0.  1.
<scales pt_clust_3="78.59774" pt_clust_4="38.90288" pt_clust_5="14000.00000" pt_clust_6="38.13420"></scales>
<clustering>
<clus scale="   38.134">  1  6  2 -1</clus>
<clus scale="   38.903">  1  4  2 -1</clus>
<clus scale="   78.598">  2  3  1 -1</clus>
<clus scale="   78.598">  2  3  1 -1</clus>
</clustering>
</event>
<event>
 6    0  0.3695460E+002  0.1177562E+03  0.7546771E-02  0.1246845E+00
          1   -1    0    0  504    0 -0.00000000000E+00  0.00000000000E+00  0.95125534973E+03  0.95125534973E+03  0.00000000000E+00 0.  1.
         21   -1    0    0  503  502  0.00000000000E+00 -0.00000000000E+00 -0.78549347792E+02  0.78549347792E+02  0.00000000000E+00 0. -1.
         21    1    1    2  503  501  0.23209040034E+02  0.22869045815E+02  0.41054728684E+02  0.52413200085E+02  0.00000000000E+00 0.  1.
         21    1    1    2  504  505 -0.11538137764E+03 -0.51594979514E+02  0.10289574667E+03  0.16297987268E+03  0.00000000000E+00 0. -1.
         21    1    1    2  505  502 -0.25941821068E+02  0.35317821866E+02 -0.25657259826E+02  0.50780130007E+02  0.00000000000E+00 0. -1.
          1    1    1    2  501    0  0.11811415868E+03 -0.65918881672E+01  0.75441278641E+03  0.76363149475E+03  0.00000000000E+00 0.  1.
<scales pt_clust_3="32.58301" pt_clust_4="117.75624" pt_clust_5="49.27501" pt_clust_6="14000.00000"></scales>
<clustering>
<clus scale="   32.583">  2  3  1 -1</clus>
<clus scale="   49.275">  2  5  1 -1</clus>
<clus scale="  117.756">  2  4  1 -1</clus>
<clus scale="   32.583">  2  3  1 -1</clus>
</clustering>
</event>
<event>
 6    0  0.3695460E+002  0.1402948E+03  0.7546771E-02  0.1212933E+00
         21   -1    0    0  505  502  0.00000000000E+00  0.00000000000E+00  0.13240079777E+03  0.13240079777E+03  0.00000000000E+00 0.  1.
          2   -1    0    0  502    0 -0.00000000000E+00 -0.00000000000E+00 -0.14454515578E+04  0.14454515578E+04  0.00000000000E+00 0.  1.
         21    1    1    2  503  501 -0.41836530765E+02  0.38355431375E+02 -0.35263445311E+03  0.35717291602E+03  0.00000000000E+00 0. -1.
         21    1    1    2  504  503  0.41870029985E+02 -0.15696996778E+02  0.35502936218E+02  0.57096003353E+02  0.00000000000E+00 0.  1.
         21    1    1    2  505  504  0.24784741793E+02 -0.90076672384E+02  0.56192686144E+02  0.10902159561E+03  0.00000000000E+00 0.  1.
          2    1    1    2  501    0 -0.24818241013E+02  0.67418237787E+02 -0.10521119293E+04  0.10545618406E+04  0.00000000000E+00 0.  1.
<scales pt_clust_3="56.57751" pt_clust_4="41.25568" pt_clust_5="138.51704" pt_clust_6="56.57751"></scales>
<clustering>
<clus scale="   41.256">  4  5 -1 -1</clus>
<clus scale="   56.578">  3  6 -1 -1</clus>
<clus scale="  138.517">  1  4  2 -1</clus>
<clus scale="  138.517">  1  3  2 -1</clus>
</clustering>
</event>
<event>
 6    0  0.3695460E+002  0.2055183E+03  0.7546771E-02  0.1145165E+00
         21   -1    0    0  505  502  0.00000000000E+00  0.00000000000E+00  0.34456458454E+03  0.34456458454E+03  0.00000000000E+00 0.  1.
          1   -1    0    0  503    0 -0.00000000000E+00 -0.00000000000E+00 -0.71605117782E+03  0.71605117782E+03  0.00000000000E+00 0.  1.
         21    1    1    2  503  504 -0.13324455506E+03 -0.37798104138E+02 -0.17968773204E+02  0.13966275430E+03  0.00000000000E+00 0.  1.
         21    1    1    2  504  502 -0.38926598035E+02  0.74428281134E+01  0.27121135782E+02  0.48023241571E+02  0.00000000000E+00 0.  1.
         21    1    1    2  505  501  0.85570030883E+01 -0.83871069615E+02  0.22234228635E+03  0.23778913121E+03  0.00000000000E+00 0.  1.
          1    1    1    2  501    0  0.16361415001E+03  0.11422634564E+03 -0.60298124222E+03  0.63514063528E+03  0.00000000000E+00 0.  1.
<scales pt_clust_3="36.19325" pt_clust_4="36.19325" pt_clust_5="84.30646" pt_clust_6="194.06142"></scales>
<clustering>
<clus scale="   36.193">  3  4 -1 -1</clus>
<clus scale="   84.306">  1  5  2 -1</clus>
<clus scale="  194.061">  2  6  1 -1</clus>
<clus scale="   84.306">  1  3  2 -1</clus>
</clustering>
</event>
<event>
 6    0  0.3695460E+002  0.1345411E+03  0.7546771E-02  0.1220869E+00
         21   -1    0    0  501  502  0.00000000000E+00  0.00000000000E+00  0.84667241708E+03  0.84667241708E+03  0.00000000000E+00 0. -1.
          2   -1    0    0  504    0 -0.00000000000E+00 -0.00000000000E+00 -0.40212891954E+04  0.40212891954E+04  0.00000000000E+00 0.  1.
         21    1    1    2  503  502  0.39368124075E+02 -0.19252600764E+02  0.33791053558E+03  0.34074043183E+03  0.00000000000E+00 0. -1.
         21    1    1    2  504  505 -0.42156119095E+02  0.47545383941E+01 -0.59741143577E+03  0.59891582681E+03  0.00000000000E+00 0.  1.
         21    1    1    2  505  503  0.33538847994E+02 -0.82780764529E+02  0.50189060923E+03  0.50977612041E+03  0.00000000000E+00 0. -1.
          2    1    1    2  501    0 -0.30750852974E+02  0.97278826899E+02 -0.34170064874E+04  0.34185292335E+04  0.00000000000E+00 0.  1.
<scales pt_clust_3="34.21698" pt_clust_4="42.42339" pt_clust_5="34.21698" pt_clust_6="125.35988"></scales>
<clustering>
<clus scale="   34.217">  3  5 -1 -1</clus>
<clus scale="   42.423">  2  4  1 -1</clus>
<clus scale="  125.360">  2  6  1 -1</clus>
<clus scale="  134.541">  1  3  2 -1</clus>
</clustering>
</event>
<event>
 6    0  0.3695460E+002  0.7467216E+02  0.7546771E-02  0.1344889E+00
         21   -1    0    0  503  502  0.00000000000E+00  0.00000000000E+00  0.15627603082E+03  0.15627603082E+03  0.00000000000E+00 0. -1.
         -1   -1    0    0    0  501 -0.00000000000E+00 -0.00000000000E+00 -0.51078530371E+03  0.51078530371E+03  0.00000000000E+00 0. -1.
         21    1    1    2  503  505 -0.38299505713E+02  0.11964096053E+03  0.82323897865E+02  0.15019332786E+03  0.00000000000E+00 0. -1.
         21    1    1    2  504  502  0.23818941428E+02 -0.57573375294E+02 -0.67654867569E+01  0.62672221315E+02  0.00000000000E+00 0. -1.
         21    1    1    2  505  501 -0.13691593835E+01  0.41148439279E+02 -0.13862103262E+03  0.14460587587E+03  0.00000000000E+00 0.  1.
         -1    1    1    2    0  504  0.15849723669E+02 -0.10321602452E+03 -0.29144665137E+03  0.30958990948E+03  0.00000000000E+00 0. -1.
<scales pt_clust_3="74.67216" pt_clust_4="58.69665" pt_clust_5="41.17121" pt_clust_6="14000.00000"></scales>
<clustering>
<clus scale="   41.171">  2  5  1 -1</clus>
<clus scale="   58.697">  1  4  2 -1</clus>
<clus scale="   74.672">  1  3  2 -1</clus>
<clus scale="   58.697">  1  3  2 -1</clus>
</clustering>
</event>
<event>
 6    0  0.3695460E+002  0.1607203E+03  0.7546771E-02  0.1187886E+00
         21   -1    0    0  505  502  0.00000000000E+00  0.00000000000E+00  0.16623973684E+03  0.16623973684E+03  0.00000000000E+00 0.  1.
          3   -1    0    0  504    0 -0.00000000000E+00 -0.00000000000E+00 -0.81664663613E+03  0.81664663613E+03  0.00000000000E+00 0.  1.
         21    1    1    2  503  502  0.26465471105E+02 -0.45862270969E+02 -0.25797533340E+02  0.58900609383E+02  0.00000000000E+00 0. -1.
         21    1    1    2  504  503  0.69760792926E+02 -0.65203226303E+02  0.12469574140E+03  0.15705749544E+03  0.00000000000E+00 0.  1.
         21    1    1    2  505  501 -0.81540163122E+02  0.61799684782E+02 -0.36044238634E+03  0.37468214944E+03  0.00000000000E+00 0. -1.
          3    1    1    2  501    0 -0.14686100909E+02  0.49265812491E+02 -0.38886272102E+03  0.39224611870E+03  0.00000000000E+00 0.  1.
<scales pt_clust_3="52.95063" pt_clust_4="143.89313" pt_clust_5="50.74935" pt_clust_6="50.74935"></scales>
<clustering>
<clus scale="   50.749">  5  6 -1 -1</clus>
<clus scale="   52.951">  1  3  2 -1</clus>
<clus scale="  143.893">  1  4  2 -1</clus>
<clus scale="   52.951">  1  3  2 -1</clus>
</clustering>
</event>
<event>
 6    0  0.3695460E+002  0.2715807E+03  0.7546771E-02  0.1100378E+00
         21   -1    0    0  504  502  0.00000000000E+00  0.00000000000E+00  0.25595566081E+03  0.25595566081E+03  0.00000000000E+00 0.  1.
          2   -1    0    0  505    0 -0.00000000000E+00 -0.00000000000E+00 -0.36750795162E+03  0.36750795162E+03  0.00000000000E+00 0.  1.
         21    1    1    2  503  502 -0.22422386382E+03 -0.12761604369E+03  0.46124572771E+02  0.26208714567E+03  0.00000000000E+00 0.  1.
         21    1    1    2  504  501  0.72467031439E+02  0.63690942689E+02 -0.30932270028E+02  0.10131540927E+03  0.00000000000E+00 0.  1.
         21    1    1    2  505  503 -0.24695460863E+02 -0.17399155325E+02 -0.31626997542E+02  0.43736293474E+02  0.00000000000E+00 0.  1.
          2    1    1    2  501    0  0.17645229324E+03  0.81324256325E+02 -0.95117596011E+02  0.21632476402E+03  0.00000000000E+00 0.  1.
<scales pt_clust_3="267.84247" pt_clust_4="31.80864" pt_clust_5="30.20921" pt_clust_6="31.80864"></scales>
<clustering>
<clus scale="   30.209">  2  5  1 -1</clus>
<clus scale="   31.809">  4  6 -1 -1</clus>
<clus scale="  267.842">  1  3  2 -1</clus>
<clus scale="  267.842">  1  3  2 -1</clus>
</clustering>
</event>
<event>
 6    0  0.3695460E+002  0.1325547E+03  0.7546771E-02  0.1223714E+00
         21   -1    0    0  503  502  0.00000000000E+00  0.00000000000E+00  0.14920868213E+04  0.14920868213E+04  0.00000000000E+00 0. -1.
          2   -1    0    0  505    0 -0.00000000000E+00 -0.00000000000E+00 -0.71946054013E+03  0.71946054013E+03  0.00000000000E+00 0. -1.
         21    1    1    2  503  501 -0.25230356074E+02  0.56324175675E+02 -0.25093771904E+03  0.25841579377E+03  0.00000000000E+00 0. -1.
         21    1    1    2  504  502  0.27080469422E+02 -0.32305885983E+02  0.17919201503E+03  0.18408367756E+03  0.00000000000E+00 0. -1.
         21    1    1    2  505  504 -0.23418176487E+02 -0.87132767451E+02  0.13027359604E+04  0.13058566203E+04  0.00000000000E+00 0. -1.
          2    1    1    2  501    0  0.21568063140E+02  0.63114477759E+02 -0.45836397524E+03  0.46319126983E+03  0.00000000000E+00 0. -1.
<scales pt_clust_3="55.46471" pt_clust_4="42.15474" pt_clust_5="119.33935" pt_clust_6="55.46471"></scales>
<clustering>
<clus scale="   42.155">  1  4  2 -1</clus>
<clus scale="   55.465">  3  6 -1 -1</clus>
<clus scale="  119.339">  1  5  2 -1</clus>
<clus scale="   42.155">  1  3  2 -1</clus>
</clustering>
</event>
<event>
 6    0  0.3695460E+002  0.1795135E+03  0.7546771E-02  0.1168275E+00
         21   -1    0    0  505  502  0.00000000000E+00  0.00000000000E+00  0.34744019388E+03  0.34744019388E+03  0.00000000000E+00 0. -1.
          2   -1    0    0  502    0 -0.00000000000E+00 -0.00000000000E+00 -0.25580594883E+04  0.25580594883E+04  0.00000000000E+00 0. -1.
         21    1    1    2  503  504  0.87132489456E+02  0.45260850027E+02  0.16387617861E+03  0.19103930795E+03  0.00000000000E+00 0.  1.
         21    1    1    2  504  501 -0.43092797511E+02 -0.63778850353E+01 -0.42527812929E+03  0.42750339632E+03  0.00000000000E+00 0. -1.
         21    1    1    2  505  503  0.38772755922E+02  0.63878284389E+02  0.15843716885E+03  0.17517447956E+03  0.00000000000E+00 0. -1.
          2    1    1    2  501    0 -0.82812447867E+02 -0.10276124938E+03 -0.21076545126E+04  0.21117824983E+04  0.00000000000E+00 0. -1.
<scales pt_clust_3="173.85812" pt_clust_4="38.37535" pt_clust_5="43.29643" pt_clust_6="38.37535"></scales>
<clustering>
<clus scale="   38.375">  4  6 -1 -1</clus>
<clus scale="   43.296">  3  5 -1 -1</clus>
<clus scale="  173.858">  1  3  2 -1</clus>
<clus scale="  173.858">  1  3  2 -1</clus>
</clustering>
</event>
<event>
 6    0  0.3695460E+002  0.2077840E+03  0.7546771E-02  0.1143333E+00
         21   -1    0    0  503  502  0.00000000000E+00  0.00000000000E+00  0.61012838484E+03  0.61012838484E+03  0.00000000000E+00 0.  1.
         -1   -1    0    0    0  501 -0.00000000000E+00 -0.00000000000E+00 -0.10925824594E+04  0.10925824594E+04  0.00000000000E+00 0.  1.
         21    1    1    2  503  504  0.10903600897E+03 -0.16836167078E+02  0.39348542414E+03  0.40866011157E+03  0.00000000000E+00 0.  1.
         21    1    1    2  504  505  0.81340103244E+02 -0.41339596557E+02  0.18682140663E+03  0.20791203095E+03  0.00000000000E+00 0. -1.
         21    1    1    2  505  501 -0.14088266647E+02  0.42101086826E+02 -0.28877153612E+03  0.29216430453E+03  0.00000000000E+00 0.  1.
         -1    1    1    2    0  502 -0.17628784557E+03  0.16074676810E+02 -0.77398936923E+03  0.79397439720E+03  0.00000000000E+00 0.  1.
<scales pt_clust_3="55.81581" pt_clust_4="55.81581" pt_clust_5="44.39573" pt_clust_6="198.48550"></scales>
<clustering>
<clus scale="   44.396">  2  5  1 -1</clus>
<clus scale="   55.816">  3  4 -1 -1</clus>
<clus scale="  198.485">  2  6  1 -1</clus>
<clus scale="  207.784">  1  3  2 -1</clus>
</clustering>
</event>
<event>
 6    0  0.3695460E+002  0.2137635E+03  0.7546771E-02  0.1138620E+00
         21   -1    0    0  505  502  0.00000000000E+00  0.00000000000E+00  0.68258808844E+03  0.68258808844E+03  0.00000000000E+00 0.  1.
          1   -1    0    0  503    0 -0.00000000000E+00 -0.00000000000E+00 -0.44526163405E+03  0.44526163405E+03  0.00000000000E+00 0.  1.
         21    1    1    2  503  502  0.18725642051E+03 -0.29091669836E+01 -0.14035222304E+03  0.23403456323E+03  0.00000000000E+00 0. -1.
         21    1    1    2  504  501 -0.12162775354E+03  0.58934797862E+02  0.49687374169E+03  0.51492731139E+03  0.00000000000E+00 0.  1.
         21    1    1    2  505  504 -0.58360300900E+02  0.35924973041E+02  0.11125270409E+03  0.13066634064E+03  0.00000000000E+00 0. -1.
          1    1    1    2  501    0 -0.72683660773E+01 -0.91950603920E+02 -0.23044776836E+03  0.24822150722E+03  0.00000000000E+00 0.  1.
<scales pt_clust_3="200.28858" pt_clust_4="53.18879" pt_clust_5="53.18879" pt_clust_6="92.23743"></scales>
<clustering>
<clus scale="   53.189">  4  5 -1 -1</clus>
<clus scale="   92.237">  2  6  1 -1</clus>
<clus scale="  200.289">  2  3  1 -1</clus>
<clus scale="  213.763">  1  3  2 -1</clus>
</clustering>
</event>
<event>
 6    0  0.3695460E+002  0.1581656E+03  0.7546771E-02  0.1190783E+00
          2   -1    0    0  505    0 -0.00000000000E+00  0.00000000000E+00  0.21795512612E+04  0.21795512612E+04  0.00000000000E+00 0. -1.
         21   -1    0    0  504  502  0.00000000000E+00 -0.00000000000E+00 -0.17397202312E+03  0.17397202312E+03  0.00000000000E+00 0. -1.
         21    1    1    2  503  501 -0.10593190422E+03  0.39094944752E+02 -0.12642088850E+03  0.16950582316E+03  0.00000000000E+00 0. -1.
         21    1    1    2  504  503 -0.33595431094E+02  0.84005323928E+01 -0.19278551814E+01  0.34683404684E+02  0.00000000000E+00 0. -1.
         21    1    1    2  505  502  0.18234651978E+02 -0.60613245709E+02  0.16647578086E+03  0.17810293008E+03  0.00000000000E+00 0. -1.
          2    1    1    2  501    0  0.12129268333E+03  0.13117768564E+02  0.19674522009E+04  0.19712311264E+04  0.00000000000E+00 0. -1.
<scales pt_clust_3="32.74478" pt_clust_4="32.74478" pt_clust_5="63.29667" pt_clust_6="146.69774"></scales>
<clustering>
<clus scale="   32.745">  3  4 -1 -1</clus>
<clus scale="   63.297">  1  5  2 -1</clus>
<clus scale="  146.698">  1  6  2 -1</clus>
<clus scale="  158.166">  2  3  1 -1</clus>
</clustering>
</event>
<event>
 6    0  0.3695460E+002  0.1101086E+03  0.7546771E-02  0.1260369E+00
         21   -1    0    0  503  502  0.00000000000E+00  0.00000000000E+00  0.76258816105E+02  0.76258816105E+02  0.00000000000E+00 0.  1.
          2   -1    0    0  504    0 -0.00000000000E+00 -0.00000000000E+00 -0.26008443417E+03  0.26008443417E+03  0.00000000000E+00 0.  1.
         21    1    1    2  503  505  0.15220816552E+02  0.38745944097E+02 -0.18627325352E+02  0.45605906309E+02  0.00000000000E+00 0.  1.
         21    1    1    2  504  502  0.94715896317E+02  0.21460740818E+02 -0.11629894845E+03  0.15151603816E+03  0.00000000000E+00 0.  1.
         21    1    1    2  505  501 -0.43537887237E+02 -0.31551670861E+02 -0.36041443564E+01  0.53889195723E+02  0.00000000000E+00 0.  1.
          2    1    1    2  501    0 -0.66398825633E+02 -0.28655014054E+02 -0.45295199916E+02  0.85332110083E+02  0.00000000000E+00 0.  1.
<scales pt_clust_3="41.62837" pt_clust_4="104.13169" pt_clust_5="30.85534" pt_clust_6="30.85534"></scales>
<clustering>
<clus scale="   30.855">  5  6 -1 -1</clus>
<clus scale="   41.628">  1  3  2 -1</clus>
<clus scale="  104.132">  2  4  1 -1</clus>
<clus scale="   41.628">  1  3  2 -1</clus>
</clustering>
</event>
<event>
 6    0  0.3695460E+002  0.1663171E+03  0.7546771E-02  0.1181744E+00
          1   -1    0    0  505    0 -0.00000000000E+00  0.00000000000E+00  0.71571538743E+03  0.71571538743E+03  0.00000000000E+00 0.  1.
         21   -1    0    0  501  502  0.00000000000E+00 -0.00000000000E+00 -0.36188446389E+03  0.36188446389E+03  0.00000000000E+00 0.  1.
         21    1    1    2  503  504 -0.10253512945E+03  0.57966707654E+02 -0.17481716624E+03  0.21079524089E+03  0.00000000000E+00 0.  1.
         21    1    1    2  504  502 -0.21082834881E+02  0.36206682210E+02 -0.13265374501E+03  0.13911299662E+03  0.00000000000E+00 0.  1.
         21    1    1    2  505  503  0.83837301339E+02  0.83159370239E+02  0.31864332094E+03  0.33982015822E+03  0.00000000000E+00 0.  1.
          1    1    1    2  501    0  0.39780662991E+02 -0.17733276010E+03  0.34265851385E+03  0.38787145560E+03  0.00000000000E+00 0.  1.
<scales pt_clust_3="36.50998" pt_clust_4="36.50998" pt_clust_5="118.08545" pt_clust_6="154.64150"></scales>
<clustering>
<clus scale="   36.510">  3  4 -1 -1</clus>
<clus scale="  118.085">  1  5  2 -1</clus>
<clus scale="  154.641">  1  6  2 -1</clus>
<clus scale="  166.317">  2  3  1 -1</clus>
</clustering>
</event>
<event>
 6    0  0.3695460E+002  0.1276426E+03  0.7546771E-02  0.1230996E+00
         21   -1    0    0  503  502  0.00000000000E+00  0.00000000000E+00  0.28037833316E+02  0.28037833316E+02  0.00000000000E+00 0. -1.
          2   -1    0    0  505    0 -0.00000000000E+00 -0.00000000000E+00 -0.75334296015E+03  0.75334296015E+03  0.00000000000E+00 0. -1.
         21    1    1    2  503  504 -0.23588153502E+01  0.35175755268E+02 -0.60917825927E+02  0.70383799870E+02  0.00000000000E+00 0. -1.
         21    1    1    2  504  501 -0.35342469481E+02 -0.27906396908E+02 -0.12450427753E+03  0.13239778043E+03  0.00000000000E+00 0. -1.
         21    1    1    2  505  502  0.12114046363E+03 -0.95865736779E+01 -0.26961826728E+03  0.29573793192E+03  0.00000000000E+00 0. -1.
          2    1    1    2  501    0 -0.83439178801E+02  0.23172153183E+01 -0.27026475608E+03  0.28286128124E+03  0.00000000000E+00 0. -1.
<scales pt_clust_3="35.25476" pt_clust_4="31.45172" pt_clust_5="120.24569" pt_clust_6="31.45172"></scales>
<clustering>
<clus scale="   31.452">  4  6 -1 -1</clus>
<clus scale="   35.255">  1  3  2 -1</clus>
<clus scale="  120.246">  1  5  2 -1</clus>
<clus scale="   35.255">  1  3  2 -1</clus>
</clustering>
</event>
<event>
 6    0  0.3695460E+002  0.1197556E+03  0.7546771E-02  0.1243501E+00
         21   -1    0    0  503  502  0.00000000000E+00  0.00000000000E+00  0.28564928944E+02  0.28564928944E+02  0.00000000000E+00 0.  1.
          1   -1    0    0  504    0 -0.00000000000E+00 -0.00000000000E+00 -0.15176784472E+04  0.15176784472E+04  0.00000000000E+00 0. -1.
         21    1    1    2  503  505  0.13329415185E+02 -0.54389903108E+02 -0.80378457558E+02  0.97962397422E+02  0.00000000000E+00 0.  1.
         21    1    1    2  504  502 -0.55955344816E+02 -0.53442496484E+02 -0.72208880918E+02  0.10583583291E+03  0.00000000000E+00 0.  1.
         21    1    1    2  505  501 -0.28157400741E+01  0.38753558935E+02 -0.60832806295E+03  0.60956771477E+03  0.00000000000E+00 0.  1.
          1    1    1    2  501    0  0.45441669706E+02  0.69078840657E+02 -0.72819811683E+03  0.73287743104E+03  0.00000000000E+00 0. -1.
<scales pt_clust_3="55.99942" pt_clust_4="109.22209" pt_clust_5="33.66645" pt_clust_6="33.66645"></scales>
<clustering>
<clus scale="   33.666">  5  6 -1 -1</clus>
<clus scale="   55.999">  1  3  2 -1</clus>
<clus scale="  109.222">  1  4  2 -1</clus>
<clus scale="   55.999">  1  3  2 -1</clus>
</clustering>
</event>
<event>
 6    0  0.3695460E+002  0.1455122E+03  0.7546771E-02  0.1206099E+00
          2   -1    0    0  504    0 -0.00000000000E+00  0.00000000000E+00  0.34472072428E+04  0.34472072428E+04  0.00000000000E+00 0.  1.
         21   -1    0    0  503  502  0.00000000000E+00 -0.00000000000E+00 -0.12715675871E+03  0.12715675871E+03  0.00000000000E+00 0. -1.
         21    1    1    2  503  505  0.32544581741E+02 -0.35018963123E+01  0.13124446872E+02  0.35265623264E+02  0.00000000000E+00 0.  1.
         21    1    1    2  504  502 -0.82512153323E+02 -0.11947296964E+03 -0.68498865541E+02  0.16054326676E+03  0.00000000000E+00 0. -1.
         21    1    1    2  505  501  0.44094429592E+02  0.55725070804E+02  0.12153662194E+04  0.12174418464E+04  0.00000000000E+00 0. -1.
          2    1    1    2  501    0  0.58731419905E+01  0.67249795149E+02  0.21600586834E+04  0.21611132651E+04  0.00000000000E+00 0.  1.
<scales pt_clust_3="32.73245" pt_clust_4="132.86086" pt_clust_5="57.77653" pt_clust_6="57.77653"></scales>
<clustering>
<clus scale="   32.732">  2  3  1 -1</clus>
<clus scale="   57.777">  5  6 -1 -1</clus>
<clus scale="  132.861">  2  4  1 -1</clus>
<clus scale="   32.732">  2  3  1 -1</clus>
</clustering>
</event>
<event>
 6    0  0.3695460E+002  0.2208044E+03  0.7546771E-02  0.1133285E+00
         -1   -1    0    0    0  501 -0.00000000000E+00  0.00000000000E+00  0.60432171927E+03  0.60432171927E+03  0.00000000000E+00 0. -1.
         21   -1    0    0  501  502  0.00000000000E+00 -0.00000000000E+00 -0.83266767274E+02  0.83266767274E+02  0.00000000000E+00 0.  1.
         21    1    1    2  503  505  0.41715491867E+02 -0.40966601028E+01  0.13323649508E+03  0.13967436596E+03  0.00000000000E+00 0. -1.
         21    1    1    2  504  502 -0.99629770340E+02  0.66372232434E+02  0.11234167910E+03  0.16417069544E+03  0.00000000000E+00 0.  1.
         21    1    1    2  505  504 -0.87429743776E+02  0.22697752753E+02  0.52951913315E+02  0.10470459971E+03  0.00000000000E+00 0. -1.
         -1    1    1    2    0  503  0.14534402225E+03 -0.84973325085E+02  0.22252486450E+03  0.27903882544E+03  0.00000000000E+00 0. -1.
<scales pt_clust_3="38.09778" pt_clust_4="212.06592" pt_clust_5="39.30271" pt_clust_6="38.09778"></scales>
<clustering>
<clus scale="   38.098">  3  6 -1 -1</clus>
<clus scale="   39.303">  4  5 -1 -1</clus>
<clus scale="  212.066">  2  4  1 -1</clus>
<clus scale="  212.066">  2  3  1 -1</clus>
</clustering>
</event>
<event>
 6    0  0.3695460E+002  0.9735662E+02  0.7546771E-02  0.1285955E+00
         21   -1    0    0  504  502  0.00000000000E+00  0.00000000000E+00  0.43877005439E+02  0.43877005439E+02  0.00000000000E+00 0. -1.
          1   -1    0    0  505    0 -0.00000000000E+00 -0.00000000000E+00 -0.18568529315E+04  0.18568529315E+04  0.00000000000E+00 0. -1.
         21    1    1    2  503  501  0.68593385788E+02 -0.40189140861E+02 -0.84988613394E+02  0.11637561610E+03  0.00000000000E+00 0. -1.
         21    1    1    2  504  503  0.36770957685E+02  0.29418684580E+02  0.21186057251E+01  0.47138634067E+02  0.00000000000E+00 0. -1.
         21    1    1    2  505  502 -0.84084059077E+02  0.49385473028E+02 -0.77769625257E+03  0.78378601365E+03  0.00000000000E+00 0. -1.
          1    1    1    2  501    0 -0.21280284396E+02 -0.38615016747E+02 -0.95240966587E+03  0.95342967316E+03  0.00000000000E+00 0. -1.
<scales pt_clust_3="97.35662" pt_clust_4="46.07839" pt_clust_5="14000.00000" pt_clust_6="44.09048"></scales>
<clustering>
<clus scale="   44.090">  2  6  1 -1</clus>
<clus scale="   46.078">  1  4  2 -1</clus>
<clus scale="   97.357">  1  3  2 -1</clus>
<clus scale="   46.078">  1  3  2 -1</clus>
</clustering>
</event>
<event>
 6    0  0.3695460E+002  0.3449576E+03  0.7546771E-02  0.1064704E+00
         21   -1    0    0  504  502  0.00000000000E+00  0.00000000000E+00  0.76776360570E+03  0.76776360570E+03  0.00000000000E+00 0. -1.
         -2   -1    0    0    0  501 -0.00000000000E+00 -0.00000000000E+00 -0.24325852010E+03  0.24325852010E+03  0.00000000000E+00 0. -1.
         21    1    1    2  503  502 -0.14410154452E+03  0.57010697010E+02  0.30019325165E+03  0.33783348420E+03  0.00000000000E+00 0. -1.
         21    1    1    2  504  505  0.19125616185E+03 -0.12292889117E+03 -0.27235788215E+02  0.22898082865E+03  0.00000000000E+00 0. -1.
         21    1    1    2  505  501  0.11645751253E+03 -0.16146269481E+02 -0.17431631752E+02  0.11885670375E+03  0.00000000000E+00 0. -1.
         -2    1    1    2    0  503 -0.16361212985E+03  0.82064463639E+02  0.26897925390E+03  0.32535110920E+03  0.00000000000E+00 0. -1.
<scales pt_clust_3="39.32807" pt_clust_4="50.67678" pt_clust_5="50.67678" pt_clust_6="340.37694"></scales>
<clustering>
<clus scale="   39.328">  3  6 -1 -1</clus>
<clus scale="   50.677">  4  5 -1 -1</clus>
<clus scale="  340.377">  1  3  2 -1</clus>
<clus scale="  340.377">  1  3  2 -1</clus>
</clustering>
</event>
<event>
 6    0  0.3695460E+002  0.1945752E+03  0.7546771E-02  0.1154398E+00
         21   -1    0    0  504  502  0.00000000000E+00  0.00000000000E+00  0.64766378544E+02  0.64766378544E+02  0.00000000000E+00 0. -1.
          2   -1    0    0  503    0 -0.00000000000E+00 -0.00000000000E+00 -0.83336868225E+03  0.83336868225E+03  0.00000000000E+00 0. -1.
         21    1    1    2  503  502 -0.30335576560E+02 -0.18427958627E+02 -0.10466548783E+03  0.11052013938E+03  0.00000000000E+00 0. -1.
         21    1    1    2  504  505  0.98976094778E+02 -0.52329797739E+02 -0.68078413617E+02  0.13103184907E+03  0.00000000000E+00 0. -1.
         21    1    1    2  505  501  0.78254921464E+02 -0.28642370828E+02 -0.10123884122E+03  0.13112406763E+03  0.00000000000E+00 0. -1.
          2    1    1    2  501    0 -0.14689543968E+03  0.99400127194E+02 -0.49461956103E+03  0.52545900472E+03  0.00000000000E+00 0. -1.
<scales pt_clust_3="35.49418" pt_clust_4="39.04719" pt_clust_5="39.04719" pt_clust_6="189.12815"></scales>
<clustering>
<clus scale="   35.494">  2  3  1 -1</clus>
<clus scale="   39.047">  4  5 -1 -1</clus>
<clus scale="  189.128">  2  6  1 -1</clus>
<clus scale="  194.575">  1  3  2 -1</clus>
</clustering>
</event>
<event>
 6    0  0.3695460E+002  0.1164729E+03  0.7546771E-02  0.1249032E+00
         21   -1    0    0  505  502  0.00000000000E+00  0.00000000000E+00  0.12402358963E+04  0.12402358963E+04  0.00000000000E+00 0. -1.
          1   -1    0    0  504    0 -0.00000000000E+00 -0.00000000000E+00 -0.54720703863E+03  0.54720703863E+03  0.00000000000E+00 0. -1.
         21    1    1    2  503  501 -0.14290047341E+03  0.97800178660E+02 -0.82526610414E+02  0.19182299568E+03  0.00000000000E+00 0. -1.
         21    1    1    2  504  502  0.69844005709E+02 -0.42965396401E+02  0.11488857706E+04  0.11518084582E+04  0.00000000000E+00 0. -1.
         21    1    1    2  505  503  0.26459254350E+02 -0.17550678519E+02  0.25387266466E+02  0.40652573792E+02  0.00000000000E+00 0. -1.
          1    1    1    2  501    0  0.46597213348E+02 -0.37284103739E+02 -0.39871756900E+03  0.40315890727E+03  0.00000000000E+00 0. -1.
<scales pt_clust_3="116.47291" pt_clust_4="14000.00000" pt_clust_5="31.75088" pt_clust_6="59.73568"></scales>
<clustering>
<clus scale="   31.751">  1  5  2 -1</clus>
<clus scale="   59.736">  2  6  1 -1</clus>
<clus scale="  116.473">  2  3  1 -1</clus>
<clus scale="   31.751">  1  3  2 -1</clus>
</clustering>
</event>
<event>
 6    0  0.3695460E+002  0.9797226E+02  0.7546771E-02  0.1284619E+00
          2   -1    0    0  505    0 -0.00000000000E+00  0.00000000000E+00  0.67146495624E+03  0.67146495624E+03  0.00000000000E+00 0.  1.
         21   -1    0    0  504  502  0.00000000000E+00 -0.00000000000E+00 -0.19614194721E+03  0.19614194721E+03  0.00000000000E+00 0. -1.
         21    1    1    2  503  502 -0.64803522609E+01  0.35020271293E+02 -0.13488575369E+03  0.13950835428E+03  0.00000000000E+00 0. -1.
         21    1    1    2  504  501 -0.28824978400E+02 -0.28548403055E+02  0.89567893464E+01  0.41546537427E+02  0.00000000000E+00 0.  1.
         21    1    1    2  505  503  0.17394275507E+02  0.91063276871E+02  0.17387563874E+02  0.94326075887E+02  0.00000000000E+00 0.  1.
          2    1    1    2  501    0  0.17911055153E+02 -0.97535145109E+02  0.58386440949E+03  0.59222593585E+03  0.00000000000E+00 0.  1.
<scales pt_clust_3="35.61481" pt_clust_4="35.96305" pt_clust_5="97.97226" pt_clust_6="14000.00000"></scales>
<clustering>
<clus scale="   35.615">  2  3  1 -1</clus>
<clus scale="   35.963">  2  4  1 -1</clus>
<clus scale="   97.972">  2  5  1 -1</clus>
<clus scale="   35.615">  2  3  1 -1</clus>
</clustering>
</event>
<event>
 6    0  0.3695460E+002  0.1207641E+03  0.7546771E-02  0.1241842E+00
          2   -1    0    0  504    0 -0.00000000000E+00  0.00000000000E+00  0.72247617412E+03  0.72247617412E+03  0.00000000000E+00 0. -1.
         21   -1    0    0  505  502  0.00000000000E+00 -0.00000000000E+00 -0.34054898003E+03  0.34054898003E+03  0.00000000000E+00 0. -1.
         21    1    1    2  503  502 -0.21866853229E+02  0.65621617592E+02 -0.24322898112E+03  0.25287287957E+03  0.00000000000E+00 0. -1.
         21    1    1    2  504  503  0.38982127971E+02  0.74306001350E+01  0.11675811816E+03  0.12331779383E+03  0.00000000000E+00 0. -1.
         21    1    1    2  505  501 -0.60448084521E+02  0.26730135790E+02 -0.71180682819E+02  0.97134755305E+02  0.00000000000E+00 0. -1.
          2    1    1    2  501    0  0.43332809780E+02 -0.99782353517E+02  0.57957873988E+03  0.58969972545E+03  0.00000000000E+00 0. -1.
<scales pt_clust_3="14000.00000" pt_clust_4="39.68400" pt_clust_5="65.39298" pt_clust_6="120.76412"></scales>
<clustering>
<clus scale="   39.684">  1  4  2 -1</clus>
<clus scale="   65.393">  2  5  1 -1</clus>
<clus scale="  120.764">  1  6  2 -1</clus>
<clus scale="   65.393">  2  3  1 -1</clus>
</clustering>
</event>
<event>
 6    0  0.3695460E+002  0.3899722E+03  0.7546771E-02  0.1047308E+00
         21   -1    0    0  501  502  0.00000000000E+00  0.00000000000E+00  0.23992680129E+04  0.23992680129E+04  0.00000000000E+00 0.  1.
          2   -1    0    0  505    0 -0.00000000000E+00 -0.00000000000E+00 -0.80230199616E+03  0.80230199616E+03  0.00000000000E+00 0.  1.
         21    1    1    2  503  504  0.21182742448E+03 -0.13925665619E+03  0.14099689857E+04  0.14325766349E+04  0.00000000000E+00 0.  1.
         21    1    1    2  504  502  0.13373998130E+03  0.42077037649E+01  0.81098659385E+03  0.82195093697E+03  0.00000000000E+00 0.  1.
         21    1    1    2  505  503  0.45034969035E+01 -0.21605826481E+03 -0.17334861589E+03  0.27704006553E+03  0.00000000000E+00 0.  1.
          2    1    1    2  501    0 -0.35007090268E+03  0.35110721723E+03 -0.45064094700E+03  0.67000237165E+03  0.00000000000E+00 0.  1.
<scales pt_clust_3="81.53814" pt_clust_4="81.53814" pt_clust_5="216.10519" pt_clust_6="373.47354"></scales>
<clustering>
<clus scale="   81.538">  3  4 -1 -1</clus>
<clus scale="  216.105">  2  5  1 -1</clus>
<clus scale="  373.474">  2  6  1 -1</clus>
<clus scale="  389.972">  1  3  2 -1</clus>
</clustering>
</event>
<event>
 6    0  0.3695460E+002  0.7950689E+02  0.7546771E-02  0.1330457E+00
          3   -1    0    0  503    0 -0.00000000000E+00  0.00000000000E+00  0.87894493645E+03  0.87894493645E+03  0.00000000000E+00 0.  1.
         21   -1    0    0  505  502  0.00000000000E+00 -0.00000000000E+00 -0.11246597676E+03  0.11246597676E+03  0.00000000000E+00 0. -1.
         21    1    1    2  503  504  0.36220117582E+02 -0.10584296501E+02  0.15218778367E+03  0.15679619175E+03  0.00000000000E+00 0.  1.
         21    1    1    2  504  502  0.82463844968E+02  0.20662181028E+02 -0.60051400098E+02  0.10408353427E+03  0.00000000000E+00 0. -1.
         21    1    1    2  505  501 -0.70231033208E+02  0.43205891531E+02  0.39168275624E+02  0.91286915293E+02  0.00000000000E+00 0. -1.
          3    1    1    2  501    0 -0.48452929342E+02 -0.53283776057E+02  0.63517430050E+03  0.63924427191E+03  0.00000000000E+00 0.  1.
<scales pt_clust_3="37.73492" pt_clust_4="79.50689" pt_clust_5="14000.00000" pt_clust_6="64.75587"></scales>
<clustering>
<clus scale="   37.735">  1  3  2 -1</clus>
<clus scale="   64.756">  1  6  2 -1</clus>
<clus scale="   79.507">  2  4  1 -1</clus>
<clus scale="   79.507">  2  3  1 -1</clus>
</clustering>
</event>
<event>
 6    0  0.3695460E+002  0.1359042E+03  0.7546771E-02  0.1218949E+00
         -2   -1    0    0    0  501 -0.00000000000E+00  0.00000000000E+00  0.61803419731E+03  0.61803419731E+03  0.00000000000E+00 0. -1.
         21   -1    0    0  503  502  0.00000000000E+00 -0.00000000000E+00 -0.37565102710E+03  0.37565102710E+03  0.00000000000E+00 0. -1.
         21    1    1    2  503  501  0.36759052600E+02  0.15052000683E+02  0.11727179049E+02  0.41416390488E+02  0.00000000000E+00 0.  1.
         21    1    1    2  504  502 -0.96752021524E+02  0.89472397556E+02 -0.34175798806E+03  0.36628511571E+03  0.00000000000E+00 0. -1.
         21    1    1    2  505  504  0.18990837840E+02 -0.57611348564E+02  0.22536266857E+03  0.23338391502E+03  0.00000000000E+00 0. -1.
         -2    1    1    2    0  505  0.41002131085E+02 -0.46913049675E+02  0.34705131065E+03  0.35259980319E+03  0.00000000000E+00 0. -1.
<scales pt_clust_3="39.72141" pt_clust_4="131.43556" pt_clust_5="34.10433" pt_clust_6="34.10433"></scales>
<clustering>
<clus scale="   34.104">  5  6 -1 -1</clus>
<clus scale="   39.721">  1  3  2 -1</clus>
<clus scale="  131.436">  2  4  1 -1</clus>
<clus scale="  131.436">  2  3  1 -1</clus>
</clustering>
</event>
<event>
 6    0  0.3695460E+002  0.9735696E+02  0.7546771E-02  0.1285954E+00
          2   -1    0    0  504    0 -0.00000000000E+00  0.00000000000E+00  0.51165612531E+03  0.51165612531E+03  0.00000000000E+00 0.  1.
         21   -1    0    0  501  502  0.00000000000E+00 -0.00000000000E+00 -0.14596728985E+03  0.14596728985E+03  0.00000000000E+00 0. -1.
         21    1    1    2  503  505 -0.25185718488E+02 -0.50812472476E+02 -0.70136171767E+02  0.90195955369E+02  0.00000000000E+00 0. -1.
         21    1    1    2  504  503  0.54876112716E+02 -0.13215097263E+02  0.11913485254E+03  0.13182996485E+03  0.00000000000E+00 0.  1.
         21    1    1    2  505  502  0.18800083000E+02 -0.35429653711E+02 -0.43278895171E+02  0.59006493287E+02  0.00000000000E+00 0. -1.
          2    1    1    2  501    0 -0.48490477229E+02  0.99457223450E+02  0.35996904986E+03  0.37659100166E+03  0.00000000000E+00 0.  1.
<scales pt_clust_3="36.84877" pt_clust_4="56.44490" pt_clust_5="36.84877" pt_clust_6="86.93943"></scales>
<clustering>
<clus scale="   36.849">  3  5 -1 -1</clus>
<clus scale="   56.445">  1  4  2 -1</clus>
<clus scale="   86.939">  1  6  2 -1</clus>
<clus scale="   97.357">  2  3  1 -1</clus>
</clustering>
</event>
<event>
 6    0  0.3695460E+002  0.2013846E+03  0.7546771E-02  0.1148576E+00
         21   -1    0    0  503  502  0.00000000000E+00  0.00000000000E+00  0.67431470389E+03  0.67431470389E+03  0.00000000000E+00 0. -1.
          1   -1    0    0  504    0 -0.00000000000E+00 -0.00000000000E+00 -0.27704262559E+04  0.27704262559E+04  0.00000000000E+00 0. -1.
         21    1    1    2  503  505 -0.10931169828E+03  0.14998054401E+03  0.31702775224E+03  0.36735515057E+03  0.00000000000E+00 0.  1.
         21    1    1    2  504  502 -0.94392465632E+02  0.14124261169E+03 -0.17452259844E+04  0.17534745934E+04  0.00000000000E+00 0. -1.
         21    1    1    2  505  501  0.21727486308E+03 -0.31864756448E+03  0.21426914591E+03  0.44119825857E+03  0.00000000000E+00 0. -1.
          1    1    1    2  501    0 -0.13570699165E+02  0.27424408782E+02 -0.88218246572E+03  0.88271295725E+03  0.00000000000E+00 0. -1.
<scales pt_clust_3="185.99076" pt_clust_4="14000.00000" pt_clust_5="201.38457" pt_clust_6="30.59840"></scales>
<clustering>
<clus scale="   30.598">  2  6  1 -1</clus>
<clus scale="  185.991">  1  3  2 -1</clus>
<clus scale="  201.385">  1  5  2 -1</clus>
<clus scale="  185.991">  1  3  2 -1</clus>
</clustering>
</event>
<event>
 6    0  0.3695460E+002  0.1253289E+03  0.7546771E-02  0.1234556E+00
          2   -1    0    0  504    0 -0.00000000000E+00  0.00000000000E+00  0.15158197642E+04  0.15158197642E+04  0.00000000000E+00 0. -1.
         21   -1    0    0  501  502  0.00000000000E+00 -0.00000000000E+00 -0.38784499781E+02  0.38784499781E+02  0.00000000000E+00 0.  1.
         21    1    1    2  503  505 -0.32258876524E+02 -0.10296003761E+03  0.36938004288E+03  0.38481556691E+03  0.00000000000E+00 0. -1.
         21    1    1    2  504  503  0.36462148044E+02 -0.74289797946E+01  0.22636271551E+03  0.22940086520E+03  0.00000000000E+00 0.  1.
         21    1    1    2  505  502  0.77466887949E+02 -0.35926100521E+02  0.65651027755E+02  0.10771193468E+03  0.00000000000E+00 0.  1.
          2    1    1    2  501    0 -0.81670159469E+02  0.14631511793E+03  0.81564147830E+03  0.83267589721E+03  0.00000000000E+00 0. -1.
<scales pt_clust_3="125.32891" pt_clust_4="37.21126" pt_clust_5="87.83056" pt_clust_6="14000.00000"></scales>
<clustering>
<clus scale="   37.211">  1  4  2 -1</clus>
<clus scale="   87.831">  2  5  1 -1</clus>
<clus scale="  125.329">  2  3  1 -1</clus>
<clus scale="   87.831">  2  3  1 -1</clus>
</clustering>
</event>
<event>
 6    0  0.3695460E+002  0.2955931E+03  0.7546771E-02  0.1087465E+00
         21   -1    0    0  505  502  0.00000000000E+00  0.00000000000E+00  0.63821484416E+03  0.63821484416E+03  0.00000000000E+00 0.  1.
          2   -1    0    0  503    0 -0.00000000000E+00 -0.00000000000E+00 -0.40764536280E+03  0.40764536280E+03  0.00000000000E+00 0.  1.
         21    1    1    2  503  502  0.19781912892E+02  0.44541653061E+02 -0.94855417466E+01  0.49651368937E+02  0.00000000000E+00 0. -1.
         21    1    1    2  504  501 -0.45129598163E+02  0.27171821219E+00  0.38289404011E+02  0.59184735538E+02  0.00000000000E+00 0.  1.
         21    1    1    2  505  504 -0.23772726121E+03  0.49921669879E+02  0.48287536239E+03  0.54053218169E+03  0.00000000000E+00 0.  1.
          2    1    1    2  501    0  0.26307494648E+03 -0.94735041153E+02 -0.28110974328E+03  0.39649192079E+03  0.00000000000E+00 0.  1.
<scales pt_clust_3="48.73687" pt_clust_4="32.02512" pt_clust_5="32.02512" pt_clust_6="286.10307"></scales>
<clustering>
<clus scale="   32.025">  4  5 -1 -1</clus>
<clus scale="   48.737">  2  3  1 -1</clus>
<clus scale="  286.103">  2  6  1 -1</clus>
<clus scale="  295.593">  1  3  2 -1</clus>
</clustering>
</event>
<event>
 6    0  0.3695460E+002  0.1717739E+03  0.7546771E-02  0.1176010E+00
         21   -1    0    0  504  502  0.00000000000E+00  0.00000000000E+00  0.53668029042E+02  0.53668029042E+02  0.00000000000E+00 0.  1.
          2   -1    0    0  505    0 -0.00000000000E+00 -0.00000000000E+00 -0.28880853496E+04  0.28880853496E+04  0.00000000000E+00 0.  1.
         21    1    1    2  503  502  0.67702928898E+02 -0.16161879763E+03 -0.29678684289E+03  0.34465454073E+03  0.00000000000E+00 0.  1.
         21    1    1    2  504  501  0.16019350380E+02  0.17774441493E+03 -0.25197418311E+03  0.30877287054E+03  0.00000000000E+00 0.  1.
         21    1    1    2  505  503 -0.35231224510E+02 -0.62955808377E+01 -0.31141657007E+03  0.31346635168E+03  0.00000000000E+00 0.  1.
          2    1    1    2  501    0 -0.48491054768E+02 -0.98300364652E+01 -0.19742397245E+04  0.19748596157E+04  0.00000000000E+00 0.  1.
<scales pt_clust_3="14000.00000" pt_clust_4="171.77390" pt_clust_5="35.78929" pt_clust_6="76.90957"></scales>
<clustering>
<clus scale="   35.789">  2  5  1 -1</clus>
<clus scale="   76.910">  2  6  1 -1</clus>
<clus scale="  171.774">  1  4  2 -1</clus>
<clus scale="  171.774">  1  3  2 -1</clus>
</clustering>
</event>
<event>
 6    0  0.3695460E+002  0.9696045E+02  0.7546771E-02  0.1286821E+00
         -2   -1    0    0    0  501 -0.00000000000E+00  0.00000000000E+00  0.43883902731E+03  0.43883902731E+03  0.00000000000E+00 0. -1.
         21   -1    0    0  505  502  0.00000000000E+00 -0.00000000000E+00 -0.48661553573E+03  0.48661553573E+03  0.00000000000E+00 0. -1.
         21    1    1    2  503  504  0.14337130248E+02  0.41291938928E+02 -0.16141855041E+02  0.46595461242E+02  0.00000000000E+00 0. -1.
         21    1    1    2  504  502  0.33483032664E+02 -0.72614724335E+01 -0.14086166877E+02  0.37044062353E+02  0.00000000000E+00 0.  1.
         21    1    1    2  505  501 -0.13229033385E+03 -0.80008272616E+02 -0.40977507456E+03  0.43796993943E+03  0.00000000000E+00 0. -1.
         -2    1    1    2    0  503  0.84470170942E+02  0.45977806122E+02  0.39222658805E+03  0.40384510002E+03  0.00000000000E+00 0. -1.
<scales pt_clust_3="44.05149" pt_clust_4="34.26138" pt_clust_5="14000.00000" pt_clust_6="96.96045"></scales>
<clustering>
<clus scale="   34.261">  2  4  1 -1</clus>
<clus scale="   44.051">  2  3  1 -1</clus>
<clus scale="   96.960">  1  6  2 -1</clus>
<clus scale="   34.261">  2  3  1 -1</clus>
</clustering>
</event>
<event>
 6    0  0.3695460E+002  0.1234170E+03  0.7546771E-02  0.1237564E+00
          2   -1    0    0  505    0 -0.00000000000E+00  0.00000000000E+00  0.17915778457E+04  0.17915778457E+04  0.00000000000E+00 0. -1.
         21   -1    0    0  504  502  0.00000000000E+00 -0.00000000000E+00 -0.38597461755E+02  0.38597461755E+02  0.00000000000E+00 0.  1.
         21    1    1    2  503  502 -0.19465187016E+01 -0.63272166499E+02  0.33692682535E+02  0.71710200425E+02  0.00000000000E+00 0.  1.
         21    1    1    2  504  501 -0.87399444159E+02 -0.42041617725E+02  0.13061249889E+03  0.16268308249E+03  0.00000000000E+00 0.  1.
         21    1    1    2  505  503  0.28373737987E+02  0.17280155789E+02  0.17983448281E+03  0.18287731953E+03  0.00000000000E+00 0. -1.
          2    1    1    2  501    0  0.60972224873E+02  0.88033628436E+02  0.14088407197E+04  0.14129047050E+04  0.00000000000E+00 0. -1.
<scales pt_clust_3="62.71486" pt_clust_4="14000.00000" pt_clust_5="33.22157" pt_clust_6="123.41698"></scales>
<clustering>
<clus scale="   33.222">  1  5  2 -1</clus>
<clus scale="   62.715">  2  3  1 -1</clus>
<clus scale="  123.417">  1  6  2 -1</clus>
<clus scale="   62.715">  2  3  1 -1</clus>
</clustering>
</event>
<event>
 6    0  0.3695460E+002  0.2017950E+03  0.7546771E-02  0.1148233E+00
          2   -1    0    0  502    0 -0.00000000000E+00  0.00000000000E+00  0.23548481851E+04  0.23548481851E+04  0.00000000000E+00 0. -1.
         21   -1    0    0  503  502  0.00000000000E+00 -0.00000000000E+00 -0.43804148975E+02  0.43804148975E+02  0.00000000000E+00 0. -1.
         21    1    1    2  503  505 -0.23327940895E+02 -0.20160319750E+02 -0.59446631419E+00  0.30838039967E+02  0.00000000000E+00 0. -1.
         21    1    1    2  504  501 -0.16031200051E+03 -0.12310619898E+02  0.46762110760E+03  0.49449063605E+03  0.00000000000E+00 0. -1.
         21    1    1    2  505  504 -0.34554124206E+02 -0.15432115678E+02  0.38307248730E+02  0.53847776177E+02  0.00000000000E+00 0. -1.
          2    1    1    2  501    0  0.21819406561E+03  0.47903055326E+02  0.18057101461E+04  0.18194758818E+04  0.00000000000E+00 0. -1.
<scales pt_clust_3="30.37271" pt_clust_4="14000.00000" pt_clust_5="75.82502" pt_clust_6="201.79497"></scales>
<clustering>
<clus scale="   30.373">  3  5 -1 -1</clus>
<clus scale="   75.825">  2  3  1 -1</clus>
<clus scale="  201.795">  1  6  2 -1</clus>
<clus scale="   75.825">  2  3  1 -1</clus>
</clustering>
</event>
<event>
 6    0  0.3695460E+002  0.7225651E+02  0.7546771E-02  0.1352584E+00
          2   -1    0    0  505    0 -0.00000000000E+00  0.00000000000E+00  0.13587250279E+04  0.13587250279E+04  0.00000000000E+00 0. -1.
         21   -1    0    0  504  502  0.00000000000E+00 -0.00000000000E+00 -0.47450023560E+02  0.47450023560E+02  0.00000000000E+00 0. -1.
         21    1    1    2  503  502  0.54856443500E+02 -0.56711212071E+01  0.23675052964E+02  0.60015824097E+02  0.00000000000E+00 0. -1.
         21    1    1    2  504  501 -0.10475339637E+03 -0.49596573182E+02  0.10049643934E+03  0.15340348249E+03  0.00000000000E+00 0. -1.
         21    1    1    2  505  503 -0.81583429288E+01  0.55831682206E+02  0.68083403448E+03  0.68316814753E+03  0.00000000000E+00 0. -1.
          2    1    1    2  501    0  0.58055295794E+02 -0.56398781724E+00  0.50626947756E+03  0.50958759734E+03  0.00000000000E+00 0. -1.
<scales pt_clust_3="55.14881" pt_clust_4="14000.00000" pt_clust_5="55.92539" pt_clust_6="72.25651"></scales>
<clustering>
<clus scale="   55.149">  2  3  1 -1</clus>
<clus scale="   55.925">  1  5  2 -1</clus>
<clus scale="   72.257">  1  6  2 -1</clus>
<clus scale="   55.149">  2  3  1 -1</clus>
</clustering>
</event>
<event>
 6    0  0.3695460E+002  0.2135808E+03  0.7546771E-02  0.1138761E+00
          1   -1    0    0  504    0 -0.00000000000E+00  0.00000000000E+00  0.70931501907E+03  0.70931501907E+03  0.00000000000E+00 0. -1.
         21   -1    0    0  503  502  0.00000000000E+00 -0.00000000000E+00 -0.58264342302E+03  0.58264342302E+03  0.00000000000E+00 0.  1.
         21    1    1    2  503  501  0.19655321575E+03  0.82510616522E+02 -0.42237230706E+03  0.47311682936E+03  0.00000000000E+00 0.  1.
         21    1    1    2  504  505 -0.71222534587E+02  0.10632221474E+02  0.36645717171E+03  0.37346559716E+03  0.00000000000E+00 0.  1.
         21    1    1    2  505  502 -0.28516090352E+02  0.59522339693E+02 -0.94057604778E+02  0.11490391355E+03  0.00000000000E+00 0.  1.
          1    1    1    2  501    0 -0.96814590810E+02 -0.15266517769E+03  0.27664433617E+03  0.33047210201E+03  0.00000000000E+00 0. -1.
<scales pt_clust_3="14000.00000" pt_clust_4="72.28396" pt_clust_5="66.00058" pt_clust_6="213.58075"></scales>
<clustering>
<clus scale="   66.001">  2  5  1 -1</clus>
<clus scale="   72.284">  1  4  2 -1</clus>
<clus scale="  213.581">  1  6  2 -1</clus>
<clus scale="   66.001">  2  3  1 -1</clus>
</clustering>
</event>
<event>
 6    0  0.3695460E+002  0.1424575E+03  0.7546771E-02  0.1210060E+00
         21   -1    0    0  505  502  0.00000000000E+00  0.00000000000E+00  0.26062910505E+02  0.26062910505E+02  0.00000000000E+00 0.  1.
          2   -1    0    0  502    0 -0.00000000000E+00 -0.00000000000E+00 -0.28920954045E+04  0.28920954045E+04  0.00000000000E+00 0. -1.
         21    1    1    2  503  501 -0.64269743845E+02  0.40684075181E+02 -0.10648366292E+04  0.10675499243E+04  0.00000000000E+00 0. -1.
         21    1    1    2  504  503  0.77707719581E+02 -0.14053705508E+02 -0.91945328740E+02  0.12120206186E+03  0.00000000000E+00 0.  1.
         21    1    1    2  505  504  0.42816944405E+02 -0.43303010552E+02 -0.87559106226E+02  0.10665382569E+03  0.00000000000E+00 0.  1.
          2    1    1    2  501    0 -0.56254920141E+02  0.16672640879E+02 -0.16216914298E+04  0.16227525032E+04  0.00000000000E+00 0. -1.
<scales pt_clust_3="43.72146" pt_clust_4="140.34409" pt_clust_5="38.08073" pt_clust_6="43.72146"></scales>
<clustering>
<clus scale="   38.081">  4  5 -1 -1</clus>
<clus scale="   43.721">  3  6 -1 -1</clus>
<clus scale="  140.344">  1  4  2 -1</clus>
<clus scale="  140.344">  1  3  2 -1</clus>
</clustering>
</event>
<event>
 6    0  0.3695460E+002  0.8823318E+02  0.7546771E-02  0.1307188E+00
          1   -1    0    0  504    0 -0.00000000000E+00  0.00000000000E+00  0.25835777542E+03  0.25835777542E+03  0.00000000000E+00 0. -1.
         21   -1    0    0  503  502  0.00000000000E+00 -0.00000000000E+00 -0.53031473537E+03  0.53031473537E+03  0.00000000000E+00 0. -1.
         21    1    1    2  503  501  0.12192933042E+02 -0.11646231611E+03 -0.43864797141E+03  0.45400901039E+03  0.00000000000E+00 0. -1.
         21    1    1    2  504  505 -0.39997397186E+02  0.11370750524E+01  0.31667555705E+02  0.51028607718E+02  0.00000000000E+00 0. -1.
         21    1    1    2  505  502 -0.19610582028E+02  0.29913113997E+02 -0.57515630959E+02  0.67730474094E+02  0.00000000000E+00 0.  1.
          1    1    1    2  501    0  0.47415046172E+02  0.85412127065E+02  0.19253908672E+03  0.21590441859E+03  0.00000000000E+00 0. -1.
<scales pt_clust_3="14000.00000" pt_clust_4="40.44146" pt_clust_5="35.76827" pt_clust_6="88.23318"></scales>
<clustering>
<clus scale="   35.768">  2  5  1 -1</clus>
<clus scale="   40.441">  1  4  2 -1</clus>
<clus scale="   88.233">  1  6  2 -1</clus>
<clus scale="   35.768">  2  3  1 -1</clus>
</clustering>
</event>
<event>
 6    0  0.3695460E+002  0.9035025E+02  0.7546771E-02  0.1302006E+00
          2   -1    0    0  504    0 -0.00000000000E+00  0.00000000000E+00  0.22003042926E+03  0.22003042926E+03  0.00000000000E+00 0.  1.
         21   -1    0    0  505  502  0.00000000000E+00 -0.00000000000E+00 -0.44494491435E+03  0.44494491435E+03  0.00000000000E+00 0. -1.
         21    1    1    2  503  501  0.59039898117E+02 -0.56737254377E+02 -0.23070186226E+03  0.24480231791E+03  0.00000000000E+00 0. -1.
         21    1    1    2  504  502  0.12934942908E+02  0.36603535537E+02  0.12172352010E+03  0.12776441957E+03  0.00000000000E+00 0.  1.
         21    1    1    2  505  503 -0.65192964642E+02 -0.44667590844E+02 -0.18273763997E+03  0.19909385066E+03  0.00000000000E+00 0. -1.
          2    1    1    2  501    0 -0.67818763829E+01  0.64801309684E+02  0.66801497033E+02  0.93314755478E+02  0.00000000000E+00 0.  1.
<scales pt_clust_3="90.35025" pt_clust_4="38.82179" pt_clust_5="76.36110" pt_clust_6="14000.00000"></scales>
<clustering>
<clus scale="   38.822">  1  4  2 -1</clus>
<clus scale="   76.361">  2  5  1 -1</clus>
<clus scale="   90.350">  2  3  1 -1</clus>
<clus scale="   76.361">  2  3  1 -1</clus>
</clustering>
</event>
<event>
 6    0  0.3695460E+002  0.6599131E+02  0.7546771E-02  0.1374281E+00
         21   -1    0    0  504  502  0.00000000000E+00  0.00000000000E+00  0.33529755877E+03  0.33529755877E+03  0.00000000000E+00 0.  1.
         -3   -1    0    0    0  501 -0.00000000000E+00 -0.00000000000E+00 -0.10103464517E+04  0.10103464517E+04  0.00000000000E+00 0. -1.
         21    1    1    2  503  502  0.31246949409E+02 -0.25230930708E+02  0.43888102786E+02  0.59490648659E+02  0.00000000000E+00 0. -1.
         21    1    1    2  504  501 -0.26438262322E+02 -0.29072261450E+02  0.24511817977E+03  0.24824806174E+03  0.00000000000E+00 0.  1.
         21    1    1    2  505  503  0.40068310467E+02  0.10113946783E+03 -0.46911913265E+02  0.11847104736E+03  0.00000000000E+00 0. -1.
         -3    1    1    2    0  505 -0.44876997554E+02 -0.46836275671E+02 -0.91714326221E+03  0.91943425271E+03  0.00000000000E+00 0. -1.
<scales pt_clust_3="45.05941" pt_clust_4="39.29603" pt_clust_5="65.99131" pt_clust_6="14000.00000"></scales>
<clustering>
<clus scale="   39.296">  1  4  2 -1</clus>
<clus scale="   45.059">  1  3  2 -1</clus>
<clus scale="   65.991">  1  5  2 -1</clus>
<clus scale="   39.296">  1  3  2 -1</clus>
</clustering>
</event>
<event>
 6    0  0.3695460E+002  0.1972049E+03  0.7546771E-02  0.1152119E+00
         21   -1    0    0  505  502  0.00000000000E+00  0.00000000000E+00  0.38858951254E+03  0.38858951254E+03  0.00000000000E+00 0.  1.
          2   -1    0    0  504    0 -0.00000000000E+00 -0.00000000000E+00 -0.14874332236E+04  0.14874332236E+04  0.00000000000E+00 0.  1.
         21    1    1    2  503  502  0.61254708954E+02  0.15034959080E+03 -0.87392583590E+02  0.18437625251E+03  0.00000000000E+00 0. -1.
         21    1    1    2  504  503  0.48178489443E+02 -0.26393681784E+02 -0.15998268445E+03  0.16915156697E+03  0.00000000000E+00 0. -1.
         21    1    1    2  505  501 -0.10187814831E+03 -0.17855391200E+03  0.30330452639E+03  0.36640727657E+03  0.00000000000E+00 0.  1.
          2    1    1    2  501    0 -0.75550500871E+01  0.54598002986E+02 -0.11547729695E+04  0.11560876401E+04  0.00000000000E+00 0.  1.
<scales pt_clust_3="14000.00000" pt_clust_4="54.93445" pt_clust_5="197.20495" pt_clust_6="46.76637"></scales>
<clustering>
<clus scale="   54.934">  2  4  1 -1</clus>
<clus scale="   46.766">  2  6  1 -1</clus>
<clus scale="  197.205">  1  5  2 -1</clus>
<clus scale="  197.205">  1  3  2 -1</clus>
</clustering>
</event>
<event>
 6    0  0.3695460E+002  0.1144488E+03  0.7546771E-02  0.1252546E+00
          2   -1    0    0  504    0 -0.00000000000E+00  0.00000000000E+00  0.14052530919E+04  0.14052530919E+04  0.00000000000E+00 0.  1.
         21   -1    0    0  505  502  0.00000000000E+00 -0.00000000000E+00 -0.54777977932E+02  0.54777977932E+02  0.00000000000E+00 0. -1.
         21    1    1    2  503  502  0.11813364550E+02  0.83648307406E+02  0.48528281811E+02  0.97424786628E+02  0.00000000000E+00 0. -1.
         21    1    1    2  504  503 -0.66216916583E+02  0.50454384577E+02  0.55406478165E+02  0.10000101393E+03  0.00000000000E+00 0. -1.
         21    1    1    2  505  501 -0.14767846363E+02 -0.37104438826E+02  0.74526998905E+02  0.84552363849E+02  0.00000000000E+00 0. -1.
          2    1    1    2  501    0  0.69171398395E+02 -0.96998253157E+02  0.11720133550E+04  0.11780529054E+04  0.00000000000E+00 0.  1.
<scales pt_clust_3="65.57858" pt_clust_4="114.44881" pt_clust_5="39.93531" pt_clust_6="14000.00000"></scales>
<clustering>
<clus scale="   39.935">  2  5  1 -1</clus>
<clus scale="   65.579">  2  3  1 -1</clus>
<clus scale="  114.449">  2  4  1 -1</clus>
<clus scale="   39.935">  2  3  1 -1</clus>
</clustering>
</event>
<event>
 6    0  0.3695460E+002  0.7379089E+02  0.7546771E-02  0.1347657E+00
          1   -1    0    0  504    0 -0.00000000000E+00  0.00000000000E+00  0.11975560027E+04  0.11975560027E+04  0.00000000000E+00 0. -1.
         21   -1    0    0  503  502  0.00000000000E+00 -0.00000000000E+00 -0.60658847066E+03  0.60658847066E+03  0.00000000000E+00 0.  1.
         21    1    1    2  503  501 -0.58767496571E+02 -0.15693875580E+02 -0.13266651518E+03  0.14594629366E+03  0.00000000000E+00 0.  1.
         21    1    1    2  504  505  0.63648111593E+02 -0.20114062046E+02  0.89704919523E+02  0.11181516082E+03  0.00000000000E+00 0.  1.
         21    1    1    2  505  502  0.65320776256E+02  0.66106103985E+02 -0.45013364596E+03  0.45962715327E+03  0.00000000000E+00 0.  1.
          1    1    1    2  501    0 -0.70201391278E+02 -0.30298166359E+02  0.10840627736E+04  0.10867558656E+04  0.00000000000E+00 0. -1.
<scales pt_clust_3="60.82694" pt_clust_4="14000.00000" pt_clust_5="51.47214" pt_clust_6="73.79089"></scales>
<clustering>
<clus scale="   60.827">  2  3  1 -1</clus>
<clus scale="   51.472">  2  5  1 -1</clus>
<clus scale="   73.791">  1  6  2 -1</clus>
<clus scale="   60.827">  2  3  1 -1</clus>
</clustering>
</event>
<event>
 6    0  0.3695460E+002  0.1381927E+03  0.7546771E-02  0.1215782E+00
         -1   -1    0    0    0  501 -0.00000000000E+00  0.00000000000E+00  0.14607802699E+03  0.14607802699E+03  0.00000000000E+00 0.  1.
         21   -1    0    0  505  502  0.00000000000E+00 -0.00000000000E+00 -0.13323960843E+04  0.13323960843E+04  0.00000000000E+00 0.  1.
         21    1    1    2  503  504 -0.89759626594E+01  0.60876499621E+02  0.56085671272E+02  0.83259345625E+02  0.00000000000E+00 0.  1.
         21    1    1    2  504  502  0.14393690974E+03 -0.93936016508E+02 -0.11255156124E+04  0.11385636579E+04  0.00000000000E+00 0.  1.
         21    1    1    2  505  501 -0.67511187982E+02  0.24414686352E+01 -0.15806895645E+03  0.17189972736E+03  0.00000000000E+00 0.  1.
         -1    1    1    2    0  503 -0.67449759095E+02  0.30618048252E+02  0.41180840292E+02  0.84751380448E+02  0.00000000000E+00 0.  1.
<scales pt_clust_3="61.51156" pt_clust_4="120.59244" pt_clust_5="67.55532" pt_clust_6="61.51156"></scales>
<clustering>
<clus scale="   61.512">  3  6 -1 -1</clus>
<clus scale="   67.555">  2  5  1 -1</clus>
<clus scale="  120.592">  2  4  1 -1</clus>
<clus scale="   67.555">  2  3  1 -1</clus>
</clustering>
</event>
<event>
 6    0  0.3695460E+002  0.6164758E+02  0.7546771E-02  0.1391045E+00
          3   -1    0    0  505    0 -0.00000000000E+00  0.00000000000E+00  0.52179050662E+02  0.52179050662E+02  0.00000000000E+00 0. -1.
         21   -1    0    0  503  502  0.00000000000E+00 -0.00000000000E+00 -0.90756679641E+03  0.90756679641E+03  0.00000000000E+00 0. -1.
         21    1    1    2  503  504 -0.44190600151E+02  0.36510232892E+02 -0.27752013522E+03  0.28337824846E+03  0.00000000000E+00 0. -1.
         21    1    1    2  504  501  0.84984333086E+02 -0.65113497156E+01 -0.47729052503E+03  0.48484119031E+03  0.00000000000E+00 0. -1.
         21    1    1    2  505  502  0.55272703694E+02  0.74763767804E+01 -0.56471986205E+02  0.79372874518E+02  0.00000000000E+00 0. -1.
          3    1    1    2  501    0 -0.96066436629E+02 -0.37475259957E+02 -0.44105099296E+02  0.11215353378E+03  0.00000000000E+00 0. -1.
<scales pt_clust_3="54.67944" pt_clust_4="14000.00000" pt_clust_5="55.77605" pt_clust_6="61.64758"></scales>
<clustering>
<clus scale="   55.776">  1  5  2 -1</clus>
<clus scale="   54.679">  2  3  1 -1</clus>
<clus scale="   61.648">  1  6  2 -1</clus>
<clus scale="   54.679">  2  3  1 -1</clus>
</clustering>
</event>
<event>
 6    0  0.3695460E+002  0.1461957E+03  0.7546771E-02  0.1205227E+00
         21   -1    0    0  503  502  0.00000000000E+00  0.00000000000E+00  0.16213822945E+03  0.16213822945E+03  0.00000000000E+00 0.  1.
          4   -1    0    0  502    0 -0.00000000000E+00 -0.00000000000E+00 -0.30208683935E+03  0.30208683935E+03  0.00000000000E+00 0.  1.
         21    1    1    2  503  504 -0.42437789500E+02  0.65461503387E+02  0.53893154587E+02  0.94819019794E+02  0.00000000000E+00 0.  1.
         21    1    1    2  504  505 -0.56112129274E+02  0.30252135847E+02  0.52744533902E+02  0.82739039344E+02  0.00000000000E+00 0.  1.
         21    1    1    2  505  501  0.46752351171E+02 -0.13013268096E+02 -0.86512204348E+02  0.99194198357E+02  0.00000000000E+00 0.  1.
          4    1    1    2  501    0  0.51797567604E+02 -0.82700371138E+02 -0.16007409404E+03  0.18747281130E+03  0.00000000000E+00 0.  1.
<scales pt_clust_3="141.96925" pt_clust_4="32.36709" pt_clust_5="35.26033" pt_clust_6="35.26033"></scales>
<clustering>
<clus scale="   32.367">  3  4 -1 -1</clus>
<clus scale="   35.260">  5  6 -1 -1</clus>
<clus scale="  141.969">  1  3  2 -1</clus>
<clus scale="  141.969">  1  3  2 -1</clus>
</clustering>
</event>
<event>
 6    0  0.3695460E+002  0.8398946E+02  0.7546771E-02  0.1318097E+00
         21   -1    0    0  503  502  0.00000000000E+00  0.00000000000E+00  0.55639104315E+03  0.55639104315E+03  0.00000000000E+00 0.  1.
         -1   -1    0    0    0  501 -0.00000000000E+00 -0.00000000000E+00 -0.66184789927E+02  0.66184789927E+02  0.00000000000E+00 0.  1.
         21    1    1    2  503  501  0.10343728434E+02 -0.10526990793E+03  0.10793670787E+03  0.15112603726E+03  0.00000000000E+00 0.  1.
         21    1    1    2  504  502  0.46870790045E+02  0.57665955510E+02  0.38240579615E+03  0.38955927189E+03  0.00000000000E+00 0.  1.
         21    1    1    2  505  504 -0.32214366970E+02  0.16915470773E+02  0.15210641538E+02  0.39436812837E+02  0.00000000000E+00 0. -1.
         -1    1    1    2    0  505 -0.25000151510E+02  0.30688481646E+02 -0.15346892331E+02  0.42453711092E+02  0.00000000000E+00 0.  1.
<scales pt_clust_3="76.73218" pt_clust_4="74.31173" pt_clust_5="32.74425" pt_clust_6="32.74425"></scales>
<clustering>
<clus scale="   32.744">  5  6 -1 -1</clus>
<clus scale="   74.312">  1  4  2 -1</clus>
<clus scale="   76.732">  1  3  2 -1</clus>
<clus scale="   74.312">  1  3  2 -1</clus>
</clustering>
</event>
<event>
 6    0  0.3695460E+002  0.9857820E+02  0.7546771E-02  0.1283315E+00
         21   -1    0    0  503  502  0.00000000000E+00  0.00000000000E+00  0.49712634315E+03  0.49712634315E+03  0.00000000000E+00 0.  1.
          4   -1    0    0  502    0 -0.00000000000E+00 -0.00000000000E+00 -0.45936841537E+03  0.45936841537E+03  0.00000000000E+00 0.  1.
         21    1    1    2  503  504 -0.44833170289E+02  0.19996941338E+02  0.34810118613E+03  0.35154562522E+03  0.00000000000E+00 0.  1.
         21    1    1    2  504  505 -0.42081837212E+02  0.34726765413E+02  0.12597850022E+03  0.13728587610E+03  0.00000000000E+00 0. -1.
         21    1    1    2  505  501  0.75265626198E+02 -0.97785654557E+02 -0.33271132090E+03  0.35485739640E+03  0.00000000000E+00 0.  1.
          4    1    1    2  501    0  0.11649381303E+02  0.43061947806E+02 -0.10361043768E+03  0.11280586079E+03  0.00000000000E+00 0.  1.
<scales pt_clust_3="49.12496" pt_clust_4="98.57820" pt_clust_5="14000.00000" pt_clust_6="44.60986"></scales>
<clustering>
<clus scale="   44.610">  2  6  1 -1</clus>
<clus scale="   49.125">  1  3  2 -1</clus>
<clus scale="   98.578">  1  4  2 -1</clus>
<clus scale="   49.125">  1  3  2 -1</clus>
</clustering>
</event>
<event>
 6    0  0.3695460E+002  0.5948052E+03  0.7546771E-02  0.9916243E-01
         21   -1    0    0  503  502  0.00000000000E+00  0.00000000000E+00  0.83511832732E+03  0.83511832732E+03  0.00000000000E+00 0. -1.
          1   -1    0    0  504    0 -0.00000000000E+00 -0.00000000000E+00 -0.56333206613E+03  0.56333206613E+03  0.00000000000E+00 0.  1.
         21    1    1    2  503  501  0.36039451728E+03  0.70767427242E+02 -0.10175487687E+03  0.38111191507E+03  0.00000000000E+00 0.  1.
         21    1    1    2  504  505 -0.50960976957E+03 -0.12355270180E+03  0.42075333963E+03  0.67231001790E+03  0.00000000000E+00 0. -1.
         21    1    1    2  505  502 -0.68825541917E+02  0.13287293836E+02  0.65925564415E+02  0.96227269738E+02  0.00000000000E+00 0. -1.
          1    1    1    2  501    0  0.21804079421E+03  0.39497980721E+02 -0.11313776599E+03  0.24880119074E+03  0.00000000000E+00 0.  1.
<scales pt_clust_3="48.29450" pt_clust_4="30.69306" pt_clust_5="30.69306" pt_clust_6="592.12471"></scales>
<clustering>
<clus scale="   30.693">  4  5 -1 -1</clus>
<clus scale="   48.294">  3  6 -1 -1</clus>
<clus scale="  592.125">  2  3  1 -1</clus>
<clus scale="  594.805">  1  3  2 -1</clus>
</clustering>
</event>
<event>
 6    0  0.3695460E+002  0.9420353E+02  0.7546771E-02  0.1292980E+00
          2   -1    0    0  502    0 -0.00000000000E+00  0.00000000000E+00  0.16442072795E+04  0.16442072795E+04  0.00000000000E+00 0. -1.
         21   -1    0    0  505  502  0.00000000000E+00 -0.00000000000E+00 -0.16686852379E+03  0.16686852379E+03  0.00000000000E+00 0. -1.
         21    1    1    2  503  504  0.43017654390E+02  0.43082233206E+02 -0.11061566578E+03  0.12626330790E+03  0.00000000000E+00 0. -1.
         21    1    1    2  504  501 -0.10023876557E+03 -0.93215345300E+01  0.48324919323E+03  0.49362382832E+03  0.00000000000E+00 0. -1.
         21    1    1    2  505  503 -0.26287181758E+02  0.15950107641E+02 -0.35434155875E+02  0.46914829863E+02  0.00000000000E+00 0. -1.
          2    1    1    2  501    0  0.83508292942E+02 -0.49710806317E+02  0.11401393841E+04  0.11442738372E+04  0.00000000000E+00 0. -1.
<scales pt_clust_3="60.90940" pt_clust_4="94.20353" pt_clust_5="30.74771" pt_clust_6="14000.00000"></scales>
<clustering>
<clus scale="   30.748">  2  5  1 -1</clus>
<clus scale="   60.909">  2  3  1 -1</clus>
<clus scale="   94.204">  2  4  1 -1</clus>
<clus scale="   30.748">  2  3  1 -1</clus>
</clustering>
</event>
<event>
 6    0  0.3695460E+002  0.1198946E+03  0.7546771E-02  0.1243271E+00
          1   -1    0    0  503    0 -0.00000000000E+00  0.00000000000E+00  0.30667210041E+03  0.30667210041E+03  0.00000000000E+00 0. -1.
         21   -1    0    0  504  502  0.00000000000E+00 -0.00000000000E+00 -0.27243083185E+03  0.27243083185E+03  0.00000000000E+00 0. -1.
         21    1    1    2  503  502  0.16063893993E+02 -0.25535693836E+02  0.21355729987E+02  0.36961974422E+02  0.00000000000E+00 0. -1.
         21    1    1    2  504  505  0.51231835205E+01 -0.72505949377E+02 -0.11632025462E+03  0.13716326527E+03  0.00000000000E+00 0. -1.
         21    1    1    2  505  501 -0.63810354129E+02 -0.42458161568E+02 -0.10412751907E+03  0.12929422650E+03  0.00000000000E+00 0. -1.
          1    1    1    2  501    0  0.42623276615E+02  0.14049980478E+03  0.23333331227E+03  0.27568346607E+03  0.00000000000E+00 0. -1.
<scales pt_clust_3="30.16820" pt_clust_4="73.68774" pt_clust_5="119.89457" pt_clust_6="14000.00000"></scales>
<clustering>
<clus scale="   30.168">  1  3  2 -1</clus>
<clus scale="   73.688">  2  4  1 -1</clus>
<clus scale="  119.895">  2  5  1 -1</clus>
<clus scale="   73.688">  2  3  1 -1</clus>
</clustering>
</event>
<event>
 6    0  0.3695460E+002  0.9003791E+02  0.7546771E-02  0.1302760E+00
         21   -1    0    0  501  502  0.00000000000E+00  0.00000000000E+00  0.16207866292E+03  0.16207866292E+03  0.00000000000E+00 0. -1.
          1   -1    0    0  503    0 -0.00000000000E+00 -0.00000000000E+00 -0.10610344372E+04  0.10610344372E+04  0.00000000000E+00 0.  1.
         21    1    1    2  503  504 -0.20627735454E+02  0.25329242510E+02 -0.38129768381E+02  0.50209095122E+02  0.00000000000E+00 0.  1.
         21    1    1    2  504  505 -0.10734940486E+02  0.99163627060E+02 -0.70549179841E+03  0.71250778347E+03  0.00000000000E+00 0.  1.
         21    1    1    2  505  502  0.13982917268E+02 -0.88762679946E+02  0.13783969147E+03  0.16454214011E+03  0.00000000000E+00 0. -1.
          1    1    1    2  501    0  0.17379758673E+02 -0.35730189624E+02 -0.29317389899E+03  0.29585408145E+03  0.00000000000E+00 0.  1.
<scales pt_clust_3="32.66610" pt_clust_4="14000.00000" pt_clust_5="90.03791" pt_clust_6="30.59913"></scales>
<clustering>
<clus scale="   32.666">  2  3  1 -1</clus>
<clus scale="   30.599">  2  6  1 -1</clus>
<clus scale="   90.038">  1  5  2 -1</clus>
<clus scale="   90.038">  1  3  2 -1</clus>
</clustering>
</event>
<event>
 6    0  0.3695460E+002  0.1450080E+03  0.7546771E-02  0.1206745E+00
          1   -1    0    0  503    0 -0.00000000000E+00  0.00000000000E+00  0.62106851411E+03  0.62106851411E+03  0.00000000000E+00 0. -1.
         21   -1    0    0  505  502  0.00000000000E+00 -0.00000000000E+00 -0.56698122693E+03  0.56698122693E+03  0.00000000000E+00 0. -1.
         21    1    1    2  503  504  0.39714541863E+02 -0.66637259316E+02  0.19979924702E+03  0.21433037180E+03  0.00000000000E+00 0. -1.
         21    1    1    2  504  502  0.92124727999E+02  0.39455996471E+02 -0.43655704981E+02  0.10931405099E+03  0.00000000000E+00 0. -1.
         21    1    1    2  505  501 -0.15832900673E+03 -0.15771201973E+03 -0.43136394683E+03  0.48581478999E+03  0.00000000000E+00 0. -1.
          1    1    1    2  501    0  0.26489736869E+02  0.18489328258E+03  0.32930769197E+03  0.37859052827E+03  0.00000000000E+00 0. -1.
<scales pt_clust_3="77.57428" pt_clust_4="101.21682" pt_clust_5="145.00798" pt_clust_6="14000.00000"></scales>
<clustering>
<clus scale="   77.574">  1  3  2 -1</clus>
<clus scale="  101.217">  2  4  1 -1</clus>
<clus scale="  145.008">  2  5  1 -1</clus>
<clus scale="  101.217">  2  3  1 -1</clus>
</clustering>
</event>
<event>
 6    0  0.3695460E+002  0.1232316E+03  0.7546771E-02  0.1237859E+00
         21   -1    0    0  503  502  0.00000000000E+00  0.00000000000E+00  0.21953541497E+03  0.21953541497E+03  0.00000000000E+00 0. -1.
          2   -1    0    0  505    0 -0.00000000000E+00 -0.00000000000E+00 -0.10530893619E+04  0.10530893619E+04  0.00000000000E+00 0. -1.
         21    1    1    2  503  501 -0.14469823931E+03  0.13315978084E+02  0.15772094586E+03  0.21445463972E+03  0.00000000000E+00 0. -1.
         21    1    1    2  504  502  0.81261046231E+02 -0.65449114880E+01 -0.22589434723E+02  0.84595957717E+02  0.00000000000E+00 0.  1.
         21    1    1    2  505  504  0.12636700091E+02  0.31383865922E+02 -0.35529963159E+03  0.35690679657E+03  0.00000000000E+00 0. -1.
          2    1    1    2  501    0  0.50800492992E+02 -0.38154932518E+02 -0.61338582646E+03  0.61666738284E+03  0.00000000000E+00 0. -1.
<scales pt_clust_3="123.23159" pt_clust_4="14000.00000" pt_clust_5="33.83243" pt_clust_6="62.82832"></scales>
<clustering>
<clus scale="   33.832">  2  5  1 -1</clus>
<clus scale="   62.828">  2  6  1 -1</clus>
<clus scale="  123.232">  1  3  2 -1</clus>
<clus scale="  123.232">  1  3  2 -1</clus>
</clustering>
</event>
<event>
 6    0  0.3695460E+002  0.1854034E+03  0.7546771E-02  0.1162674E+00
          1   -1    0    0  505    0 -0.00000000000E+00  0.00000000000E+00  0.35334879220E+03  0.35334879220E+03  0.00000000000E+00 0. -1.
         21   -1    0    0  501  502  0.00000000000E+00 -0.00000000000E+00 -0.13764813876E+04  0.13764813876E+04  0.00000000000E+00 0.  1.
         21    1    1    2  503  502  0.49358750186E+02  0.12952180408E+03 -0.11378223307E+04  0.11462337634E+04  0.00000000000E+00 0.  1.
         21    1    1    2  504  503  0.37347322905E+02  0.20489103740E+02 -0.20090854661E+03  0.20537494979E+03  0.00000000000E+00 0.  1.
         21    1    1    2  505  504 -0.56598176380E+02 -0.19843493934E+01  0.10090580176E+03  0.11571202203E+03  0.00000000000E+00 0.  1.
          1    1    1    2  501    0 -0.30107896710E+02 -0.14802655842E+03  0.21469248021E+03  0.26250944460E+03  0.00000000000E+00 0. -1.
<scales pt_clust_3="37.69959" pt_clust_4="37.69959" pt_clust_5="56.63295" pt_clust_6="172.48154"></scales>
<clustering>
<clus scale="   37.700">  3  4 -1 -1</clus>
<clus scale="   56.633">  1  5  2 -1</clus>
<clus scale="  172.482">  1  6  2 -1</clus>
<clus scale="  185.403">  2  3  1 -1</clus>
</clustering>
</event>
<event>
 6    0  0.3695460E+002  0.1179310E+03  0.7546771E-02  0.1246550E+00
          1   -1    0    0  503    0 -0.00000000000E+00  0.00000000000E+00  0.60790994396E+03  0.60790994396E+03  0.00000000000E+00 0.  1.
         21   -1    0    0  505  502  0.00000000000E+00 -0.00000000000E+00 -0.86970803595E+03  0.86970803595E+03  0.00000000000E+00 0.  1.
         21    1    1    2  503  502  0.42164081850E+02 -0.21577376669E+02  0.23200433973E+02  0.52741379568E+02  0.00000000000E+00 0. -1.
         21    1    1    2  504  501 -0.41869417657E+02 -0.56344357921E+02 -0.37747365859E+03  0.38394543589E+03  0.00000000000E+00 0.  1.
         21    1    1    2  505  504 -0.20060981595E+02 -0.34808316888E+02 -0.46757931983E+03  0.46930212256E+03  0.00000000000E+00 0.  1.
          1    1    1    2  501    0  0.19766317402E+02  0.11273005148E+03  0.56005445246E+03  0.57162904189E+03  0.00000000000E+00 0.  1.
<scales pt_clust_3="47.36447" pt_clust_4="31.85171" pt_clust_5="31.85171" pt_clust_6="110.15914"></scales>
<clustering>
<clus scale="   31.852">  4  5 -1 -1</clus>
<clus scale="   47.364">  1  3  2 -1</clus>
<clus scale="  110.159">  1  6  2 -1</clus>
<clus scale="  117.931">  2  3  1 -1</clus>
</clustering>
</event>
<event>
 6    0  0.3695460E+002  0.1479474E+03  0.7546771E-02  0.1203018E+00
          1   -1    0    0  505    0 -0.00000000000E+00  0.00000000000E+00  0.25589423918E+04  0.25589423918E+04  0.00000000000E+00 0. -1.
         21   -1    0    0  504  502  0.00000000000E+00 -0.00000000000E+00 -0.11147365556E+02  0.11147365556E+02  0.00000000000E+00 0. -1.
         21    1    1    2  503  502 -0.76537891772E+02 -0.43651213755E+02  0.33067422352E+03  0.34221180494E+03  0.00000000000E+00 0. -1.
         21    1    1    2  504  501  0.42615551636E+02  0.17303455673E+02  0.62361676022E+03  0.62531060958E+03  0.00000000000E+00 0.  1.
         21    1    1    2  505  503 -0.11482118924E+02 -0.57006360724E+02  0.29990901590E+03  0.30549465140E+03  0.00000000000E+00 0. -1.
          1    1    1    2  501    0  0.45404459060E+02  0.83354118805E+02  0.12935950266E+04  0.12970726915E+04  0.00000000000E+00 0. -1.
<scales pt_clust_3="51.43767" pt_clust_4="30.95188" pt_clust_5="51.43767" pt_clust_6="140.91317"></scales>
<clustering>
<clus scale="   30.952">  4  6 -1 -1</clus>
<clus scale="   51.438">  3  5 -1 -1</clus>
<clus scale="  140.913">  1  4  2 -1</clus>
<clus scale="  147.947">  2  3  1 -1</clus>
</clustering>
</event>
<event>
 6    0  0.3695460E+002  0.9326771E+02  0.7546771E-02  0.1295126E+00
         21   -1    0    0  505  502  0.00000000000E+00  0.00000000000E+00  0.13719269033E+02  0.13719269033E+02  0.00000000000E+00 0.  1.
          2   -1    0    0  503    0 -0.00000000000E+00 -0.00000000000E+00 -0.27659853259E+04  0.27659853259E+04  0.00000000000E+00 0.  1.
         21    1    1    2  503  504 -0.11831873188E+02 -0.97296615245E+02 -0.13392112805E+04  0.13427931629E+04  0.00000000000E+00 0.  1.
         21    1    1    2  504  502  0.19769878926E+02  0.24128927532E+02 -0.20320520206E+02  0.37228709325E+02  0.00000000000E+00 0.  1.
         21    1    1    2  505  501  0.28021854708E+02 -0.14496449003E+02 -0.14686503266E+03  0.15021554245E+03  0.00000000000E+00 0.  1.
          2    1    1    2  501    0 -0.35959860446E+02  0.87664136716E+02 -0.12458692235E+04  0.12494671803E+04  0.00000000000E+00 0.  1.
<scales pt_clust_3="93.26771" pt_clust_4="31.19380" pt_clust_5="34.98323" pt_clust_6="14000.00000"></scales>
<clustering>
<clus scale="   31.194">  1  4  2 -1</clus>
<clus scale="   34.983">  1  5  2 -1</clus>
<clus scale="   93.268">  2  3  1 -1</clus>
<clus scale="   31.194">  1  3  2 -1</clus>
</clustering>
</event>
<event>
 6    0  0.3695460E+002  0.1603107E+03  0.7546771E-02  0.1188346E+00
         21   -1    0    0  504  502  0.00000000000E+00  0.00000000000E+00  0.15167113604E+04  0.15167113604E+04  0.00000000000E+00 0. -1.
          2   -1    0    0  503    0 -0.00000000000E+00 -0.00000000000E+00 -0.10720743796E+04  0.10720743796E+04  0.00000000000E+00 0. -1.
         21    1    1    2  503  505  0.19089711486E+02 -0.55609852062E+02 -0.87387961513E+02  0.10532582090E+03  0.00000000000E+00 0.  1.
         21    1    1    2  504  501 -0.50838610958E+02 -0.10758706435E+03  0.18023680542E+03  0.21597418088E+03  0.00000000000E+00 0.  1.
         21    1    1    2  505  502 -0.88066970663E+02  0.18971132621E+03  0.12972956979E+04  0.13140480609E+04  0.00000000000E+00 0. -1.
          2    1    1    2  501    0  0.11981587014E+03 -0.26514409795E+02 -0.94550756100E+03  0.95343767734E+03  0.00000000000E+00 0. -1.
<scales pt_clust_3="58.79518" pt_clust_4="119.76764" pt_clust_5="160.31069" pt_clust_6="14000.00000"></scales>
<clustering>
<clus scale="   58.795">  2  3  1 -1</clus>
<clus scale="  119.768">  1  4  2 -1</clus>
<clus scale="  160.311">  1  5  2 -1</clus>
<clus scale="  119.768">  1  3  2 -1</clus>
</clustering>
</event>
<event>
 6    0  0.3695460E+002  0.1709414E+03  0.7546771E-02  0.1176870E+00
          2   -1    0    0  505    0 -0.00000000000E+00  0.00000000000E+00  0.42401946197E+03  0.42401946197E+03  0.00000000000E+00 0.  1.
         21   -1    0    0  503  502  0.00000000000E+00 -0.00000000000E+00 -0.32700474467E+03  0.32700474467E+03  0.00000000000E+00 0. -1.
         21    1    1    2  503  504  0.13346751355E+02  0.27880555201E+02 -0.30713726193E+02  0.43575154695E+02  0.00000000000E+00 0.  1.
         21    1    1    2  504  501  0.47963902484E+02 -0.10658441270E+03  0.21732512560E+03  0.24676098393E+03  0.00000000000E+00 0.  1.
         21    1    1    2  505  502 -0.10403943974E+03  0.10576383471E+03 -0.25098857253E+03  0.29155695377E+03  0.00000000000E+00 0. -1.
          2    1    1    2  501    0  0.42728785905E+02 -0.27059977210E+02  0.16139189042E+03  0.16913111424E+03  0.00000000000E+00 0.  1.
<scales pt_clust_3="30.91053" pt_clust_4="38.80817" pt_clust_5="160.52191" pt_clust_6="38.80817"></scales>
<clustering>
<clus scale="   30.911">  2  3  1 -1</clus>
<clus scale="   38.808">  4  6 -1 -1</clus>
<clus scale="  160.522">  2  5  1 -1</clus>
<clus scale="   30.911">  2  3  1 -1</clus>
</clustering>
</event>
<event>
 6    0  0.3695460E+002  0.8538015E+02  0.7546771E-02  0.1314441E+00
         21   -1    0    0  504  502  0.00000000000E+00  0.00000000000E+00  0.51260307378E+03  0.51260307378E+03  0.00000000000E+00 0.  1.
          3   -1    0    0  505    0 -0.00000000000E+00 -0.00000000000E+00 -0.25729614156E+03  0.25729614156E+03  0.00000000000E+00 0. -1.
         21    1    1    2  503  502  0.28794162542E+01 -0.31677046194E+02  0.75101204543E+02  0.81559286518E+02  0.00000000000E+00 0.  1.
         21    1    1    2  504  501 -0.66257787117E+02  0.26254023739E+02  0.39794248724E+03  0.40427415359E+03  0.00000000000E+00 0.  1.
         21    1    1    2  505  503  0.47993319181E+02 -0.80901431775E+02 -0.12498269942E+03  0.15642594255E+03  0.00000000000E+00 0. -1.
          3    1    1    2  501    0  0.15385051682E+02  0.86324454230E+02 -0.92754060144E+02  0.12763983268E+03  0.00000000000E+00 0. -1.
<scales pt_clust_3="31.80765" pt_clust_4="63.66917" pt_clust_5="85.38015" pt_clust_6="14000.00000"></scales>
<clustering>
<clus scale="   31.808">  1  3  2 -1</clus>
<clus scale="   63.669">  1  4  2 -1</clus>
<clus scale="   85.380">  2  5  1 -1</clus>
<clus scale="   31.808">  1  3  2 -1</clus>
</clustering>
</event>
<event>
 6    0  0.3695460E+002  0.1137810E+03  0.7546771E-02  0.1253724E+00
         -2   -1    0    0    0  501 -0.00000000000E+00  0.00000000000E+00  0.30398900718E+03  0.30398900718E+03  0.00000000000E+00 0.  1.
         21   -1    0    0  505  502  0.00000000000E+00 -0.00000000000E+00 -0.39865425280E+03  0.39865425280E+03  0.00000000000E+00 0. -1.
         21    1    1    2  503  501  0.50318026296E+02  0.29871091309E+01  0.14206135754E+02  0.52370228989E+02  0.00000000000E+00 0.  1.
         21    1    1    2  504  502 -0.49459850872E+02  0.60253819329E+02 -0.30711000264E+03  0.31684910181E+03  0.00000000000E+00 0. -1.
         21    1    1    2  505  503 -0.61209154561E+02 -0.93387208933E+01 -0.45348686486E+02  0.76748131417E+02  0.00000000000E+00 0. -1.
         -2    1    1    2    0  504  0.60350979137E+02 -0.53902207566E+02  0.24358730775E+03  0.25667579777E+03  0.00000000000E+00 0.  1.
<scales pt_clust_3="50.40661" pt_clust_4="113.78099" pt_clust_5="59.00706" pt_clust_6="14000.00000"></scales>
<clustering>
<clus scale="   50.407">  1  3  2 -1</clus>
<clus scale="   59.007">  2  5  1 -1</clus>
<clus scale="  113.781">  2  4  1 -1</clus>
<clus scale="   59.007">  2  3  1 -1</clus>
</clustering>
</event>
<event>
 6    0  0.3695460E+002  0.8521084E+02  0.7546771E-02  0.1314882E+00
          2   -1    0    0  505    0 -0.00000000000E+00  0.00000000000E+00  0.29784288419E+04  0.29784288419E+04  0.00000000000E+00 0.  1.
         21   -1    0    0  503  502  0.00000000000E+00 -0.00000000000E+00 -0.30273808257E+02  0.30273808257E+02  0.00000000000E+00 0.  1.
         21    1    1    2  503  504 -0.83396949909E-01  0.48022906924E+02  0.72339872788E+01  0.48564772381E+02  0.00000000000E+00 0.  1.
         21    1    1    2  504  501  0.17973147857E+02 -0.47868444307E+02  0.48376214991E+03  0.48645682202E+03  0.00000000000E+00 0.  1.
         21    1    1    2  505  502  0.60866213620E+02  0.36400884671E+02  0.16156070495E+03  0.17644144000E+03  0.00000000000E+00 0.  1.
          2    1    1    2  501    0 -0.78755964527E+02 -0.36555347289E+02  0.22955981915E+04  0.22972396157E+04  0.00000000000E+00 0.  1.
<scales pt_clust_3="48.02298" pt_clust_4="44.88493" pt_clust_5="14000.00000" pt_clust_6="85.21084"></scales>
<clustering>
<clus scale="   48.023">  2  3  1 -1</clus>
<clus scale="   44.885">  2  4  1 -1</clus>
<clus scale="   85.211">  1  6  2 -1</clus>
<clus scale="   48.023">  2  3  1 -1</clus>
</clustering>
</event>
<event>
 6    0  0.3695460E+002  0.9047122E+02  0.7546771E-02  0.1301715E+00
          2   -1    0    0  503    0 -0.00000000000E+00  0.00000000000E+00  0.14374355464E+04  0.14374355464E+04  0.00000000000E+00 0. -1.
         21   -1    0    0  505  502  0.00000000000E+00 -0.00000000000E+00 -0.50339487968E+02  0.50339487968E+02  0.00000000000E+00 0.  1.
         21    1    1    2  503  504  0.14653591661E+02 -0.45727986584E+02  0.28880051039E+03  0.29276528365E+03  0.00000000000E+00 0.  1.
         21    1    1    2  504  502 -0.68238555489E+02 -0.44661309621E+02 -0.17789667296E+01  0.81573879121E+02  0.00000000000E+00 0.  1.
         21    1    1    2  505  501 -0.23318134115E+02  0.30850038698E+02  0.81289928854E+02  0.90019513437E+02  0.00000000000E+00 0.  1.
          2    1    1    2  501    0  0.76903097943E+02  0.59539257507E+02  0.10187845859E+04  0.10234163582E+04  0.00000000000E+00 0. -1.
<scales pt_clust_3="46.44817" pt_clust_4="14000.00000" pt_clust_5="38.67118" pt_clust_6="90.47122"></scales>
<clustering>
<clus scale="   38.671">  2  5  1 -1</clus>
<clus scale="   46.448">  1  3  2 -1</clus>
<clus scale="   90.471">  1  6  2 -1</clus>
<clus scale="   38.671">  2  3  1 -1</clus>
</clustering>
</event>
<event>
 6    0  0.3695460E+002  0.1311404E+03  0.7546771E-02  0.1225773E+00
         21   -1    0    0  501  502  0.00000000000E+00  0.00000000000E+00  0.10051694958E+03  0.10051694958E+03  0.00000000000E+00 0. -1.
          2   -1    0    0  503    0 -0.00000000000E+00 -0.00000000000E+00 -0.93294434301E+03  0.93294434301E+03  0.00000000000E+00 0. -1.
         21    1    1    2  503  504  0.63527308588E+02  0.19423275530E+02 -0.12768721900E+03  0.14393404207E+03  0.00000000000E+00 0. -1.
         21    1    1    2  504  505  0.48979272428E+01 -0.96190388504E+02 -0.15801420368E+03  0.18505423285E+03  0.00000000000E+00 0.  1.
         21    1    1    2  505  502 -0.13555873948E+03 -0.18116070887E+02  0.86764221212E+01  0.13703884185E+03  0.00000000000E+00 0. -1.
          2    1    1    2  501    0  0.67133503648E+02  0.94883183860E+02 -0.55540239286E+03  0.56743417582E+03  0.00000000000E+00 0. -1.
<scales pt_clust_3="66.43028" pt_clust_4="93.86561" pt_clust_5="14000.00000" pt_clust_6="131.14044"></scales>
<clustering>
<clus scale="   66.430">  2  3  1 -1</clus>
<clus scale="   93.866">  2  4  1 -1</clus>
<clus scale="  131.140">  2  6  1 -1</clus>
<clus scale="  131.140">  1  3  2 -1</clus>
</clustering>
</event>
<event>
 6    0  0.3695460E+002  0.6595632E+02  0.7546771E-02  0.1374410E+00
         21   -1    0    0  504  502  0.00000000000E+00  0.00000000000E+00  0.53093511293E+02  0.53093511293E+02  0.00000000000E+00 0. -1.
          2   -1    0    0  503    0 -0.00000000000E+00 -0.00000000000E+00 -0.29142392972E+04  0.29142392972E+04  0.00000000000E+00 0.  1.
         21    1    1    2  503  502  0.67185082301E+02 -0.27290744435E+02 -0.14898723508E+04  0.14916360956E+04  0.00000000000E+00 0.  1.
         21    1    1    2  504  505 -0.27989514580E+02 -0.57827734449E+02 -0.12998979868E+02  0.65547183582E+02  0.00000000000E+00 0. -1.
         21    1    1    2  505  501  0.25328564767E+02  0.11565380400E+03 -0.11574925003E+03  0.16557544339E+03  0.00000000000E+00 0.  1.
          2    1    1    2  501    0 -0.64524132488E+02 -0.30535325116E+02 -0.12425252052E+04  0.12445740859E+04  0.00000000000E+00 0.  1.
<scales pt_clust_3="14000.00000" pt_clust_4="64.24531" pt_clust_5="61.94008" pt_clust_6="65.95632"></scales>
<clustering>
<clus scale="   64.245">  1  4  2 -1</clus>
<clus scale="   61.940">  1  5  2 -1</clus>
<clus scale="   65.956">  1  6  2 -1</clus>
<clus scale="   64.245">  1  3  2 -1</clus>
</clustering>
</event>
<event>
 6    0  0.3695460E+002  0.1235493E+03  0.7546771E-02  0.1237354E+00
          1   -1    0    0  503    0 -0.00000000000E+00  0.00000000000E+00  0.90005831682E+03  0.90005831682E+03  0.00000000000E+00 0. -1.
         21   -1    0    0  501  502  0.00000000000E+00 -0.00000000000E+00 -0.79914745210E+02  0.79914745210E+02  0.00000000000E+00 0. -1.
         21    1    1    2  503  504  0.57825971702E+02  0.69409758421E+01  0.21799979344E+03  0.22564558513E+03  0.00000000000E+00 0. -1.
         21    1    1    2  504  505 -0.18875307582E+02  0.47090246429E+02  0.13668441666E+02  0.52541363159E+02  0.00000000000E+00 0.  1.
         21    1    1    2  505  502 -0.56103372029E+01  0.66080730677E+02 -0.28617215459E+02  0.72229383709E+02  0.00000000000E+00 0. -1.
          1    1    1    2  501    0 -0.33340326918E+02 -0.12011195295E+03  0.61709255196E+03  0.62955673003E+03  0.00000000000E+00 0. -1.
<scales pt_clust_3="58.24105" pt_clust_4="38.49429" pt_clust_5="38.49429" pt_clust_6="115.44426"></scales>
<clustering>
<clus scale="   38.494">  4  5 -1 -1</clus>
<clus scale="   58.241">  1  3  2 -1</clus>
<clus scale="  115.444">  1  6  2 -1</clus>
<clus scale="  123.549">  2  3  1 -1</clus>
</clustering>
</event>
<event>
 6    0  0.3695460E+002  0.7869297E+02  0.7546771E-02  0.1332802E+00
         21   -1    0    0  504  502  0.00000000000E+00  0.00000000000E+00  0.31739818032E+03  0.31739818032E+03  0.00000000000E+00 0. -1.
          1   -1    0    0  503    0 -0.00000000000E+00 -0.00000000000E+00 -0.32966390896E+04  0.32966390896E+04  0.00000000000E+00 0.  1.
         21    1    1    2  503  505 -0.50741815882E+02  0.15258133257E+02 -0.15690832359E+04  0.15699776252E+04  0.00000000000E+00 0.  1.
         21    1    1    2  504  501  0.64358656753E+02 -0.78453584167E+01  0.24942124961E+03  0.25771019791E+03  0.00000000000E+00 0. -1.
         21    1    1    2  505  502 -0.10001385032E+03 -0.61162043040E+02  0.62655861118E+01  0.11740026973E+03  0.00000000000E+00 0. -1.
          1    1    1    2  501    0  0.86397009448E+02  0.53749268200E+02 -0.16658445091E+04  0.16689491771E+04  0.00000000000E+00 0.  1.
<scales pt_clust_3="52.98625" pt_clust_4="64.70978" pt_clust_5="78.69297" pt_clust_6="14000.00000"></scales>
<clustering>
<clus scale="   52.986">  2  3  1 -1</clus>
<clus scale="   64.710">  1  4  2 -1</clus>
<clus scale="   78.693">  1  5  2 -1</clus>
<clus scale="   64.710">  1  3  2 -1</clus>
</clustering>
</event>
<event>
 6    0  0.3695460E+002  0.1426449E+03  0.7546771E-02  0.1209814E+00
         21   -1    0    0  501  502  0.00000000000E+00  0.00000000000E+00  0.40672546639E+03  0.40672546639E+03  0.00000000000E+00 0.  1.
          2   -1    0    0  504    0 -0.00000000000E+00 -0.00000000000E+00 -0.31055233330E+03  0.31055233330E+03  0.00000000000E+00 0. -1.
         21    1    1    2  503  502 -0.67070901362E+02  0.29844037760E+02  0.15826665868E+03  0.17446348514E+03  0.00000000000E+00 0.  1.
         21    1    1    2  504  505 -0.23552949430E+02  0.18998696372E+02 -0.13907366918E+02  0.33303254275E+02  0.00000000000E+00 0.  1.
         21    1    1    2  505  503 -0.66178128688E+02 -0.34668391592E+01  0.20098692153E+03  0.21163011675E+03  0.00000000000E+00 0.  1.
          2    1    1    2  501    0  0.15680197948E+03 -0.45375894972E+02 -0.24917308020E+03  0.29788094352E+03  0.00000000000E+00 0. -1.
<scales pt_clust_3="37.36368" pt_clust_4="30.26040" pt_clust_5="37.36368" pt_clust_6="137.08936"></scales>
<clustering>
<clus scale="   30.260">  2  4  1 -1</clus>
<clus scale="   37.364">  3  5 -1 -1</clus>
<clus scale="  137.089">  2  6  1 -1</clus>
<clus scale="  142.645">  1  3  2 -1</clus>
</clustering>
</event>
<event>
 6    0  0.3695460E+002  0.1180284E+03  0.7546771E-02  0.1246386E+00
          3   -1    0    0  504    0 -0.00000000000E+00  0.00000000000E+00  0.34787300416E+02  0.34787300416E+02  0.00000000000E+00 0.  1.
         21   -1    0    0  501  502  0.00000000000E+00 -0.00000000000E+00 -0.59661928099E+03  0.59661928099E+03  0.00000000000E+00 0. -1.
         21    1    1    2  503  502  0.39436525206E+02 -0.20032241276E+02 -0.14646997945E+03  0.15300321921E+03  0.00000000000E+00 0.  1.
         21    1    1    2  504  505  0.33004639764E+02  0.37959689256E+02 -0.70726723969E+02  0.86790055523E+02  0.00000000000E+00 0. -1.
         21    1    1    2  505  503  0.20915862635E+02 -0.72600325247E+02 -0.17224495966E+03  0.18808669986E+03  0.00000000000E+00 0. -1.
          3    1    1    2  501    0 -0.93357027605E+02  0.54672877267E+02 -0.17239031750E+03  0.20352660681E+03  0.00000000000E+00 0.  1.
<scales pt_clust_3="38.56161" pt_clust_4="50.30153" pt_clust_5="38.56161" pt_clust_6="106.72758"></scales>
<clustering>
<clus scale="   38.562">  3  5 -1 -1</clus>
<clus scale="   50.302">  1  4  2 -1</clus>
<clus scale="  106.728">  1  6  2 -1</clus>
<clus scale="  118.028">  2  3  1 -1</clus>
</clustering>
</event>
<event>
 6    0  0.3695460E+002  0.1086922E+03  0.7546771E-02  0.1263011E+00
          2   -1    0    0  502    0 -0.00000000000E+00  0.00000000000E+00  0.18871221442E+04  0.18871221442E+04  0.00000000000E+00 0.  1.
         21   -1    0    0  504  502  0.00000000000E+00 -0.00000000000E+00 -0.21506729140E+02  0.21506729140E+02  0.00000000000E+00 0.  1.
         21    1    1    2  503  505  0.89153386314E+02  0.23843474634E+02  0.32036003415E+03  0.33338774581E+03  0.00000000000E+00 0.  1.
         21    1    1    2  504  503 -0.54845949268E+02 -0.64924591440E+01  0.55304653421E+02  0.78159035734E+02  0.00000000000E+00 0.  1.
         21    1    1    2  505  501  0.18353962718E+02  0.44491633025E+02  0.25760844485E+03  0.26206580131E+03  0.00000000000E+00 0.  1.
          2    1    1    2  501    0 -0.52661399764E+02 -0.61842648515E+02  0.12323422827E+04  0.12350162905E+04  0.00000000000E+00 0.  1.
<scales pt_clust_3="47.29916" pt_clust_4="55.22889" pt_clust_5="47.29916" pt_clust_6="86.74187"></scales>
<clustering>
<clus scale="   47.299">  3  5 -1 -1</clus>
<clus scale="   55.229">  2  4  1 -1</clus>
<clus scale="   86.742">  1  6  2 -1</clus>
<clus scale="   55.229">  2  3  1 -1</clus>
</clustering>
</event>
<event>
 6    0  0.3695460E+002  0.2424451E+03  0.7546771E-02  0.1118175E+00
         21   -1    0    0  501  502  0.00000000000E+00  0.00000000000E+00  0.25179422193E+03  0.25179422193E+03  0.00000000000E+00 0. -1.
          2   -1    0    0  503    0 -0.00000000000E+00 -0.00000000000E+00 -0.12572476360E+04  0.12572476360E+04  0.00000000000E+00 0.  1.
         21    1    1    2  503  504 -0.72871923600E+01 -0.37834972564E+02 -0.99759535668E+02  0.10694182193E+03  0.00000000000E+00 0. -1.
         21    1    1    2  504  505  0.30429381547E+02  0.59115044735E+02  0.77232602651E+02  0.10190883518E+03  0.00000000000E+00 0. -1.
         21    1    1    2  505  502  0.14597288203E+03  0.92334996906E+02  0.99110962295E+02  0.19914019381E+03  0.00000000000E+00 0. -1.
          2    1    1    2  501    0 -0.16911507122E+03 -0.11361506908E+03 -0.10820374433E+04  0.11010510070E+04  0.00000000000E+00 0.  1.
<scales pt_clust_3="38.53036" pt_clust_4="45.93759" pt_clust_5="45.93759" pt_clust_6="230.87012"></scales>
<clustering>
<clus scale="   38.530">  2  3  1 -1</clus>
<clus scale="   45.938">  4  5 -1 -1</clus>
<clus scale="  230.870">  2  6  1 -1</clus>
<clus scale="  242.445">  1  3  2 -1</clus>
</clustering>
</event>
<event>
 6    0  0.3695460E+002  0.3913798E+03  0.7546771E-02  0.1046806E+00
          2   -1    0    0  504    0 -0.00000000000E+00  0.00000000000E+00  0.40679081919E+03  0.40679081919E+03  0.00000000000E+00 0. -1.
         21   -1    0    0  503  502  0.00000000000E+00 -0.00000000000E+00 -0.19766682807E+04  0.19766682807E+04  0.00000000000E+00 0. -1.
         21    1    1    2  503  501 -0.36079236106E+03  0.10347625940E+03 -0.26753629227E+03  0.46092746906E+03  0.00000000000E+00 0. -1.
         21    1    1    2  504  505 -0.30221957556E+02  0.48985044052E+02 -0.44621389046E+03  0.44991081038E+03  0.00000000000E+00 0. -1.
         21    1    1    2  505  502  0.29084097783E+02  0.13522908603E+02 -0.10354365633E+04  0.10359332171E+04  0.00000000000E+00 0. -1.
          2    1    1    2  501    0  0.36193022083E+03 -0.16598421206E+03  0.17930928448E+03  0.43668760333E+03  0.00000000000E+00 0. -1.
<scales pt_clust_3="14000.00000" pt_clust_4="57.79203" pt_clust_5="32.07419" pt_clust_6="391.37979"></scales>
<clustering>
<clus scale="   32.074">  2  5  1 -1</clus>
<clus scale="   57.792">  2  4  1 -1</clus>
<clus scale="  391.380">  1  6  2 -1</clus>
<clus scale="   32.074">  2  3  1 -1</clus>
</clustering>
</event>
<event>
 6    0  0.3695460E+002  0.6766087E+02  0.7546771E-02  0.1368233E+00
         21   -1    0    0  505  502  0.00000000000E+00  0.00000000000E+00  0.42615022646E+02  0.42615022646E+02  0.00000000000E+00 0.  1.
          2   -1    0    0  504    0 -0.00000000000E+00 -0.00000000000E+00 -0.10658906912E+04  0.10658906912E+04  0.00000000000E+00 0.  1.
         21    1    1    2  503  502  0.63294251378E+01 -0.34797924806E+02  0.18337065630E+02  0.39839743590E+02  0.00000000000E+00 0.  1.
         21    1    1    2  504  503 -0.55257013940E+01 -0.55796197090E+02 -0.39854618868E+03  0.40247088527E+03  0.00000000000E+00 0.  1.
         21    1    1    2  505  501  0.48690212473E+02 -0.79106318698E+01 -0.93852469181E+02  0.10602641585E+03  0.00000000000E+00 0.  1.
          2    1    1    2  501    0 -0.49493936217E+02  0.98504753765E+02 -0.54921407629E+03  0.56016866909E+03  0.00000000000E+00 0.  1.
<scales pt_clust_3="35.36887" pt_clust_4="67.66087" pt_clust_5="56.67223" pt_clust_6="14000.00000"></scales>
<clustering>
<clus scale="   35.369">  1  3  2 -1</clus>
<clus scale="   56.672">  1  5  2 -1</clus>
<clus scale="   67.661">  2  4  1 -1</clus>
<clus scale="   35.369">  1  3  2 -1</clus>
</clustering>
</event>
<event>
 6    0  0.3695460E+002  0.9986028E+02  0.7546771E-02  0.1280590E+00
          2   -1    0    0  505    0 -0.00000000000E+00  0.00000000000E+00  0.80903036605E+03  0.80903036605E+03  0.00000000000E+00 0. -1.
         21   -1    0    0  503  502  0.00000000000E+00 -0.00000000000E+00 -0.12849065235E+04  0.12849065235E+04  0.00000000000E+00 0. -1.
         21    1    1    2  503  504 -0.80827699030E+01 -0.31432109010E+02 -0.19139540283E+03  0.19412755825E+03  0.00000000000E+00 0.  1.
         21    1    1    2  504  501  0.52323325420E+02 -0.58847876130E+02 -0.10645504066E+04  0.10674588382E+04  0.00000000000E+00 0. -1.
         21    1    1    2  505  502 -0.57216560292E+02 -0.84159150468E+01  0.13555617735E+02  0.59399639477E+02  0.00000000000E+00 0. -1.
          2    1    1    2  501    0  0.12976004776E+02  0.98695900186E+02  0.76651403429E+03  0.77295085366E+03  0.00000000000E+00 0. -1.
<scales pt_clust_3="32.45472" pt_clust_4="99.86028" pt_clust_5="58.09942" pt_clust_6="14000.00000"></scales>
<clustering>
<clus scale="   32.455">  2  3  1 -1</clus>
<clus scale="   58.099">  1  5  2 -1</clus>
<clus scale="   99.860">  2  4  1 -1</clus>
<clus scale="   32.455">  2  3  1 -1</clus>
</clustering>
</event>
<event>
 6    0  0.3695460E+002  0.1188053E+03  0.7546771E-02  0.1245081E+00
         21   -1    0    0  503  502  0.00000000000E+00  0.00000000000E+00  0.90693942926E+02  0.90693942926E+02  0.00000000000E+00 0.  1.
          2   -1    0    0  504    0 -0.00000000000E+00 -0.00000000000E+00 -0.29896923469E+04  0.29896923469E+04  0.00000000000E+00 0.  1.
         21    1    1    2  503  505  0.71138235555E+02 -0.33592632267E+02  0.48880329012E+02  0.92619652692E+02  0.00000000000E+00 0.  1.
         21    1    1    2  504  502 -0.34908417029E+02 -0.18047712661E+02 -0.43237240213E+03  0.43415459416E+03  0.00000000000E+00 0. -1.
         21    1    1    2  505  501  0.17295356192E+02 -0.31687195791E+02  0.56905497305E-01  0.36100013312E+02  0.00000000000E+00 0.  1.
          2    1    1    2  501    0 -0.53525174717E+02  0.83327540719E+02 -0.25155632363E+04  0.25175120296E+04  0.00000000000E+00 0.  1.
<scales pt_clust_3="30.98284" pt_clust_4="39.29781" pt_clust_5="30.98284" pt_clust_6="109.64833"></scales>
<clustering>
<clus scale="   30.983">  3  5 -1 -1</clus>
<clus scale="   39.298">  2  4  1 -1</clus>
<clus scale="  109.648">  2  6  1 -1</clus>
<clus scale="  118.805">  1  3  2 -1</clus>
</clustering>
</event>
<event>
 6    0  0.3695460E+002  0.1390716E+03  0.7546771E-02  0.1214584E+00
         21   -1    0    0  504  502  0.00000000000E+00  0.00000000000E+00  0.61882604999E+03  0.61882604999E+03  0.00000000000E+00 0. -1.
          2   -1    0    0  503    0 -0.00000000000E+00 -0.00000000000E+00 -0.17698997544E+04  0.17698997544E+04  0.00000000000E+00 0. -1.
         21    1    1    2  503  502 -0.49276251463E+02 -0.25516173983E+02 -0.34507121354E+03  0.34950445849E+03  0.00000000000E+00 0. -1.
         21    1    1    2  504  505  0.62763425648E+02  0.82268083218E+00  0.36363266307E+03  0.36901034952E+03  0.00000000000E+00 0. -1.
         21    1    1    2  505  501  0.55181516878E+02  0.46237851988E+02  0.24417665214E+03  0.25456860807E+03  0.00000000000E+00 0. -1.
          2    1    1    2  501    0 -0.68668691063E+02 -0.21544358837E+02 -0.14138118061E+04  0.14156423883E+04  0.00000000000E+00 0. -1.
<scales pt_clust_3="55.49076" pt_clust_4="53.58138" pt_clust_5="53.58138" pt_clust_6="126.68095"></scales>
<clustering>
<clus scale="   53.581">  4  5 -1 -1</clus>
<clus scale="   55.491">  2  3  1 -1</clus>
<clus scale="  126.681">  2  6  1 -1</clus>
<clus scale="  139.072">  1  3  2 -1</clus>
</clustering>
</event>
<event>
 6    0  0.3695460E+002  0.1228511E+03  0.7546771E-02  0.1238466E+00
          2   -1    0    0  503    0 -0.00000000000E+00  0.00000000000E+00  0.33694042555E+04  0.33694042555E+04  0.00000000000E+00 0.  1.
         21   -1    0    0  505  502  0.00000000000E+00 -0.00000000000E+00 -0.54745147480E+02  0.54745147480E+02  0.00000000000E+00 0.  1.
         21    1    1    2  503  502 -0.11093250527E+02  0.83599514657E+02  0.20267536431E+04  0.20285073992E+04  0.00000000000E+00 0.  1.
         21    1    1    2  504  501  0.44106069317E+02 -0.48022945073E+02  0.24687535624E+02  0.69721037135E+02  0.00000000000E+00 0. -1.
         21    1    1    2  505  504  0.20849236398E+02 -0.51716614526E+02 -0.54324994618E+01  0.56025091939E+02  0.00000000000E+00 0.  1.
          2    1    1    2  501    0 -0.53862055188E+02  0.16140044941E+02  0.12686504288E+04  0.12698958746E+04  0.00000000000E+00 0.  1.
<scales pt_clust_3="117.55098" pt_clust_4="33.00966" pt_clust_5="33.00966" pt_clust_6="56.22830"></scales>
<clustering>
<clus scale="   33.010">  4  5 -1 -1</clus>
<clus scale="   56.228">  1  6  2 -1</clus>
<clus scale="  117.551">  1  3  2 -1</clus>
<clus scale="  122.851">  2  3  1 -1</clus>
</clustering>
</event>
<event>
 6    0  0.3695460E+002  0.1222813E+03  0.7546771E-02  0.1239380E+00
         21   -1    0    0  501  502  0.00000000000E+00  0.00000000000E+00  0.67401298363E+02  0.67401298363E+02  0.00000000000E+00 0.  1.
          2   -1    0    0  503    0 -0.00000000000E+00 -0.00000000000E+00 -0.14385759163E+04  0.14385759163E+04  0.00000000000E+00 0. -1.
         21    1    1    2  503  504 -0.28112681617E+02  0.38737801678E+02 -0.69496321637E+03  0.69660951203E+03  0.00000000000E+00 0. -1.
         21    1    1    2  504  505  0.59744774964E+02 -0.73391972887E+02 -0.11203404348E+03  0.14665417389E+03  0.00000000000E+00 0.  1.
         21    1    1    2  505  502  0.33806118817E+02 -0.51442051158E+02  0.22961184120E+02  0.65698967062E+02  0.00000000000E+00 0.  1.
          2    1    1    2  501    0 -0.65438212164E+02  0.86096222367E+02 -0.58713854218E+03  0.59701456166E+03  0.00000000000E+00 0. -1.
<scales pt_clust_3="47.86377" pt_clust_4="122.28130" pt_clust_5="60.18053" pt_clust_6="14000.00000"></scales>
<clustering>
<clus scale="   47.864">  2  3  1 -1</clus>
<clus scale="   60.181">  1  5  2 -1</clus>
<clus scale="  122.281">  1  4  2 -1</clus>
<clus scale="   60.181">  1  3  2 -1</clus>
</clustering>
</event>
<event>
 6    0  0.3695460E+002  0.1069434E+03  0.7546771E-02  0.1266337E+00
          1   -1    0    0  505    0 -0.00000000000E+00  0.00000000000E+00  0.28823249992E+03  0.28823249992E+03  0.00000000000E+00 0.  1.
         21   -1    0    0  503  502  0.00000000000E+00 -0.00000000000E+00 -0.37761342124E+03  0.37761342124E+03  0.00000000000E+00 0. -1.
         21    1    1    2  503  504  0.73744082115E+02 -0.22141147366E+02 -0.29167815719E+02  0.82335785218E+02  0.00000000000E+00 0.  1.
         21    1    1    2  504  501  0.32203470386E+02  0.38879309103E+02  0.96753368576E+02  0.10913238984E+03  0.00000000000E+00 0.  1.
         21    1    1    2  505  502 -0.11989695269E+03  0.11598130281E+02 -0.30242416835E+03  0.32553060301E+03  0.00000000000E+00 0. -1.
          1    1    1    2  501    0  0.13949400194E+02 -0.28336292018E+02  0.14545769418E+03  0.14884714309E+03  0.00000000000E+00 0.  1.
<scales pt_clust_3="14000.00000" pt_clust_4="46.12574" pt_clust_5="106.94341" pt_clust_6="31.58372"></scales>
<clustering>
<clus scale="   31.584">  1  6  2 -1</clus>
<clus scale="   46.126">  1  4  2 -1</clus>
<clus scale="  106.943">  2  5  1 -1</clus>
<clus scale="  106.943">  2  3  1 -1</clus>
</clustering>
</event>
<event>
 6    0  0.3695460E+002  0.7183879E+02  0.7546771E-02  0.1353949E+00
         21   -1    0    0  504  502  0.00000000000E+00  0.00000000000E+00  0.52463993302E+03  0.52463993302E+03  0.00000000000E+00 0. -1.
          4   -1    0    0  505    0 -0.00000000000E+00 -0.00000000000E+00 -0.17319710624E+03  0.17319710624E+03  0.00000000000E+00 0. -1.
         21    1    1    2  503  502 -0.41321009083E+02  0.44998063883E+02  0.22332520867E+03  0.23153056034E+03  0.00000000000E+00 0. -1.
         21    1    1    2  504  501  0.34700098756E+02  0.25712920215E+02  0.23407862070E+03  0.23802951873E+03  0.00000000000E+00 0. -1.
         21    1    1    2  505  503  0.21742078639E+02  0.53136658238E+02 -0.83763047811E+02  0.10155033536E+03  0.00000000000E+00 0. -1.
          4    1    1    2  501    0 -0.15121168312E+02 -0.12384764234E+03 -0.22197954782E+02  0.12672662483E+03  0.00000000000E+00 0. -1.
<scales pt_clust_3="71.83879" pt_clust_4="43.18855" pt_clust_5="58.55518" pt_clust_6="14000.00000"></scales>
<clustering>
<clus scale="   43.189">  1  4  2 -1</clus>
<clus scale="   58.555">  2  5  1 -1</clus>
<clus scale="   71.839">  1  3  2 -1</clus>
<clus scale="   43.189">  1  3  2 -1</clus>
</clustering>
</event>
<event>
 6    0  0.3695460E+002  0.9648722E+02  0.7546771E-02  0.1287861E+00
          2   -1    0    0  505    0 -0.00000000000E+00  0.00000000000E+00  0.12164975432E+04  0.12164975432E+04  0.00000000000E+00 0. -1.
         21   -1    0    0  503  502  0.00000000000E+00 -0.00000000000E+00 -0.56997520115E+02  0.56997520115E+02  0.00000000000E+00 0. -1.
         21    1    1    2  503  504 -0.54415655589E+02  0.22966187981E+02  0.11768384479E+03  0.13167382689E+03  0.00000000000E+00 0. -1.
         21    1    1    2  504  501  0.76718573500E+02  0.11510674639E+03  0.22514758687E+03  0.26424749470E+03  0.00000000000E+00 0. -1.
         21    1    1    2  505  502 -0.50401047938E+02 -0.45615954704E+02  0.14375181693E+02  0.69481845150E+02  0.00000000000E+00 0. -1.
          2    1    1    2  501    0  0.28098130027E+02 -0.92456979665E+02  0.80229340972E+03  0.80809189655E+03  0.00000000000E+00 0. -1.
<scales pt_clust_3="59.06360" pt_clust_4="96.48722" pt_clust_5="86.88122" pt_clust_6="14000.00000"></scales>
<clustering>
<clus scale="   59.064">  2  3  1 -1</clus>
<clus scale="   86.881">  2  5  1 -1</clus>
<clus scale="   96.487">  2  4  1 -1</clus>
<clus scale="   59.064">  2  3  1 -1</clus>
</clustering>
</event>
<event>
 6    0  0.3695460E+002  0.1884104E+03  0.7546771E-02  0.1159903E+00
          2   -1    0    0  504    0 -0.00000000000E+00  0.00000000000E+00  0.12796276464E+04  0.12796276464E+04  0.00000000000E+00 0. -1.
         21   -1    0    0  505  502  0.00000000000E+00 -0.00000000000E+00 -0.39256716899E+03  0.39256716899E+03  0.00000000000E+00 0. -1.
         21    1    1    2  503  502  0.20273238820E+03  0.20440874715E+02 -0.28303112878E+03  0.34874757410E+03  0.00000000000E+00 0. -1.
         21    1    1    2  504  503  0.32498082877E+02 -0.76184509994E+01  0.39309026384E+02  0.51569038594E+02  0.00000000000E+00 0. -1.
         21    1    1    2  505  501 -0.15067601450E+03  0.22428198502E+01  0.13496444945E+02  0.15129588763E+03  0.00000000000E+00 0. -1.
          2    1    1    2  501    0 -0.84554456574E+02 -0.15065243566E+02  0.11172861348E+04  0.11205823150E+04  0.00000000000E+00 0. -1.
<scales pt_clust_3="188.41040" pt_clust_4="33.37913" pt_clust_5="14000.00000" pt_clust_6="59.31121"></scales>
<clustering>
<clus scale="   33.379">  1  4  2 -1</clus>
<clus scale="   59.311">  1  6  2 -1</clus>
<clus scale="  188.410">  2  3  1 -1</clus>
<clus scale="  188.410">  2  3  1 -1</clus>
</clustering>
</event>
<event>
 6    0  0.3695460E+002  0.1907312E+03  0.7546771E-02  0.1157804E+00
         -4   -1    0    0    0  501 -0.00000000000E+00  0.00000000000E+00  0.31813080552E+03  0.31813080552E+03  0.00000000000E+00 0. -1.
         21   -1    0    0  505  502  0.00000000000E+00 -0.00000000000E+00 -0.25121473210E+03  0.25121473210E+03  0.00000000000E+00 0. -1.
         21    1    1    2  503  501 -0.23511717300E+02 -0.64242542501E+02 -0.10984123645E+03  0.12940248198E+03  0.00000000000E+00 0. -1.
         21    1    1    2  504  502  0.48079012085E+01  0.53714198389E+02  0.37706816309E+02  0.65803761433E+02  0.00000000000E+00 0.  1.
         21    1    1    2  505  503 -0.90881680922E+01 -0.11210647586E+03 -0.68337972135E+02  0.13160750421E+03  0.00000000000E+00 0. -1.
         -4    1    1    2    0  504  0.27791984184E+02  0.12263481997E+03  0.20738846569E+03  0.24253178999E+03  0.00000000000E+00 0. -1.
<scales pt_clust_3="50.64268" pt_clust_4="34.88394" pt_clust_5="50.64268" pt_clust_6="187.08050"></scales>
<clustering>
<clus scale="   34.884">  4  6 -1 -1</clus>
<clus scale="   50.643">  3  5 -1 -1</clus>
<clus scale="  187.081">  1  4  2 -1</clus>
<clus scale="  190.731">  2  3  1 -1</clus>
</clustering>
</event>
<event>
 6    0  0.3695460E+002  0.1118770E+03  0.7546771E-02  0.1257133E+00
         -2   -1    0    0    0  501 -0.00000000000E+00  0.00000000000E+00  0.51703982867E+02  0.51703982867E+02  0.00000000000E+00 0. -1.
         21   -1    0    0  505  502  0.00000000000E+00 -0.00000000000E+00 -0.12155478831E+04  0.12155478831E+04  0.00000000000E+00 0.  1.
         21    1    1    2  503  502  0.22175063363E+02 -0.39540067186E+02 -0.62962363159E+03  0.63125356855E+03  0.00000000000E+00 0.  1.
         21    1    1    2  504  503  0.88101718419E+02 -0.12682362113E+02 -0.43700917256E+03  0.44598180680E+03  0.00000000000E+00 0. -1.
         21    1    1    2  505  501  0.75992413539E+01  0.43826175177E+02 -0.19410930581E+02  0.48531086180E+02  0.00000000000E+00 0. -1.
         -2    1    1    2    0  504 -0.11787602314E+03  0.83962541225E+01 -0.77800165477E+02  0.14148540441E+03  0.00000000000E+00 0. -1.
<scales pt_clust_3="44.58089" pt_clust_4="14000.00000" pt_clust_5="44.48013" pt_clust_6="111.87700"></scales>
<clustering>
<clus scale="   44.480">  1  5  2 -1</clus>
<clus scale="   44.581">  2  3  1 -1</clus>
<clus scale="  111.877">  1  6  2 -1</clus>
<clus scale="   44.581">  2  3  1 -1</clus>
</clustering>
</event>
<event>
 6    0  0.3695460E+002  0.1369848E+03  0.7546771E-02  0.1217445E+00
          2   -1    0    0  503    0 -0.00000000000E+00  0.00000000000E+00  0.15721541975E+04  0.15721541975E+04  0.00000000000E+00 0. -1.
         21   -1    0    0  501  502  0.00000000000E+00 -0.00000000000E+00 -0.52335128919E+03  0.52335128919E+03  0.00000000000E+00 0. -1.
         21    1    1    2  503  504  0.11205353013E+03 -0.96257294871E+02  0.14577837392E+04  0.14652490883E+04  0.00000000000E+00 0. -1.
         21    1    1    2  504  505 -0.63100244351E+02  0.22862681592E+02 -0.16300302157E+03  0.17627911983E+03  0.00000000000E+00 0. -1.
         21    1    1    2  505  502 -0.48541578061E+02  0.32123907086E+02 -0.34333427271E+03  0.34823361846E+03  0.00000000000E+00 0. -1.
          2    1    1    2  501    0 -0.41170771970E+00  0.41270706193E+02  0.97356463422E+02  0.10574366016E+03  0.00000000000E+00 0. -1.
<scales pt_clust_3="124.56365" pt_clust_4="53.07313" pt_clust_5="53.07313" pt_clust_6="41.27276"></scales>
<clustering>
<clus scale="   41.273">  1  6  2 -1</clus>
<clus scale="   53.073">  4  5 -1 -1</clus>
<clus scale="  124.564">  1  3  2 -1</clus>
<clus scale="  136.985">  2  3  1 -1</clus>
</clustering>
</event>
<event>
 6    0  0.3695460E+002  0.8403357E+02  0.7546771E-02  0.1317979E+00
         21   -1    0    0  505  502  0.00000000000E+00  0.00000000000E+00  0.10587644188E+04  0.10587644188E+04  0.00000000000E+00 0.  1.
          1   -1    0    0  504    0 -0.00000000000E+00 -0.00000000000E+00 -0.12304969677E+04  0.12304969677E+04  0.00000000000E+00 0. -1.
         21    1    1    2  503  501  0.44978623231E+02  0.36019068451E+02 -0.54832953514E+03  0.55134900829E+03  0.00000000000E+00 0. -1.
         21    1    1    2  504  502 -0.29421368758E+02  0.35993696534E+02  0.74429917562E+02  0.87755203595E+02  0.00000000000E+00 0.  1.
         21    1    1    2  505  503 -0.52740269526E+01 -0.11306709324E+03  0.97221101298E+03  0.97877793022E+03  0.00000000000E+00 0.  1.
          1    1    1    2  501    0 -0.10283227520E+02  0.41054328253E+02 -0.67004394422E+03  0.67137924440E+03  0.00000000000E+00 0. -1.
<scales pt_clust_3="14000.00000" pt_clust_4="46.94459" pt_clust_5="84.03357" pt_clust_6="42.32260"></scales>
<clustering>
<clus scale="   42.323">  2  6  1 -1</clus>
<clus scale="   46.945">  1  4  2 -1</clus>
<clus scale="   84.034">  1  5  2 -1</clus>
<clus scale="   46.945">  1  3  2 -1</clus>
</clustering>
</event>
<event>
 6    0  0.3695460E+002  0.1428909E+03  0.7546771E-02  0.1209491E+00
         -1   -1    0    0    0  501 -0.00000000000E+00  0.00000000000E+00  0.90214384525E+03  0.90214384525E+03  0.00000000000E+00 0. -1.
         21   -1    0    0  504  502  0.00000000000E+00 -0.00000000000E+00 -0.28454495511E+02  0.28454495511E+02  0.00000000000E+00 0. -1.
         21    1    1    2  503  501 -0.64596188231E+02  0.74219329216E+02  0.14903981306E+03  0.17858903169E+03  0.00000000000E+00 0. -1.
         21    1    1    2  504  503 -0.44249306131E+02 -0.46866044732E+01  0.68106860558E+02  0.81354224289E+02  0.00000000000E+00 0. -1.
         21    1    1    2  505  502  0.65359300107E+02 -0.28595701975E+02  0.25877885877E+03  0.26843258004E+03  0.00000000000E+00 0.  1.
         -1    1    1    2    0  505  0.43486194255E+02 -0.40937022768E+02  0.39776381736E+03  0.40222250475E+03  0.00000000000E+00 0. -1.
<scales pt_clust_3="41.10239" pt_clust_4="41.10239" pt_clust_5="41.40454" pt_clust_6="136.85743"></scales>
<clustering>
<clus scale="   41.102">  3  4 -1 -1</clus>
<clus scale="   41.405">  5  6 -1 -1</clus>
<clus scale="  136.857">  1  5  2 -1</clus>
<clus scale="  142.891">  2  3  1 -1</clus>
</clustering>
</event>
<event>
 6    0  0.3695460E+002  0.1439413E+03  0.7546771E-02  0.1208122E+00
          2   -1    0    0  505    0 -0.00000000000E+00  0.00000000000E+00  0.20478552944E+04  0.20478552944E+04  0.00000000000E+00 0.  1.
         21   -1    0    0  503  502  0.00000000000E+00 -0.00000000000E+00 -0.38694174357E+02  0.38694174357E+02  0.00000000000E+00 0.  1.
         21    1    1    2  503  501  0.29890911045E+02  0.22921440012E+02  0.88427331216E+03  0.88507522255E+03  0.00000000000E+00 0.  1.
         21    1    1    2  504  502 -0.59862601145E+02 -0.43178760102E+02  0.31521681170E+02  0.80259284345E+02  0.00000000000E+00 0.  1.
         21    1    1    2  505  504 -0.33424881698E+02 -0.53537830051E+02  0.74184570595E+02  0.97400577399E+02  0.00000000000E+00 0.  1.
          2    1    1    2  501    0  0.63396571798E+02  0.73795150142E+02  0.10191815561E+04  0.10238143844E+04  0.00000000000E+00 0.  1.
<scales pt_clust_3="32.10676" pt_clust_4="142.79081" pt_clust_5="44.66068" pt_clust_6="32.10676"></scales>
<clustering>
<clus scale="   32.107">  3  6 -1 -1</clus>
<clus scale="   44.661">  4  5 -1 -1</clus>
<clus scale="  142.791">  2  4  1 -1</clus>
<clus scale="  142.791">  2  3  1 -1</clus>
</clustering>
</event>
<event>
 6    0  0.3695460E+002  0.9063413E+03  0.7546771E-02  0.9417689E-01
         21   -1    0    0  504  502  0.00000000000E+00  0.00000000000E+00  0.13232824674E+04  0.13232824674E+04  0.00000000000E+00 0.  1.
          2   -1    0    0  503    0 -0.00000000000E+00 -0.00000000000E+00 -0.10825991644E+04  0.10825991644E+04  0.00000000000E+00 0. -1.
         21    1    1    2  503  505 -0.20361942899E+03 -0.42048915663E+03  0.44002098560E+03  0.64178693541E+03  0.00000000000E+00 0.  1.
         21    1    1    2  504  501 -0.18123633362E+01  0.41210354188E+03 -0.24806627299E+03  0.48100882496E+03  0.00000000000E+00 0. -1.
         21    1    1    2  505  502 -0.15019195505E+03 -0.32350106642E+03  0.50360008476E+03  0.61710907360E+03  0.00000000000E+00 0.  1.
          2    1    1    2  501    0  0.35562374738E+03  0.33188668117E+03 -0.45487149441E+03  0.66597679785E+03  0.00000000000E+00 0. -1.
<scales pt_clust_3="833.30573" pt_clust_4="347.76246" pt_clust_5="109.45986" pt_clust_6="347.76246"></scales>
<clustering>
<clus scale="  109.460">  3  5 -1 -1</clus>
<clus scale="  347.762">  4  6 -1 -1</clus>
<clus scale="  833.306">  1  3  2 -1</clus>
<clus scale="  833.306">  1  3  2 -1</clus>
</clustering>
</event>
<event>
 6    0  0.3695460E+002  0.1233778E+03  0.7546771E-02  0.1237627E+00
          1   -1    0    0  504    0 -0.00000000000E+00  0.00000000000E+00  0.10614141254E+04  0.10614141254E+04  0.00000000000E+00 0.  1.
         21   -1    0    0  505  502  0.00000000000E+00 -0.00000000000E+00 -0.10189415665E+03  0.10189415665E+03  0.00000000000E+00 0. -1.
         21    1    1    2  503  501  0.10131931484E+02 -0.60256881418E+02  0.43441485114E+03  0.43869101961E+03  0.00000000000E+00 0.  1.
         21    1    1    2  504  502 -0.36129423847E+02 -0.33274592568E+02  0.71570942559E+02  0.86803995282E+02  0.00000000000E+00 0.  1.
         21    1    1    2  505  503 -0.21050205288E+02  0.13329844337E+03 -0.39761464569E+02  0.14068603417E+03  0.00000000000E+00 0. -1.
          1    1    1    2  501    0  0.47047697652E+02 -0.39766969380E+02  0.49329563961E+03  0.49712723298E+03  0.00000000000E+00 0.  1.
<scales pt_clust_3="42.66000" pt_clust_4="49.11755" pt_clust_5="115.70352" pt_clust_6="42.66000"></scales>
<clustering>
<clus scale="   42.660">  3  6 -1 -1</clus>
<clus scale="   49.118">  2  4  1 -1</clus>
<clus scale="  115.704">  2  5  1 -1</clus>
<clus scale="   49.118">  2  3  1 -1</clus>
</clustering>
</event>
<event>
 6    0  0.3695460E+002  0.2099439E+03  0.7546771E-02  0.1141610E+00
         21   -1    0    0  505  502  0.00000000000E+00  0.00000000000E+00  0.89423299401E+03  0.89423299401E+03  0.00000000000E+00 0. -1.
         -3   -1    0    0    0  501 -0.00000000000E+00 -0.00000000000E+00 -0.31293060518E+03  0.31293060518E+03  0.00000000000E+00 0. -1.
         21    1    1    2  503  504 -0.15146964546E+02 -0.17468379582E+03  0.76095171179E+03  0.78089139241E+03  0.00000000000E+00 0. -1.
         21    1    1    2  504  501 -0.24973626591E+02 -0.29176398650E+02 -0.39446590067E+01  0.38607053734E+02  0.00000000000E+00 0. -1.
         21    1    1    2  505  503  0.14128830869E+02 -0.36081348609E+02  0.45860823071E+02  0.60039176142E+02  0.00000000000E+00 0. -1.
         -3    1    1    2    0  502  0.25991760268E+02  0.23994154308E+03 -0.22156548703E+03  0.32762597691E+03  0.00000000000E+00 0. -1.
<scales pt_clust_3="14000.00000" pt_clust_4="38.40500" pt_clust_5="39.19671" pt_clust_6="209.94387"></scales>
<clustering>
<clus scale="   38.405">  2  4  1 -1</clus>
<clus scale="   39.197">  1  5  2 -1</clus>
<clus scale="  209.944">  2  6  1 -1</clus>
<clus scale="   39.197">  1  3  2 -1</clus>
</clustering>
</event>
<event>
 6    0  0.3695460E+002  0.1276233E+03  0.7546771E-02  0.1231026E+00
          2   -1    0    0  505    0 -0.00000000000E+00  0.00000000000E+00  0.33025371976E+04  0.33025371976E+04  0.00000000000E+00 0. -1.
         21   -1    0    0  503  502  0.00000000000E+00 -0.00000000000E+00 -0.95186633893E+02  0.95186633893E+02  0.00000000000E+00 0. -1.
         21    1    1    2  503  501 -0.21770415262E+02  0.27692515220E+02  0.23126530622E+02  0.42138614102E+02  0.00000000000E+00 0. -1.
         21    1    1    2  504  502 -0.58146261270E+02  0.73804627056E+02 -0.57844387907E+02  0.11033623107E+03  0.00000000000E+00 0. -1.
         21    1    1    2  505  504  0.36297057514E+02 -0.41116576876E+01  0.93764673749E+03  0.93835802679E+03  0.00000000000E+00 0.  1.
          2    1    1    2  501    0  0.43619619018E+02 -0.97385484588E+02  0.23044216835E+04  0.23068909595E+04  0.00000000000E+00 0. -1.
<scales pt_clust_3="35.22537" pt_clust_4="14000.00000" pt_clust_5="36.42661" pt_clust_6="127.62326"></scales>
<clustering>
<clus scale="   35.225">  2  3  1 -1</clus>
<clus scale="   36.427">  1  5  2 -1</clus>
<clus scale="  127.623">  1  6  2 -1</clus>
<clus scale="   35.225">  2  3  1 -1</clus>
</clustering>
</event>
<event>
 6    0  0.3695460E+002  0.1024949E+03  0.7546771E-02  0.1275135E+00
          2   -1    0    0  505    0 -0.00000000000E+00  0.00000000000E+00  0.14323206107E+04  0.14323206107E+04  0.00000000000E+00 0.  1.
         21   -1    0    0  503  502  0.00000000000E+00 -0.00000000000E+00 -0.24750845615E+03  0.24750845615E+03  0.00000000000E+00 0. -1.
         21    1    1    2  503  501  0.46841535388E+02 -0.83000513400E+02 -0.20855943023E+03  0.22930383905E+03  0.00000000000E+00 0. -1.
         21    1    1    2  504  502 -0.24099158921E+02 -0.17899273780E+02 -0.13280632162E+02  0.32825731571E+02  0.00000000000E+00 0.  1.
         21    1    1    2  505  504  0.55311503135E+02  0.32877619258E+02  0.76997890264E+03  0.77266280533E+03  0.00000000000E+00 0.  1.
          2    1    1    2  501    0 -0.78053879602E+02  0.68022167922E+02  0.63667331432E+03  0.64503669091E+03  0.00000000000E+00 0.  1.
<scales pt_clust_3="14000.00000" pt_clust_4="30.01922" pt_clust_5="64.16663" pt_clust_6="102.49489"></scales>
<clustering>
<clus scale="   30.019">  2  4  1 -1</clus>
<clus scale="   64.167">  1  5  2 -1</clus>
<clus scale="  102.495">  1  6  2 -1</clus>
<clus scale="   30.019">  2  3  1 -1</clus>
</clustering>
</event>
<event>
 6    0  0.3695460E+002  0.1784056E+03  0.7546771E-02  0.1169355E+00
         21   -1    0    0  501  502  0.00000000000E+00  0.00000000000E+00  0.28119293447E+04  0.28119293447E+04  0.00000000000E+00 0.  1.
          1   -1    0    0  504    0 -0.00000000000E+00 -0.00000000000E+00 -0.97662963785E+03  0.97662963785E+03  0.00000000000E+00 0. -1.
         21    1    1    2  503  505 -0.23772281503E+02  0.79916780168E+02  0.21287925794E+02  0.86052245205E+02  0.00000000000E+00 0. -1.
         21    1    1    2  504  503 -0.40031693796E+02 -0.26630323022E+02 -0.94056737234E+02  0.10563323545E+03  0.00000000000E+00 0.  1.
         21    1    1    2  505  502  0.16633408170E+03 -0.65256006792E+02  0.27464022839E+04  0.27522083639E+04  0.00000000000E+00 0.  1.
          1    1    1    2  501    0 -0.10253010641E+03  0.11969549645E+02 -0.83833376561E+03  0.84466513803E+03  0.00000000000E+00 0. -1.
<scales pt_clust_3="82.87375" pt_clust_4="48.08025" pt_clust_5="178.40564" pt_clust_6="14000.00000"></scales>
<clustering>
<clus scale="   48.080">  2  4  1 -1</clus>
<clus scale="   82.874">  2  3  1 -1</clus>
<clus scale="  178.406">  1  5  2 -1</clus>
<clus scale="  178.406">  1  3  2 -1</clus>
</clustering>
</event>
<event>
 6    0  0.3695460E+002  0.1834508E+03  0.7546771E-02  0.1164505E+00
         21   -1    0    0  501  502  0.00000000000E+00  0.00000000000E+00  0.46552456295E+03  0.46552456295E+03  0.00000000000E+00 0. -1.
          1   -1    0    0  503    0 -0.00000000000E+00 -0.00000000000E+00 -0.18065098306E+04  0.18065098306E+04  0.00000000000E+00 0. -1.
         21    1    1    2  503  504  0.48128999144E+02  0.11076714937E+00 -0.30152506173E+03  0.30534206340E+03  0.00000000000E+00 0. -1.
         21    1    1    2  504  505 -0.24650520037E+02  0.37069029311E+02  0.51988075027E+02  0.68443560816E+02  0.00000000000E+00 0. -1.
         21    1    1    2  505  502 -0.69961816612E+02  0.10629115851E+03  0.38943928457E+03  0.40970162622E+03  0.00000000000E+00 0. -1.
          1    1    1    2  501    0  0.46483337504E+02 -0.14347095497E+03 -0.14808875655E+04  0.14885471431E+04  0.00000000000E+00 0. -1.
<scales pt_clust_3="48.12913" pt_clust_4="38.60947" pt_clust_5="38.60947" pt_clust_6="171.44426"></scales>
<clustering>
<clus scale="   38.609">  4  5 -1 -1</clus>
<clus scale="   48.129">  2  3  1 -1</clus>
<clus scale="  171.444">  2  6  1 -1</clus>
<clus scale="  183.451">  1  3  2 -1</clus>
</clustering>
</event>
<event>
 6    0  0.3695460E+002  0.9971895E+02  0.7546771E-02  0.1280888E+00
          2   -1    0    0  505    0 -0.00000000000E+00  0.00000000000E+00  0.16161310675E+04  0.16161310675E+04  0.00000000000E+00 0.  1.
         21   -1    0    0  503  502  0.00000000000E+00 -0.00000000000E+00 -0.12081115511E+03  0.12081115511E+03  0.00000000000E+00 0. -1.
         21    1    1    2  503  501  0.82845241728E+02  0.64884591234E+02 -0.81575360992E+02  0.13314609937E+03  0.00000000000E+00 0. -1.
         21    1    1    2  504  502 -0.29457625268E+02  0.19800243206E+02  0.30098378428E+02  0.46537229198E+02  0.00000000000E+00 0. -1.
         21    1    1    2  505  504  0.39840750966E+02 -0.36251318478E+02  0.22768020898E+03  0.23396521341E+03  0.00000000000E+00 0.  1.
          2    1    1    2  501    0 -0.93228367426E+02 -0.48433515962E+02  0.13191166860E+04  0.13232936807E+04  0.00000000000E+00 0.  1.
<scales pt_clust_3="14000.00000" pt_clust_4="35.49368" pt_clust_5="52.88520" pt_clust_6="99.71895"></scales>
<clustering>
<clus scale="   35.494">  2  4  1 -1</clus>
<clus scale="   52.885">  1  5  2 -1</clus>
<clus scale="   99.719">  1  6  2 -1</clus>
<clus scale="   35.494">  2  3  1 -1</clus>
</clustering>
</event>
<event>
 6    0  0.3695460E+002  0.1130907E+03  0.7546771E-02  0.1254951E+00
          2   -1    0    0  503    0 -0.00000000000E+00  0.00000000000E+00  0.12696387103E+04  0.12696387103E+04  0.00000000000E+00 0. -1.
         21   -1    0    0  504  502  0.00000000000E+00 -0.00000000000E+00 -0.22909365717E+02  0.22909365717E+02  0.00000000000E+00 0. -1.
         21    1    1    2  503  505  0.69445293956E+02  0.39366410900E+02  0.49317411747E+03  0.49959290757E+03  0.00000000000E+00 0. -1.
         21    1    1    2  504  501 -0.50037280382E+02 -0.19261426311E+02  0.15349786098E+03  0.16259251304E+03  0.00000000000E+00 0. -1.
         21    1    1    2  505  502  0.64226341732E+02 -0.57208231273E+02  0.16815493292E+03  0.18887531909E+03  0.00000000000E+00 0. -1.
          2    1    1    2  501    0 -0.83634355306E+02  0.37103246684E+02  0.43190243326E+03  0.44148733635E+03  0.00000000000E+00 0. -1.
<scales pt_clust_3="79.82708" pt_clust_4="48.61148" pt_clust_5="93.57875" pt_clust_6="48.61148"></scales>
<clustering>
<clus scale="   48.611">  4  6 -1 -1</clus>
<clus scale="   79.827">  1  3  2 -1</clus>
<clus scale="   93.579">  2  5  1 -1</clus>
<clus scale="   93.579">  2  3  1 -1</clus>
</clustering>
</event>
<event>
 6    0  0.3695460E+002  0.1594929E+03  0.7546771E-02  0.1189270E+00
          4   -1    0    0  505    0 -0.00000000000E+00  0.00000000000E+00  0.19878680868E+03  0.19878680868E+03  0.00000000000E+00 0. -1.
         21   -1    0    0  503  502  0.00000000000E+00 -0.00000000000E+00 -0.16955184025E+03  0.16955184025E+03  0.00000000000E+00 0. -1.
         21    1    1    2  503  501 -0.87835615997E+02  0.60455102905E+02  0.52387505196E+02  0.11880389558E+03  0.00000000000E+00 0. -1.
         21    1    1    2  504  502  0.17620723256E+02 -0.36149669678E+02 -0.42518206663E+02  0.58524237746E+02  0.00000000000E+00 0. -1.
         21    1    1    2  505  504  0.91104585838E+02 -0.67666863253E+02 -0.34655007233E+02  0.11865841508E+03  0.00000000000E+00 0. -1.
          4    1    1    2  501    0 -0.20889693097E+02  0.43361430026E+02  0.54020677136E+02  0.72352100521E+02  0.00000000000E+00 0. -1.
<scales pt_clust_3="34.38177" pt_clust_4="31.71789" pt_clust_5="31.71789" pt_clust_6="158.80149"></scales>
<clustering>
<clus scale="   31.718">  4  5 -1 -1</clus>
<clus scale="   34.382">  3  6 -1 -1</clus>
<clus scale="  158.801">  1  3  2 -1</clus>
<clus scale="  159.493">  2  3  1 -1</clus>
</clustering>
</event>
<event>
 6    0  0.3695460E+002  0.9849253E+02  0.7546771E-02  0.1283498E+00
         21   -1    0    0  505  502  0.00000000000E+00  0.00000000000E+00  0.26988375988E+03  0.26988375988E+03  0.00000000000E+00 0. -1.
          1   -1    0    0  504    0 -0.00000000000E+00 -0.00000000000E+00 -0.17393090231E+04  0.17393090231E+04  0.00000000000E+00 0. -1.
         21    1    1    2  503  502  0.42467327778E+02 -0.64301338857E+02  0.24392131852E+03  0.25580411595E+03  0.00000000000E+00 0. -1.
         21    1    1    2  504  503 -0.68032543752E+02  0.36872836935E+02 -0.64065605285E+03  0.64531249110E+03  0.00000000000E+00 0. -1.
         21    1    1    2  505  501 -0.18445406675E+02 -0.34135971551E+02 -0.66664486331E+01  0.39369266167E+02  0.00000000000E+00 0. -1.
          1    1    1    2  501    0  0.44010622649E+02  0.61564473472E+02 -0.10660240803E+04  0.10687069098E+04  0.00000000000E+00 0. -1.
<scales pt_clust_3="98.49253" pt_clust_4="14000.00000" pt_clust_5="38.80074" pt_clust_6="75.47405"></scales>
<clustering>
<clus scale="   38.801">  1  5  2 -1</clus>
<clus scale="   75.474">  2  6  1 -1</clus>
<clus scale="   98.493">  1  3  2 -1</clus>
<clus scale="   38.801">  1  3  2 -1</clus>
</clustering>
</event>
<event>
 6    0  0.3695460E+002  0.1416019E+03  0.7546771E-02  0.1211190E+00
          2   -1    0    0  503    0 -0.00000000000E+00  0.00000000000E+00  0.17040058495E+04  0.17040058495E+04  0.00000000000E+00 0. -1.
         21   -1    0    0  504  502  0.00000000000E+00 -0.00000000000E+00 -0.50983594431E+02  0.50983594431E+02  0.00000000000E+00 0. -1.
         21    1    1    2  503  505  0.47051044935E+02  0.20418312847E+02  0.29959043041E+03  0.30394922984E+03  0.00000000000E+00 0. -1.
         21    1    1    2  504  501 -0.85734840716E+02  0.59267962212E+02  0.32485997347E+02  0.10917185663E+03  0.00000000000E+00 0. -1.
         21    1    1    2  505  502 -0.53630828346E+02  0.33972511136E+01  0.91109833427E+02  0.10577716583E+03  0.00000000000E+00 0. -1.
          2    1    1    2  501    0  0.92314624127E+02 -0.83083526173E+02  0.12298359939E+04  0.12360911916E+04  0.00000000000E+00 0. -1.
<scales pt_clust_3="51.29043" pt_clust_4="141.60194" pt_clust_5="50.55893" pt_clust_6="14000.00000"></scales>
<clustering>
<clus scale="   51.290">  1  3  2 -1</clus>
<clus scale="   50.559">  2  5  1 -1</clus>
<clus scale="  141.602">  2  4  1 -1</clus>
<clus scale="   50.559">  2  3  1 -1</clus>
</clustering>
</event>
<event>
 6    0  0.3695460E+002  0.1560854E+03  0.7546771E-02  0.1193188E+00
          1   -1    0    0  505    0 -0.00000000000E+00  0.00000000000E+00  0.42903400880E+03  0.42903400880E+03  0.00000000000E+00 0.  1.
         21   -1    0    0  503  502  0.00000000000E+00 -0.00000000000E+00 -0.78871269238E+02  0.78871269238E+02  0.00000000000E+00 0.  1.
         21    1    1    2  503  501 -0.37296281219E+02 -0.78428447325E+01  0.67503275726E+02  0.77519126930E+02  0.00000000000E+00 0. -1.
         21    1    1    2  504  502  0.46847204272E+02  0.15218758685E+02  0.91229055687E+01  0.50094895648E+02  0.00000000000E+00 0.  1.
         21    1    1    2  505  504  0.28698476353E+02  0.10272402410E+03  0.30790125442E+02  0.11101287987E+03  0.00000000000E+00 0.  1.
          1    1    1    2  501    0 -0.38249399406E+02 -0.11009993805E+03  0.24274643282E+03  0.26927837559E+03  0.00000000000E+00 0.  1.
<scales pt_clust_3="37.91346" pt_clust_4="46.81208" pt_clust_5="46.81208" pt_clust_6="154.96331"></scales>
<clustering>
<clus scale="   37.913">  3  6 -1 -1</clus>
<clus scale="   46.812">  4  5 -1 -1</clus>
<clus scale="  154.963">  1  3  2 -1</clus>
<clus scale="  156.085">  2  3  1 -1</clus>
</clustering>
</event>
<event>
 6    0  0.3695460E+002  0.1363575E+03  0.7546771E-02  0.1218316E+00
          2   -1    0    0  502    0 -0.00000000000E+00  0.00000000000E+00  0.97759473788E+03  0.97759473788E+03  0.00000000000E+00 0.  1.
         21   -1    0    0  505  502  0.00000000000E+00 -0.00000000000E+00 -0.82491199470E+02  0.82491199470E+02  0.00000000000E+00 0. -1.
         21    1    1    2  503  504  0.61769313913E+01  0.82874877555E+02  0.25139315614E+02  0.86823873449E+02  0.00000000000E+00 0. -1.
         21    1    1    2  504  501 -0.89682473464E+02 -0.86067038412E+02  0.43521896283E+03  0.45262128402E+03  0.00000000000E+00 0. -1.
         21    1    1    2  505  503 -0.98332289467E+01  0.52436804770E+02 -0.17576098293E+02  0.56171435064E+02  0.00000000000E+00 0. -1.
          2    1    1    2  501    0  0.93338771020E+02 -0.49244643913E+02  0.45232135826E+03  0.46446934481E+03  0.00000000000E+00 0.  1.
<scales pt_clust_3="36.43474" pt_clust_4="128.55165" pt_clust_5="36.43474" pt_clust_6="105.53275"></scales>
<clustering>
<clus scale="   36.435">  3  5 -1 -1</clus>
<clus scale="  105.533">  1  6  2 -1</clus>
<clus scale="  128.552">  1  4  2 -1</clus>
<clus scale="  136.357">  2  3  1 -1</clus>
</clustering>
</event>
<event>
 6    0  0.3695460E+002  0.1617108E+03  0.7546771E-02  0.1186779E+00
          2   -1    0    0  503    0 -0.00000000000E+00  0.00000000000E+00  0.29209861498E+04  0.29209861498E+04  0.00000000000E+00 0. -1.
         21   -1    0    0  505  502  0.00000000000E+00 -0.00000000000E+00 -0.61221185854E+02  0.61221185854E+02  0.00000000000E+00 0. -1.
         21    1    1    2  503  502 -0.67734133028E+01 -0.12044808415E+03  0.24035656364E+02  0.12300948289E+03  0.00000000000E+00 0. -1.
         21    1    1    2  504  501  0.34233759929E+02  0.28575187268E+02  0.63295784648E+03  0.63452669531E+03  0.00000000000E+00 0. -1.
         21    1    1    2  505  504 -0.33307770915E+02 -0.25405022162E+02  0.37516142005E+02  0.56234185913E+02  0.00000000000E+00 0.  1.
          2    1    1    2  501    0  0.58474242884E+01  0.11727791904E+03  0.21652553191E+04  0.21684369715E+04  0.00000000000E+00 0. -1.
<scales pt_clust_3="149.73849" pt_clust_4="37.63015" pt_clust_5="41.89060" pt_clust_6="37.63015"></scales>
<clustering>
<clus scale="   37.630">  4  6 -1 -1</clus>
<clus scale="   41.891">  2  5  1 -1</clus>
<clus scale="  149.738">  2  3  1 -1</clus>
<clus scale="   41.891">  2  3  1 -1</clus>
</clustering>
</event>
<event>
 6    0  0.3695460E+002  0.1626740E+03  0.7546771E-02  0.1185710E+00
          2   -1    0    0  503    0 -0.00000000000E+00  0.00000000000E+00  0.21329287649E+03  0.21329287649E+03  0.00000000000E+00 0. -1.
         21   -1    0    0  504  502  0.00000000000E+00 -0.00000000000E+00 -0.67390363595E+03  0.67390363595E+03  0.00000000000E+00 0. -1.
         21    1    1    2  503  505  0.67826208298E+01 -0.47030199050E+02  0.23870193513E+02  0.53175461506E+02  0.00000000000E+00 0. -1.
         21    1    1    2  504  501 -0.15366501267E+03  0.16433329368E+02 -0.41438188043E+03  0.44226161179E+03  0.00000000000E+00 0. -1.
         21    1    1    2  505  502  0.19123027566E+03  0.57098713578E+02 -0.18099329838E+03  0.26942133449E+03  0.00000000000E+00 0. -1.
          2    1    1    2  501    0 -0.44347883812E+02 -0.26501843896E+02  0.11089422583E+03  0.12233810465E+03  0.00000000000E+00 0. -1.
<scales pt_clust_3="47.51677" pt_clust_4="162.67402" pt_clust_5="14000.00000" pt_clust_6="70.25839"></scales>
<clustering>
<clus scale="   47.517">  1  3  2 -1</clus>
<clus scale="   70.258">  1  6  2 -1</clus>
<clus scale="  162.674">  2  4  1 -1</clus>
<clus scale="  162.674">  2  3  1 -1</clus>
</clustering>
</event>
<event>
 6    0  0.3695460E+002  0.3009707E+03  0.7546771E-02  0.1084756E+00
          2   -1    0    0  502    0 -0.00000000000E+00  0.00000000000E+00  0.10695048081E+04  0.10695048081E+04  0.00000000000E+00 0.  1.
         21   -1    0    0  505  502  0.00000000000E+00 -0.00000000000E+00 -0.17500496342E+03  0.17500496342E+03  0.00000000000E+00 0.  1.
         21    1    1    2  503  504  0.34025932943E+01 -0.17364706937E+03  0.40648358685E+02  0.17837368473E+03  0.00000000000E+00 0.  1.
         21    1    1    2  504  501  0.52603018286E+01  0.87210592599E+02  0.20166072694E+03  0.21977353577E+03  0.00000000000E+00 0.  1.
         21    1    1    2  505  503 -0.14229442480E+02 -0.11382895755E+03 -0.43282190101E+02  0.12260855023E+03  0.00000000000E+00 0.  1.
          2    1    1    2  501    0  0.55665473570E+01  0.20026543432E+03  0.69547294916E+03  0.72375400078E+03  0.00000000000E+00 0.  1.
<scales pt_clust_3="71.88530" pt_clust_4="33.90310" pt_clust_5="71.88530" pt_clust_6="292.22488"></scales>
<clustering>
<clus scale="   33.903">  4  6 -1 -1</clus>
<clus scale="   71.885">  3  5 -1 -1</clus>
<clus scale="  292.225">  1  4  2 -1</clus>
<clus scale="  300.971">  2  3  1 -1</clus>
</clustering>
</event>
<event>
 6    0  0.3695460E+002  0.2122961E+03  0.7546771E-02  0.1139760E+00
         21   -1    0    0  505  502  0.00000000000E+00  0.00000000000E+00  0.25251934925E+03  0.25251934925E+03  0.00000000000E+00 0.  1.
          2   -1    0    0  504    0 -0.00000000000E+00 -0.00000000000E+00 -0.81418604402E+03  0.81418604402E+03  0.00000000000E+00 0. -1.
         21    1    1    2  503  502  0.33087342477E+02  0.27745004228E+01 -0.17200775611E+02  0.37394341369E+02  0.00000000000E+00 0.  1.
         21    1    1    2  504  503 -0.56573492720E+01 -0.89614274700E+02 -0.58309474958E+01  0.89981796934E+02  0.00000000000E+00 0. -1.
         21    1    1    2  505  501 -0.13600720690E+03 -0.10151365219E+03  0.14421028023E+03  0.22270964692E+03  0.00000000000E+00 0.  1.
          2    1    1    2  501    0  0.10857721370E+03  0.18835342647E+03 -0.68284525190E+03  0.71661960804E+03  0.00000000000E+00 0. -1.
<scales pt_clust_3="33.20346" pt_clust_4="89.13277" pt_clust_5="212.29613" pt_clust_6="14000.00000"></scales>
<clustering>
<clus scale="   33.203">  1  3  2 -1</clus>
<clus scale="   89.133">  1  4  2 -1</clus>
<clus scale="  212.296">  1  5  2 -1</clus>
<clus scale="   33.203">  1  3  2 -1</clus>
</clustering>
</event>
<event>
 6    0  0.3695460E+002  0.2069019E+03  0.7546771E-02  0.1144043E+00
         21   -1    0    0  505  502  0.00000000000E+00  0.00000000000E+00  0.21055765780E+03  0.21055765780E+03  0.00000000000E+00 0.  1.
          1   -1    0    0  502    0 -0.00000000000E+00 -0.00000000000E+00 -0.20438764362E+03  0.20438764362E+03  0.00000000000E+00 0. -1.
         21    1    1    2  503  501  0.66218519818E+01 -0.11546612266E+03  0.11036107607E+02  0.11618119503E+03  0.00000000000E+00 0. -1.
         21    1    1    2  504  503 -0.26851176731E+02  0.56839740048E+02  0.23577903623E+01  0.62907081604E+02  0.00000000000E+00 0.  1.
         21    1    1    2  505  504  0.27903260234E+02  0.14077037972E+03  0.27889156775E+02  0.14619403820E+03  0.00000000000E+00 0.  1.
          1    1    1    2  501    0 -0.76739354844E+01 -0.82143997107E+02 -0.35113040568E+02  0.89662986591E+02  0.00000000000E+00 0. -1.
<scales pt_clust_3="44.22042" pt_clust_4="40.57035" pt_clust_5="40.57035" pt_clust_6="204.43123"></scales>
<clustering>
<clus scale="   40.570">  4  5 -1 -1</clus>
<clus scale="   44.220">  3  6 -1 -1</clus>
<clus scale="  204.431">  2  3  1 -1</clus>
<clus scale="  206.902">  1  3  2 -1</clus>
</clustering>
</event>
<event>
 6    0  0.3695460E+002  0.1023382E+03  0.7546771E-02  0.1275454E+00
         21   -1    0    0  503  502  0.00000000000E+00  0.00000000000E+00  0.51169632668E+03  0.51169632668E+03  0.00000000000E+00 0. -1.
          2   -1    0    0  504    0 -0.00000000000E+00 -0.00000000000E+00 -0.12906255746E+03  0.12906255746E+03  0.00000000000E+00 0.  1.
         21    1    1    2  503  501 -0.11285087987E+02 -0.52672561298E+02  0.12436715453E+03  0.13553206650E+03  0.00000000000E+00 0. -1.
         21    1    1    2  504  505  0.63058962920E+02  0.47651152216E+00  0.16403527944E+01  0.63082094330E+02  0.00000000000E+00 0.  1.
         21    1    1    2  505  502 -0.76463374233E+02 -0.21164767272E+02  0.32763463979E+03  0.33710391894E+03  0.00000000000E+00 0. -1.
          2    1    1    2  501    0  0.24689499301E+02  0.73360817048E+02 -0.71008377891E+02  0.10504080438E+03  0.00000000000E+00 0.  1.
<scales pt_clust_3="53.86791" pt_clust_4="62.23027" pt_clust_5="102.33823" pt_clust_6="14000.00000"></scales>
<clustering>
<clus scale="   53.868">  1  3  2 -1</clus>
<clus scale="   62.230">  2  4  1 -1</clus>
<clus scale="  102.338">  1  5  2 -1</clus>
<clus scale="   53.868">  1  3  2 -1</clus>
</clustering>
</event>
<event>
 6    0  0.3695460E+002  0.1481693E+03  0.7546771E-02  0.1202741E+00
         -1   -1    0    0    0  501 -0.00000000000E+00  0.00000000000E+00  0.94870659353E+02  0.94870659353E+02  0.00000000000E+00 0. -1.
         21   -1    0    0  505  502  0.00000000000E+00 -0.00000000000E+00 -0.78758312922E+03  0.78758312922E+03  0.00000000000E+00 0. -1.
         21    1    1    2  503  501  0.35417286476E+02 -0.30457460764E+02  0.23307375829E+02  0.52204165212E+02  0.00000000000E+00 0.  1.
         21    1    1    2  504  503  0.12119560187E+03  0.49568734328E+01 -0.16067471764E+03  0.20131892459E+03  0.00000000000E+00 0. -1.
         21    1    1    2  505  504 -0.16238047502E+03 -0.24085600232E+02 -0.55525236638E+03  0.57901012528E+03  0.00000000000E+00 0. -1.
         -1    1    1    2    0  502  0.57675866748E+01  0.49586187563E+02 -0.92761673394E-01  0.49920573493E+02  0.00000000000E+00 0. -1.
<scales pt_clust_3="46.71232" pt_clust_4="148.16928" pt_clust_5="14000.00000" pt_clust_6="42.04612"></scales>
<clustering>
<clus scale="   46.712">  1  3  2 -1</clus>
<clus scale="   42.046">  1  6  2 -1</clus>
<clus scale="  148.169">  1  4  2 -1</clus>
<clus scale="  148.169">  2  3  1 -1</clus>
</clustering>
</event>
<event>
 6    0  0.3695460E+002  0.6748019E+02  0.7546771E-02  0.1368878E+00
         -2   -1    0    0    0  501 -0.00000000000E+00  0.00000000000E+00  0.85111422633E+03  0.85111422633E+03  0.00000000000E+00 0. -1.
         21   -1    0    0  503  502  0.00000000000E+00 -0.00000000000E+00 -0.13225529165E+03  0.13225529165E+03  0.00000000000E+00 0. -1.
         21    1    1    2  503  504 -0.45662774860E+02  0.68672350543E+02 -0.87834952520E+02  0.12048219628E+03  0.00000000000E+00 0. -1.
         21    1    1    2  504  501  0.10440441449E+02  0.54686642818E+02  0.19971202310E+03  0.20732709396E+03  0.00000000000E+00 0.  1.
         21    1    1    2  505  502 -0.10277501013E+02 -0.33946689484E+02 -0.46350203675E+01  0.35769933852E+02  0.00000000000E+00 0. -1.
         -2    1    1    2    0  505  0.45499834424E+02 -0.89412303876E+02  0.61161688447E+03  0.61979029387E+03  0.00000000000E+00 0. -1.
<scales pt_clust_3="14000.00000" pt_clust_4="54.47596" pt_clust_5="35.46836" pt_clust_6="67.48019"></scales>
<clustering>
<clus scale="   35.468">  2  5  1 -1</clus>
<clus scale="   54.476">  1  4  2 -1</clus>
<clus scale="   67.480">  1  6  2 -1</clus>
<clus scale="   35.468">  2  3  1 -1</clus>
</clustering>
</event>
<event>
 6    0  0.3695460E+002  0.1161825E+03  0.7546771E-02  0.1249531E+00
          2   -1    0    0  505    0 -0.00000000000E+00  0.00000000000E+00  0.12562234648E+04  0.12562234648E+04  0.00000000000E+00 0.  1.
         21   -1    0    0  501  502  0.00000000000E+00 -0.00000000000E+00 -0.99211763905E+02  0.99211763905E+02  0.00000000000E+00 0.  1.
         21    1    1    2  503  502  0.37844885421E+02  0.29270037326E+02 -0.56903065139E+02  0.74343320210E+02  0.00000000000E+00 0.  1.
         21    1    1    2  504  503  0.77276968537E+02  0.26534709678E+02  0.31654201220E+02  0.87623108475E+02  0.00000000000E+00 0. -1.
         21    1    1    2  505  504 -0.22464911601E+02 -0.35962028218E+02  0.12552510803E+03  0.13249336766E+03  0.00000000000E+00 0. -1.
          2    1    1    2  501    0 -0.92656942357E+02 -0.19842718786E+02  0.10567354568E+04  0.10609754323E+04  0.00000000000E+00 0.  1.
<scales pt_clust_3="47.53565" pt_clust_4="116.18248" pt_clust_5="42.40212" pt_clust_6="14000.00000"></scales>
<clustering>
<clus scale="   42.402">  1  5  2 -1</clus>
<clus scale="   47.536">  2  3  1 -1</clus>
<clus scale="  116.182">  2  4  1 -1</clus>
<clus scale="   47.536">  2  3  1 -1</clus>
</clustering>
</event>
<event>
 6    0  0.3695460E+002  0.1566573E+03  0.7546771E-02  0.1192523E+00
         21   -1    0    0  505  502  0.00000000000E+00  0.00000000000E+00  0.86121023843E+03  0.86121023843E+03  0.00000000000E+00 0. -1.
         -1   -1    0    0    0  501 -0.00000000000E+00 -0.00000000000E+00 -0.11676951310E+03  0.11676951310E+03  0.00000000000E+00 0.  1.
         21    1    1    2  503  502 -0.53525982599E+01 -0.69741177809E+02  0.15299323248E+03  0.16822428890E+03  0.00000000000E+00 0. -1.
         21    1    1    2  504  501 -0.12174015156E+02  0.15084603757E+03  0.41531818714E+03  0.44203159419E+03  0.00000000000E+00 0. -1.
         21    1    1    2  505  504 -0.67045722208E+02  0.54834199961E+02  0.18819550181E+03  0.20717013600E+03  0.00000000000E+00 0. -1.
         -1    1    1    2    0  503  0.84572335624E+02 -0.13593905972E+03 -0.12066196103E+02  0.16055373244E+03  0.00000000000E+00 0.  1.
<scales pt_clust_3="69.94628" pt_clust_4="14000.00000" pt_clust_5="77.04457" pt_clust_6="156.65726"></scales>
<clustering>
<clus scale="   69.946">  1  3  2 -1</clus>
<clus scale="   77.045">  1  5  2 -1</clus>
<clus scale="  156.657">  2  6  1 -1</clus>
<clus scale="   69.946">  1  3  2 -1</clus>
</clustering>
</event>
<event>
 6    0  0.4042658E+002  0.1162317E+03  0.7546771E-02  0.1249446E+00
         21   -1    0    0  503  502  0.00000000000E+00  0.00000000000E+00  0.18518745155E+03  0.18518745155E+03  0.00000000000E+00 0.  1.
          2   -1    0    0  505    0 -0.00000000000E+00 -0.00000000000E+00 -0.10235842062E+04  0.10235842062E+04  0.00000000000E+00 0. -1.
         21    1    1    2  503  501 -0.56421977870E+02 -0.18869155286E+02 -0.26787200044E+02  0.65245986039E+02  0.00000000000E+00 0.  1.
         21    1    1    2  504  502 -0.64810576985E+02  0.14916636090E+02  0.15353867588E+03  0.16732316610E+03  0.00000000000E+00 0.  1.
         21    1    1    2  505  504  0.40314714211E+02  0.19296989148E+02 -0.14016967494E+03  0.14712303608E+03  0.00000000000E+00 0. -1.
          2    1    1    2  501    0  0.80917840643E+02 -0.15344469952E+02 -0.82497855560E+03  0.82907946958E+03  0.00000000000E+00 0. -1.
<scales pt_clust_3="57.17481" pt_clust_4="116.23170" pt_clust_5="44.69508" pt_clust_6="14000.00000"></scales>
<clustering>
<clus scale="   44.695">  2  5  1 -1</clus>
<clus scale="   57.175">  1  3  2 -1</clus>
<clus scale="  116.232">  1  4  2 -1</clus>
<clus scale="   57.175">  1  3  2 -1</clus>
</clustering>
</event>
<event>
 6    0  0.3695460E+002  0.1603101E+03  0.7546771E-02  0.1188347E+00
         21   -1    0    0  504  502  0.00000000000E+00  0.00000000000E+00  0.10232264427E+03  0.10232264427E+03  0.00000000000E+00 0. -1.
          1   -1    0    0  502    0 -0.00000000000E+00 -0.00000000000E+00 -0.39447147120E+03  0.39447147120E+03  0.00000000000E+00 0. -1.
         21    1    1    2  503  505  0.26980964731E+02  0.59056460529E+02 -0.46010759454E+02  0.79577810811E+02  0.00000000000E+00 0. -1.
         21    1    1    2  504  503  0.52721993044E+02  0.97527505212E+01 -0.43587907022E+01  0.53793342987E+02  0.00000000000E+00 0. -1.
         21    1    1    2  505  501  0.11889667060E+01  0.69237646799E+02  0.48739098167E+01  0.69419164306E+02  0.00000000000E+00 0. -1.
          1    1    1    2  501    0 -0.80891924481E+02 -0.13804685785E+03 -0.24665318660E+03  0.29400379737E+03  0.00000000000E+00 0. -1.
<scales pt_clust_3="54.72337" pt_clust_4="53.61646" pt_clust_5="54.72337" pt_clust_6="149.81450"></scales>
<clustering>
<clus scale="   53.616">  1  4  2 -1</clus>
<clus scale="   54.723">  3  5 -1 -1</clus>
<clus scale="  149.815">  2  6  1 -1</clus>
<clus scale="   53.616">  1  3  2 -1</clus>
</clustering>
</event>
<event>
 6    0  0.3695460E+002  0.2140665E+03  0.7546771E-02  0.1138386E+00
          2   -1    0    0  505    0 -0.00000000000E+00  0.00000000000E+00  0.18507586608E+04  0.18507586608E+04  0.00000000000E+00 0. -1.
         21   -1    0    0  504  502  0.00000000000E+00 -0.00000000000E+00 -0.12359247818E+03  0.12359247818E+03  0.00000000000E+00 0. -1.
         21    1    1    2  503  502  0.15977297225E+02  0.14401229602E+03 -0.34193970264E+02  0.14887593168E+03  0.00000000000E+00 0. -1.
         21    1    1    2  504  501  0.10203132138E+02 -0.55902185889E+02  0.32702113493E+03  0.33192164886E+03  0.00000000000E+00 0. -1.
         21    1    1    2  505  503  0.23169138660E+02  0.56123176232E+02  0.10550398373E+02  0.61627354336E+02  0.00000000000E+00 0. -1.
          2    1    1    2  501    0 -0.49349568023E+02 -0.14423328636E+03  0.14237886196E+04  0.14319262041E+04  0.00000000000E+00 0. -1.
<scales pt_clust_3="209.17126" pt_clust_4="39.74569" pt_clust_5="30.12692" pt_clust_6="39.74569"></scales>
<clustering>
<clus scale="   30.127">  3  5 -1 -1</clus>
<clus scale="   39.746">  4  6 -1 -1</clus>
<clus scale="  209.171">  2  3  1 -1</clus>
<clus scale="  209.171">  2  3  1 -1</clus>
</clustering>
</event>
<event>
 6    0  0.3695460E+002  0.1100517E+03  0.7546771E-02  0.1260474E+00
         -1   -1    0    0    0  501 -0.00000000000E+00  0.00000000000E+00  0.24475807283E+03  0.24475807283E+03  0.00000000000E+00 0. -1.
         21   -1    0    0  505  502  0.00000000000E+00 -0.00000000000E+00 -0.91965411794E+03  0.91965411794E+03  0.00000000000E+00 0.  1.
         21    1    1    2  503  501 -0.43460532058E+02 -0.53761618664E+01  0.17225895675E+03  0.17773820395E+03  0.00000000000E+00 0. -1.
         21    1    1    2  504  502  0.98135831965E+02  0.11884093582E+03 -0.17016050486E+03  0.22958311557E+03  0.00000000000E+00 0. -1.
         21    1    1    2  505  503 -0.26240515796E+02 -0.10254201461E+03 -0.70667693887E+03  0.71455981230E+03  0.00000000000E+00 0.  1.
         -1    1    1    2    0  504 -0.28434784111E+02 -0.10922759349E+02  0.29682441864E+02  0.42531058936E+02  0.00000000000E+00 0. -1.
<scales pt_clust_3="68.86112" pt_clust_4="110.05173" pt_clust_5="14000.00000" pt_clust_6="30.46053"></scales>
<clustering>
<clus scale="   30.461">  1  6  2 -1</clus>
<clus scale="   68.861">  1  3  2 -1</clus>
<clus scale="  110.052">  1  4  2 -1</clus>
<clus scale="  110.052">  2  3  1 -1</clus>
</clustering>
</event>
<event>
 6    0  0.3695460E+002  0.8243634E+02  0.7546771E-02  0.1322276E+00
          2   -1    0    0  503    0 -0.00000000000E+00  0.00000000000E+00  0.55969698859E+03  0.55969698859E+03  0.00000000000E+00 0. -1.
         21   -1    0    0  501  502  0.00000000000E+00 -0.00000000000E+00 -0.12339860093E+03  0.12339860093E+03  0.00000000000E+00 0. -1.
         21    1    1    2  503  505  0.99688283549E+02 -0.12618718259E+02  0.51900877863E+02  0.11309591969E+03  0.00000000000E+00 0. -1.
         21    1    1    2  504  502 -0.23193708914E+02 -0.22476862707E+02 -0.61495298981E+02  0.69460991118E+02  0.00000000000E+00 0. -1.
         21    1    1    2  505  504 -0.27376999980E+02 -0.32683992996E+02 -0.40954982960E+01  0.42831257655E+02  0.00000000000E+00 0. -1.
          2    1    1    2  501    0 -0.49117574654E+02  0.67779573961E+02  0.44998830707E+03  0.45770742105E+03  0.00000000000E+00 0. -1.
<scales pt_clust_3="82.43634" pt_clust_4="32.29795" pt_clust_5="55.66485" pt_clust_6="14000.00000"></scales>
<clustering>
<clus scale="   32.298">  2  4  1 -1</clus>
<clus scale="   55.665">  2  5  1 -1</clus>
<clus scale="   82.436">  2  3  1 -1</clus>
<clus scale="   32.298">  2  3  1 -1</clus>
</clustering>
</event>
<event>
 6    0  0.6179733E+002  0.1420181E+03  0.7546771E-02  0.1210639E+00
         21   -1    0    0  505  502  0.00000000000E+00  0.00000000000E+00  0.60167700003E+03  0.60167700003E+03  0.00000000000E+00 0.  1.
          2   -1    0    0  503    0 -0.00000000000E+00 -0.00000000000E+00 -0.20339442298E+04  0.20339442298E+04  0.00000000000E+00 0. -1.
         21    1    1    2  503  502 -0.54997579033E+02 -0.45324817808E+02  0.54229321194E+03  0.54695612304E+03  0.00000000000E+00 0.  1.
         21    1    1    2  504  501 -0.68061769962E+02  0.86645136432E+02 -0.14860078695E+03  0.18499183247E+03  0.00000000000E+00 0.  1.
         21    1    1    2  505  504 -0.28437576155E+02 -0.23433772908E+02  0.26217991441E+02  0.45224114424E+02  0.00000000000E+00 0. -1.
          2    1    1    2  501    0  0.15149692515E+03 -0.17886545716E+02 -0.18521776462E+04  0.18584491599E+04  0.00000000000E+00 0. -1.
<scales pt_clust_3="106.72760" pt_clust_4="14000.00000" pt_clust_5="36.84885" pt_clust_6="142.01814"></scales>
<clustering>
<clus scale="   36.849">  1  5  2 -1</clus>
<clus scale="  106.728">  1  3  2 -1</clus>
<clus scale="  142.018">  2  6  1 -1</clus>
<clus scale="   36.849">  1  3  2 -1</clus>
</clustering>
</event>
<event>
 6    0  0.3695460E+002  0.8978630E+02  0.7546771E-02  0.1303370E+00
         21   -1    0    0  501  502  0.00000000000E+00  0.00000000000E+00  0.60410552224E+02  0.60410552224E+02  0.00000000000E+00 0. -1.
          2   -1    0    0  505    0 -0.00000000000E+00 -0.00000000000E+00 -0.44046228329E+03  0.44046228329E+03  0.00000000000E+00 0. -1.
         21    1    1    2  503  502  0.12494909343E+02 -0.37680518377E+02  0.20853009688E+01  0.39752895552E+02  0.00000000000E+00 0. -1.
         21    1    1    2  504  503  0.16530265884E+01  0.93782214248E+02 -0.12766498647E+03  0.15841775461E+03  0.00000000000E+00 0. -1.
         21    1    1    2  505  504  0.48899920466E+02  0.19810631931E+02 -0.14993224355E+03  0.15894445890E+03  0.00000000000E+00 0. -1.
          2    1    1    2  501    0 -0.63047856397E+02 -0.75912327801E+02 -0.10453980201E+03  0.14375772645E+03  0.00000000000E+00 0. -1.
<scales pt_clust_3="39.69816" pt_clust_4="89.78630" pt_clust_5="52.66180" pt_clust_6="14000.00000"></scales>
<clustering>
<clus scale="   39.698">  1  3  2 -1</clus>
<clus scale="   52.662">  2  5  1 -1</clus>
<clus scale="   89.786">  1  4  2 -1</clus>
<clus scale="   39.698">  1  3  2 -1</clus>
</clustering>
</event>
<event>
 6    0  0.3695460E+002  0.9666418E+02  0.7546771E-02  0.1287471E+00
         21   -1    0    0  503  502  0.00000000000E+00  0.00000000000E+00  0.35805756852E+03  0.35805756852E+03  0.00000000000E+00 0.  1.
          1   -1    0    0  504    0 -0.00000000000E+00 -0.00000000000E+00 -0.17885712942E+04  0.17885712942E+04  0.00000000000E+00 0.  1.
         21    1    1    2  503  501 -0.18458814101E+02 -0.78935769626E+02  0.23108322010E+03  0.24488984902E+03  0.00000000000E+00 0.  1.
         21    1    1    2  504  505 -0.57138203787E+02 -0.28444042918E+02 -0.17297861786E+03  0.18437852409E+03  0.00000000000E+00 0.  1.
         21    1    1    2  505  502  0.33876974686E+02 -0.17068908644E+02  0.10845752351E+03  0.11490009340E+03  0.00000000000E+00 0.  1.
          1    1    1    2  501    0  0.41720043202E+02  0.12444872119E+03 -0.15970758515E+04  0.16024603962E+04  0.00000000000E+00 0.  1.
<scales pt_clust_3="14000.00000" pt_clust_4="63.30489" pt_clust_5="37.93411" pt_clust_6="96.66418"></scales>
<clustering>
<clus scale="   37.934">  1  5  2 -1</clus>
<clus scale="   63.305">  2  4  1 -1</clus>
<clus scale="   96.664">  2  6  1 -1</clus>
<clus scale="   37.934">  1  3  2 -1</clus>
</clustering>
</event>
<event>
 6    0  0.3695460E+002  0.1611411E+03  0.7546771E-02  0.1187414E+00
          2   -1    0    0  504    0 -0.00000000000E+00  0.00000000000E+00  0.64054343746E+03  0.64054343746E+03  0.00000000000E+00 0.  1.
         21   -1    0    0  505  502  0.00000000000E+00 -0.00000000000E+00 -0.61622324952E+03  0.61622324952E+03  0.00000000000E+00 0.  1.
         21    1    1    2  503  502 -0.91670645741E+02 -0.73871771359E+02 -0.18062615169E+03  0.21560693999E+03  0.00000000000E+00 0.  1.
         21    1    1    2  504  503 -0.71107722096E+01  0.53696637915E+02  0.10754314835E+03  0.12041354061E+03  0.00000000000E+00 0.  1.
         21    1    1    2  505  501 -0.51503306644E+02 -0.11604221676E+02 -0.39830247842E+03  0.40178615316E+03  0.00000000000E+00 0.  1.
          2    1    1    2  501    0  0.15028472459E+03  0.31779355120E+02  0.49570566971E+03  0.51896005322E+03  0.00000000000E+00 0.  1.
<scales pt_clust_3="14000.00000" pt_clust_4="54.04691" pt_clust_5="52.79440" pt_clust_6="161.14109"></scales>
<clustering>
<clus scale="   52.794">  2  5  1 -1</clus>
<clus scale="   54.047">  1  4  2 -1</clus>
<clus scale="  161.141">  1  6  2 -1</clus>
<clus scale="   52.794">  2  3  1 -1</clus>
</clustering>
</event>
<event>
 6    0  0.3695460E+002  0.8584437E+02  0.7546771E-02  0.1313239E+00
         21   -1    0    0  505  502  0.00000000000E+00  0.00000000000E+00  0.12235712480E+03  0.12235712480E+03  0.00000000000E+00 0. -1.
         -1   -1    0    0    0  501 -0.00000000000E+00 -0.00000000000E+00 -0.82092055245E+03  0.82092055245E+03  0.00000000000E+00 0. -1.
         21    1    1    2  503  501 -0.23172736231E+02 -0.92790592240E+02 -0.19759837259E+03  0.21952718866E+03  0.00000000000E+00 0. -1.
         21    1    1    2  504  503  0.76365040803E+02 -0.58982689481E+01  0.10552175799E+02  0.77315958556E+02  0.00000000000E+00 0. -1.
         21    1    1    2  505  504 -0.27486193387E+02  0.16505263663E+02  0.60233995312E+02  0.68235245634E+02  0.00000000000E+00 0. -1.
         -1    1    1    2    0  502 -0.25706111184E+02  0.82183597525E+02 -0.57175122617E+03  0.57819928441E+03  0.00000000000E+00 0. -1.
<scales pt_clust_3="85.84437" pt_clust_4="55.97640" pt_clust_5="32.06111" pt_clust_6="14000.00000"></scales>
<clustering>
<clus scale="   32.061">  1  5  2 -1</clus>
<clus scale="   55.976">  1  4  2 -1</clus>
<clus scale="   85.844">  1  3  2 -1</clus>
<clus scale="   32.061">  1  3  2 -1</clus>
</clustering>
</event>
<event>
 6    0  0.3695460E+002  0.8580280E+02  0.7546771E-02  0.1313346E+00
         21   -1    0    0  503  502  0.00000000000E+00  0.00000000000E+00  0.47770550310E+02  0.47770550310E+02  0.00000000000E+00 0.  1.
          1   -1    0    0  504    0 -0.00000000000E+00 -0.00000000000E+00 -0.13209212445E+04  0.13209212445E+04  0.00000000000E+00 0.  1.
         21    1    1    2  503  501  0.95652503429E+02 -0.26901086328E+02 -0.41933865926E+02  0.10784952002E+03  0.00000000000E+00 0.  1.
         21    1    1    2  504  505 -0.25094721978E+02 -0.46262720159E+02 -0.31879694145E+03  0.32311216973E+03  0.00000000000E+00 0.  1.
         21    1    1    2  505  502 -0.86602392688E+01  0.52105321696E+02 -0.49667818338E+02  0.72504182443E+02  0.00000000000E+00 0.  1.
          1    1    1    2  501    0 -0.61897542182E+02  0.21058484792E+02 -0.86275206850E+03  0.86522592265E+03  0.00000000000E+00 0.  1.
<scales pt_clust_3="85.80280" pt_clust_4="52.63064" pt_clust_5="50.32240" pt_clust_6="14000.00000"></scales>
<clustering>
<clus scale="   52.631">  2  4  1 -1</clus>
<clus scale="   50.322">  1  5  2 -1</clus>
<clus scale="   85.803">  1  3  2 -1</clus>
<clus scale="   50.322">  1  3  2 -1</clus>
</clustering>
</event>
<event>
 6    0  0.3695460E+002  0.1405191E+03  0.7546771E-02  0.1212632E+00
          1   -1    0    0  502    0 -0.00000000000E+00  0.00000000000E+00  0.90656337187E+03  0.90656337187E+03  0.00000000000E+00 0.  1.
         21   -1    0    0  504  502  0.00000000000E+00 -0.00000000000E+00 -0.17307753003E+03  0.17307753003E+03  0.00000000000E+00 0.  1.
         21    1    1    2  503  501  0.23161550920E+02  0.43557511038E+02  0.19207210676E+03  0.19830634989E+03  0.00000000000E+00 0.  1.
         21    1    1    2  504  505 -0.62042403550E+02 -0.50960570512E+02 -0.11790260456E+03  0.14264383529E+03  0.00000000000E+00 0.  1.
         21    1    1    2  505  503 -0.18889112535E+02 -0.46863711869E+02 -0.20311258994E+02  0.54456894003E+02  0.00000000000E+00 0. -1.
          1    1    1    2  501    0  0.57769965166E+02  0.54266771344E+02  0.67962759862E+03  0.68423382272E+03  0.00000000000E+00 0.  1.
<scales pt_clust_3="42.46526" pt_clust_4="47.77027" pt_clust_5="47.77027" pt_clust_6="137.90134"></scales>
<clustering>
<clus scale="   42.465">  3  6 -1 -1</clus>
<clus scale="   47.770">  4  5 -1 -1</clus>
<clus scale="  137.901">  1  3  2 -1</clus>
<clus scale="  140.519">  2  3  1 -1</clus>
</clustering>
</event>
<event>
 6    0  0.3695460E+002  0.1532851E+03  0.7546771E-02  0.1196493E+00
          3   -1    0    0  505    0 -0.00000000000E+00  0.00000000000E+00  0.35668617810E+03  0.35668617810E+03  0.00000000000E+00 0. -1.
         21   -1    0    0  501  502  0.00000000000E+00 -0.00000000000E+00 -0.23311488415E+03  0.23311488415E+03  0.00000000000E+00 0. -1.
         21    1    1    2  503  504  0.88975198800E+02 -0.11920169937E+03 -0.77723912990E+02  0.16782919229E+03  0.00000000000E+00 0. -1.
         21    1    1    2  504  502  0.53701482572E+01  0.73059351387E+02 -0.83034393536E+01  0.73725534399E+02  0.00000000000E+00 0. -1.
         21    1    1    2  505  503  0.36766214980E+01 -0.53137109768E+02 -0.37043444012E+02  0.64879016056E+02  0.00000000000E+00 0.  1.
          3    1    1    2  501    0 -0.98021968555E+02  0.99279457748E+02  0.24664209031E+03  0.28336731951E+03  0.00000000000E+00 0. -1.
<scales pt_clust_3="31.07399" pt_clust_4="73.25645" pt_clust_5="31.07399" pt_clust_6="144.22130"></scales>
<clustering>
<clus scale="   31.074">  3  5 -1 -1</clus>
<clus scale="   73.256">  2  4  1 -1</clus>
<clus scale="  144.221">  1  6  2 -1</clus>
<clus scale="   73.256">  2  3  1 -1</clus>
</clustering>
</event>
<event>
 6    0  0.3695460E+002  0.8492059E+02  0.7546771E-02  0.1315640E+00
          2   -1    0    0  504    0 -0.00000000000E+00  0.00000000000E+00  0.12297562577E+04  0.12297562577E+04  0.00000000000E+00 0. -1.
         21   -1    0    0  505  502  0.00000000000E+00 -0.00000000000E+00 -0.11325014804E+03  0.11325014804E+03  0.00000000000E+00 0.  1.
         21    1    1    2  503  502  0.21409454428E+02  0.30418445167E+02 -0.44725459892E+02  0.58172272672E+02  0.00000000000E+00 0.  1.
         21    1    1    2  504  503 -0.32851237082E+02  0.52035254608E+02  0.12830942002E+03  0.14230312283E+03  0.00000000000E+00 0. -1.
         21    1    1    2  505  501 -0.85414260195E+02  0.22136091527E+02 -0.11001929896E+02  0.88919316542E+02  0.00000000000E+00 0.  1.
          2    1    1    2  501    0  0.96856042850E+02 -0.10458979130E+03  0.10439240795E+04  0.10536116937E+04  0.00000000000E+00 0. -1.
<scales pt_clust_3="37.19740" pt_clust_4="63.27522" pt_clust_5="84.92059" pt_clust_6="14000.00000"></scales>
<clustering>
<clus scale="   37.197">  2  3  1 -1</clus>
<clus scale="   63.275">  1  4  2 -1</clus>
<clus scale="   84.921">  2  5  1 -1</clus>
<clus scale="   37.197">  2  3  1 -1</clus>
</clustering>
</event>
<event>
 6    0  0.3695460E+002  0.1057624E+03  0.7546771E-02  0.1268625E+00
          2   -1    0    0  505    0 -0.00000000000E+00  0.00000000000E+00  0.65641957111E+03  0.65641957111E+03  0.00000000000E+00 0. -1.
         21   -1    0    0  504  502  0.00000000000E+00 -0.00000000000E+00 -0.19374309365E+03  0.19374309365E+03  0.00000000000E+00 0. -1.
         21    1    1    2  503  502  0.45327678073E+02  0.45072592440E+02 -0.36156674364E+02  0.73440057801E+02  0.00000000000E+00 0. -1.
         21    1    1    2  504  501  0.59564230990E+02 -0.75282684841E+02 -0.11519868321E+03  0.14995371574E+03  0.00000000000E+00 0. -1.
         21    1    1    2  505  503 -0.17205600945E+02  0.27738762488E+02  0.96909022350E+02  0.10225864394E+03  0.00000000000E+00 0.  1.
          2    1    1    2  501    0 -0.87686308118E+02  0.24713299136E+01  0.51712281268E+03  0.52451024727E+03  0.00000000000E+00 0. -1.
<scales pt_clust_3="64.17807" pt_clust_4="105.76238" pt_clust_5="32.64156" pt_clust_6="14000.00000"></scales>
<clustering>
<clus scale="   32.642">  1  5  2 -1</clus>
<clus scale="   64.178">  2  3  1 -1</clus>
<clus scale="  105.762">  2  4  1 -1</clus>
<clus scale="   64.178">  2  3  1 -1</clus>
</clustering>
</event>
<event>
 6    0  0.3695460E+002  0.1118862E+03  0.7546771E-02  0.1257116E+00
         21   -1    0    0  501  502  0.00000000000E+00  0.00000000000E+00  0.12461088068E+04  0.12461088068E+04  0.00000000000E+00 0. -1.
          1   -1    0    0  504    0 -0.00000000000E+00 -0.00000000000E+00 -0.14215328811E+03  0.14215328811E+03  0.00000000000E+00 0. -1.
         21    1    1    2  503  505  0.20467541765E+02 -0.81741754585E+02  0.28382316941E+03  0.29606794187E+03  0.00000000000E+00 0.  1.
         21    1    1    2  504  503  0.20546462408E+02 -0.29389206275E+02 -0.41157118862E+02  0.54587461894E+02  0.00000000000E+00 0. -1.
         21    1    1    2  505  502 -0.71746746898E+02  0.11567800739E+03  0.94165634137E+03  0.95144398801E+03  0.00000000000E+00 0. -1.
          1    1    1    2  501    0  0.30732742726E+02 -0.45470465339E+01 -0.80366873199E+02  0.86162703158E+02  0.00000000000E+00 0. -1.
<scales pt_clust_3="14000.00000" pt_clust_4="56.28185" pt_clust_5="111.88624" pt_clust_6="31.06730"></scales>
<clustering>
<clus scale="   31.067">  2  6  1 -1</clus>
<clus scale="   56.282">  2  4  1 -1</clus>
<clus scale="  111.886">  1  5  2 -1</clus>
<clus scale="  111.886">  1  3  2 -1</clus>
</clustering>
</event>
<event>
 6    0  0.3695460E+002  0.8979806E+02  0.7546771E-02  0.1303341E+00
          2   -1    0    0  505    0 -0.00000000000E+00  0.00000000000E+00  0.11675964109E+04  0.11675964109E+04  0.00000000000E+00 0.  1.
         21   -1    0    0  503  502  0.00000000000E+00 -0.00000000000E+00 -0.10534571650E+03  0.10534571650E+03  0.00000000000E+00 0.  1.
         21    1    1    2  503  504  0.33208839698E+02 -0.14218934360E+01 -0.11850448498E+02  0.35288552601E+02  0.00000000000E+00 0.  1.
         21    1    1    2  504  501  0.27895082040E+01 -0.69498767124E+02 -0.48274330477E+02  0.84665642210E+02  0.00000000000E+00 0.  1.
         21    1    1    2  505  502  0.54913008756E+02  0.87685255079E+02  0.19261343487E+03  0.21864143656E+03  0.00000000000E+00 0.  1.
          2    1    1    2  501    0 -0.90911356658E+02 -0.16764594519E+02  0.92976203849E+03  0.93434649602E+03  0.00000000000E+00 0.  1.
<scales pt_clust_3="33.23927" pt_clust_4="76.67505" pt_clust_5="89.79806" pt_clust_6="14000.00000"></scales>
<clustering>
<clus scale="   33.239">  2  3  1 -1</clus>
<clus scale="   76.675">  2  4  1 -1</clus>
<clus scale="   89.798">  2  5  1 -1</clus>
<clus scale="   33.239">  2  3  1 -1</clus>
</clustering>
</event>
<event>
 6    0  0.3695460E+002  0.8855141E+02  0.7546771E-02  0.1306398E+00
         21   -1    0    0  504  502  0.00000000000E+00  0.00000000000E+00  0.47228390510E+02  0.47228390510E+02  0.00000000000E+00 0.  1.
          1   -1    0    0  503    0 -0.00000000000E+00 -0.00000000000E+00 -0.25771528635E+04  0.25771528635E+04  0.00000000000E+00 0.  1.
         21    1    1    2  503  505 -0.28624749455E+02 -0.19731374344E+02 -0.24521658792E+03  0.24766888865E+03  0.00000000000E+00 0. -1.
         21    1    1    2  504  501 -0.31330943217E+02 -0.58736959917E+02 -0.31741658279E+02  0.73750873442E+02  0.00000000000E+00 0.  1.
         21    1    1    2  505  502  0.27434961495E+02 -0.31886979094E+02  0.47352913697E+01  0.42330598062E+02  0.00000000000E+00 0.  1.
          1    1    1    2  501    0  0.32520731178E+02  0.11035531335E+03 -0.22577015182E+04  0.22606308939E+04  0.00000000000E+00 0.  1.
<scales pt_clust_3="34.76641" pt_clust_4="14000.00000" pt_clust_5="42.03590" pt_clust_6="88.55141"></scales>
<clustering>
<clus scale="   34.766">  2  3  1 -1</clus>
<clus scale="   42.036">  1  5  2 -1</clus>
<clus scale="   88.551">  2  6  1 -1</clus>
<clus scale="   42.036">  1  3  2 -1</clus>
</clustering>
</event>
<event>
 6    0  0.3695460E+002  0.8031502E+02  0.7546771E-02  0.1328160E+00
          3   -1    0    0  504    0 -0.00000000000E+00  0.00000000000E+00  0.19338652642E+04  0.19338652642E+04  0.00000000000E+00 0. -1.
         21   -1    0    0  505  502  0.00000000000E+00 -0.00000000000E+00 -0.12893295719E+02  0.12893295719E+02  0.00000000000E+00 0.  1.
         21    1    1    2  503  502  0.24720908180E+02  0.42528586649E+02  0.28500900852E+03  0.28922299169E+03  0.00000000000E+00 0.  1.
         21    1    1    2  504  503 -0.66795256015E+02  0.54513884971E+02  0.29655251358E+03  0.30883128597E+03  0.00000000000E+00 0.  1.
         21    1    1    2  505  501  0.52702063961E+02 -0.96486902891E+01  0.24659337595E+03  0.25234678090E+03  0.00000000000E+00 0.  1.
          3    1    1    2  501    0 -0.10627716127E+02 -0.87393781331E+02  0.10928170704E+04  0.10963575013E+04  0.00000000000E+00 0. -1.
<scales pt_clust_3="49.19150" pt_clust_4="80.31502" pt_clust_5="59.31930" pt_clust_6="14000.00000"></scales>
<clustering>
<clus scale="   49.192">  2  3  1 -1</clus>
<clus scale="   59.319">  2  5  1 -1</clus>
<clus scale="   80.315">  2  4  1 -1</clus>
<clus scale="   49.192">  2  3  1 -1</clus>
</clustering>
</event>
<event>
 6    0  0.3695460E+002  0.2691218E+03  0.7546771E-02  0.1101783E+00
          2   -1    0    0  504    0 -0.00000000000E+00  0.00000000000E+00  0.10194969002E+04  0.10194969002E+04  0.00000000000E+00 0. -1.
         21   -1    0    0  505  502  0.00000000000E+00 -0.00000000000E+00 -0.32712324364E+03  0.32712324364E+03  0.00000000000E+00 0. -1.
         21    1    1    2  503  501 -0.29847037268E+02 -0.96709890561E+02  0.23690203328E+03  0.25761642405E+03  0.00000000000E+00 0.  1.
         21    1    1    2  504  502  0.80205771765E+02  0.29657118438E+01  0.17369550840E+02  0.82118588441E+02  0.00000000000E+00 0. -1.
         21    1    1    2  505  503 -0.33538181671E+02  0.25319528266E+03 -0.21533247257E+03  0.33406696115E+03  0.00000000000E+00 0. -1.
          2    1    1    2  501    0 -0.16820552826E+02 -0.15945110394E+03  0.65343454500E+03  0.67281817020E+03  0.00000000000E+00 0. -1.
<scales pt_clust_3="57.36433" pt_clust_4="80.26058" pt_clust_5="259.25580" pt_clust_6="57.36433"></scales>
<clustering>
<clus scale="   57.364">  3  6 -1 -1</clus>
<clus scale="   80.261">  2  4  1 -1</clus>
<clus scale="  259.256">  2  5  1 -1</clus>
<clus scale="   80.261">  2  3  1 -1</clus>
</clustering>
</event>
<event>
 6    0  0.3695460E+002  0.1691438E+03  0.7546771E-02  0.1178744E+00
         21   -1    0    0  501  502  0.00000000000E+00  0.00000000000E+00  0.14233118339E+03  0.14233118339E+03  0.00000000000E+00 0.  1.
         -1   -1    0    0    0  501 -0.00000000000E+00 -0.00000000000E+00 -0.39608236376E+03  0.39608236376E+03  0.00000000000E+00 0.  1.
         21    1    1    2  503  502 -0.10334944608E+03  0.50007888796E+02  0.76112652200E+02  0.13774989209E+03  0.00000000000E+00 0.  1.
         21    1    1    2  504  505  0.43249062200E+02 -0.39000071234E+02 -0.13860338755E+03  0.15034089922E+03  0.00000000000E+00 0.  1.
         21    1    1    2  505  503 -0.39367379263E+02  0.14005227775E+02 -0.11462538117E+02  0.43328128683E+02  0.00000000000E+00 0.  1.
         -1    1    1    2    0  504  0.99467763144E+02 -0.25013045337E+02 -0.17979790690E+03  0.20699462715E+03  0.00000000000E+00 0.  1.
<scales pt_clust_3="38.83419" pt_clust_4="32.35364" pt_clust_5="38.83419" pt_clust_6="162.20140"></scales>
<clustering>
<clus scale="   32.354">  4  6 -1 -1</clus>
<clus scale="   38.834">  3  5 -1 -1</clus>
<clus scale="  162.201">  2  4  1 -1</clus>
<clus scale="  169.144">  1  3  2 -1</clus>
</clustering>
</event>
<event>
 6    0  0.3695460E+002  0.9595423E+02  0.7546771E-02  0.1289041E+00
          1   -1    0    0  503    0 -0.00000000000E+00  0.00000000000E+00  0.56087388279E+03  0.56087388279E+03  0.00000000000E+00 0.  1.
         21   -1    0    0  505  502  0.00000000000E+00 -0.00000000000E+00 -0.38896387038E+03  0.38896387038E+03  0.00000000000E+00 0. -1.
         21    1    1    2  503  504 -0.35485506234E+02 -0.76170464251E+01  0.19874612339E+03  0.20203282434E+03  0.00000000000E+00 0.  1.
         21    1    1    2  504  502 -0.30470884397E+02 -0.34066486117E+02 -0.21122047071E+02  0.50350185151E+02  0.00000000000E+00 0. -1.
         21    1    1    2  505  501  0.66352544349E+02 -0.55855922333E+02 -0.33913973427E+03  0.35005471510E+03  0.00000000000E+00 0. -1.
          1    1    1    2  501    0 -0.39615371740E+00  0.97539454875E+02  0.33342567037E+03  0.34740002858E+03  0.00000000000E+00 0.  1.
<scales pt_clust_3="36.29381" pt_clust_4="46.90282" pt_clust_5="95.95423" pt_clust_6="14000.00000"></scales>
<clustering>
<clus scale="   36.294">  1  3  2 -1</clus>
<clus scale="   46.903">  2  4  1 -1</clus>
<clus scale="   95.954">  2  5  1 -1</clus>
<clus scale="   46.903">  2  3  1 -1</clus>
</clustering>
</event>
<event>
 6    0  0.3695460E+002  0.9707903E+02  0.7546771E-02  0.1286561E+00
         21   -1    0    0  504  502  0.00000000000E+00  0.00000000000E+00  0.32952447811E+04  0.32952447811E+04  0.00000000000E+00 0. -1.
         -2   -1    0    0    0  501 -0.00000000000E+00 -0.00000000000E+00 -0.68431724229E+03  0.68431724229E+03  0.00000000000E+00 0. -1.
         21    1    1    2  503  505  0.44138558854E+02 -0.15539159986E+02  0.11584490199E+04  0.11593937250E+04  0.00000000000E+00 0. -1.
         21    1    1    2  504  503  0.41165170274E+02  0.19728777160E+02  0.21148043674E+04  0.21152969787E+04  0.00000000000E+00 0. -1.
         21    1    1    2  505  501  0.62456659477E+02  0.11659457736E+02 -0.71535309656E+02  0.95676944952E+02  0.00000000000E+00 0.  1.
         -2    1    1    2    0  502 -0.14776038860E+03 -0.15849074910E+02 -0.59079053874E+03  0.60919437480E+03  0.00000000000E+00 0. -1.
<scales pt_clust_3="45.44630" pt_clust_4="45.44630" pt_clust_5="63.53564" pt_clust_6="85.48187"></scales>
<clustering>
<clus scale="   45.446">  3  4 -1 -1</clus>
<clus scale="   63.536">  2  5  1 -1</clus>
<clus scale="   85.482">  2  6  1 -1</clus>
<clus scale="   97.079">  1  3  2 -1</clus>
</clustering>
</event>
<event>
 6    0  0.3695460E+002  0.1933441E+03  0.7546771E-02  0.1155479E+00
          2   -1    0    0  504    0 -0.00000000000E+00  0.00000000000E+00  0.26411115997E+04  0.26411115997E+04  0.00000000000E+00 0. -1.
         21   -1    0    0  505  502  0.00000000000E+00 -0.00000000000E+00 -0.72294573367E+02  0.72294573367E+02  0.00000000000E+00 0.  1.
         21    1    1    2  503  502  0.83350174130E+02  0.82470670973E+02  0.46690768239E+02  0.12620891782E+03  0.00000000000E+00 0.  1.
         21    1    1    2  504  503  0.67154083308E+02  0.71791268173E+02  0.75729100302E+02  0.12409090911E+03  0.00000000000E+00 0.  1.
         21    1    1    2  505  501 -0.10149941720E+03 -0.66669668879E+02  0.51582045481E+03  0.52992236983E+03  0.00000000000E+00 0. -1.
          2    1    1    2  501    0 -0.49004840236E+02 -0.87592270268E+02  0.19305767029E+04  0.19331839763E+04  0.00000000000E+00 0. -1.
<scales pt_clust_3="31.91733" pt_clust_4="31.91733" pt_clust_5="190.17583" pt_clust_6="100.36872"></scales>
<clustering>
<clus scale="   31.917">  3  4 -1 -1</clus>
<clus scale="  100.369">  1  6  2 -1</clus>
<clus scale="  190.176">  1  5  2 -1</clus>
<clus scale="  193.344">  2  3  1 -1</clus>
</clustering>
</event>
<event>
 6    0  0.3695460E+002  0.3104336E+03  0.7546771E-02  0.1080138E+00
          1   -1    0    0  504    0 -0.00000000000E+00  0.00000000000E+00  0.39920924600E+03  0.39920924600E+03  0.00000000000E+00 0. -1.
         21   -1    0    0  503  502  0.00000000000E+00 -0.00000000000E+00 -0.38252260801E+03  0.38252260801E+03  0.00000000000E+00 0. -1.
         21    1    1    2  503  505  0.15550517376E+03 -0.16514364000E+03 -0.66767908129E+02  0.23645768005E+03  0.00000000000E+00 0. -1.
         21    1    1    2  504  502 -0.12339716132E+03 -0.13975211900E+02 -0.21477117096E+02  0.12602949071E+03  0.00000000000E+00 0. -1.
         21    1    1    2  505  501  0.85272487273E+02 -0.82120226405E+02  0.16662460201E+02  0.11955235778E+03  0.00000000000E+00 0. -1.
          1    1    1    2  501    0 -0.11738049971E+03  0.26123907831E+03  0.88269203011E+02  0.29969232547E+03  0.00000000000E+00 0. -1.
<scales pt_clust_3="51.68907" pt_clust_4="124.18601" pt_clust_5="51.68907" pt_clust_6="302.07575"></scales>
<clustering>
<clus scale="   51.689">  3  5 -1 -1</clus>
<clus scale="  124.186">  2  4  1 -1</clus>
<clus scale="  302.076">  1  6  2 -1</clus>
<clus scale="  124.186">  2  3  1 -1</clus>
</clustering>
</event>
<event>
 6    0  0.3695460E+002  0.9673210E+02  0.7546771E-02  0.1287322E+00
          2   -1    0    0  504    0 -0.00000000000E+00  0.00000000000E+00  0.12070426549E+03  0.12070426549E+03  0.00000000000E+00 0. -1.
         21   -1    0    0  501  502  0.00000000000E+00 -0.00000000000E+00 -0.15747376921E+04  0.15747376921E+04  0.00000000000E+00 0.  1.
         21    1    1    2  503  502  0.18325246206E+02 -0.49411579680E+02 -0.17933534278E+03  0.18691838867E+03  0.00000000000E+00 0.  1.
         21    1    1    2  504  505 -0.41875643482E+02 -0.44989309742E+01  0.30980044878E+01  0.42230410000E+02  0.00000000000E+00 0. -1.
         21    1    1    2  505  503  0.70356771896E+02  0.93395441033E+02 -0.13593156342E+04  0.13643356541E+04  0.00000000000E+00 0.  1.
          2    1    1    2  501    0 -0.46806374621E+02 -0.39484930379E+02  0.81519545845E+02  0.10195750481E+03  0.00000000000E+00 0. -1.
<scales pt_clust_3="52.32410" pt_clust_4="42.11662" pt_clust_5="14000.00000" pt_clust_6="96.73210"></scales>
<clustering>
<clus scale="   42.117">  1  4  2 -1</clus>
<clus scale="   52.324">  2  3  1 -1</clus>
<clus scale="   96.732">  1  6  2 -1</clus>
<clus scale="   52.324">  2  3  1 -1</clus>
</clustering>
</event>
<event>
 6    0  0.3695460E+002  0.1150131E+03  0.7546771E-02  0.1251558E+00
          2   -1    0    0  505    0 -0.00000000000E+00  0.00000000000E+00  0.55468199961E+03  0.55468199961E+03  0.00000000000E+00 0. -1.
         21   -1    0    0  501  502  0.00000000000E+00 -0.00000000000E+00 -0.15436337285E+03  0.15436337285E+03  0.00000000000E+00 0. -1.
         21    1    1    2  503  502  0.23149600592E+02 -0.87609764516E+02  0.12220320248E+02  0.91436924013E+02  0.00000000000E+00 0.  1.
         21    1    1    2  504  503 -0.13382631694E+01  0.22434766936E+03  0.40153048757E+02  0.22791650888E+03  0.00000000000E+00 0. -1.
         21    1    1    2  505  504  0.82685374569E+01 -0.10496557747E+03  0.32210804662E+03  0.33888011872E+03  0.00000000000E+00 0. -1.
          2    1    1    2  501    0 -0.30079874880E+02 -0.31772327370E+02  0.25837211128E+02  0.50811820851E+02  0.00000000000E+00 0. -1.
<scales pt_clust_3="97.60111" pt_clust_4="14000.00000" pt_clust_5="115.01306" pt_clust_6="43.75248"></scales>
<clustering>
<clus scale="   43.752">  2  6  1 -1</clus>
<clus scale="   97.601">  2  3  1 -1</clus>
<clus scale="  115.013">  1  5  2 -1</clus>
<clus scale="   43.752">  2  3  1 -1</clus>
</clustering>
</event>
<event>
 6    0  0.3695460E+002  0.1800250E+03  0.7546771E-02  0.1167779E+00
         21   -1    0    0  503  502  0.00000000000E+00  0.00000000000E+00  0.20742212027E+03  0.20742212027E+03  0.00000000000E+00 0.  1.
          2   -1    0    0  504    0 -0.00000000000E+00 -0.00000000000E+00 -0.40295160642E+03  0.40295160642E+03  0.00000000000E+00 0.  1.
         21    1    1    2  503  501  0.62294719617E+02 -0.86202525256E+02 -0.18944262248E+03  0.21725564357E+03  0.00000000000E+00 0.  1.
         21    1    1    2  504  505 -0.23786406832E+02  0.27149968125E+02  0.29434302191E+01  0.36215710688E+02  0.00000000000E+00 0.  1.
         21    1    1    2  505  502 -0.96413292781E+02  0.92800779346E+02  0.13989385594E+03  0.19359183506E+03  0.00000000000E+00 0.  1.
          2    1    1    2  501    0  0.57904979996E+02 -0.33748222215E+02 -0.14892414983E+03  0.16331053736E+03  0.00000000000E+00 0.  1.
<scales pt_clust_3="30.76949" pt_clust_4="31.04407" pt_clust_5="31.04407" pt_clust_6="174.17964"></scales>
<clustering>
<clus scale="   30.769">  3  6 -1 -1</clus>
<clus scale="   31.044">  4  5 -1 -1</clus>
<clus scale="  174.180">  2  3  1 -1</clus>
<clus scale="  180.025">  1  3  2 -1</clus>
</clustering>
</event>
<event>
 6    0  0.3695460E+002  0.1501595E+03  0.7546771E-02  0.1200277E+00
         -2   -1    0    0    0  501 -0.00000000000E+00  0.00000000000E+00  0.43965554564E+02  0.43965554564E+02  0.00000000000E+00 0.  1.
         21   -1    0    0  501  502  0.00000000000E+00 -0.00000000000E+00 -0.67742205674E+03  0.67742205674E+03  0.00000000000E+00 0.  1.
         21    1    1    2  503  502  0.52434726616E+02  0.63527833593E+02 -0.38997832760E+03  0.39858284232E+03  0.00000000000E+00 0.  1.
         21    1    1    2  504  503  0.31686323266E+02  0.42406534835E+02 -0.10923832158E+03  0.12138924244E+03  0.00000000000E+00 0.  1.
         21    1    1    2  505  504 -0.18514477846E+02 -0.75110564143E+02 -0.75798646291E+02  0.10830428207E+03  0.00000000000E+00 0.  1.
         -2    1    1    2    0  505 -0.65606572036E+02 -0.30823804285E+02 -0.58441206703E+02  0.93111244465E+02  0.00000000000E+00 0.  1.
<scales pt_clust_3="145.44314" pt_clust_4="42.83639" pt_clust_5="63.10156" pt_clust_6="63.10156"></scales>
<clustering>
<clus scale="   42.836">  3  4 -1 -1</clus>
<clus scale="   63.102">  5  6 -1 -1</clus>
<clus scale="  145.443">  2  3  1 -1</clus>
<clus scale="  145.443">  2  3  1 -1</clus>
</clustering>
</event>
<event>
 6    0  0.3695460E+002  0.1154505E+03  0.7546771E-02  0.1250797E+00
         21   -1    0    0  503  502  0.00000000000E+00  0.00000000000E+00  0.67742008883E+03  0.67742008883E+03  0.00000000000E+00 0. -1.
         -4   -1    0    0    0  501 -0.00000000000E+00 -0.00000000000E+00 -0.61232169861E+02  0.61232169861E+02  0.00000000000E+00 0. -1.
         21    1    1    2  503  504  0.21615700299E+02 -0.24505256529E+02  0.75045847100E+02  0.81851238622E+02  0.00000000000E+00 0.  1.
         21    1    1    2  504  501  0.73355552403E+01 -0.84707680741E+02  0.64922288542E+02  0.10697712417E+03  0.00000000000E+00 0. -1.
         21    1    1    2  505  502  0.31469646683E+02  0.14256670108E+03  0.45464906934E+03  0.47751584180E+03  0.00000000000E+00 0. -1.
         -4    1    1    2    0  505 -0.60420902223E+02 -0.33353763806E+02  0.21570713992E+02  0.72308054099E+02  0.00000000000E+00 0. -1.
<scales pt_clust_3="32.67638" pt_clust_4="14000.00000" pt_clust_5="115.45050" pt_clust_6="68.50636"></scales>
<clustering>
<clus scale="   32.676">  1  3  2 -1</clus>
<clus scale="   68.506">  2  6  1 -1</clus>
<clus scale="  115.451">  1  5  2 -1</clus>
<clus scale="   32.676">  1  3  2 -1</clus>
</clustering>
</event>
<event>
 6    0  0.3695460E+002  0.8366829E+02  0.7546771E-02  0.1318952E+00
         21   -1    0    0  505  502  0.00000000000E+00  0.00000000000E+00  0.79087660040E+02  0.79087660040E+02  0.00000000000E+00 0. -1.
          2   -1    0    0  504    0 -0.00000000000E+00 -0.00000000000E+00 -0.54272542778E+03  0.54272542778E+03  0.00000000000E+00 0. -1.
         21    1    1    2  503  501  0.50435695820E+02  0.17390723506E+02 -0.20212113518E+02  0.57050207798E+02  0.00000000000E+00 0. -1.
         21    1    1    2  504  502 -0.14150087706E+03 -0.37851111119E+02 -0.15516758176E+03  0.21338271544E+03  0.00000000000E+00 0. -1.
         21    1    1    2  505  503  0.16586844098E+02  0.30658621602E+02  0.15724535222E+02  0.38240495337E+02  0.00000000000E+00 0. -1.
          2    1    1    2  501    0  0.74478337137E+02 -0.10198233988E+02 -0.30398260768E+03  0.31313966924E+03  0.00000000000E+00 0. -1.
<scales pt_clust_3="62.97965" pt_clust_4="83.66829" pt_clust_5="34.85792" pt_clust_6="14000.00000"></scales>
<clustering>
<clus scale="   34.858">  1  5  2 -1</clus>
<clus scale="   62.980">  1  3  2 -1</clus>
<clus scale="   83.668">  1  4  2 -1</clus>
<clus scale="   34.858">  1  3  2 -1</clus>
</clustering>
</event>
<event>
 6    0  0.3695460E+002  0.1430646E+03  0.7546771E-02  0.1209264E+00
         21   -1    0    0  504  502  0.00000000000E+00  0.00000000000E+00  0.98095572351E+02  0.98095572351E+02  0.00000000000E+00 0. -1.
          1   -1    0    0  505    0 -0.00000000000E+00 -0.00000000000E+00 -0.28652069733E+04  0.28652069733E+04  0.00000000000E+00 0.  1.
         21    1    1    2  503  501 -0.81109907692E+02  0.45032521278E+02 -0.11550200080E+04  0.11587398172E+04  0.00000000000E+00 0.  1.
         21    1    1    2  504  503  0.60365183133E+02 -0.24351280194E+02 -0.36559796355E+02  0.74656271614E+02  0.00000000000E+00 0.  1.
         21    1    1    2  505  502  0.90745470099E+02  0.51858246875E+01  0.49272390988E+02  0.10338956250E+03  0.00000000000E+00 0. -1.
          1    1    1    2  501    0 -0.70000745539E+02 -0.25867065771E+02 -0.16248039877E+04  0.16265168944E+04  0.00000000000E+00 0.  1.
<scales pt_clust_3="143.06458" pt_clust_4="65.09178" pt_clust_5="14000.00000" pt_clust_6="74.10661"></scales>
<clustering>
<clus scale="   65.092">  1  4  2 -1</clus>
<clus scale="   74.107">  2  6  1 -1</clus>
<clus scale="  143.065">  2  3  1 -1</clus>
<clus scale="   65.092">  1  3  2 -1</clus>
</clustering>
</event>
<event>
 6    0  0.3695460E+002  0.7949769E+02  0.7546771E-02  0.1330483E+00
          2   -1    0    0  505    0 -0.00000000000E+00  0.00000000000E+00  0.68402459057E+03  0.68402459057E+03  0.00000000000E+00 0. -1.
         21   -1    0    0  504  502  0.00000000000E+00 -0.00000000000E+00 -0.49279377825E+02  0.49279377825E+02  0.00000000000E+00 0.  1.
         21    1    1    2  503  502 -0.46950039336E+02 -0.24218565499E+02  0.44453934135E+02  0.69043445514E+02  0.00000000000E+00 0.  1.
         21    1    1    2  504  501  0.72913720055E+02  0.10077104572E+03  0.86647728678E+02  0.15158840032E+03  0.00000000000E+00 0.  1.
         21    1    1    2  505  503 -0.23997279410E+02 -0.19074681574E+02  0.90638411118E+02  0.95681944307E+02  0.00000000000E+00 0. -1.
          2    1    1    2  501    0 -0.19664013100E+01 -0.57477798645E+02  0.41300513882E+03  0.41699017826E+03  0.00000000000E+00 0. -1.
<scales pt_clust_3="55.71956" pt_clust_4="14000.00000" pt_clust_5="30.65474" pt_clust_6="79.49769"></scales>
<clustering>
<clus scale="   30.655">  1  5  2 -1</clus>
<clus scale="   55.720">  2  3  1 -1</clus>
<clus scale="   79.498">  1  6  2 -1</clus>
<clus scale="   55.720">  2  3  1 -1</clus>
</clustering>
</event>
<event>
 6    0  0.3695460E+002  0.8429132E+02  0.7546771E-02  0.1317296E+00
          2   -1    0    0  505    0 -0.00000000000E+00  0.00000000000E+00  0.17869263719E+04  0.17869263719E+04  0.00000000000E+00 0. -1.
         21   -1    0    0  503  502  0.00000000000E+00 -0.00000000000E+00 -0.64381000797E+02  0.64381000797E+02  0.00000000000E+00 0. -1.
         21    1    1    2  503  504  0.28459647257E+02  0.23012973143E+02  0.14397900741E+02  0.39329988567E+02  0.00000000000E+00 0. -1.
         21    1    1    2  504  501 -0.65300262353E+02 -0.11866701563E+03  0.54176565337E+03  0.55844069339E+03  0.00000000000E+00 0.  1.
         21    1    1    2  505  502 -0.73707247082E+01  0.32786524660E+02 -0.35683841540E+02  0.49016531181E+02  0.00000000000E+00 0. -1.
          2    1    1    2  501    0  0.44211339804E+02  0.62867517829E+02  0.12020656585E+04  0.12045201595E+04  0.00000000000E+00 0. -1.
<scales pt_clust_3="48.14156" pt_clust_4="84.29132" pt_clust_5="33.60482" pt_clust_6="14000.00000"></scales>
<clustering>
<clus scale="   33.605">  2  5  1 -1</clus>
<clus scale="   48.142">  2  3  1 -1</clus>
<clus scale="   84.291">  2  4  1 -1</clus>
<clus scale="   33.605">  2  3  1 -1</clus>
</clustering>
</event>
<event>
 6    0  0.3695460E+002  0.1418768E+03  0.7546771E-02  0.1210826E+00
         21   -1    0    0  504  502  0.00000000000E+00  0.00000000000E+00  0.85381097333E+02  0.85381097333E+02  0.00000000000E+00 0.  1.
          2   -1    0    0  505    0 -0.00000000000E+00 -0.00000000000E+00 -0.13863481386E+04  0.13863481386E+04  0.00000000000E+00 0.  1.
         21    1    1    2  503  501  0.36451247559E+02  0.38430570377E+01 -0.19172710418E+03  0.19519924440E+03  0.00000000000E+00 0. -1.
         21    1    1    2  504  503 -0.70604952343E+02  0.15134617644E+02 -0.45962727257E+00  0.72210298461E+02  0.00000000000E+00 0.  1.
         21    1    1    2  505  502 -0.56157862494E+02 -0.67755528060E+02  0.27640013125E+01  0.88046333290E+02  0.00000000000E+00 0.  1.
          2    1    1    2  501    0  0.90311567278E+02  0.48777853378E+02 -0.11115443112E+04  0.11162733598E+04  0.00000000000E+00 0.  1.
<scales pt_clust_3="30.50704" pt_clust_4="72.20884" pt_clust_5="132.37369" pt_clust_6="30.50704"></scales>
<clustering>
<clus scale="   30.507">  3  6 -1 -1</clus>
<clus scale="   72.209">  1  4  2 -1</clus>
<clus scale="  132.374">  1  5  2 -1</clus>
<clus scale="   72.209">  1  3  2 -1</clus>
</clustering>
</event>
<event>
 6    0  0.3695460E+002  0.1177815E+03  0.7546771E-02  0.1246802E+00
          2   -1    0    0  505    0 -0.00000000000E+00  0.00000000000E+00  0.10916509958E+04  0.10916509958E+04  0.00000000000E+00 0.  1.
         21   -1    0    0  503  502  0.00000000000E+00 -0.00000000000E+00 -0.14560013454E+03  0.14560013454E+03  0.00000000000E+00 0. -1.
         21    1    1    2  503  501 -0.12607816604E+02 -0.43505008617E+02 -0.82071232329E+01  0.46032593736E+02  0.00000000000E+00 0. -1.
         21    1    1    2  504  502  0.10953225556E+03 -0.32363604764E+02 -0.78872507212E+02  0.13880054148E+03  0.00000000000E+00 0. -1.
         21    1    1    2  505  504  0.37210991993E+01  0.94981650246E+02  0.40627233988E+03  0.41724402286E+03  0.00000000000E+00 0.  1.
          2    1    1    2  501    0 -0.10064553816E+03 -0.19113036865E+02  0.62685815188E+03  0.63517397231E+03  0.00000000000E+00 0.  1.
<scales pt_clust_3="45.29506" pt_clust_4="14000.00000" pt_clust_5="93.02022" pt_clust_6="117.78147"></scales>
<clustering>
<clus scale="   45.295">  2  3  1 -1</clus>
<clus scale="   93.020">  1  5  2 -1</clus>
<clus scale="  117.781">  1  6  2 -1</clus>
<clus scale="   45.295">  2  3  1 -1</clus>
</clustering>
</event>
<event>
 6    0  0.3695460E+002  0.4193099E+03  0.7546771E-02  0.1037291E+00
          2   -1    0    0  505    0 -0.00000000000E+00  0.00000000000E+00  0.18207417330E+04  0.18207417330E+04  0.00000000000E+00 0.  1.
         21   -1    0    0  504  502  0.00000000000E+00 -0.00000000000E+00 -0.21559307916E+03  0.21559307916E+03  0.00000000000E+00 0.  1.
         21    1    1    2  503  502  0.35018773108E+03  0.21684218265E+03  0.57219732604E+02  0.41584381319E+03  0.00000000000E+00 0.  1.
         21    1    1    2  504  501 -0.63510510441E+02 -0.46667190795E+02  0.19614801874E+03  0.21138934904E+03  0.00000000000E+00 0.  1.
         21    1    1    2  505  503  0.28609526553E+02 -0.32004686969E+02  0.71931094306E+02  0.83766862933E+02  0.00000000000E+00 0.  1.
          2    1    1    2  501    0 -0.31528674719E+03 -0.13817030488E+03  0.12798498082E+04  0.13253347870E+04  0.00000000000E+00 0.  1.
<scales pt_clust_3="412.94257" pt_clust_4="34.83189" pt_clust_5="42.92790" pt_clust_6="34.83189"></scales>
<clustering>
<clus scale="   34.832">  4  6 -1 -1</clus>
<clus scale="   42.928">  1  5  2 -1</clus>
<clus scale="  412.943">  2  3  1 -1</clus>
<clus scale="  412.943">  2  3  1 -1</clus>
</clustering>
</event>
<event>
 6    0  0.3695460E+002  0.1751282E+03  0.7546771E-02  0.1172603E+00
         21   -1    0    0  504  502  0.00000000000E+00  0.00000000000E+00  0.10516784774E+04  0.10516784774E+04  0.00000000000E+00 0.  1.
          3   -1    0    0  502    0 -0.00000000000E+00 -0.00000000000E+00 -0.67367036359E+02  0.67367036359E+02  0.00000000000E+00 0. -1.
         21    1    1    2  503  505  0.17969954261E+02  0.84732422361E+02  0.60259755322E+03  0.60879086212E+03  0.00000000000E+00 0.  1.
         21    1    1    2  504  503  0.76831025248E+01  0.77519706572E+02  0.31230446791E+03  0.32187329130E+03  0.00000000000E+00 0.  1.
         21    1    1    2  505  501  0.13976329667E+02 -0.91084025222E+02  0.49165705808E+02  0.10444569914E+03  0.00000000000E+00 0. -1.
          3    1    1    2  501    0 -0.39629386453E+02 -0.71168103711E+02  0.20243714068E+02  0.83935661168E+02  0.00000000000E+00 0. -1.
<scales pt_clust_3="170.55808" pt_clust_4="43.52295" pt_clust_5="57.08191" pt_clust_6="57.08191"></scales>
<clustering>
<clus scale="   43.523">  3  4 -1 -1</clus>
<clus scale="   57.082">  5  6 -1 -1</clus>
<clus scale="  170.558">  1  3  2 -1</clus>
<clus scale="  170.558">  1  3  2 -1</clus>
</clustering>
</event>
<event>
 6    0  0.3695460E+002  0.7725008E+02  0.7546771E-02  0.1337042E+00
         21   -1    0    0  504  502  0.00000000000E+00  0.00000000000E+00  0.51411283266E+02  0.51411283266E+02  0.00000000000E+00 0.  1.
          2   -1    0    0  503    0 -0.00000000000E+00 -0.00000000000E+00 -0.50805616409E+03  0.50805616409E+03  0.00000000000E+00 0. -1.
         21    1    1    2  503  502 -0.42511163411E+02 -0.94185333484E+01 -0.44900682007E+02  0.62545815445E+02  0.00000000000E+00 0.  1.
         21    1    1    2  504  505  0.62846643399E+02  0.20437967189E+02 -0.12422797994E+02  0.67243862169E+02  0.00000000000E+00 0.  1.
         21    1    1    2  505  501  0.25680448444E+02  0.60985135453E+02 -0.11376652553E+03  0.13161114888E+03  0.00000000000E+00 0.  1.
          2    1    1    2  501    0 -0.46015928433E+02 -0.72004569294E+02 -0.28555487529E+03  0.29806662086E+03  0.00000000000E+00 0. -1.
<scales pt_clust_3="43.54202" pt_clust_4="38.28747" pt_clust_5="14000.00000" pt_clust_6="77.25008"></scales>
<clustering>
<clus scale="   43.542">  1  3  2 -1</clus>
<clus scale="   38.287">  1  4  2 -1</clus>
<clus scale="   77.250">  2  6  1 -1</clus>
<clus scale="   43.542">  1  3  2 -1</clus>
</clustering>
</event>
<event>
 6    0  0.3695460E+002  0.2987649E+03  0.7546771E-02  0.1085860E+00
          2   -1    0    0  502    0 -0.00000000000E+00  0.00000000000E+00  0.33533338549E+04  0.33533338549E+04  0.00000000000E+00 0.  1.
         21   -1    0    0  503  502  0.00000000000E+00 -0.00000000000E+00 -0.62037779352E+02  0.62037779352E+02  0.00000000000E+00 0. -1.
         21    1    1    2  503  504  0.21388019569E+02 -0.38529573018E+02  0.14413361342E+02  0.46365076978E+02  0.00000000000E+00 0.  1.
         21    1    1    2  504  505  0.53058633998E+02 -0.23585881036E+03  0.33976887210E+03  0.41699818167E+03  0.00000000000E+00 0. -1.
         21    1    1    2  505  501 -0.67755776186E+02  0.10523755898E+03  0.14082315526E+04  0.14137828315E+04  0.00000000000E+00 0.  1.
          2    1    1    2  501    0 -0.66908773808E+01  0.16915082440E+03  0.15288822895E+04  0.15382255441E+04  0.00000000000E+00 0.  1.
<scales pt_clust_3="39.19829" pt_clust_4="39.19829" pt_clust_5="71.34533" pt_clust_6="296.16841"></scales>
<clustering>
<clus scale="   39.198">  3  4 -1 -1</clus>
<clus scale="   71.345">  5  6 -1 -1</clus>
<clus scale="  296.168">  1  5  2 -1</clus>
<clus scale="  298.765">  2  3  1 -1</clus>
</clustering>
</event>
<event>
 6    0  0.3695460E+002  0.8456567E+02  0.7546771E-02  0.1316572E+00
         21   -1    0    0  503  502  0.00000000000E+00  0.00000000000E+00  0.24326196021E+02  0.24326196021E+02  0.00000000000E+00 0. -1.
          2   -1    0    0  504    0 -0.00000000000E+00 -0.00000000000E+00 -0.16776929785E+04  0.16776929785E+04  0.00000000000E+00 0.  1.
         21    1    1    2  503  501  0.48509419997E+02  0.86728848552E+02 -0.12652925521E+03  0.16088725687E+03  0.00000000000E+00 0. -1.
         21    1    1    2  504  505 -0.37082519859E+02  0.28012889215E+02 -0.18659524508E+03  0.19229565967E+03  0.00000000000E+00 0. -1.
         21    1    1    2  505  502  0.73445473568E+01 -0.33224553253E+02 -0.97222853876E+02  0.10300532331E+03  0.00000000000E+00 0. -1.
          2    1    1    2  501    0 -0.18771447494E+02 -0.81517184514E+02 -0.12430194283E+04  0.12458309347E+04  0.00000000000E+00 0.  1.
<scales pt_clust_3="14000.00000" pt_clust_4="43.13191" pt_clust_5="34.02666" pt_clust_6="84.56567"></scales>
<clustering>
<clus scale="   34.027">  1  5  2 -1</clus>
<clus scale="   43.132">  1  4  2 -1</clus>
<clus scale="   84.566">  2  6  1 -1</clus>
<clus scale="   34.027">  1  3  2 -1</clus>
</clustering>
</event>
<event>
 6    0  0.3695460E+002  0.1002035E+03  0.7546771E-02  0.1279869E+00
          1   -1    0    0  505    0 -0.00000000000E+00  0.00000000000E+00  0.69475091138E+03  0.69475091138E+03  0.00000000000E+00 0. -1.
         21   -1    0    0  503  502  0.00000000000E+00 -0.00000000000E+00 -0.56643000683E+02  0.56643000683E+02  0.00000000000E+00 0.  1.
         21    1    1    2  503  501  0.46739165976E+02  0.79015675589E+02  0.31041766174E+02  0.96910359983E+02  0.00000000000E+00 0.  1.
         21    1    1    2  504  502  0.65590495033E+02 -0.16701650223E+02  0.78540442586E+02  0.10368056366E+03  0.00000000000E+00 0. -1.
         21    1    1    2  505  504 -0.24647553628E+02 -0.60104477145E+02  0.17843658176E+03  0.18989382240E+03  0.00000000000E+00 0. -1.
          1    1    1    2  501    0 -0.87682107380E+02 -0.22095482207E+01  0.35008912018E+03  0.36090916603E+03  0.00000000000E+00 0. -1.
<scales pt_clust_3="100.20352" pt_clust_4="67.05768" pt_clust_5="64.96191" pt_clust_6="14000.00000"></scales>
<clustering>
<clus scale="   64.962">  1  5  2 -1</clus>
<clus scale="   67.058">  2  4  1 -1</clus>
<clus scale="  100.204">  2  3  1 -1</clus>
<clus scale="   67.058">  2  3  1 -1</clus>
</clustering>
</event>
<event>
 6    0  0.3695460E+002  0.6025450E+02  0.7546771E-02  0.1396767E+00
         -1   -1    0    0    0  501 -0.00000000000E+00  0.00000000000E+00  0.18998596341E+02  0.18998596341E+02  0.00000000000E+00 0. -1.
         21   -1    0    0  505  502  0.00000000000E+00 -0.00000000000E+00 -0.13390256722E+04  0.13390256722E+04  0.00000000000E+00 0. -1.
         21    1    1    2  503  502  0.72054553506E+02 -0.66361859235E+02 -0.27275631524E+03  0.28981332361E+03  0.00000000000E+00 0. -1.
         21    1    1    2  504  501 -0.54007543934E+02  0.10958478526E+02 -0.21689433597E+03  0.22378573688E+03  0.00000000000E+00 0. -1.
         21    1    1    2  505  504 -0.51508773246E+02  0.22318439395E+02 -0.74356025000E+03  0.74567627818E+03  0.00000000000E+00 0. -1.
         -1    1    1    2    0  503  0.33461763674E+02  0.33084941314E+02 -0.86816174662E+02  0.98748929882E+02  0.00000000000E+00 0. -1.
<scales pt_clust_3="14000.00000" pt_clust_4="49.27254" pt_clust_5="60.25450" pt_clust_6="47.05638"></scales>
<clustering>
<clus scale="   47.056">  1  6  2 -1</clus>
<clus scale="   49.273">  1  4  2 -1</clus>
<clus scale="   60.254">  2  5  1 -1</clus>
<clus scale="   60.254">  2  3  1 -1</clus>
</clustering>
</event>
<event>
 6    0  0.3695460E+002  0.2146969E+03  0.7546771E-02  0.1137900E+00
          1   -1    0    0  504    0 -0.00000000000E+00  0.00000000000E+00  0.10576510524E+04  0.10576510524E+04  0.00000000000E+00 0.  1.
         21   -1    0    0  503  502  0.00000000000E+00 -0.00000000000E+00 -0.32935853621E+03  0.32935853621E+03  0.00000000000E+00 0. -1.
         21    1    1    2  503  501 -0.17592271789E+03 -0.26030440920E+02 -0.23110058918E+03  0.29160567354E+03  0.00000000000E+00 0. -1.
         21    1    1    2  504  505  0.11065540371E+02  0.68813571245E+02  0.10693269307E+03  0.12764150821E+03  0.00000000000E+00 0. -1.
         21    1    1    2  505  502 -0.42591605698E+02  0.38455532396E+02 -0.24903226236E+02  0.62554324589E+02  0.00000000000E+00 0. -1.
          1    1    1    2  501    0  0.20744878321E+03 -0.81238662721E+02  0.87736363849E+03  0.90520808222E+03  0.00000000000E+00 0.  1.
<scales pt_clust_3="214.69691" pt_clust_4="70.85034" pt_clust_5="57.38356" pt_clust_6="14000.00000"></scales>
<clustering>
<clus scale="   57.384">  2  5  1 -1</clus>
<clus scale="   70.850">  1  4  2 -1</clus>
<clus scale="  214.697">  2  3  1 -1</clus>
<clus scale="   57.384">  2  3  1 -1</clus>
</clustering>
</event>
<event>
 6    0  0.3695460E+002  0.1347381E+03  0.7546771E-02  0.1220590E+00
         21   -1    0    0  505  502  0.00000000000E+00  0.00000000000E+00  0.45758604878E+03  0.45758604878E+03  0.00000000000E+00 0. -1.
          2   -1    0    0  504    0 -0.00000000000E+00 -0.00000000000E+00 -0.11466764694E+04  0.11466764694E+04  0.00000000000E+00 0. -1.
         21    1    1    2  503  502 -0.74907148495E+02  0.91264719272E+02  0.21829736045E+03  0.24818152119E+03  0.00000000000E+00 0. -1.
         21    1    1    2  504  503  0.12777393433E+03 -0.36418664084E+02 -0.19232430948E+03  0.23375443826E+03  0.00000000000E+00 0. -1.
         21    1    1    2  505  501  0.38144248863E+02  0.46083516300E+02  0.19407536567E+03  0.20308599596E+03  0.00000000000E+00 0. -1.
          2    1    1    2  501    0 -0.91011034701E+02 -0.10092957149E+03 -0.90913883722E+03  0.91924056274E+03  0.00000000000E+00 0. -1.
<scales pt_clust_3="14000.00000" pt_clust_4="131.79460" pt_clust_5="59.82202" pt_clust_6="134.73806"></scales>
<clustering>
<clus scale="   59.822">  1  5  2 -1</clus>
<clus scale="  134.738">  2  6  1 -1</clus>
<clus scale="  131.795">  2  4  1 -1</clus>
<clus scale="   59.822">  1  3  2 -1</clus>
</clustering>
</event>
<event>
 6    0  0.3695460E+002  0.1510316E+03  0.7546771E-02  0.1199211E+00
         21   -1    0    0  505  502  0.00000000000E+00  0.00000000000E+00  0.55741475359E+03  0.55741475359E+03  0.00000000000E+00 0.  1.
          2   -1    0    0  504    0 -0.00000000000E+00 -0.00000000000E+00 -0.21404678514E+03  0.21404678514E+03  0.00000000000E+00 0.  1.
         21    1    1    2  503  502  0.43889641070E+02 -0.40732884969E+02  0.35700188598E+03  0.36198869472E+03  0.00000000000E+00 0.  1.
         21    1    1    2  504  503  0.39293688227E+02 -0.82990466842E+02  0.15310171648E+03  0.17852604043E+03  0.00000000000E+00 0. -1.
         21    1    1    2  505  501 -0.17426709325E+02  0.70860972276E+02 -0.57396725855E+02  0.92840463854E+02  0.00000000000E+00 0.  1.
          2    1    1    2  501    0 -0.65756619972E+02  0.52862379535E+02 -0.10933890815E+03  0.13810633974E+03  0.00000000000E+00 0.  1.
<scales pt_clust_3="59.87878" pt_clust_4="139.64891" pt_clust_5="53.49513" pt_clust_6="53.49513"></scales>
<clustering>
<clus scale="   53.495">  5  6 -1 -1</clus>
<clus scale="   59.879">  1  3  2 -1</clus>
<clus scale="  139.649">  1  4  2 -1</clus>
<clus scale="   59.879">  1  3  2 -1</clus>
</clustering>
</event>
<event>
 6    0  0.3695460E+002  0.6542034E+02  0.7546771E-02  0.1376397E+00
         21   -1    0    0  501  502  0.00000000000E+00  0.00000000000E+00  0.21569385522E+03  0.21569385522E+03  0.00000000000E+00 0. -1.
          1   -1    0    0  504    0 -0.00000000000E+00 -0.00000000000E+00 -0.66564269691E+03  0.66564269691E+03  0.00000000000E+00 0. -1.
         21    1    1    2  503  505  0.30146875245E+02  0.88116177371E+02  0.99848368837E+02  0.13653934071E+03  0.00000000000E+00 0. -1.
         21    1    1    2  504  503  0.30200888190E+02  0.17089185776E+02 -0.53333157471E+02  0.63628292479E+02  0.00000000000E+00 0. -1.
         21    1    1    2  505  502 -0.42211390079E+02 -0.36481160616E+02  0.81546083459E+02  0.98805061914E+02  0.00000000000E+00 0. -1.
          1    1    1    2  501    0 -0.18136373357E+02 -0.68724202531E+02 -0.57801013651E+03  0.58236385702E+03  0.00000000000E+00 0. -1.
<scales pt_clust_3="65.42034" pt_clust_4="34.70063" pt_clust_5="14000.00000" pt_clust_6="53.48023"></scales>
<clustering>
<clus scale="   34.701">  2  4  1 -1</clus>
<clus scale="   53.480">  2  6  1 -1</clus>
<clus scale="   65.420">  2  3  1 -1</clus>
<clus scale="   65.420">  1  3  2 -1</clus>
</clustering>
</event>
<event>
 6    0  0.3695460E+002  0.1201283E+03  0.7546771E-02  0.1242886E+00
          2   -1    0    0  505    0 -0.00000000000E+00  0.00000000000E+00  0.10327738101E+03  0.10327738101E+03  0.00000000000E+00 0. -1.
         21   -1    0    0  504  502  0.00000000000E+00 -0.00000000000E+00 -0.41419022592E+03  0.41419022592E+03  0.00000000000E+00 0.  1.
         21    1    1    2  503  501 -0.23597490886E+02  0.38027224888E+02 -0.91011070134E+02  0.10141955579E+03  0.00000000000E+00 0.  1.
         21    1    1    2  504  503  0.53577552384E+01  0.78712930068E+02 -0.25768057844E+03  0.26948786876E+03  0.00000000000E+00 0.  1.
         21    1    1    2  505  502  0.34305781302E+02 -0.29958709153E+02  0.36382251545E+02  0.58293045145E+02  0.00000000000E+00 0. -1.
          2    1    1    2  501    0 -0.16066045654E+02 -0.86781445802E+02  0.13965521185E+01  0.88267137239E+02  0.00000000000E+00 0. -1.
<scales pt_clust_3="33.89664" pt_clust_4="33.89664" pt_clust_5="45.54570" pt_clust_6="111.37909"></scales>
<clustering>
<clus scale="   33.897">  3  4 -1 -1</clus>
<clus scale="   45.546">  1  5  2 -1</clus>
<clus scale="  111.379">  1  6  2 -1</clus>
<clus scale="  120.128">  2  3  1 -1</clus>
</clustering>
</event>
<event>
 6    0  0.3695460E+002  0.2406884E+03  0.7546771E-02  0.1119335E+00
         -2   -1    0    0    0  501 -0.00000000000E+00  0.00000000000E+00  0.16155599673E+03  0.16155599673E+03  0.00000000000E+00 0. -1.
         21   -1    0    0  503  502  0.00000000000E+00 -0.00000000000E+00 -0.13771558876E+04  0.13771558876E+04  0.00000000000E+00 0. -1.
         21    1    1    2  503  501  0.21371253379E+03 -0.13919491824E+03 -0.11510684952E+04  0.11789855609E+04  0.00000000000E+00 0. -1.
         21    1    1    2  504  505 -0.90640083126E+01  0.51400432168E+02 -0.28425229768E+01  0.52270839008E+02  0.00000000000E+00 0. -1.
         21    1    1    2  505  502 -0.43202108096E+02 -0.78748960974E+00 -0.10906088435E+03  0.11730864750E+03  0.00000000000E+00 0. -1.
         -2    1    1    2    0  504 -0.16144641738E+03  0.88581975681E+02  0.47372011587E+02  0.19014683690E+03  0.00000000000E+00 0. -1.
<scales pt_clust_3="223.19577" pt_clust_4="47.75399" pt_clust_5="43.20928" pt_clust_6="47.75399"></scales>
<clustering>
<clus scale="   43.209">  2  5  1 -1</clus>
<clus scale="   47.754">  4  6 -1 -1</clus>
<clus scale="  223.196">  2  3  1 -1</clus>
<clus scale="   43.209">  2  3  1 -1</clus>
</clustering>
</event>
<event>
 6    0  0.3695460E+002  0.1460886E+03  0.7546771E-02  0.1205363E+00
         21   -1    0    0  503  502  0.00000000000E+00  0.00000000000E+00  0.15811968474E+04  0.15811968474E+04  0.00000000000E+00 0.  1.
          1   -1    0    0  504    0 -0.00000000000E+00 -0.00000000000E+00 -0.21779995737E+03  0.21779995737E+03  0.00000000000E+00 0.  1.
         21    1    1    2  503  501 -0.35614535074E+02  0.12732593673E+01  0.10374529073E+03  0.10969549511E+03  0.00000000000E+00 0.  1.
         21    1    1    2  504  505  0.44630618175E+02  0.24751989140E+02  0.35321910800E+02  0.62066016689E+02  0.00000000000E+00 0.  1.
         21    1    1    2  505  502 -0.86711630243E+02 -0.86233885584E+02  0.14109881665E+04  0.14162777961E+04  0.00000000000E+00 0.  1.
          1    1    1    2  501    0  0.77695547143E+02  0.60208637077E+02 -0.18665847804E+03  0.21095749679E+03  0.00000000000E+00 0.  1.
<scales pt_clust_3="35.63729" pt_clust_4="50.03034" pt_clust_5="146.08863" pt_clust_6="14000.00000"></scales>
<clustering>
<clus scale="   35.637">  1  3  2 -1</clus>
<clus scale="   50.030">  2  4  1 -1</clus>
<clus scale="  146.089">  1  5  2 -1</clus>
<clus scale="   35.637">  1  3  2 -1</clus>
</clustering>
</event>
<event>
 6    0  0.3695460E+002  0.7073606E+02  0.7546771E-02  0.1357608E+00
         21   -1    0    0  505  502  0.00000000000E+00  0.00000000000E+00  0.14885408824E+04  0.14885408824E+04  0.00000000000E+00 0.  1.
          2   -1    0    0  504    0 -0.00000000000E+00 -0.00000000000E+00 -0.13307140758E+03  0.13307140758E+03  0.00000000000E+00 0. -1.
         21    1    1    2  503  502  0.54500178006E+02  0.23538813212E+02  0.20148535703E+03  0.21004926619E+03  0.00000000000E+00 0. -1.
         21    1    1    2  504  503  0.13022172397E+02 -0.31019641157E+02 -0.15904541764E+01  0.33679736578E+02  0.00000000000E+00 0.  1.
         21    1    1    2  505  501 -0.11389485281E+03  0.16521725919E+02  0.12589624700E+04  0.12642118120E+04  0.00000000000E+00 0.  1.
          2    1    1    2  501    0  0.46372502409E+02 -0.90408979741E+01 -0.10338789799E+03  0.11367147517E+03  0.00000000000E+00 0. -1.
<scales pt_clust_3="59.36653" pt_clust_4="33.64216" pt_clust_5="14000.00000" pt_clust_6="70.73606"></scales>
<clustering>
<clus scale="   33.642">  2  4  1 -1</clus>
<clus scale="   59.367">  1  3  2 -1</clus>
<clus scale="   70.736">  2  6  1 -1</clus>
<clus scale="   59.367">  1  3  2 -1</clus>
</clustering>
</event>
<event>
 6    0  0.3695460E+002  0.1132498E+03  0.7546771E-02  0.1254667E+00
         -2   -1    0    0    0  501 -0.00000000000E+00  0.00000000000E+00  0.76152012543E+03  0.76152012543E+03  0.00000000000E+00 0.  1.
         21   -1    0    0  504  502  0.00000000000E+00 -0.00000000000E+00 -0.38535897631E+03  0.38535897631E+03  0.00000000000E+00 0. -1.
         21    1    1    2  503  505 -0.41752669042E+02  0.36791077113E+02  0.24688283077E+03  0.25307706505E+03  0.00000000000E+00 0. -1.
         21    1    1    2  504  501  0.12532035989E+02  0.27609529627E+02 -0.28926927101E+02  0.41905908459E+02  0.00000000000E+00 0. -1.
         21    1    1    2  505  502  0.68850942029E+02 -0.92748174667E+02 -0.33599684835E+03  0.35529784438E+03  0.00000000000E+00 0. -1.
         -2    1    1    2    0  503 -0.39630308977E+02  0.28347567927E+02  0.49420209380E+03  0.49659828384E+03  0.00000000000E+00 0.  1.
<scales pt_clust_3="41.19389" pt_clust_4="30.32059" pt_clust_5="104.33352" pt_clust_6="41.19389"></scales>
<clustering>
<clus scale="   30.321">  2  4  1 -1</clus>
<clus scale="   41.194">  3  6 -1 -1</clus>
<clus scale="  104.334">  2  5  1 -1</clus>
<clus scale="   30.321">  2  3  1 -1</clus>
</clustering>
</event>
<event>
 6    0  0.3695460E+002  0.1943027E+03  0.7546771E-02  0.1154637E+00
          2   -1    0    0  504    0 -0.00000000000E+00  0.00000000000E+00  0.20362414843E+04  0.20362414843E+04  0.00000000000E+00 0.  1.
         21   -1    0    0  505  502  0.00000000000E+00 -0.00000000000E+00 -0.42884414080E+02  0.42884414080E+02  0.00000000000E+00 0.  1.
         21    1    1    2  503  502  0.13536701185E+03 -0.12443546821E+03  0.20123422530E+03  0.27258691656E+03  0.00000000000E+00 0.  1.
         21    1    1    2  504  503 -0.33886628647E+02 -0.16525220791E+02  0.19812734156E+03  0.20168249799E+03  0.00000000000E+00 0. -1.
         21    1    1    2  505  501 -0.70892794719E+02  0.99651459990E+02  0.81026558626E+03  0.81944281197E+03  0.00000000000E+00 0.  1.
          2    1    1    2  501    0 -0.30587588485E+02  0.41309229015E+02  0.78372991710E+03  0.78541367185E+03  0.00000000000E+00 0.  1.
<scales pt_clust_3="182.15120" pt_clust_4="37.70128" pt_clust_5="45.31021" pt_clust_6="45.31021"></scales>
<clustering>
<clus scale="   37.701">  1  4  2 -1</clus>
<clus scale="   45.310">  5  6 -1 -1</clus>
<clus scale="  182.151">  2  3  1 -1</clus>
<clus scale="  182.151">  2  3  1 -1</clus>
</clustering>
</event>
<event>
 6    0  0.3695460E+002  0.1441911E+03  0.7546771E-02  0.1207798E+00
         21   -1    0    0  505  502  0.00000000000E+00  0.00000000000E+00  0.87384087430E+02  0.87384087430E+02  0.00000000000E+00 0. -1.
          1   -1    0    0  503    0 -0.00000000000E+00 -0.00000000000E+00 -0.45051823903E+03  0.45051823903E+03  0.00000000000E+00 0.  1.
         21    1    1    2  503  504 -0.30530590120E+02  0.10251275616E+02 -0.38987345109E+02  0.50568949598E+02  0.00000000000E+00 0.  1.
         21    1    1    2  504  502 -0.12045474999E+03  0.41881751884E+02 -0.68520242063E+01  0.12771209094E+03  0.00000000000E+00 0. -1.
         21    1    1    2  505  501  0.83311693454E+02 -0.75133548597E+01 -0.11956714121E+03  0.14592323333E+03  0.00000000000E+00 0.  1.
          1    1    1    2  501    0  0.67673646658E+02 -0.44619672640E+02 -0.19772764108E+03  0.21369805260E+03  0.00000000000E+00 0.  1.
<scales pt_clust_3="32.20568" pt_clust_4="132.86838" pt_clust_5="52.85818" pt_clust_6="52.85818"></scales>
<clustering>
<clus scale="   32.206">  2  3  1 -1</clus>
<clus scale="   52.858">  5  6 -1 -1</clus>
<clus scale="  132.868">  1  4  2 -1</clus>
<clus scale="  132.868">  1  3  2 -1</clus>
</clustering>
</event>
<event>
 6    0  0.3695460E+002  0.6689824E+02  0.7546771E-02  0.1370970E+00
          2   -1    0    0  504    0 -0.00000000000E+00  0.00000000000E+00  0.87721825840E+03  0.87721825840E+03  0.00000000000E+00 0. -1.
         21   -1    0    0  505  502  0.00000000000E+00 -0.00000000000E+00 -0.93614574112E+02  0.93614574112E+02  0.00000000000E+00 0.  1.
         21    1    1    2  503  502  0.30532547704E+02  0.68743569795E+02 -0.49230664800E+02  0.89897570679E+02  0.00000000000E+00 0.  1.
         21    1    1    2  504  503 -0.30379569434E+02  0.11151977903E+02  0.10997897271E+03  0.11464143792E+03  0.00000000000E+00 0. -1.
         21    1    1    2  505  501 -0.60202295856E+02 -0.17945984726E+02  0.32803312926E+02  0.70869119742E+02  0.00000000000E+00 0.  1.
          2    1    1    2  501    0  0.60049317586E+02 -0.61949562973E+02  0.69005206345E+03  0.69542470417E+03  0.00000000000E+00 0. -1.
<scales pt_clust_3="14000.00000" pt_clust_4="32.36178" pt_clust_5="66.89824" pt_clust_6="61.21272"></scales>
<clustering>
<clus scale="   32.362">  1  4  2 -1</clus>
<clus scale="   61.213">  1  6  2 -1</clus>
<clus scale="   66.898">  1  5  2 -1</clus>
<clus scale="   66.898">  2  3  1 -1</clus>
</clustering>
</event>
<event>
 6    0  0.3695460E+002  0.1006176E+03  0.7546771E-02  0.1279003E+00
         -1   -1    0    0    0  501 -0.00000000000E+00  0.00000000000E+00  0.94470377128E+03  0.94470377128E+03  0.00000000000E+00 0. -1.
         21   -1    0    0  503  502  0.00000000000E+00 -0.00000000000E+00 -0.20217771083E+03  0.20217771083E+03  0.00000000000E+00 0.  1.
         21    1    1    2  503  501 -0.30291330885E+02  0.23055634157E+02 -0.17116373785E+02  0.41738438456E+02  0.00000000000E+00 0.  1.
         21    1    1    2  504  502  0.77615760961E+02 -0.10062574674E+03 -0.14624268480E+03  0.19374382601E+03  0.00000000000E+00 0.  1.
         21    1    1    2  505  504 -0.34672376413E+01  0.33971601604E+02  0.20853066198E+03  0.21130813624E+03  0.00000000000E+00 0.  1.
         -1    1    1    2    0  505 -0.43857192434E+02  0.43598510983E+02  0.69735445706E+03  0.70009108141E+03  0.00000000000E+00 0. -1.
<scales pt_clust_3="38.06740" pt_clust_4="91.43269" pt_clust_5="31.20974" pt_clust_6="31.20974"></scales>
<clustering>
<clus scale="   31.210">  5  6 -1 -1</clus>
<clus scale="   38.067">  2  3  1 -1</clus>
<clus scale="   91.433">  2  4  1 -1</clus>
<clus scale="   38.067">  2  3  1 -1</clus>
</clustering>
</event>
<event>
 6    0  0.3695460E+002  0.6546088E+02  0.7546771E-02  0.1376246E+00
          2   -1    0    0  505    0 -0.00000000000E+00  0.00000000000E+00  0.11490214774E+04  0.11490214774E+04  0.00000000000E+00 0. -1.
         21   -1    0    0  504  502  0.00000000000E+00 -0.00000000000E+00 -0.33187738694E+03  0.33187738694E+03  0.00000000000E+00 0. -1.
         21    1    1    2  503  502  0.64705834767E+02  0.53710121951E+02 -0.27408855781E+03  0.28669872650E+03  0.00000000000E+00 0. -1.
         21    1    1    2  504  501 -0.14625864789E+02 -0.33936493352E+02 -0.38372057260E+02  0.53273035207E+02  0.00000000000E+00 0.  1.
         21    1    1    2  505  503 -0.10078146060E+03  0.20208114071E+01  0.59463426259E+03  0.60311764418E+03  0.00000000000E+00 0. -1.
          2    1    1    2  501    0  0.50701490622E+02 -0.21794440006E+02  0.53497044290E+03  0.53780945840E+03  0.00000000000E+00 0. -1.
<scales pt_clust_3="54.36071" pt_clust_4="36.95405" pt_clust_5="65.46088" pt_clust_6="14000.00000"></scales>
<clustering>
<clus scale="   36.954">  2  4  1 -1</clus>
<clus scale="   54.361">  2  3  1 -1</clus>
<clus scale="   65.461">  2  5  1 -1</clus>
<clus scale="   36.954">  2  3  1 -1</clus>
</clustering>
</event>
<event>
 6    0  0.3695460E+002  0.7889714E+02  0.7546771E-02  0.1332211E+00
         21   -1    0    0  504  502  0.00000000000E+00  0.00000000000E+00  0.15304625142E+03  0.15304625142E+03  0.00000000000E+00 0.  1.
         -1   -1    0    0    0  501 -0.00000000000E+00 -0.00000000000E+00 -0.12671345808E+04  0.12671345808E+04  0.00000000000E+00 0.  1.
         21    1    1    2  503  501  0.46941179937E+02  0.55047867596E+02 -0.11402188477E+03  0.13503604077E+03  0.00000000000E+00 0. -1.
         21    1    1    2  504  505 -0.59061136822E+02 -0.23723977946E+02  0.55550281623E+02  0.84480049720E+02  0.00000000000E+00 0.  1.
         21    1    1    2  505  503  0.42439404925E+02 -0.67211722786E+02  0.50093556261E+02  0.93956815342E+02  0.00000000000E+00 0.  1.
         -1    1    1    2    0  502 -0.30319448040E+02  0.35887833137E+02 -0.11057102825E+04  0.11067079264E+04  0.00000000000E+00 0.  1.
<scales pt_clust_3="78.89714" pt_clust_4="65.09790" pt_clust_5="14000.00000" pt_clust_6="46.98091"></scales>
<clustering>
<clus scale="   46.981">  2  6  1 -1</clus>
<clus scale="   65.098">  1  4  2 -1</clus>
<clus scale="   78.897">  2  3  1 -1</clus>
<clus scale="   65.098">  1  3  2 -1</clus>
</clustering>
</event>
<event>
 6    0  0.3695460E+002  0.9917684E+02  0.7546771E-02  0.1282037E+00
         21   -1    0    0  505  502  0.00000000000E+00  0.00000000000E+00  0.16185604216E+03  0.16185604216E+03  0.00000000000E+00 0. -1.
          2   -1    0    0  503    0 -0.00000000000E+00 -0.00000000000E+00 -0.93808038395E+03  0.93808038395E+03  0.00000000000E+00 0.  1.
         21    1    1    2  503  504  0.28111523418E+02  0.18642013427E+02 -0.15754949129E+03  0.16111990758E+03  0.00000000000E+00 0.  1.
         21    1    1    2  504  502  0.80386140689E+01 -0.97034063050E+02  0.12362568326E+03  0.15736434879E+03  0.00000000000E+00 0. -1.
         21    1    1    2  505  501 -0.35930736320E+02  0.11795830360E+03 -0.18248829781E+03  0.22024340635E+03  0.00000000000E+00 0.  1.
          2    1    1    2  501    0 -0.21940116746E+00 -0.39566253981E+02 -0.55981223595E+03  0.56120876340E+03  0.00000000000E+00 0.  1.
<scales pt_clust_3="33.73103" pt_clust_4="99.17684" pt_clust_5="14000.00000" pt_clust_6="32.92885"></scales>
<clustering>
<clus scale="   33.731">  2  3  1 -1</clus>
<clus scale="   32.929">  2  6  1 -1</clus>
<clus scale="   99.177">  1  4  2 -1</clus>
<clus scale="   99.177">  1  3  2 -1</clus>
</clustering>
</event>
<event>
 6    0  0.3695460E+002  0.2080215E+03  0.7546771E-02  0.1143142E+00
          2   -1    0    0  504    0 -0.00000000000E+00  0.00000000000E+00  0.24605585582E+04  0.24605585582E+04  0.00000000000E+00 0. -1.
         21   -1    0    0  503  502  0.00000000000E+00 -0.00000000000E+00 -0.31747303150E+02  0.31747303150E+02  0.00000000000E+00 0. -1.
         21    1    1    2  503  501  0.13584253587E+03  0.63587038495E+02  0.17089692256E+04  0.17155384927E+04  0.00000000000E+00 0. -1.
         21    1    1    2  504  505 -0.62622835292E+02  0.91938896417E+01  0.14141613896E+03  0.15493441021E+03  0.00000000000E+00 0. -1.
         21    1    1    2  505  502 -0.12429647749E+03 -0.59386443765E+02  0.22022030600E+03  0.25975632272E+03  0.00000000000E+00 0. -1.
          2    1    1    2  501    0  0.51076776911E+02 -0.13394484371E+02  0.35820558448E+03  0.36207663568E+03  0.00000000000E+00 0. -1.
<scales pt_clust_3="45.24511" pt_clust_4="41.39480" pt_clust_5="202.94700" pt_clust_6="45.24511"></scales>
<clustering>
<clus scale="   41.395">  4  5 -1 -1</clus>
<clus scale="   45.245">  3  6 -1 -1</clus>
<clus scale="  202.947">  2  4  1 -1</clus>
<clus scale="  202.947">  2  3  1 -1</clus>
</clustering>
</event>
<event>
 6    0  0.3695460E+002  0.1462853E+03  0.7546771E-02  0.1205113E+00
         21   -1    0    0  504  502  0.00000000000E+00  0.00000000000E+00  0.87719149721E+02  0.87719149721E+02  0.00000000000E+00 0.  1.
          2   -1    0    0  503    0 -0.00000000000E+00 -0.00000000000E+00 -0.16910600117E+04  0.16910600117E+04  0.00000000000E+00 0. -1.
         21    1    1    2  503  505  0.64746860940E+02  0.25869052924E+02 -0.16928972583E+02  0.71749243992E+02  0.00000000000E+00 0.  1.
         21    1    1    2  504  501 -0.46310727009E+02 -0.38312475178E+02 -0.61694370562E+03  0.61986455383E+03  0.00000000000E+00 0.  1.
         21    1    1    2  505  502  0.59837231245E+02  0.27095104197E+02  0.38446175137E+02  0.76110099837E+02  0.00000000000E+00 0.  1.
          2    1    1    2  501    0 -0.78273365176E+02 -0.14651681944E+02 -0.10079143589E+04  0.10110552637E+04  0.00000000000E+00 0. -1.
<scales pt_clust_3="53.80563" pt_clust_4="32.61460" pt_clust_5="53.80563" pt_clust_6="140.48388"></scales>
<clustering>
<clus scale="   32.615">  4  6 -1 -1</clus>
<clus scale="   53.806">  3  5 -1 -1</clus>
<clus scale="  140.484">  2  4  1 -1</clus>
<clus scale="  146.285">  1  3  2 -1</clus>
</clustering>
</event>
<event>
 6    0  0.3695460E+002  0.8622876E+02  0.7546771E-02  0.1312250E+00
         21   -1    0    0  503  502  0.00000000000E+00  0.00000000000E+00  0.48384703883E+02  0.48384703883E+02  0.00000000000E+00 0.  1.
          1   -1    0    0  505    0 -0.00000000000E+00 -0.00000000000E+00 -0.81083609527E+03  0.81083609527E+03  0.00000000000E+00 0.  1.
         21    1    1    2  503  504  0.69124980524E+02  0.84559019789E+02 -0.11947707757E+03  0.16187421915E+03  0.00000000000E+00 0.  1.
         21    1    1    2  504  501  0.70452670255E+02 -0.39439518966E+02 -0.13280019415E+03  0.15541861526E+03  0.00000000000E+00 0.  1.
         21    1    1    2  505  502 -0.47316598118E+02 -0.42105892803E+02 -0.80399563949E+02  0.10235163188E+03  0.00000000000E+00 0.  1.
          1    1    1    2  501    0 -0.92261052661E+02 -0.30136080203E+01 -0.42977455572E+03  0.43957633286E+03  0.00000000000E+00 0.  1.
<scales pt_clust_3="73.99065" pt_clust_4="86.22876" pt_clust_5="63.33851" pt_clust_6="14000.00000"></scales>
<clustering>
<clus scale="   63.339">  1  5  2 -1</clus>
<clus scale="   73.991">  1  3  2 -1</clus>
<clus scale="   86.229">  1  4  2 -1</clus>
<clus scale="   63.339">  1  3  2 -1</clus>
</clustering>
</event>
<event>
 6    0  0.3695460E+002  0.1168559E+03  0.7546771E-02  0.1248376E+00
         21   -1    0    0  504  502  0.00000000000E+00  0.00000000000E+00  0.20414572200E+03  0.20414572200E+03  0.00000000000E+00 0. -1.
          1   -1    0    0  505    0 -0.00000000000E+00 -0.00000000000E+00 -0.50769422537E+03  0.50769422537E+03  0.00000000000E+00 0. -1.
         21    1    1    2  503  502 -0.58093794311E+02 -0.37659491381E+02  0.74224702343E+02  0.10150089983E+03  0.00000000000E+00 0. -1.
         21    1    1    2  504  501  0.39340038556E+02 -0.47452834962E+01 -0.78978925231E+01  0.40404616758E+02  0.00000000000E+00 0.  1.
         21    1    1    2  505  503 -0.15723708012E+02 -0.58086776802E+02  0.84257164195E+02  0.10354022576E+03  0.00000000000E+00 0. -1.
          1    1    1    2  501    0  0.34477463767E+02  0.10049155168E+03 -0.45413247738E+03  0.46639420502E+03  0.00000000000E+00 0. -1.
<scales pt_clust_3="46.30822" pt_clust_4="39.62520" pt_clust_5="46.30822" pt_clust_6="106.51908"></scales>
<clustering>
<clus scale="   39.625">  1  4  2 -1</clus>
<clus scale="   46.308">  3  5 -1 -1</clus>
<clus scale="  106.519">  2  6  1 -1</clus>
<clus scale="   39.625">  1  3  2 -1</clus>
</clustering>
</event>
<event>
 6    0  0.3695460E+002  0.9807531E+02  0.7546771E-02  0.1284396E+00
          2   -1    0    0  505    0 -0.00000000000E+00  0.00000000000E+00  0.39285294202E+04  0.39285294202E+04  0.00000000000E+00 0. -1.
         21   -1    0    0  503  502  0.00000000000E+00 -0.00000000000E+00 -0.49111780498E+02  0.49111780498E+02  0.00000000000E+00 0. -1.
         21    1    1    2  503  501  0.97390756185E+02 -0.10264009105E+03  0.69160377441E+02  0.15749001711E+03  0.00000000000E+00 0. -1.
         21    1    1    2  504  502 -0.43667388684E+02  0.54908986276E+01  0.13919387009E+03  0.14598604136E+03  0.00000000000E+00 0. -1.
         21    1    1    2  505  504 -0.24301206651E+02  0.50155046249E+02  0.59555855250E+03  0.59816056938E+03  0.00000000000E+00 0. -1.
          2    1    1    2  501    0 -0.29422160850E+02  0.46994146170E+02  0.30755048396E+04  0.30760045728E+04  0.00000000000E+00 0. -1.
<scales pt_clust_3="98.07531" pt_clust_4="44.01126" pt_clust_5="14000.00000" pt_clust_6="55.59709"></scales>
<clustering>
<clus scale="   44.011">  2  4  1 -1</clus>
<clus scale="   55.597">  1  6  2 -1</clus>
<clus scale="   98.075">  2  3  1 -1</clus>
<clus scale="   44.011">  2  3  1 -1</clus>
</clustering>
</event>
<event>
 6    0  0.3695460E+002  0.1057008E+03  0.7546771E-02  0.1268745E+00
         21   -1    0    0  503  502  0.00000000000E+00  0.00000000000E+00  0.24208173415E+03  0.24208173415E+03  0.00000000000E+00 0.  1.
          1   -1    0    0  505    0 -0.00000000000E+00 -0.00000000000E+00 -0.19122571354E+03  0.19122571354E+03  0.00000000000E+00 0.  1.
         21    1    1    2  503  504 -0.23225654375E+02 -0.35913335913E+02  0.30761896800E+02  0.52682948022E+02  0.00000000000E+00 0.  1.
         21    1    1    2  504  501  0.66550589446E+01 -0.75766829852E+02 -0.53082338814E+01  0.76243554890E+02  0.00000000000E+00 0.  1.
         21    1    1    2  505  502 -0.50614591078E+02  0.73344145014E+02  0.14009833071E+03  0.16603837721E+03  0.00000000000E+00 0.  1.
          1    1    1    2  501    0  0.67185186508E+02  0.38336020751E+02 -0.11469597302E+03  0.13834256757E+03  0.00000000000E+00 0.  1.
<scales pt_clust_3="42.59887" pt_clust_4="42.59887" pt_clust_5="89.13782" pt_clust_6="77.35309"></scales>
<clustering>
<clus scale="   42.599">  3  4 -1 -1</clus>
<clus scale="   77.353">  2  6  1 -1</clus>
<clus scale="   89.138">  1  5  2 -1</clus>
<clus scale="   89.138">  1  3  2 -1</clus>
</clustering>
</event>
<event>
 6    0  0.3695460E+002  0.2290072E+03  0.7546771E-02  0.1127341E+00
          2   -1    0    0  502    0 -0.00000000000E+00  0.00000000000E+00  0.22462838436E+04  0.22462838436E+04  0.00000000000E+00 0.  1.
         21   -1    0    0  505  502  0.00000000000E+00 -0.00000000000E+00 -0.84197726634E+02  0.84197726634E+02  0.00000000000E+00 0.  1.
         21    1    1    2  503  504 -0.97441551759E+02  0.13426338845E+03  0.42667448230E+02  0.17129513895E+03  0.00000000000E+00 0.  1.
         21    1    1    2  504  501  0.38577837655E+02 -0.93977953552E+02  0.10540550555E+04  0.10589391698E+04  0.00000000000E+00 0.  1.
         21    1    1    2  505  503 -0.46281383609E+02  0.28758359776E+02  0.41003938302E+02  0.68193347785E+02  0.00000000000E+00 0.  1.
          2    1    1    2  501    0  0.10514509771E+03 -0.69043794679E+02  0.10243596749E+04  0.10320539137E+04  0.00000000000E+00 0.  1.
<scales pt_clust_3="224.39660" pt_clust_4="64.87845" pt_clust_5="32.01945" pt_clust_6="64.87845"></scales>
<clustering>
<clus scale="   32.019">  3  5 -1 -1</clus>
<clus scale="   64.878">  4  6 -1 -1</clus>
<clus scale="  224.397">  2  3  1 -1</clus>
<clus scale="  224.397">  2  3  1 -1</clus>
</clustering>
</event>
